Membrane in water t=  30.00000 step= 30000
48143
  945MPD0     C    1   1.335   2.857   7.553
  945MPD0    C1    2   1.390   2.746   7.493
  945MPD0    C2    3   1.477   2.664   7.568
  945MPD0    C3    4   1.488   2.686   7.705
  945MPD0    C4    5   1.421   2.789   7.768
  945MPD0    C5    6   1.352   2.875   7.692
  945MPD0     H    7   1.552   2.601   7.520
  945MPD0    H1    8   1.439   2.821   7.870
  945MPD0    H2    9   1.275   2.923   7.491
  945MPD0    H3   10   1.310   2.961   7.743
  945MPD0     N   11   1.548   2.588   7.780
  945MPD0    H4   12   1.581   2.619   7.871
  945MPD0    H5   13   1.632   2.552   7.735
  945MPD0    N1   14   1.393   2.739   7.355
  945MPD0    H6   15   1.311   2.792   7.326
  945MPD0    H7   16   1.378   2.642   7.331
  946MPD0     C   17   2.686   0.393  11.603
  946MPD0    C1   18   2.646   0.269  11.640
  946MPD0    C2   19   2.722   0.200  11.736
  946MPD0    C3   20   2.845   0.250  11.783
  946MPD0    C4   21   2.887   0.370  11.733
  946MPD0    C5   22   2.805   0.441  11.655
  946MPD0     H   23   2.681   0.111  11.782
  946MPD0    H1   24   2.983   0.405  11.770
  946MPD0    H2   25   2.636   0.468  11.543
  946MPD0    H3   26   2.842   0.533  11.613
  946MPD0     N   27   2.931   0.170  11.858
  946MPD0    H4   28   2.987   0.228  11.920
  946MPD0    H5   29   2.872   0.116  11.921
  946MPD0    N1   30   2.518   0.230  11.603
  946MPD0    H6   31   2.505   0.250  11.504
  946MPD0    H7   32   2.509   0.131  11.626
  947MPD0     C   33   4.557   3.960  13.306
  947MPD0    C1   34   4.530   4.018  13.431
  947MPD0    C2   35   4.403   4.008  13.496
  947MPD0    C3   36   4.299   3.954  13.419
  947MPD0    C4   37   4.323   3.890  13.305
  947MPD0    C5   38   4.456   3.884  13.249
  947MPD0     H   39   4.396   4.053  13.594
  947MPD0    H1   40   4.245   3.827  13.265
  947MPD0    H2   41   4.651   3.967  13.251
  947MPD0    H3   42   4.474   3.847  13.149
  947MPD0     N   43   4.179   3.928  13.481
  947MPD0    H4   44   4.169   3.990  13.561
  947MPD0    H5   45   4.092   3.918  13.429
  947MPD0    N1   46   4.635   4.082  13.496
  947MPD0    H6   47   4.717   4.088  13.436
  947MPD0    H7   48   4.612   4.164  13.552
  948MPD0     C   49   0.854   2.391   6.485
  948MPD0    C1   50   0.961   2.354   6.407
  948MPD0    C2   51   1.075   2.321   6.473
  948MPD0    C3   52   1.074   2.317   6.616
  948MPD0    C4   53   0.962   2.336   6.689
  948MPD0    C5   54   0.851   2.383   6.625
  948MPD0     H   55   1.171   2.307   6.424
  948MPD0    H1   56   0.966   2.317   6.796
  948MPD0    H2   57   0.771   2.441   6.436
  948MPD0    H3   58   0.756   2.395   6.676
  948MPD0     N   59   1.189   2.269   6.684
  948MPD0    H4   60   1.198   2.295   6.782
  948MPD0    H5   61   1.268   2.317   6.644
  948MPD0    N1   62   0.973   2.386   6.266
  948MPD0    H6   63   0.886   2.372   6.214
  948MPD0    H7   64   1.047   2.331   6.221
  949MPD0     C   65   1.384   3.507   7.463
  949MPD0    C1   66   1.342   3.643   7.459
  949MPD0    C2   67   1.312   3.704   7.580
  949MPD0    C3   68   1.290   3.637   7.699
  949MPD0    C4   69   1.331   3.501   7.694
  949MPD0    C5   70   1.365   3.440   7.577
  949MPD0     H   71   1.301   3.811   7.590
  949MPD0    H1   72   1.329   3.440   7.783
  949MPD0    H2   73   1.406   3.438   7.382
  949MPD0    H3   74   1.387   3.334   7.587
  949MPD0     N   75   1.263   3.704   7.818
  949MPD0    H4   76   1.225   3.647   7.894
  949MPD0    H5   77   1.207   3.788   7.803
  949MPD0    N1   78   1.353   3.711   7.337
  949MPD0    H6   79   1.451   3.726   7.313
  949MPD0    H7   80   1.305   3.800   7.341
  950MPD0     C   81   0.697   2.812  12.650
  950MPD0    C1   82   0.633   2.831  12.766
  950MPD0    C2   83   0.528   2.924  12.784
  950MPD0    C3   84   0.508   3.015  12.675
  950MPD0    C4   85   0.580   3.001  12.554
  950MPD0    C5   86   0.670   2.897  12.546
  950MPD0     H   87   0.482   2.933  12.882
  950MPD0    H1   88   0.564   3.061  12.465
  950MPD0    H2   89   0.773   2.739  12.629
  950MPD0    H3   90   0.732   2.885  12.458
  950MPD0     N   91   0.409   3.115  12.687
  950MPD0    H4   92   0.384   3.138  12.783
  950MPD0    H5   93   0.417   3.196  12.626
  950MPD0    N1   94   0.664   2.749  12.876
  950MPD0    H6   95   0.764   2.729  12.866
  950MPD0    H7   96   0.662   2.792  12.968
  951MPD0     C   97   2.819   1.814  12.688
  951MPD0    C1   98   2.787   1.718  12.783
  951MPD0    C2   99   2.722   1.761  12.902
  951MPD0    C3  100   2.688   1.896  12.921
  951MPD0    C4  101   2.702   1.983  12.814
  951MPD0    C5  102   2.766   1.941  12.702
  951MPD0     H  103   2.702   1.691  12.982
  951MPD0    H1  104   2.660   2.083  12.818
  951MPD0    H2  105   2.877   1.802  12.597
  951MPD0    H3  106   2.785   2.004  12.615
  951MPD0     N  107   2.587   1.935  13.016
  951MPD0    H4  108   2.593   2.036  13.022
  951MPD0    H5  109   2.603   1.887  13.105
  951MPD0    N1  110   2.853   1.596  12.768
  951MPD0    H6  111   2.856   1.565  12.671
  951MPD0    H7  112   2.804   1.527  12.824
  952MPD0     C  113   4.459   4.278   1.877
  952MPD0    C1  114   4.347   4.347   1.827
  952MPD0    C2  115   4.383   4.473   1.775
  952MPD0    C3  116   4.515   4.515   1.747
  952MPD0    C4  117   4.624   4.440   1.795
  952MPD0    C5  118   4.589   4.323   1.858
  952MPD0     H  119   4.303   4.545   1.767
  952MPD0    H1  120   4.726   4.473   1.785
  952MPD0    H2  121   4.452   4.189   1.939
  952MPD0    H3  122   4.662   4.255   1.899
  952MPD0     N  123   4.526   4.649   1.705
  952MPD0    H4  124   4.445   4.694   1.663
  952MPD0    H5  125   4.601   4.670   1.640
  952MPD0    N1  126   4.218   4.326   1.872
  952MPD0    H6  127   4.151   4.368   1.808
  952MPD0    H7  128   4.200   4.226   1.880
  953MPD0     C  129   1.145   3.591  11.779
  953MPD0    C1  130   1.024   3.622  11.823
  953MPD0    C2  131   0.974   3.548  11.934
  953MPD0    C3  132   1.061   3.468  12.013
  953MPD0    C4  133   1.196   3.474  11.987
  953MPD0    C5  134   1.235   3.526  11.867
  953MPD0     H  135   0.867   3.557  11.949
  953MPD0    H1  136   1.264   3.414  12.046
  953MPD0    H2  137   1.189   3.631  11.689
  953MPD0    H3  138   1.336   3.505  11.836
  953MPD0     N  139   1.012   3.412  12.131
  953MPD0    H4  140   1.061   3.327  12.160
  953MPD0    H5  141   0.912   3.394  12.127
  953MPD0    N1  142   0.939   3.692  11.738
  953MPD0    H6  143   0.864   3.740  11.787
  953MPD0    H7  144   0.980   3.750  11.665
  954MPD0     C  145   0.120   0.711  13.781
  954MPD0    C1  146   0.071   0.617  13.697
  954MPD0    C2  147   0.018   0.507  13.754
  954MPD0    C3  148   0.000   0.487  13.889
  954MPD0    C4  149   0.051   0.589  13.969
  954MPD0    C5  150   0.107   0.705  13.918
  954MPD0     H  151   4.787   0.424  13.689
  954MPD0    H1  152   0.048   0.577  14.077
  954MPD0    H2  153   0.157   0.803  13.738
  954MPD0    H3  154   0.143   0.777  13.991
  954MPD0     N  155   4.754   0.368  13.946
  954MPD0    H4  156   4.691   0.312  13.890
  954MPD0    H5  157   4.720   0.384  14.041
  954MPD0    N1  158   0.096   0.623  13.556
  954MPD0    H6  159   0.079   0.714  13.514
  954MPD0    H7  160   0.041   0.560  13.498
  955MPD0     C  161   2.896   2.312   7.978
  955MPD0    C1  162   2.898   2.367   8.101
  955MPD0    C2  163   2.776   2.412   8.147
  955MPD0    C3  164   2.655   2.385   8.084
  955MPD0    C4  165   2.664   2.345   7.952
  955MPD0    C5  166   2.783   2.299   7.904
  955MPD0     H  167   2.774   2.463   8.243
  955MPD0    H1  168   2.576   2.322   7.893
  955MPD0    H2  169   2.990   2.285   7.931
  955MPD0    H3  170   2.780   2.255   7.805
  955MPD0     N  171   2.539   2.445   8.137
  955MPD0    H4  172   2.537   2.425   8.237
  955MPD0    H5  173   2.462   2.414   8.078
  955MPD0    N1  174   3.022   2.399   8.164
  955MPD0    H6  175   3.089   2.328   8.132
  955MPD0    H7  176   3.021   2.407   8.265
  956MPD0     C  177   0.346   3.256   7.252
  956MPD0    C1  178   0.353   3.231   7.114
  956MPD0    C2  179   0.372   3.338   7.038
  956MPD0    C3  180   0.363   3.463   7.075
  956MPD0    C4  181   0.323   3.487   7.205
  956MPD0    C5  182   0.322   3.384   7.295
  956MPD0     H  183   0.393   3.319   6.933
  956MPD0    H1  184   0.289   3.587   7.228
  956MPD0    H2  185   0.352   3.179   7.328
  956MPD0    H3  186   0.296   3.409   7.397
  956MPD0     N  187   0.367   3.565   6.975
  956MPD0    H4  188   0.376   3.662   7.003
  956MPD0    H5  189   0.417   3.553   6.887
  956MPD0    N1  190   0.371   3.093   7.064
  956MPD0    H6  191   0.328   3.084   6.973
  956MPD0    H7  192   0.328   3.030   7.131
  957MPD0     C  193   3.153   4.224  11.565
  957MPD0    C1  194   3.228   4.273  11.668
  957MPD0    C2  195   3.181   4.247  11.798
  957MPD0    C3  196   3.047   4.207  11.819
  957MPD0    C4  197   2.974   4.177  11.710
  957MPD0    C5  198   3.025   4.192  11.581
  957MPD0     H  199   3.246   4.271  11.881
  957MPD0    H1  200   2.877   4.128  11.716
  957MPD0    H2  201   3.190   4.232  11.463
  957MPD0    H3  202   2.964   4.169  11.494
  957MPD0     N  203   2.999   4.182  11.945
  957MPD0    H4  204   3.036   4.236  12.023
  957MPD0    H5  205   2.898   4.175  11.943
  957MPD0    N1  206   3.352   4.327  11.645
  957MPD0    H6  207   3.352   4.387  11.562
  957MPD0    H7  208   3.396   4.372  11.725
    1TMC1    C1  209   4.737   3.894   8.351
    1TMC1    C2  210   0.005   3.938   8.468
    1TMC1    C3  211   4.779   4.069   8.491
    1TMC1    C4  212   4.651   3.968   8.282
    1TMC1    C5  213   4.640   4.094   8.317
    1TMC1    C6  214   4.709   4.156   8.419
    1TMC1     C  215   4.733   3.747   8.330
    1TMC1     O  216   4.641   3.700   8.270
    1TMC1     H  217   0.081   3.888   8.526
    1TMC1    H1  218   4.582   3.925   8.211
    1TMC1    H2  219   4.708   4.262   8.442
    1TMC1    C7  220   4.505   4.146   8.294
    1TMC1    C8  221   0.059   4.137   8.597
    1TMC1    O1  222   4.447   4.224   8.368
    1TMC1    O2  223   0.071   4.256   8.610
    1TMC1    O3  224   4.488   4.164   8.157
    1TMC1    H3  225   4.545   4.114   8.095
    1TMC1    O5  226   0.067   4.050   8.699
    1TMC1    H5  227   0.009   3.973   8.687
    2TMC1    C1  228   3.575   4.134   7.880
    2TMC1    C2  229   3.640   4.193   7.774
    2TMC1    C3  230   3.671   4.117   7.669
    2TMC1    C4  231   3.550   4.004   7.878
    2TMC1    C5  232   3.562   3.934   7.760
    2TMC1    C6  233   3.626   3.991   7.656
    2TMC1     C  234   3.638   4.174   8.007
    2TMC1     O  235   3.696   4.084   8.066
    2TMC1     H  236   3.683   4.292   7.784
    2TMC1    H1  237   3.497   3.966   7.964
    2TMC1    H2  238   3.641   3.923   7.573
    2TMC1    C7  239   3.499   3.807   7.749
    2TMC1    C8  240   3.703   4.192   7.555
    2TMC1    O1  241   3.563   3.708   7.772
    2TMC1    O2  242   3.636   4.293   7.538
    2TMC1    O3  243   3.366   3.829   7.769
    2TMC1    H3  244   3.350   3.922   7.742
    2TMC1    O5  245   3.736   4.105   7.453
    2TMC1    H5  246   3.780   4.026   7.492
    3TMC1    C1  247   0.131   1.000   9.325
    3TMC1    C2  248   0.066   1.070   9.418
    3TMC1    C3  249   0.133   1.114   9.526
    3TMC1    C4  250   0.259   0.959   9.335
    3TMC1    C5  251   0.320   0.998   9.451
    3TMC1    C6  252   0.260   1.084   9.548
    3TMC1     C  253   0.075   0.981   9.196
    3TMC1     O  254   0.151   0.997   9.105
    3TMC1     H  255   4.756   1.100   9.400
    3TMC1    H1  256   0.307   0.891   9.265
    3TMC1    H2  257   0.317   1.139   9.622
    3TMC1    C7  258   0.464   1.038   9.451
    3TMC1    C8  259   0.064   1.209   9.613
    3TMC1    O1  260   0.522   1.053   9.557
    3TMC1    O2  261   0.135   1.290   9.677
    3TMC1    O3  262   0.502   1.088   9.330
    3TMC1    H3  263   0.438   1.051   9.265
    3TMC1    O5  264   4.733   1.167   9.638
    3TMC1    H5  265   4.708   1.087   9.587
    4TMC1    C1  266   2.000   0.168  10.100
    4TMC1    C2  267   2.018   0.152   9.966
    4TMC1    C3  268   1.933   0.068   9.906
    4TMC1    C4  269   1.901   0.103  10.165
    4TMC1    C5  270   1.819   0.021  10.100
    4TMC1    C6  271   1.834   4.787   9.969
    4TMC1     C  272   2.090   0.266  10.171
    4TMC1     O  273   2.131   0.362  10.100
    4TMC1     H  274   2.094   0.210   9.916
    4TMC1    H1  275   1.893   0.114  10.273
    4TMC1    H2  276   1.774   4.709   9.924
    4TMC1    C7  277   1.735   4.716  10.170
    4TMC1    C8  278   1.921   0.087   9.767
    4TMC1    O1  279   1.731   4.598  10.142
    4TMC1    O2  280   1.952   0.190   9.711
    4TMC1    O3  281   1.706   4.763  10.296
    4TMC1    H3  282   1.690   0.066  10.302
    4TMC1    O5  283   1.881   4.768   9.705
    4TMC1    H5  284   1.901   4.685   9.753
    5TMC1    C1  285   0.422   4.368   8.154
    5TMC1    C2  286   0.480   4.448   8.053
    5TMC1    C3  287   0.414   4.471   7.942
    5TMC1    C4  288   0.296   4.326   8.141
    5TMC1    C5  289   0.229   4.354   8.025
    5TMC1    C6  290   0.292   4.421   7.923
    5TMC1     C  291   0.485   4.391   8.289
    5TMC1     O  292   0.555   4.491   8.305
    5TMC1     H  293   0.566   4.504   8.086
    5TMC1    H1  294   0.244   4.289   8.227
    5TMC1    H2  295   0.237   4.448   7.833
    5TMC1    C7  296   0.083   4.369   8.030
    5TMC1    C8  297   0.419   4.605   7.882
    5TMC1    O1  298   0.024   4.459   7.970
    5TMC1    O2  299   0.327   4.673   7.843
    5TMC1    O3  300   0.019   4.266   8.091
    5TMC1    H3  301   0.086   4.200   8.118
    5TMC1    O5  302   0.542   4.650   7.932
    5TMC1    H5  303   0.604   4.576   7.945
    6TMC1    C1  304   0.806   3.712  10.940
    6TMC1    C2  305   0.849   3.785  11.045
    6TMC1    C3  306   0.981   3.825  11.052
    6TMC1    C4  307   0.885   3.661  10.845
    6TMC1    C5  308   1.018   3.704  10.858
    6TMC1    C6  309   1.066   3.788  10.954
    6TMC1     C  310   0.661   3.704  10.930
    6TMC1     O  311   0.585   3.783  10.986
    6TMC1     H  312   0.773   3.824  11.112
    6TMC1    H1  313   0.865   3.600  10.758
    6TMC1    H2  314   1.172   3.810  10.962
    6TMC1    C7  315   1.113   3.645  10.764
    6TMC1    C8  316   1.026   3.906  11.159
    6TMC1    O1  317   1.092   3.543  10.695
    6TMC1    O2  318   1.137   3.954  11.143
    6TMC1    O3  319   1.207   3.737  10.733
    6TMC1    H3  320   1.176   3.819  10.778
    6TMC1    O5  321   0.984   3.840  11.262
    6TMC1    H5  322   0.902   3.789  11.244
    7TMC1    C1  323   0.215   4.066   7.675
    7TMC1    C2  324   0.280   4.022   7.788
    7TMC1    C3  325   0.381   3.927   7.777
    7TMC1    C4  326   0.259   4.014   7.553
    7TMC1    C5  327   0.358   3.926   7.546
    7TMC1    C6  328   0.421   3.882   7.658
    7TMC1     C  329   0.077   4.121   7.682
    7TMC1     O  330   0.021   4.092   7.786
    7TMC1     H  331   0.269   4.071   7.885
    7TMC1    H1  332   0.216   4.037   7.456
    7TMC1    H2  333   0.494   3.802   7.656
    7TMC1    C7  334   0.419   3.878   7.426
    7TMC1    C8  335   0.472   3.915   7.889
    7TMC1    O1  336   0.429   3.945   7.323
    7TMC1    O2  337   0.447   3.987   7.986
    7TMC1    O3  338   0.442   3.752   7.441
    7TMC1    H3  339   0.392   3.717   7.518
    7TMC1    O5  340   0.584   3.846   7.863
    7TMC1    H5  341   0.563   3.771   7.803
    8TMC1    C1  342   1.370   2.106  15.234
    8TMC1    C2  343   1.472   2.084  15.316
    8TMC1    C3  344   1.461   2.143  15.442
    8TMC1    C4  345   1.261   2.175  15.271
    8TMC1    C5  346   1.259   2.227  15.397
    8TMC1    C6  347   1.354   2.209  15.483
    8TMC1     C  348   1.392   2.054  15.094
    8TMC1     O  349   1.501   2.023  15.049
    8TMC1     H  350   1.563   2.039  15.277
    8TMC1    H1  351   1.182   2.201  15.202
    8TMC1    H2  352   1.354   2.247  15.585
    8TMC1    C7  353   1.156   2.318  15.418
    8TMC1    C8  354   1.559   2.126  15.547
    8TMC1    O1  355   1.045   2.297  15.371
    8TMC1    O2  356   1.520   2.092  15.657
    8TMC1    O3  357   1.193   2.426  15.492
    8TMC1    H3  358   1.290   2.423  15.503
    8TMC1    O5  359   1.674   2.076  15.493
    8TMC1    H5  360   1.697   2.114  15.406
    9TMC1    C1  361   0.366   3.156   8.069
    9TMC1    C2  362   0.236   3.132   8.028
    9TMC1    C3  363   0.202   3.000   8.008
    9TMC1    C4  364   0.463   3.058   8.081
    9TMC1    C5  365   0.421   2.929   8.043
    9TMC1    C6  366   0.293   2.895   8.006
    9TMC1     C  367   0.400   3.301   8.074
    9TMC1     O  368   0.300   3.376   8.081
    9TMC1     H  369   0.163   3.211   8.018
    9TMC1    H1  370   0.559   3.086   8.122
    9TMC1    H2  371   0.275   2.791   7.981
    9TMC1    C7  372   0.508   2.819   8.068
    9TMC1    C8  373   0.065   2.979   7.952
    9TMC1    O1  374   0.628   2.820   8.050
    9TMC1    O2  375   4.768   3.050   7.995
    9TMC1    O3  376   0.433   2.737   8.140
    9TMC1    H3  377   0.361   2.771   8.197
    9TMC1    O5  378   0.081   2.932   7.823
    9TMC1    H5  379   0.163   2.882   7.802
   10TMC2    C1  380   1.697   3.518  11.196
   10TMC2    C2  381   1.758   3.552  11.083
   10TMC2    C3  382   1.761   3.457  10.981
   10TMC2    C4  383   1.630   3.406  11.204
   10TMC2    C5  384   1.619   3.326  11.100
   10TMC2    C6  385   1.690   3.335  10.988
   10TMC2     C  386   1.767   3.558  11.317
   10TMC2     O  387   1.809   3.670  11.333
   10TMC2     H  388   1.811   3.645  11.062
   10TMC2    H1  389   1.589   3.390  11.303
   10TMC2    H2  390   1.680   3.268  10.903
   10TMC2    C7  391   1.521   3.213  11.112
   10TMC2    C8  392   1.779   3.512  10.853
   10TMC2    O1  393   1.542   3.122  11.032
   10TMC2    O2  394   1.725   3.616  10.816
   10TMC2    O5  395   1.809   3.411  10.780
   10TMC2    H5  396   1.853   3.345  10.838
   11TMC2    C1  397   3.780   3.446  10.632
   11TMC2    C2  398   3.891   3.369  10.619
   11TMC2    C3  399   3.940   3.304  10.727
   11TMC2    C4  400   3.717   3.467  10.748
   11TMC2    C5  401   3.775   3.401  10.861
   11TMC2    C6  402   3.881   3.315  10.848
   11TMC2     C  403   3.744   3.517  10.515
   11TMC2     O  404   3.745   3.442  10.417
   11TMC2     H  405   3.938   3.362  10.521
   11TMC2    H1  406   3.651   3.552  10.754
   11TMC2    H2  407   3.939   3.270  10.928
   11TMC2    C7  408   3.781   3.486  10.982
   11TMC2    C8  409   4.074   3.239  10.719
   11TMC2    O1  410   3.859   3.453  11.069
   11TMC2    O2  411   4.142   3.210  10.816
   11TMC2    O5  412   4.072   3.159  10.609
   11TMC2    H5  413   3.997   3.168  10.547
   12TMC2    C1  414   4.641   0.061  10.688
   12TMC2    C2  415   4.685   0.106  10.567
   12TMC2    C3  416   4.606   0.102  10.458
   12TMC2    C4  417   4.523   4.788  10.705
   12TMC2    C5  418   4.448   4.775  10.589
   12TMC2    C6  419   4.487   0.044  10.470
   12TMC2     C  420   4.731   0.072  10.798
   12TMC2     O  421   4.670   0.095  10.906
   12TMC2     H  422   4.772   0.171  10.561
   12TMC2    H1  423   4.493   4.739  10.797
   12TMC2    H2  424   4.433   0.018  10.379
   12TMC2    C7  425   4.335   4.681  10.597
   12TMC2    C8  426   4.642   0.190  10.355
   12TMC2    O1  427   4.336   4.605  10.695
   12TMC2    O2  428   4.755   0.221  10.323
   12TMC2    O5  429   4.519   0.235  10.309
   12TMC2    H5  430   4.442   0.198  10.357
   13TMC2    C1  431   4.341   2.526   8.842
   13TMC2    C2  432   4.404   2.427   8.912
   13TMC2    C3  433   4.445   2.466   9.038
   13TMC2    C4  434   4.302   2.646   8.909
   13TMC2    C5  435   4.339   2.667   9.041
   13TMC2    C6  436   4.415   2.583   9.098
   13TMC2     C  437   4.309   2.502   8.704
   13TMC2     O  438   4.320   2.593   8.629
   13TMC2     H  439   4.419   2.327   8.872
   13TMC2    H1  440   4.235   2.714   8.858
   13TMC2    H2  441   4.461   2.619   9.189
   13TMC2    C7  442   4.218   2.692   9.122
   13TMC2    C8  443   4.449   2.360   9.128
   13TMC2    O1  444   4.233   2.634   9.229
   13TMC2    O2  445   4.482   2.249   9.093
   13TMC2    O5  446   4.368   2.387   9.221
   13TMC2    H5  447   4.321   2.473   9.217
   14TMC2    C1  448   2.601   0.153   9.116
   14TMC2    C2  449   2.729   0.162   9.174
   14TMC2    C3  450   2.832   0.203   9.096
   14TMC2    C4  451   2.575   0.163   8.988
   14TMC2    C5  452   2.693   0.178   8.911
   14TMC2    C6  453   2.812   0.220   8.962
   14TMC2     C  454   2.488   0.131   9.198
   14TMC2     O  455   2.396   0.199   9.157
   14TMC2     H  456   2.746   0.166   9.281
   14TMC2    H1  457   2.483   0.116   8.956
   14TMC2    H2  458   2.883   0.256   8.889
   14TMC2    C7  459   2.677   0.185   8.767
   14TMC2    C8  460   2.945   0.250   9.164
   14TMC2    O1  461   2.582   0.256   8.730
   14TMC2    O2  462   3.002   0.179   9.246
   14TMC2    O5  463   2.998   0.343   9.079
   14TMC2    H5  464   2.931   0.393   9.028
   15TMC2    C1  465   2.116   2.179  10.736
   15TMC2    C2  466   2.053   2.185  10.859
   15TMC2    C3  467   2.084   2.284  10.936
   15TMC2    C4  468   2.214   2.275  10.701
   15TMC2    C5  469   2.242   2.370  10.788
   15TMC2    C6  470   2.183   2.374  10.909
   15TMC2     C  471   2.110   2.054  10.663
   15TMC2     O  472   2.054   1.954  10.709
   15TMC2     H  473   1.970   2.119  10.884
   15TMC2    H1  474   2.264   2.276  10.605
   15TMC2    H2  475   2.196   2.455  10.980
   15TMC2    C7  476   2.339   2.475  10.750
   15TMC2    C8  477   2.050   2.257  11.074
   15TMC2    O1  478   2.367   2.494  10.633
   15TMC2    O2  479   1.950   2.190  11.102
   15TMC2    O5  480   2.166   2.257  11.143
   15TMC2    H5  481   2.233   2.312  11.097
   16TMC2    C1  482   0.086   0.593  11.629
   16TMC2    C2  483   4.750   0.619  11.641
   16TMC2    C3  484   4.693   0.635  11.764
   16TMC2    C4  485   0.164   0.592  11.741
   16TMC2    C5  486   0.107   0.616  11.862
   16TMC2    C6  487   4.764   0.641  11.879
   16TMC2     C  488   0.137   0.633  11.494
   16TMC2     O  489   0.049   0.667  11.415
   16TMC2     H  490   4.682   0.607  11.558
   16TMC2    H1  491   0.271   0.576  11.732
   16TMC2    H2  492   4.717   0.654  11.975
   16TMC2    C7  493   0.194   0.609  11.970
   16TMC2    C8  494   4.552   0.663  11.770
   16TMC2    O1  495   0.292   0.532  11.970
   16TMC2    O2  496   4.484   0.625  11.864
   16TMC2    O5  497   4.522   0.748  11.672
   16TMC2    H5  498   4.602   0.793  11.637
   17TMC2    C1  499   0.015   3.614   7.552
   17TMC2    C2  500   4.721   3.652   7.652
   17TMC2    C3  501   4.645   3.765   7.636
   17TMC2    C4  502   0.024   3.690   7.442
   17TMC2    C5  503   4.757   3.812   7.440
   17TMC2    C6  504   4.662   3.848   7.530
   17TMC2     C  505   0.143   3.566   7.607
   17TMC2     O  506   0.239   3.612   7.550
   17TMC2     H  507   4.713   3.590   7.740
   17TMC2    H1  508   0.090   3.668   7.358
   17TMC2    H2  509   4.616   3.946   7.534
   17TMC2    C7  510   0.014   3.892   7.329
   17TMC2    C8  511   4.567   3.801   7.755
   17TMC2    O1  512   0.128   3.876   7.282
   17TMC2    O2  513   4.609   3.776   7.870
   17TMC2    O5  514   4.463   3.874   7.722
   17TMC2    H5  515   4.458   3.882   7.625
   18TMC2    C1  516   1.153   0.068   8.349
   18TMC2    C2  517   1.065   0.070   8.247
   18TMC2    C3  518   0.982   4.754   8.226
   18TMC2    C4  519   1.161   4.747   8.424
   18TMC2    C5  520   1.074   4.640   8.406
   18TMC2    C6  521   0.983   4.638   8.304
   18TMC2     C  522   1.273   0.135   8.313
   18TMC2     O  523   1.267   0.236   8.240
   18TMC2     H  524   1.040   0.164   8.199
   18TMC2    H1  525   1.239   4.747   8.499
   18TMC2    H2  526   0.920   4.553   8.283
   18TMC2    C7  527   1.084   4.519   8.490
   18TMC2    C8  528   0.905   4.745   8.099
   18TMC2    O1  529   1.029   4.420   8.454
   18TMC2    O2  530   0.828   4.653   8.082
   18TMC2    O5  531   0.909   0.071   8.032
   18TMC2    H5  532   0.996   0.114   8.043
   19TMC2    C1  533   4.225   4.699   8.777
   19TMC2    C2  534   4.136   0.010   8.760
   19TMC2    C3  535   4.152   0.101   8.658
   19TMC2    C4  536   4.336   4.680   8.703
   19TMC2    C5  537   4.356   4.787   8.615
   19TMC2    C6  538   4.267   0.101   8.593
   19TMC2     C  539   4.151   4.587   8.826
   19TMC2     O  540   4.057   4.555   8.757
   19TMC2     H  541   4.052   0.017   8.828
   19TMC2    H1  542   4.398   4.599   8.739
   19TMC2    H2  543   4.296   0.170   8.515
   19TMC2    C7  544   4.483   0.007   8.542
   19TMC2    C8  545   4.068   0.223   8.626
   19TMC2    O1  546   4.526   0.121   8.516
   19TMC2    O2  547   4.094   0.296   8.531
   19TMC2    O5  548   3.957   0.227   8.696
   19TMC2    H5  549   3.939   0.157   8.763
   20TMC2    C1  550   1.675   1.773  15.351
   20TMC2    C2  551   1.610   1.751  15.470
   20TMC2    C3  552   1.689   1.764  15.583
   20TMC2    C4  553   1.806   1.810  15.345
   20TMC2    C5  554   1.882   1.823  15.456
   20TMC2    C6  555   1.826   1.791  15.577
   20TMC2     C  556   1.599   1.730  15.236
   20TMC2     O  557   1.478   1.714  15.252
   20TMC2     H  558   1.507   1.717  15.477
   20TMC2    H1  559   1.864   1.816  15.253
   20TMC2    H2  560   1.891   1.800  15.663
   20TMC2    C7  561   2.025   1.786  15.442
   20TMC2    C8  562   1.622   1.778  15.712
   20TMC2    O1  563   2.073   1.739  15.541
   20TMC2    O2  564   1.504   1.742  15.726
   20TMC2    O5  565   1.709   1.810  15.816
   20TMC2    H5  566   1.770   1.885  15.797
   21TMC2    C1  567   1.366   0.458  10.413
   21TMC2    C2  568   1.363   0.524  10.536
   21TMC2    C3  569   1.443   0.634  10.561
   21TMC2    C4  570   1.432   0.515  10.313
   21TMC2    C5  571   1.487   0.639  10.328
   21TMC2    C6  572   1.512   0.686  10.451
   21TMC2     C  573   1.274   0.353  10.388
   21TMC2     O  574   1.316   0.283  10.295
   21TMC2     H  575   1.296   0.488  10.612
   21TMC2    H1  576   1.420   0.461  10.220
   21TMC2    H2  577   1.545   0.789  10.451
   21TMC2    C7  578   1.548   0.710  10.214
   21TMC2    C8  579   1.523   0.601  10.678
   21TMC2    O1  580   1.643   0.778  10.240
   21TMC2    O2  581   1.526   0.489  10.721
   21TMC2    O5  582   1.631   0.687  10.659
   21TMC2    H5  583   1.601   0.778  10.638
   22TMC2    C1  584   1.966   3.110  14.588
   22TMC2    C2  585   1.849   3.178  14.601
   22TMC2    C3  586   1.824   3.231  14.730
   22TMC2    C4  587   2.043   3.083  14.698
   22TMC2    C5  588   2.005   3.119  14.823
   22TMC2    C6  589   1.899   3.199  14.838
   22TMC2     C  590   2.015   3.059  14.464
   22TMC2     O  591   2.130   3.014  14.468
   22TMC2     H  592   1.778   3.206  14.524
   22TMC2    H1  593   2.142   3.040  14.691
   22TMC2    H2  594   1.853   3.233  14.930
   22TMC2    C7  595   2.054   3.041  14.933
   22TMC2    C8  596   1.707   3.325  14.745
   22TMC2    O1  597   2.027   3.076  15.043
   22TMC2    O2  598   1.713   3.431  14.809
   22TMC2    O5  599   1.607   3.276  14.680
   22TMC2    H5  600   1.626   3.182  14.657
   23TMC2    C1  601   3.760   0.464   6.512
   23TMC2    C2  602   3.882   0.424   6.457
   23TMC2    C3  603   4.001   0.452   6.521
   23TMC2    C4  604   3.764   0.548   6.620
   23TMC2    C5  605   3.886   0.549   6.685
   23TMC2    C6  606   4.005   0.498   6.650
   23TMC2     C  607   3.641   0.439   6.435
   23TMC2     O  608   3.653   0.335   6.366
   23TMC2     H  609   3.878   0.379   6.358
   23TMC2    H1  610   3.674   0.593   6.661
   23TMC2    H2  611   4.100   0.517   6.699
   23TMC2    C7  612   3.882   0.592   6.819
   23TMC2    C8  613   4.125   0.458   6.444
   23TMC2    O1  614   3.790   0.661   6.859
   23TMC2    O2  615   4.227   0.515   6.483
   23TMC2    O5  616   4.123   0.363   6.347
   23TMC2    H5  617   4.035   0.319   6.339
   24TMC2    C1  618   4.551   1.025   6.967
   24TMC2    C2  619   4.578   0.905   7.034
   24TMC2    C3  620   4.482   0.855   7.121
   24TMC2    C4  621   4.433   1.086   6.972
   24TMC2    C5  622   4.337   1.038   7.059
   24TMC2    C6  623   4.361   0.928   7.142
   24TMC2     C  624   4.664   1.085   6.897
   24TMC2     O  625   4.659   1.204   6.885
   24TMC2     H  626   4.673   0.854   7.047
   24TMC2    H1  627   4.409   1.167   6.904
   24TMC2    H2  628   4.282   0.886   7.203
   24TMC2    C7  629   4.231   1.125   7.105
   24TMC2    C8  630   4.511   0.721   7.168
   24TMC2    O1  631   4.132   1.073   7.150
   24TMC2    O2  632   4.603   0.651   7.122
   24TMC2    O5  633   4.419   0.696   7.269
   24TMC2    H5  634   4.365   0.776   7.283
   25TMC2    C1  635   4.315   3.214   7.875
   25TMC2    C2  636   4.244   3.276   7.971
   25TMC2    C3  637   4.218   3.409   7.967
   25TMC2    C4  638   4.343   3.285   7.760
   25TMC2    C5  639   4.295   3.414   7.753
   25TMC2    C6  640   4.230   3.479   7.853
   25TMC2     C  641   4.362   3.076   7.895
   25TMC2     O  642   4.436   3.029   7.813
   25TMC2     H  643   4.216   3.223   8.062
   25TMC2    H1  644   4.411   3.233   7.693
   25TMC2    H2  645   4.199   3.581   7.831
   25TMC2    C7  646   4.331   3.496   7.639
   25TMC2    C8  647   4.143   3.463   8.080
   25TMC2    O1  648   4.283   3.608   7.633
   25TMC2    O2  649   4.093   3.389   8.161
   25TMC2    O5  650   4.143   3.597   8.074
   25TMC2    H5  651   4.206   3.643   8.015
   26TMC2    C1  652   3.844   1.770  14.714
   26TMC2    C2  653   3.813   1.830  14.831
   26TMC2    C3  654   3.739   1.943  14.837
   26TMC2    C4  655   3.810   1.834  14.601
   26TMC2    C5  656   3.744   1.951  14.607
   26TMC2    C6  657   3.691   2.005  14.724
   26TMC2     C  658   3.915   1.643  14.721
   26TMC2     O  659   3.901   1.586  14.825
   26TMC2     H  660   3.825   1.778  14.926
   26TMC2    H1  661   3.825   1.788  14.503
   26TMC2    H2  662   3.645   2.102  14.738
   26TMC2    C7  663   3.667   1.990  14.489
   26TMC2    C8  664   3.695   1.984  14.968
   26TMC2    O1  665   3.550   2.017  14.517
   26TMC2    O2  666   3.599   2.061  14.980
   26TMC2    O5  667   3.809   1.986  15.039
   26TMC2    H5  668   3.888   1.942  15.001
   27TMC2    C1  669   0.412   0.165   8.595
   27TMC2    C2  670   0.503   0.149   8.693
   27TMC2    C3  671   0.532   0.245   8.776
   27TMC2    C4  672   0.340   0.281   8.578
   27TMC2    C5  673   0.356   0.377   8.677
   27TMC2    C6  674   0.458   0.363   8.773
   27TMC2     C  675   0.344   0.046   8.558
   27TMC2     O  676   0.409   4.736   8.560
   27TMC2     H  677   0.543   0.051   8.715
   27TMC2    H1  678   0.263   0.291   8.502
   27TMC2    H2  679   0.475   0.439   8.848
   27TMC2    C7  680   0.300   0.510   8.648
   27TMC2    C8  681   0.599   0.207   8.898
   27TMC2    O1  682   0.289   0.541   8.528
   27TMC2    O2  683   0.614   0.089   8.927
   27TMC2    O5  684   0.693   0.305   8.923
   27TMC2    H5  685   0.684   0.388   8.872
   28TMC2    C1  686   0.781   2.819  13.562
   28TMC2    C2  687   0.781   2.906  13.451
   28TMC2    C3  688   0.709   2.869  13.340
   28TMC2    C4  689   0.711   2.703  13.555
   28TMC2    C5  690   0.646   2.667  13.438
   28TMC2    C6  691   0.643   2.749  13.332
   28TMC2     C  692   0.908   2.811  13.638
   28TMC2     O  693   1.000   2.855  13.571
   28TMC2     H  694   0.838   2.998  13.464
   28TMC2    H1  695   0.723   2.629  13.634
   28TMC2    H2  696   0.586   2.720  13.244
   28TMC2    C7  697   0.524   2.585  13.448
   28TMC2    C8  698   0.731   2.932  13.213
   28TMC2    O1  699   0.456   2.559  13.352
   28TMC2    O2  700   0.687   2.891  13.105
   28TMC2    O5  701   0.779   3.058  13.233
   28TMC2    H5  702   0.777   3.090  13.326
   29TMC2    C1  703   4.642   3.433  10.271
   29TMC2    C2  704   4.687   3.314  10.326
   29TMC2    C3  705   0.025   3.287  10.325
   29TMC2    C4  706   4.735   3.531  10.245
   29TMC2    C5  707   0.077   3.503  10.251
   29TMC2    C6  708   0.116   3.377  10.290
   29TMC2     C  709   4.502   3.460  10.265
   29TMC2     O  710   4.475   3.577  10.250
   29TMC2     H  711   4.622   3.245  10.379
   29TMC2    H1  712   4.702   3.622  10.196
   29TMC2    H2  713   0.222   3.365  10.312
   29TMC2    C7  714   0.168   3.582  10.170
   29TMC2    C8  715   0.072   3.186  10.417
   29TMC2    O1  716   0.149   3.701  10.153
   29TMC2    O2  717   0.110   3.207  10.531
   29TMC2    O5  718   0.013   3.069  10.386
   29TMC2    H5  719   4.762   3.074  10.299
   30TMC2    C1  720   1.991   4.324   9.624
   30TMC2    C2  721   1.985   4.220   9.713
   30TMC2    C3  722   1.883   4.136   9.692
   30TMC2    C4  723   1.903   4.349   9.525
   30TMC2    C5  724   1.812   4.253   9.496
   30TMC2    C6  725   1.793   4.147   9.585
   30TMC2     C  726   2.059   4.431   9.683
   30TMC2     O  727   1.993   4.521   9.733
   30TMC2     H  728   2.053   4.211   9.797
   30TMC2    H1  729   1.910   4.443   9.472
   30TMC2    H2  730   1.730   4.063   9.558
   30TMC2    C7  731   1.740   4.246   9.370
   30TMC2    C8  732   1.865   4.018   9.763
   30TMC2    O1  733   1.650   4.158   9.367
   30TMC2    O2  734   1.804   3.914   9.725
   30TMC2    O5  735   1.948   4.008   9.875
   30TMC2    H5  736   1.949   4.096   9.918
   31TMC2    C1  737   1.354   0.299  10.944
   31TMC2    C2  738   1.304   0.177  10.981
   31TMC2    C3  739   1.375   0.114  11.078
   31TMC2    C4  740   1.462   0.356  11.008
   31TMC2    C5  741   1.524   0.297  11.117
   31TMC2    C6  742   1.476   0.176  11.153
   31TMC2     C  743   1.263   0.382  10.876
   31TMC2     O  744   1.216   0.331  10.775
   31TMC2     H  745   1.213   0.143  10.933
   31TMC2    H1  746   1.497   0.452  10.974
   31TMC2    H2  747   1.500   0.135  11.250
   31TMC2    C7  748   1.537   0.390  11.224
   31TMC2    C8  749   1.336   4.776  11.123
   31TMC2    O1  750   1.457   0.485  11.222
   31TMC2    O2  751   1.402   4.697  11.191
   31TMC2    O5  752   1.210   4.759  11.079
   31TMC2    H5  753   1.176   4.667  11.076
   32TMC2    C1  754   0.963   1.279   7.605
   32TMC2    C2  755   0.930   1.271   7.734
   32TMC2    C3  756   0.800   1.308   7.773
   32TMC2    C4  757   0.866   1.304   7.505
   32TMC2    C5  758   0.739   1.351   7.545
   32TMC2    C6  759   0.703   1.340   7.680
   32TMC2     C  760   1.077   1.202   7.548
   32TMC2     O  761   1.137   1.237   7.448
   32TMC2     H  762   1.001   1.236   7.809
   32TMC2    H1  763   0.890   1.300   7.400
   32TMC2    H2  764   0.597   1.344   7.704
   32TMC2    C7  765   0.627   1.345   7.449
   32TMC2    C8  766   0.753   1.268   7.898
   32TMC2    O1  767   0.558   1.444   7.453
   32TMC2    O2  768   0.643   1.226   7.925
   32TMC2    O5  769   0.839   1.335   7.981
   32TMC2    H5  770   0.914   1.377   7.936
   33TMC2    C1  771   1.536   0.348  11.927
   33TMC2    C2  772   1.436   0.326  12.018
   33TMC2    C3  773   1.379   0.428  12.079
   33TMC2    C4  774   1.559   0.479  11.894
   33TMC2    C5  775   1.489   0.581  11.955
   33TMC2    C6  776   1.398   0.560  12.052
   33TMC2     C  777   1.552   0.252  11.829
   33TMC2     O  778   1.460   0.173  11.814
   33TMC2     H  779   1.405   0.226  12.048
   33TMC2    H1  780   1.620   0.492  11.805
   33TMC2    H2  781   1.343   0.642  12.098
   33TMC2    C7  782   1.562   0.710  11.963
   33TMC2    C8  783   1.250   0.399  12.142
   33TMC2    O1  784   1.492   0.806  11.992
   33TMC2    O2  785   1.174   0.306  12.112
   33TMC2    O5  786   1.229   0.489  12.235
   33TMC2    H5  787   1.306   0.544  12.262
   34TMC2    C1  788   2.135   3.798  10.452
   34TMC2    C2  789   2.109   3.718  10.557
   34TMC2    C3  790   2.188   3.727  10.668
   34TMC2    C4  791   2.236   3.883  10.448
   34TMC2    C5  792   2.322   3.879  10.559
   34TMC2    C6  793   2.294   3.807  10.672
   34TMC2     C  794   2.084   3.754  10.325
   34TMC2     O  795   2.154   3.696  10.245
   34TMC2     H  796   2.022   3.654  10.550
   34TMC2    H1  797   2.253   3.940  10.357
   34TMC2    H2  798   2.359   3.824  10.758
   34TMC2    C7  799   2.421   3.986  10.564
   34TMC2    C8  800   2.123   3.687  10.789
   34TMC2    O1  801   2.457   4.023  10.454
   34TMC2    O2  802   2.007   3.714  10.810
   34TMC2    O5  803   2.207   3.626  10.872
   34TMC2    H5  804   2.290   3.598  10.828
   35TMC2    C1  805   0.172   0.305   9.420
   35TMC2    C2  806   0.179   0.170   9.387
   35TMC2    C3  807   0.250   0.139   9.276
   35TMC2    C4  808   0.228   0.406   9.352
   35TMC2    C5  809   0.301   0.371   9.234
   35TMC2    C6  810   0.315   0.235   9.199
   35TMC2     C  811   0.085   0.333   9.534
   35TMC2     O  812   4.791   0.252   9.560
   35TMC2     H  813   0.126   0.092   9.441
   35TMC2    H1  814   0.219   0.510   9.383
   35TMC2    H2  815   0.375   0.208   9.113
   35TMC2    C7  816   0.391   0.463   9.170
   35TMC2    C8  817   0.281   0.000   9.245
   35TMC2    O1  818   0.430   0.408   9.070
   35TMC2    O2  819   0.374   4.746   9.191
   35TMC2    O5  820   0.169   4.726   9.265
   35TMC2    H5  821   0.094   4.789   9.267
   36TMC2    C1  822   0.677   0.920  15.145
   36TMC2    C2  823   0.643   0.786  15.151
   36TMC2    C3  824   0.504   0.750  15.137
   36TMC2    C4  825   0.588   1.024  15.142
   36TMC2    C5  826   0.454   0.986  15.134
   36TMC2    C6  827   0.411   0.850  15.137
   36TMC2     C  828   0.819   0.938  15.168
   36TMC2     O  829   0.847   1.015  15.261
   36TMC2     H  830   0.719   0.710  15.167
   36TMC2    H1  831   0.628   1.125  15.139
   36TMC2    H2  832   0.309   0.816  15.130
   36TMC2    C7  833   0.361   1.094  15.151
   36TMC2    C8  834   0.466   0.608  15.149
   36TMC2    O1  835   0.406   1.208  15.165
   36TMC2    O2  836   0.528   0.512  15.104
   36TMC2    O5  837   0.387   0.586  15.252
   36TMC2    H5  838   0.359   0.668  15.297
   37TMC2    C1  839   1.654   2.758  10.847
   37TMC2    C2  840   1.629   2.803  10.973
   37TMC2    C3  841   1.726   2.784  11.068
   37TMC2    C4  842   1.772   2.680  10.818
   37TMC2    C5  843   1.870   2.675  10.911
   37TMC2    C6  844   1.842   2.713  11.040
   37TMC2     C  845   1.629   2.853  10.737
   37TMC2     O  846   1.723   2.859  10.665
   37TMC2     H  847   1.552   2.878  10.991
   37TMC2    H1  848   1.796   2.654  10.715
   37TMC2    H2  849   1.908   2.703  11.125
   37TMC2    C7  850   1.995   2.720  10.883
   37TMC2    C8  851   1.710   2.823  11.202
   37TMC2    O1  852   2.088   2.706  10.966
   37TMC2    O2  853   1.801   2.801  11.286
   37TMC2    O5  854   1.642   2.939  11.202
   37TMC2    H5  855   1.622   2.948  11.106
   38TMC2    C1  856   1.560   4.052  10.200
   38TMC2    C2  857   1.656   4.107  10.114
   38TMC2    C3  858   1.702   4.237  10.138
   38TMC2    C4  859   1.498   4.131  10.290
   38TMC2    C5  860   1.542   4.260  10.300
   38TMC2    C6  861   1.651   4.314  10.239
   38TMC2     C  862   1.491   3.928  10.166
   38TMC2     O  863   1.376   3.923  10.214
   38TMC2     H  864   1.710   4.055  10.036
   38TMC2    H1  865   1.430   4.087  10.363
   38TMC2    H2  866   1.672   4.416  10.269
   38TMC2    C7  867   1.469   4.336  10.394
   38TMC2    C8  868   1.830   4.280  10.086
   38TMC2    O1  869   1.447   4.280  10.499
   38TMC2    O2  870   1.908   4.204  10.025
   38TMC2    O5  871   1.870   4.374  10.175
   38TMC2    H5  872   1.812   4.453  10.171
   39TMC2    C1  873   0.792   4.535   8.758
   39TMC2    C2  874   0.805   4.424   8.669
   39TMC2    C3  875   0.811   4.299   8.729
   39TMC2    C4  876   0.795   4.527   8.896
   39TMC2    C5  877   0.806   4.399   8.944
   39TMC2    C6  878   0.811   4.291   8.858
   39TMC2     C  879   0.796   4.668   8.703
   39TMC2     O  880   0.848   4.753   8.766
   39TMC2     H  881   0.783   4.427   8.563
   39TMC2    H1  882   0.760   4.613   8.951
   39TMC2    H2  883   0.829   4.188   8.888
   39TMC2    C7  884   0.797   4.387   9.082
   39TMC2    C8  885   0.838   4.178   8.649
   39TMC2    O1  886   0.742   4.289   9.131
   39TMC2    O2  887   0.779   4.068   8.669
   39TMC2    O5  888   0.899   4.212   8.532
   39TMC2    H5  889   0.942   4.300   8.527
   40TMC2    C1  890   0.777   0.559  14.800
   40TMC2    C2  891   0.704   0.447  14.813
   40TMC2    C3  892   0.765   0.330  14.781
   40TMC2    C4  893   0.900   0.563  14.737
   40TMC2    C5  894   0.962   0.442  14.713
   40TMC2    C6  895   0.896   0.327  14.742
   40TMC2     C  896   0.716   0.692  14.814
   40TMC2     O  897   0.778   0.784  14.863
   40TMC2     H  898   0.603   0.448  14.853
   40TMC2    H1  899   0.955   0.654  14.717
   40TMC2    H2  900   0.947   0.231  14.743
   40TMC2    C7  901   1.104   0.450  14.684
   40TMC2    C8  902   0.704   0.218  14.842
   40TMC2    O1  903   1.170   0.544  14.723
   40TMC2    O2  904   0.742   0.107  14.798
   40TMC2    O5  905   0.705   0.267  14.969
   40TMC2    H5  906   0.751   0.351  14.988
   41TMC2    C1  907   0.121   4.420   8.965
   41TMC2    C2  908   0.113   4.559   8.974
   41TMC2    C3  909   0.017   4.614   8.895
   41TMC2    C4  910   0.031   4.341   8.903
   41TMC2    C5  911   4.715   4.400   8.845
   41TMC2    C6  912   4.707   4.543   8.841
   41TMC2     C  913   0.213   4.345   9.047
   41TMC2     O  914   0.256   4.236   9.008
   41TMC2     H  915   0.194   4.612   9.024
   41TMC2    H1  916   0.047   4.234   8.900
   41TMC2    H2  917   4.624   4.593   8.791
   41TMC2    C7  918   4.599   4.319   8.817
   41TMC2    C8  919   0.007   4.752   8.895
   41TMC2    O1  920   4.508   4.371   8.754
   41TMC2    O2  921   4.695   0.005   8.849
   41TMC2    O5  922   0.129   0.015   8.879
   41TMC2    H5  923   0.206   4.748   8.883
   42TMC2    C1  924   3.097   3.854   8.059
   42TMC2    C2  925   3.030   3.891   8.169
   42TMC2    C3  926   3.084   3.899   8.291
   42TMC2    C4  927   3.224   3.810   8.071
   42TMC2    C5  928   3.277   3.798   8.196
   42TMC2    C6  929   3.212   3.849   8.307
   42TMC2     C  930   3.015   3.801   7.947
   42TMC2     O  931   3.043   3.829   7.833
   42TMC2     H  932   2.959   3.972   8.155
   42TMC2    H1  933   3.268   3.766   7.982
   42TMC2    H2  934   3.264   3.850   8.402
   42TMC2    C7  935   3.405   3.728   8.211
   42TMC2    C8  936   2.995   3.893   8.409
   42TMC2    O1  937   3.475   3.734   8.111
   42TMC2    O2  938   3.038   3.846   8.512
   42TMC2    O5  939   2.869   3.863   8.359
   42TMC2    H5  940   2.836   3.932   8.297
   43TMC2    C1  941   4.030   2.751   8.500
   43TMC2    C2  942   4.112   2.824   8.589
   43TMC2    C3  943   4.047   2.928   8.652
   43TMC2    C4  944   3.895   2.780   8.488
   43TMC2    C5  945   3.829   2.875   8.565
   43TMC2    C6  946   3.911   2.944   8.650
   43TMC2     C  947   4.086   2.731   8.363
   43TMC2     O  948   4.014   2.749   8.263
   43TMC2     H  949   4.220   2.812   8.583
   43TMC2    H1  950   3.828   2.728   8.420
   43TMC2    H2  951   3.866   3.016   8.718
   43TMC2    C7  952   3.751   2.966   8.495
   43TMC2    C8  953   4.117   2.990   8.765
   43TMC2    O1  954   3.755   3.083   8.532
   43TMC2    O2  955   4.181   2.932   8.851
   43TMC2    O5  956   4.120   3.124   8.735
   43TMC2    H5  957   4.056   3.169   8.676
   44TMC2    C1  958   4.587   1.091  11.946
   44TMC2    C2  959   4.477   1.167  11.951
   44TMC2    C3  960   4.482   1.298  11.911
   44TMC2    C4  961   4.705   1.146  11.905
   44TMC2    C5  962   4.718   1.282  11.878
   44TMC2    C6  963   4.603   1.353  11.866
   44TMC2     C  964   4.602   0.962  12.015
   44TMC2     O  965   4.716   0.920  12.030
   44TMC2     H  966   4.392   1.140  12.013
   44TMC2    H1  967   4.785   1.075  11.885
   44TMC2    H2  968   4.612   1.461  11.854
   44TMC2    C7  969   0.047   1.320  11.814
   44TMC2    C8  970   4.390   1.388  11.980
   44TMC2    O1  971   0.152   1.270  11.858
   44TMC2    O2  972   4.430   1.486  12.038
   44TMC2    O5  973   4.263   1.349  11.958
   44TMC2    H5  974   4.273   1.273  11.897
   45TMC2    C1  975   1.461   4.346  14.704
   45TMC2    C2  976   1.547   4.436  14.758
   45TMC2    C3  977   1.668   4.398  14.797
   45TMC2    C4  978   1.493   4.218  14.678
   45TMC2    C5  979   1.617   4.183  14.712
   45TMC2    C6  980   1.710   4.272  14.764
   45TMC2     C  981   1.357   4.406  14.623
   45TMC2     O  982   1.337   4.366  14.510
   45TMC2     H  983   1.516   4.539  14.759
   45TMC2    H1  984   1.423   4.154  14.624
   45TMC2    H2  985   1.810   4.241  14.793
   45TMC2    C7  986   1.670   4.068  14.647
   45TMC2    C8  987   1.772   4.486  14.835
   45TMC2    O1  988   1.604   4.029  14.550
   45TMC2    O2  989   1.892   4.463  14.833
   45TMC2    O5  990   1.713   4.558  14.933
   45TMC2    H5  991   1.618   4.547  14.954
   46TMC2    C1  992   2.630   2.270  15.185
   46TMC2    C2  993   2.521   2.328  15.123
   46TMC2    C3  994   2.554   2.449  15.062
   46TMC2    C4  995   2.756   2.310  15.169
   46TMC2    C5  996   2.787   2.430  15.118
   46TMC2    C6  997   2.679   2.505  15.064
   46TMC2     C  998   2.605   2.155  15.270
   46TMC2     O  999   2.694   2.078  15.299
   46TMC2     H 1000   2.421   2.290  15.109
   46TMC2    H1 1001   2.823   2.270  15.245
   46TMC2    H2 1002   2.710   2.595  15.012
   46TMC2    C7 1003   2.864   2.505  15.213
   46TMC2    C8 1004   2.457   2.506  14.970
   46TMC2    O1 1005   2.877   2.464  15.330
   46TMC2    O2 1006   2.416   2.438  14.875
   46TMC2    O5 1007   2.480   2.640  14.959
   46TMC2    H5 1008   2.525   2.676  15.039
   47TMC2    C1 1009   4.215   2.231  12.232
   47TMC2    C2 1010   4.232   2.245  12.095
   47TMC2    C3 1011   4.115   2.239  12.020
   47TMC2    C4 1012   4.095   2.193  12.282
   47TMC2    C5 1013   3.983   2.174  12.209
   47TMC2    C6 1014   3.997   2.204  12.072
   47TMC2     C 1015   4.330   2.228  12.320
   47TMC2     O 1016   4.307   2.268  12.433
   47TMC2     H 1017   4.333   2.266  12.062
   47TMC2    H1 1018   4.086   2.176  12.388
   47TMC2    H2 1019   3.908   2.222  12.013
   47TMC2    C7 1020   3.909   2.054  12.242
   47TMC2    C8 1021   4.117   2.214  11.877
   47TMC2    O1 1022   3.878   2.024  12.358
   47TMC2    O2 1023   4.044   2.284  11.812
   47TMC2    O5 1024   4.108   2.081  11.885
   47TMC2    H5 1025   4.179   2.047  11.944
   48TMC2    C1 1026   1.645   2.301  10.255
   48TMC2    C2 1027   1.632   2.180  10.313
   48TMC2    C3 1028   1.722   2.134  10.401
   48TMC2    C4 1029   1.744   2.394  10.292
   48TMC2    C5 1030   1.837   2.334  10.382
   48TMC2    C6 1031   1.835   2.204  10.426
   48TMC2     C 1032   1.528   2.361  10.189
   48TMC2     O 1033   1.548   2.461  10.118
   48TMC2     H 1034   1.582   2.097  10.263
   48TMC2    H1 1035   1.753   2.488  10.238
   48TMC2    H2 1036   1.899   2.161  10.502
   48TMC2    C7 1037   1.946   2.412  10.435
   48TMC2    C8 1038   1.746   1.996  10.404
   48TMC2    O1 1039   2.038   2.348  10.484
   48TMC2    O2 1040   1.663   1.917  10.446
   48TMC2    O5 1041   1.817   1.978  10.291
   48TMC2    H5 1042   1.868   2.055  10.258
   49TMC2    C1 1043   1.814   4.444  11.456
   49TMC2    C2 1044   1.806   4.488  11.328
   49TMC2    C3 1045   1.685   4.488  11.268
   49TMC2    C4 1046   1.718   4.377  11.516
   49TMC2    C5 1047   1.593   4.377  11.455
   49TMC2    C6 1048   1.575   4.436  11.337
   49TMC2     C 1049   1.940   4.469  11.518
   49TMC2     O 1050   2.011   4.561  11.477
   49TMC2     H 1051   1.880   4.548  11.276
   49TMC2    H1 1052   1.736   4.331  11.613
   49TMC2    H2 1053   1.483   4.430  11.280
   49TMC2    C7 1054   1.480   4.301  11.506
   49TMC2    C8 1055   1.677   4.512  11.127
   49TMC2    O1 1056   1.385   4.290  11.437
   49TMC2    O2 1057   1.759   4.583  11.068
   49TMC2    O5 1058   1.643   4.388  11.083
   49TMC2    H5 1059   1.588   4.329  11.140
   50TMC2    C1 1060   3.302   1.676  14.304
   50TMC2    C2 1061   3.191   1.657  14.233
   50TMC2    C3 1062   3.147   1.761  14.155
   50TMC2    C4 1063   3.378   1.795  14.301
   50TMC2    C5 1064   3.325   1.890  14.222
   50TMC2    C6 1065   3.213   1.881  14.142
   50TMC2     C 1066   3.337   1.558  14.387
   50TMC2     O 1067   3.244   1.482  14.402
   50TMC2     H 1068   3.151   1.557  14.219
   50TMC2    H1 1069   3.451   1.811  14.379
   50TMC2    H2 1070   3.179   1.973  14.095
   50TMC2    C7 1071   3.417   1.993  14.183
   50TMC2    C8 1072   3.062   1.712  14.047
   50TMC2    O1 1073   3.534   1.953  14.176
   50TMC2    O2 1074   3.070   1.598  14.005
   50TMC2    O5 1075   2.948   1.777  14.071
   50TMC2    H5 1076   2.966   1.848  14.137
   51TMC2    C1 1077   2.008   2.223  14.862
   51TMC2    C2 1078   2.068   2.231  14.740
   51TMC2    C3 1079   1.983   2.239  14.632
   51TMC2    C4 1080   1.869   2.236  14.876
   51TMC2    C5 1081   1.788   2.227  14.762
   51TMC2    C6 1082   1.847   2.234  14.634
   51TMC2     C 1083   2.062   2.316  14.958
   51TMC2     O 1084   2.046   2.290  15.075
   51TMC2     H 1085   2.176   2.229  14.732
   51TMC2    H1 1086   1.827   2.223  14.975
   51TMC2    H2 1087   1.788   2.241  14.544
   51TMC2    C7 1088   1.642   2.241  14.771
   51TMC2    C8 1089   2.028   2.228  14.491
   51TMC2    O1 1090   1.582   2.210  14.668
   51TMC2    O2 1091   1.960   2.148  14.425
   51TMC2    O5 1092   2.157   2.242  14.484
   51TMC2    H5 1093   2.192   2.303  14.552
   52TMC2    C1 1094   3.812   4.274   9.486
   52TMC2    C2 1095   3.858   4.181   9.394
   52TMC2    C3 1096   3.953   4.225   9.310
   52TMC2    C4 1097   3.841   4.409   9.478
   52TMC2    C5 1098   3.928   4.450   9.377
   52TMC2    C6 1099   3.987   4.357   9.299
   52TMC2     C 1100   3.683   4.240   9.539
   52TMC2     O 1101   3.601   4.330   9.528
   52TMC2     H 1102   3.831   4.077   9.400
   52TMC2    H1 1103   3.799   4.473   9.555
   52TMC2    H2 1104   4.074   4.380   9.239
   52TMC2    C7 1105   3.997   4.575   9.391
   52TMC2    C8 1106   4.039   4.142   9.236
   52TMC2    O1 1107   4.072   4.607   9.302
   52TMC2    O2 1108   4.146   4.174   9.191
   52TMC2    O5 1109   3.962   4.036   9.190
   52TMC2    H5 1110   3.873   4.045   9.229
   53TMC2    C1 1111   1.276   0.067   9.556
   53TMC2    C2 1112   1.349   4.784   9.644
   53TMC2    C3 1113   1.450   0.058   9.708
   53TMC2    C4 1114   1.301   0.201   9.543
   53TMC2    C5 1115   1.402   0.264   9.609
   53TMC2    C6 1116   1.478   0.192   9.700
   53TMC2     C 1117   1.175   0.000   9.471
   53TMC2     O 1118   1.139   0.065   9.375
   53TMC2     H 1119   1.340   4.677   9.659
   53TMC2    H1 1120   1.248   0.262   9.471
   53TMC2    H2 1121   1.555   0.235   9.762
   53TMC2    C7 1122   1.386   0.398   9.651
   53TMC2    C8 1123   1.526   4.784   9.810
   53TMC2    O1 1124   1.487   0.463   9.647
   53TMC2    O2 1125   1.571   4.669   9.790
   53TMC2    O5 1126   1.536   0.062   9.922
   53TMC2    H5 1127   1.469   0.132   9.937
   54TMC2    C1 1128   2.256   3.736  13.995
   54TMC2    C2 1129   2.151   3.730  13.908
   54TMC2    C3 1130   2.026   3.732  13.966
   54TMC2    C4 1131   2.243   3.733  14.125
   54TMC2    C5 1132   2.115   3.734  14.178
   54TMC2    C6 1133   2.001   3.734  14.100
   54TMC2     C 1134   2.380   3.675  13.947
   54TMC2     O 1135   2.446   3.610  14.028
   54TMC2     H 1136   2.163   3.715  13.801
   54TMC2    H1 1137   2.334   3.739  14.184
   54TMC2    H2 1138   1.905   3.719  14.150
   54TMC2    C7 1139   2.106   3.726  14.320
   54TMC2    C8 1140   1.921   3.703  13.874
   54TMC2    O1 1141   2.198   3.675  14.383
   54TMC2    O2 1142   1.942   3.682  13.758
   54TMC2    O5 1143   1.803   3.759  13.925
   54TMC2    H5 1144   1.818   3.785  14.018
   55TMC2    C1 1145   3.795   3.738   8.223
   55TMC2    C2 1146   3.833   3.831   8.132
   55TMC2    C3 1147   3.841   3.790   8.003
   55TMC2    C4 1148   3.772   3.607   8.191
   55TMC2    C5 1149   3.781   3.563   8.061
   55TMC2    C6 1150   3.816   3.659   7.967
   55TMC2     C 1151   3.728   3.780   8.346
   55TMC2     O 1152   3.701   3.691   8.430
   55TMC2     H 1153   3.883   3.923   8.163
   55TMC2    H1 1154   3.736   3.538   8.266
   55TMC2    H2 1155   3.848   3.628   7.868
   55TMC2    C7 1156   3.734   3.431   8.022
   55TMC2    C8 1157   3.932   3.864   7.919
   55TMC2    O1 1158   3.688   3.418   7.910
   55TMC2    O2 1159   3.991   3.803   7.830
   55TMC2    O5 1160   3.881   3.987   7.901
   55TMC2    H5 1161   3.828   4.014   7.979
   56TMC2    C1 1162   2.279   1.468  14.705
   56TMC2    C2 1163   2.300   1.555  14.607
   56TMC2    C3 1164   2.408   1.641  14.622
   56TMC2    C4 1165   2.355   1.459  14.815
   56TMC2    C5 1166   2.455   1.545  14.826
   56TMC2    C6 1167   2.499   1.626  14.725
   56TMC2     C 1168   2.138   1.438  14.709
   56TMC2     O 1169   2.064   1.531  14.692
   56TMC2     H 1170   2.237   1.572  14.520
   56TMC2    H1 1171   2.337   1.375  14.882
   56TMC2    H2 1172   2.584   1.692  14.735
   56TMC2    C7 1173   2.545   1.527  14.937
   56TMC2    C8 1174   2.452   1.710  14.502
   56TMC2    O1 1175   2.658   1.575  14.926
   56TMC2    O2 1176   2.524   1.813  14.505
   56TMC2    O5 1177   2.458   1.612  14.408
   56TMC2    H5 1178   2.406   1.535  14.439
   57TMC2    C1 1179   3.784   1.044   8.672
   57TMC2    C2 1180   3.809   1.163   8.739
   57TMC2    C3 1181   3.928   1.165   8.810
   57TMC2    C4 1182   3.864   0.934   8.679
   57TMC2    C5 1183   3.969   0.941   8.772
   57TMC2    C6 1184   4.011   1.053   8.833
   57TMC2     C 1185   3.654   1.023   8.608
   57TMC2     O 1186   3.655   0.928   8.529
   57TMC2     H 1187   3.755   1.257   8.740
   57TMC2    H1 1188   3.842   0.841   8.628
   57TMC2    H2 1189   4.099   1.050   8.896
   57TMC2    C7 1190   4.047   0.821   8.800
   57TMC2    C8 1191   3.986   1.287   8.858
   57TMC2    O1 1192   4.104   0.819   8.909
   57TMC2    O2 1193   4.056   1.294   8.956
   57TMC2    O5 1194   3.985   1.377   8.763
   57TMC2    H5 1195   3.942   1.344   8.681
   58TMC2    C1 1196   1.267   3.087  14.561
   58TMC2    C2 1197   1.369   3.146  14.489
   58TMC2    C3 1198   1.428   3.073  14.391
   58TMC2    C4 1199   1.213   2.976  14.517
   58TMC2    C5 1200   1.270   2.904  14.417
   58TMC2    C6 1201   1.380   2.952  14.351
   58TMC2     C 1202   1.210   3.136  14.689
   58TMC2     O 1203   1.173   3.054  14.765
   58TMC2     H 1204   1.412   3.240  14.521
   58TMC2    H1 1205   1.130   2.934  14.572
   58TMC2    H2 1206   1.445   2.893  14.286
   58TMC2    C7 1207   1.193   2.797  14.356
   58TMC2    C8 1208   1.538   3.138  14.322
   58TMC2    O1 1209   1.217   2.760  14.243
   58TMC2    O2 1210   1.652   3.107  14.329
   58TMC2    O5 1211   1.470   3.171  14.205
   58TMC2    H5 1212   1.373   3.171  14.215
   59TMC2    C1 1213   2.364   0.423  13.371
   59TMC2    C2 1214   2.454   0.368  13.288
   59TMC2    C3 1215   2.586   0.406  13.288
   59TMC2    C4 1216   2.400   0.520  13.461
   59TMC2    C5 1217   2.533   0.562  13.456
   59TMC2    C6 1218   2.627   0.502  13.373
   59TMC2     C 1219   2.227   0.374  13.358
   59TMC2     O 1220   2.212   0.261  13.319
   59TMC2     H 1221   2.417   0.299  13.213
   59TMC2    H1 1222   2.326   0.558  13.530
   59TMC2    H2 1223   2.734   0.518  13.378
   59TMC2    C7 1224   2.575   0.627  13.581
   59TMC2    C8 1225   2.652   0.377  13.156
   59TMC2    O1 1226   2.673   0.579  13.634
   59TMC2    O2 1227   2.667   0.267  13.105
   59TMC2    O5 1228   2.632   0.487  13.078
   59TMC2    H5 1229   2.602   0.565  13.130
   60TMC2    C1 1230   1.226   2.652  10.944
   60TMC2    C2 1231   1.329   2.593  11.015
   60TMC2    C3 1232   1.309   2.477  11.080
   60TMC2    C4 1233   1.106   2.593  10.929
   60TMC2    C5 1234   1.096   2.462  10.973
   60TMC2    C6 1235   1.196   2.408  11.051
   60TMC2     C 1236   1.227   2.795  10.951
   60TMC2     O 1237   1.326   2.847  10.902
   60TMC2     H 1238   1.416   2.657  11.021
   60TMC2    H1 1239   1.017   2.653  10.912
   60TMC2    H2 1240   1.179   2.315  11.104
   60TMC2    C7 1241   0.963   2.400  10.976
   60TMC2    C8 1242   1.418   2.410  11.142
   60TMC2    O1 1243   0.935   2.317  11.059
   60TMC2    O2 1244   1.533   2.445  11.116
   60TMC2    O5 1245   1.366   2.375  11.259
   60TMC2    H5 1246   1.278   2.414  11.277
   61TMC2    C1 1247   4.428   3.718   9.955
   61TMC2    C2 1248   4.499   3.766   9.845
   61TMC2    C3 1249   4.533   3.670   9.755
   61TMC2    C4 1250   4.361   3.603   9.955
   61TMC2    C5 1251   4.381   3.512   9.850
   61TMC2    C6 1252   4.470   3.547   9.749
   61TMC2     C 1253   4.371   3.817  10.043
   61TMC2     O 1254   4.297   3.770  10.130
   61TMC2     H 1255   4.542   3.865   9.846
   61TMC2    H1 1256   4.322   3.557  10.045
   61TMC2    H2 1257   4.491   3.474   9.672
   61TMC2    C7 1258   4.267   3.428   9.817
   61TMC2    C8 1259   4.581   3.712   9.620
   61TMC2    O1 1260   4.280   3.350   9.724
   61TMC2    O2 1261   4.568   3.653   9.513
   61TMC2    O5 1262   4.646   3.825   9.638
   61TMC2    H5 1263   4.677   3.837   9.730
   62TMC2    C1 1264   0.743   0.796  10.548
   62TMC2    C2 1265   0.710   0.662  10.549
   62TMC2    C3 1266   0.596   0.622  10.608
   62TMC2    C4 1267   0.667   0.887  10.623
   62TMC2    C5 1268   0.549   0.842  10.685
   62TMC2    C6 1269   0.517   0.709  10.682
   62TMC2     C 1270   0.881   0.820  10.521
   62TMC2     O 1271   0.958   0.725  10.523
   62TMC2     H 1272   0.768   0.585  10.500
   62TMC2    H1 1273   0.686   0.994  10.632
   62TMC2    H2 1274   0.420   0.686  10.726
   62TMC2    C7 1275   0.459   0.951  10.716
   62TMC2    C8 1276   0.539   0.485  10.602
   62TMC2    O1 1277   0.519   1.045  10.766
   62TMC2    O2 1278   0.459   0.448  10.686
   62TMC2    O5 1279   0.642   0.402  10.567
   62TMC2    H5 1280   0.689   0.439  10.490
   63TMC2    C1 1281   3.821   4.144   7.007
   63TMC2    C2 1282   3.913   4.139   7.108
   63TMC2    C3 1283   4.045   4.176   7.100
   63TMC2    C4 1284   3.861   4.188   6.881
   63TMC2    C5 1285   4.002   4.198   6.862
   63TMC2    C6 1286   4.089   4.187   6.968
   63TMC2     C 1287   3.710   4.058   7.031
   63TMC2     O 1288   3.701   3.993   7.138
   63TMC2     H 1289   3.879   4.115   7.208
   63TMC2    H1 1290   3.793   4.226   6.805
   63TMC2    H2 1291   4.196   4.177   6.950
   63TMC2    C7 1292   4.067   4.220   6.731
   63TMC2    C8 1293   4.132   4.131   7.209
   63TMC2    O1 1294   4.170   4.285   6.730
   63TMC2    O2 1295   4.105   4.028   7.271
   63TMC2    O5 1296   4.257   4.162   7.181
   63TMC2    H5 1297   4.259   4.248   7.134
   64TMC2    C1 1298   3.522   1.608   7.612
   64TMC2    C2 1299   3.450   1.521   7.528
   64TMC2    C3 1300   3.511   1.438   7.433
   64TMC2    C4 1301   3.651   1.623   7.584
   64TMC2    C5 1302   3.701   1.560   7.475
   64TMC2    C6 1303   3.643   1.449   7.407
   64TMC2     C 1304   3.460   1.653   7.735
   64TMC2     O 1305   3.354   1.597   7.761
   64TMC2     H 1306   3.348   1.499   7.557
   64TMC2    H1 1307   3.718   1.691   7.635
   64TMC2    H2 1308   3.677   1.410   7.311
   64TMC2    C7 1309   3.835   1.584   7.427
   64TMC2    C8 1310   3.448   1.316   7.392
   64TMC2    O1 1311   3.882   1.694   7.455
   64TMC2    O2 1312   3.509   1.230   7.331
   64TMC2    O5 1313   3.321   1.301   7.444
   64TMC2    H5 1314   3.289   1.379   7.494
   65TMC2    C1 1315   0.550   4.422   6.824
   65TMC2    C2 1316   0.666   4.347   6.835
   65TMC2    C3 1317   0.655   4.223   6.894
   65TMC2    C4 1318   0.438   4.381   6.890
   65TMC2    C5 1319   0.439   4.259   6.943
   65TMC2    C6 1320   0.541   4.173   6.944
   65TMC2     C 1321   0.561   4.556   6.761
   65TMC2     O 1322   0.668   4.621   6.759
   65TMC2     H 1323   0.758   4.395   6.806
   65TMC2    H1 1324   0.351   4.443   6.910
   65TMC2    H2 1325   0.543   4.072   6.983
   65TMC2    C7 1326   0.322   4.214   7.025
   65TMC2    C8 1327   0.775   4.139   6.884
   65TMC2    O1 1328   0.347   4.158   7.131
   65TMC2    O2 1329   0.863   4.162   6.803
   65TMC2    O5 1330   0.792   4.080   7.000
   65TMC2    H5 1331   0.722   4.086   7.069
   66TMC2    C1 1332   3.053   0.888  15.299
   66TMC2    C2 1333   2.957   0.965  15.353
   66TMC2    C3 1334   2.901   0.910  15.466
   66TMC2    C4 1335   3.114   0.779  15.360
   66TMC2    C5 1336   3.061   0.734  15.480
   66TMC2    C6 1337   2.951   0.798  15.523
   66TMC2     C 1338   3.105   0.923  15.170
   66TMC2     O 1339   3.026   0.981  15.095
   66TMC2     H 1340   2.913   1.051  15.303
   66TMC2    H1 1341   3.193   0.715  15.324
   66TMC2    H2 1342   2.895   0.749  15.602
   66TMC2    C7 1343   3.049   0.593  15.497
   66TMC2    C8 1344   2.783   0.978  15.508
   66TMC2    O1 1345   2.938   0.542  15.481
   66TMC2    O2 1346   2.753   0.989  15.626
   66TMC2    O5 1347   2.691   0.963  15.408
   66TMC2    H5 1348   2.724   0.949  15.316
   67TMC2    C1 1349   3.538   0.093   7.118
   67TMC2    C2 1350   3.491   0.162   7.230
   67TMC2    C3 1351   3.581   0.179   7.332
   67TMC2    C4 1352   3.668   0.038   7.114
   67TMC2    C5 1353   3.750   0.053   7.217
   67TMC2    C6 1354   3.708   0.121   7.326
   67TMC2     C 1355   3.443   0.071   7.015
   67TMC2     O 1356   3.329   0.049   7.048
   67TMC2     H 1357   3.393   0.208   7.218
   67TMC2    H1 1358   3.711   0.000   7.022
   67TMC2    H2 1359   3.782   0.137   7.404
   67TMC2    C7 1360   3.889   0.046   7.197
   67TMC2    C8 1361   3.544   0.242   7.457
   67TMC2    O1 1362   3.937   4.764   7.120
   67TMC2    O2 1363   3.603   0.223   7.560
   67TMC2    O5 1364   3.455   0.339   7.437
   67TMC2    H5 1365   3.457   0.367   7.343
   68TMC2    C1 1366   3.341   0.907   7.366
   68TMC2    C2 1367   3.431   0.805   7.342
   68TMC2    C3 1368   3.538   0.776   7.422
   68TMC2    C4 1369   3.361   0.985   7.473
   68TMC2    C5 1370   3.474   0.965   7.548
   68TMC2    C6 1371   3.565   0.864   7.518
   68TMC2     C 1372   3.234   0.916   7.276
   68TMC2     O 1373   3.226   0.836   7.185
   68TMC2     H 1374   3.427   0.758   7.244
   68TMC2    H1 1375   3.296   1.068   7.501
   68TMC2    H2 1376   3.660   0.858   7.570
   68TMC2    C7 1377   3.508   1.075   7.635
   68TMC2    C8 1378   3.647   0.715   7.353
   68TMC2    O1 1379   3.614   1.123   7.604
   68TMC2    O2 1380   3.728   0.652   7.419
   68TMC2    O5 1381   3.691   0.831   7.292
   68TMC2    H5 1382   3.620   0.889   7.258
   69TMC2    C1 1383   0.262   1.871   6.951
   69TMC2    C2 1384   0.298   1.949   7.054
   69TMC2    C3 1385   0.198   1.964   7.147
   69TMC2    C4 1386   0.138   1.822   6.928
   69TMC2    C5 1387   0.048   1.835   7.029
   69TMC2    C6 1388   0.076   1.907   7.133
   69TMC2     C 1389   0.372   1.818   6.867
   69TMC2     O 1390   0.481   1.795   6.919
   69TMC2     H 1391   0.399   1.986   7.064
   69TMC2    H1 1392   0.111   1.763   6.841
   69TMC2    H2 1393   0.004   1.923   7.212
   69TMC2    C7 1394   4.755   1.718   7.048
   69TMC2    C8 1395   0.218   2.067   7.253
   69TMC2    O1 1396   4.722   1.670   6.939
   69TMC2    O2 1397   0.306   2.149   7.236
   69TMC2    O5 1398   0.111   2.084   7.340
   69TMC2    H5 1399   0.045   2.012   7.343
   70TMC2    C1 1400   0.615   0.282   6.904
   70TMC2    C2 1401   0.529   0.184   6.921
   70TMC2    C3 1402   0.395   0.208   6.923
   70TMC2    C4 1403   0.579   0.420   6.911
   70TMC2    C5 1404   0.446   0.435   6.931
   70TMC2    C6 1405   0.354   0.335   6.931
   70TMC2     C 1406   0.760   0.259   6.871
   70TMC2     O 1407   0.819   0.350   6.813
   70TMC2     H 1408   0.564   0.082   6.906
   70TMC2    H1 1409   0.653   0.500   6.908
   70TMC2    H2 1410   0.248   0.357   6.932
   70TMC2    C7 1411   0.398   0.566   6.960
   70TMC2    C8 1412   0.304   0.102   6.963
   70TMC2    O1 1413   0.459   0.660   6.908
   70TMC2    O2 1414   0.337   0.001   7.021
   70TMC2    O5 1415   0.180   0.116   6.907
   70TMC2    H5 1416   0.156   0.195   6.853
   71TMC2    C1 1417   0.906   3.529  10.367
   71TMC2    C2 1418   1.023   3.602  10.371
   71TMC2    C3 1419   1.003   3.738  10.390
   71TMC2    C4 1420   0.777   3.585  10.382
   71TMC2    C5 1421   0.767   3.716  10.417
   71TMC2    C6 1422   0.880   3.799  10.420
   71TMC2     C 1423   0.906   3.389  10.395
   71TMC2     O 1424   0.824   3.322  10.340
   71TMC2     H 1425   1.119   3.554  10.361
   71TMC2    H1 1426   0.696   3.513  10.372
   71TMC2    H2 1427   0.873   3.902  10.451
   71TMC2    C7 1428   0.647   3.774  10.465
   71TMC2    C8 1429   1.115   3.818  10.399
   71TMC2    O1 1430   0.643   3.895  10.447
   71TMC2    O2 1431   1.107   3.939  10.417
   71TMC2    O5 1432   1.211   3.752  10.332
   71TMC2    H5 1433   1.285   3.810  10.306
   72TMC2    C1 1434   0.798   0.003  10.940
   72TMC2    C2 1435   0.736   4.674  10.921
   72TMC2    C3 1436   0.731   4.592  11.030
   72TMC2    C4 1437   0.831   0.047  11.064
   72TMC2    C5 1438   0.828   4.756  11.170
   72TMC2    C6 1439   0.782   4.627  11.155
   72TMC2     C 1440   0.855   0.082  10.827
   72TMC2     O 1441   0.871   0.202  10.846
   72TMC2     H 1442   0.702   4.641  10.823
   72TMC2    H1 1443   0.880   0.143  11.070
   72TMC2    H2 1444   0.772   4.559  11.239
   72TMC2    C7 1445   0.917   4.785  11.279
   72TMC2    C8 1446   0.633   4.482  11.030
   72TMC2    O1 1447   0.950   4.695  11.352
   72TMC2    O2 1448   0.613   4.418  10.927
   72TMC2    O5 1449   0.537   4.510  11.121
   72TMC2    H5 1450   0.567   4.591  11.168
   73TMC2    C1 1451   4.643   4.044   6.192
   73TMC2    C2 1452   4.758   4.108   6.240
   73TMC2    C3 1453   4.736   4.233   6.284
   73TMC2    C4 1454   4.523   4.096   6.203
   73TMC2    C5 1455   4.509   4.226   6.239
   73TMC2    C6 1456   4.615   4.301   6.279
   73TMC2     C 1457   4.640   3.895   6.196
   73TMC2     O 1458   4.568   3.834   6.122
   73TMC2     H 1459   0.058   4.054   6.222
   73TMC2    H1 1460   4.437   4.031   6.195
   73TMC2    H2 1461   4.603   4.404   6.312
   73TMC2    C7 1462   4.390   4.258   6.317
   73TMC2    C8 1463   0.056   4.304   6.333
   73TMC2    O1 1464   4.414   4.316   6.425
   73TMC2    O2 1465   0.065   4.427   6.340
   73TMC2    O5 1466   0.126   4.218   6.404
   73TMC2    H5 1467   0.067   4.141   6.418
   74TMC2    C1 1468   1.238   2.275  14.198
   74TMC2    C2 1469   1.158   2.200  14.273
   74TMC2    C3 1470   1.189   2.181  14.407
   74TMC2    C4 1471   1.367   2.310  14.235
   74TMC2    C5 1472   1.395   2.293  14.371
   74TMC2    C6 1473   1.306   2.238  14.461
   74TMC2     C 1474   1.196   2.317  14.063
   74TMC2     O 1475   1.100   2.263  14.005
   74TMC2     H 1476   1.058   2.183  14.236
   74TMC2    H1 1477   1.443   2.352  14.171
   74TMC2    H2 1478   1.324   2.236  14.568
   74TMC2    C7 1479   1.509   2.370  14.413
   74TMC2    C8 1480   1.074   2.163  14.489
   74TMC2    O1 1481   1.609   2.355  14.346
   74TMC2    O2 1482   0.979   2.085  14.469
   74TMC2    O5 1483   1.097   2.238  14.599
   74TMC2    H5 1484   1.158   2.314  14.587
   75TMC2    C1 1485   2.907   1.115   8.557
   75TMC2    C2 1486   2.871   1.206   8.465
   75TMC2    C3 1487   2.900   1.340   8.482
   75TMC2    C4 1488   2.955   1.153   8.679
   75TMC2    C5 1489   2.970   1.293   8.700
   75TMC2    C6 1490   2.951   1.384   8.604
   75TMC2     C 1491   2.883   0.974   8.533
   75TMC2     O 1492   2.804   0.940   8.450
   75TMC2     H 1493   2.828   1.173   8.372
   75TMC2    H1 1494   2.959   1.079   8.757
   75TMC2    H2 1495   2.965   1.490   8.624
   75TMC2    C7 1496   3.051   1.333   8.817
   75TMC2    C8 1497   2.890   1.443   8.385
   75TMC2    O1 1498   3.053   1.449   8.850
   75TMC2    O2 1499   2.900   1.562   8.410
   75TMC2    O5 1500   2.915   1.392   8.262
   75TMC2    H5 1501   2.932   1.295   8.259
   76TMC2    C1 1502   3.125   4.683   7.680
   76TMC2    C2 1503   3.158   4.771   7.781
   76TMC2    C3 1504   3.286   0.028   7.792
   76TMC2    C4 1505   3.226   4.645   7.594
   76TMC2    C5 1506   3.349   4.700   7.603
   76TMC2    C6 1507   3.379   0.006   7.698
   76TMC2     C 1508   3.048   4.573   7.732
   76TMC2     O 1509   3.034   4.561   7.854
   76TMC2     H 1510   3.092   4.793   7.864
   76TMC2    H1 1511   3.205   4.577   7.511
   76TMC2    H2 1512   3.476   0.056   7.697
   76TMC2    C7 1513   3.441   4.667   7.498
   76TMC2    C8 1514   3.285   0.164   7.853
   76TMC2    O1 1515   3.385   4.638   7.392
   76TMC2    O2 1516   3.338   0.196   7.961
   76TMC2    O5 1517   3.266   0.243   7.740
   76TMC2    H5 1518   3.230   0.202   7.659
   77TMC2    C1 1519   0.805   3.483   8.895
   77TMC2    C2 1520   0.692   3.469   8.821
   77TMC2    C3 1521   0.684   3.536   8.699
   77TMC2    C4 1522   0.909   3.551   8.838
   77TMC2    C5 1523   0.905   3.602   8.712
   77TMC2    C6 1524   0.792   3.592   8.638
   77TMC2     C 1525   0.786   3.523   9.029
   77TMC2     O 1526   0.886   3.523   9.096
   77TMC2     H 1527   0.604   3.418   8.859
   77TMC2    H1 1528   1.005   3.555   8.890
   77TMC2    H2 1529   0.784   3.632   8.538
   77TMC2    C7 1530   1.020   3.657   8.649
   77TMC2    C8 1531   0.564   3.514   8.621
   77TMC2    O1 1532   1.052   3.617   8.538
   77TMC2    O2 1533   0.465   3.475   8.677
   77TMC2    O5 1534   0.608   3.449   8.509
   77TMC2    H5 1535   0.704   3.463   8.492
   78TMC2    C1 1536   0.523   3.597   9.590
   78TMC2    C2 1537   0.617   3.494   9.594
   78TMC2    C3 1538   0.752   3.531   9.613
   78TMC2    C4 1539   0.558   3.726   9.597
   78TMC2    C5 1540   0.692   3.757   9.631
   78TMC2    C6 1541   0.785   3.657   9.642
   78TMC2     C 1542   0.390   3.562   9.544
   78TMC2     O 1543   0.318   3.655   9.508
   78TMC2     H 1544   0.596   3.388   9.587
   78TMC2    H1 1545   0.483   3.803   9.588
   78TMC2    H2 1546   0.890   3.676   9.666
   78TMC2    C7 1547   0.711   3.870   9.719
   78TMC2    C8 1548   0.845   3.425   9.642
   78TMC2    O1 1549   0.617   3.904   9.786
   78TMC2    O2 1550   0.937   3.445   9.713
   78TMC2    O5 1551   0.807   3.302   9.600
   78TMC2    H5 1552   0.763   3.314   9.513
   79TMC2    C1 1553   2.148   3.364  14.105
   79TMC2    C2 1554   2.230   3.390  14.216
   79TMC2    C3 1555   2.363   3.365  14.201
   79TMC2    C4 1556   2.195   3.315  13.988
   79TMC2    C5 1557   2.336   3.294  13.978
   79TMC2    C6 1558   2.422   3.329  14.076
   79TMC2     C 1559   2.014   3.392  14.115
   79TMC2     O 1560   1.957   3.411  14.007
   79TMC2     H 1561   2.187   3.445  14.299
   79TMC2    H1 1562   2.125   3.262  13.924
   79TMC2    H2 1563   2.522   3.289  14.077
   79TMC2    C7 1564   2.379   3.194  13.883
   79TMC2    C8 1565   2.440   3.406  14.316
   79TMC2    O1 1566   2.458   3.109  13.926
   79TMC2    O2 1567   2.399   3.400  14.431
   79TMC2    O5 1568   2.494   3.527  14.275
   79TMC2    H5 1569   2.487   3.536  14.178
   80TMC2    C1 1570   0.260   1.728   8.520
   80TMC2    C2 1571   0.223   1.681   8.394
   80TMC2    C3 1572   0.274   1.754   8.288
   80TMC2    C4 1573   0.318   1.851   8.540
   80TMC2    C5 1574   0.357   1.921   8.428
   80TMC2    C6 1575   0.348   1.869   8.297
   80TMC2     C 1576   0.258   1.629   8.625
   80TMC2     O 1577   0.349   1.636   8.707
   80TMC2     H 1578   0.156   1.596   8.394
   80TMC2    H1 1579   0.351   1.879   8.640
   80TMC2    H2 1580   0.384   1.925   8.212
   80TMC2    C7 1581   0.410   2.056   8.435
   80TMC2    C8 1582   0.229   1.730   8.158
   80TMC2    O1 1583   0.487   2.083   8.345
   80TMC2    O2 1584   0.245   1.815   8.071
   80TMC2    O5 1585   0.239   1.601   8.141
   80TMC2    H5 1586   0.244   1.548   8.223
   81TMC2    C1 1587   0.872   4.679   9.930
   81TMC2    C2 1588   0.952   4.769   9.863
   81TMC2    C3 1589   0.902   0.067   9.774
   81TMC2    C4 1590   0.745   4.670   9.886
   81TMC2    C5 1591   0.685   4.779   9.822
   81TMC2    C6 1592   0.771   0.075   9.755
   81TMC2     C 1593   0.877   4.702  10.074
   81TMC2     O 1594   0.932   0.017  10.102
   81TMC2     H 1595   1.057   4.770   9.890
   81TMC2    H1 1596   0.677   4.592   9.918
   81TMC2    H2 1597   0.727   0.154   9.696
   81TMC2    C7 1598   0.566   0.054   9.890
   81TMC2    C8 1599   0.976   0.188   9.745
   81TMC2    O1 1600   0.555   0.174   9.897
   81TMC2    O2 1601   1.079   0.223   9.804
   81TMC2    O5 1602   0.969   0.206   9.611
   81TMC2    H5 1603   0.913   0.143   9.561
   82TMC2    C1 1604   4.636   3.011  14.656
   82TMC2    C2 1605   4.667   3.115  14.735
   82TMC2    C3 1606   0.006   3.148  14.746
   82TMC2    C4 1607   4.728   2.933  14.590
   82TMC2    C5 1608   0.059   2.983  14.597
   82TMC2    C6 1609   0.103   3.079  14.681
   82TMC2     C 1610   4.509   3.008  14.587
   82TMC2     O 1611   4.491   2.911  14.520
   82TMC2     H 1612   4.591   3.149  14.805
   82TMC2    H1 1613   4.703   2.847  14.529
   82TMC2    H2 1614   0.203   3.120  14.683
   82TMC2    C7 1615   0.162   2.910  14.522
   82TMC2    C8 1616   0.029   3.280  14.794
   82TMC2    O1 1617   0.144   2.792  14.496
   82TMC2    O2 1618   4.747   3.378  14.782
   82TMC2    O5 1619   0.142   3.283  14.868
   82TMC2    H5 1620   0.181   3.194  14.879
   83TMC2    C1 1621   2.550   0.451  13.926
   83TMC2    C2 1622   2.471   0.517  14.020
   83TMC2    C3 1623   2.531   0.549  14.143
   83TMC2    C4 1624   2.688   0.435  13.949
   83TMC2    C5 1625   2.738   0.462  14.073
   83TMC2    C6 1626   2.659   0.521  14.178
   83TMC2     C 1627   2.486   0.354  13.847
   83TMC2     O 1628   2.374   0.321  13.878
   83TMC2     H 1629   2.366   0.542  14.008
   83TMC2    H1 1630   2.747   0.378  13.877
   83TMC2    H2 1631   2.712   0.557  14.265
   83TMC2    C7 1632   2.851   0.374  14.120
   83TMC2    C8 1633   2.450   0.619  14.236
   83TMC2    O1 1634   2.914   0.326  14.027
   83TMC2    O2 1635   2.346   0.680  14.209
   83TMC2    O5 1636   2.487   0.592  14.365
   83TMC2    H5 1637   2.556   0.526  14.384
   84TMC2    C1 1638   3.618   0.145   8.409
   84TMC2    C2 1639   3.684   0.246   8.462
   84TMC2    C3 1640   3.609   0.356   8.493
   84TMC2    C4 1641   3.479   0.136   8.383
   84TMC2    C5 1642   3.405   0.251   8.423
   84TMC2    C6 1643   3.474   0.361   8.468
   84TMC2     C 1644   3.695   0.024   8.404
   84TMC2     O 1645   3.787   0.010   8.482
   84TMC2     H 1646   3.791   0.236   8.478
   84TMC2    H1 1647   3.432   0.045   8.347
   84TMC2    H2 1648   3.413   0.443   8.504
   84TMC2    C7 1649   3.261   0.246   8.404
   84TMC2    C8 1650   3.671   0.485   8.517
   84TMC2    O1 1651   3.209   0.135   8.411
   84TMC2    O2 1652   3.605   0.586   8.527
   84TMC2    O5 1653   3.805   0.481   8.513
   84TMC2    H5 1654   3.848   0.393   8.516
   85TMC2    C1 1655   4.339   1.955  14.605
   85TMC2    C2 1656   4.358   1.846  14.687
   85TMC2    C3 1657   4.471   1.850  14.759
   85TMC2    C4 1658   4.438   2.045  14.567
   85TMC2    C5 1659   4.560   2.030  14.634
   85TMC2    C6 1660   4.576   1.937  14.735
   85TMC2     C 1661   4.211   1.957  14.550
   85TMC2     O 1662   4.119   1.910  14.621
   85TMC2     H 1663   4.283   1.774  14.720
   85TMC2    H1 1664   4.408   2.117  14.492
   85TMC2    H2 1665   4.675   1.915  14.775
   85TMC2    C7 1666   4.656   2.144  14.627
   85TMC2    C8 1667   4.505   1.724  14.820
   85TMC2    O1 1668   4.772   2.123  14.662
   85TMC2    O2 1669   4.478   1.629  14.748
   85TMC2    O5 1670   4.616   1.737  14.896
   85TMC2    H5 1671   4.631   1.823  14.941
   86TMC2    C1 1672   2.849   4.402   9.150
   86TMC2    C2 1673   2.817   4.505   9.239
   86TMC2    C3 1674   2.805   4.473   9.370
   86TMC2    C4 1675   2.872   4.281   9.201
   86TMC2    C5 1676   2.853   4.257   9.337
   86TMC2    C6 1677   2.814   4.352   9.427
   86TMC2     C 1678   2.910   4.422   9.015
   86TMC2     O 1679   3.010   4.349   8.991
   86TMC2     H 1680   2.829   4.607   9.204
   86TMC2    H1 1681   2.894   4.197   9.137
   86TMC2    H2 1682   2.804   4.337   9.534
   86TMC2    C7 1683   2.964   4.189   9.386
   86TMC2    C8 1684   2.760   4.587   9.451
   86TMC2    O1 1685   2.962   4.140   9.500
   86TMC2    O2 1686   2.774   4.702   9.410
   86TMC2    O5 1687   2.725   4.551   9.579
   86TMC2    H5 1688   2.714   4.455   9.593
   87MPD1     C 1689   1.176   4.096   7.465
   87MPD1    C1 1690   1.288   4.082   7.394
   87MPD1    C2 1691   1.285   4.049   7.264
   87MPD1    C3 1692   1.164   4.016   7.201
   87MPD1    C4 1693   1.045   4.022   7.278
   87MPD1    C5 1694   1.060   4.059   7.409
   87MPD1     H 1695   1.369   4.038   7.197
   87MPD1    H1 1696   0.947   4.022   7.230
   87MPD1    H2 1697   1.178   4.135   7.566
   87MPD1    H3 1698   0.967   4.068   7.464
   87MPD1     N 1699   1.175   3.996   7.063
   87MPD1    H5 1700   1.258   4.022   7.010
   87MPD1    N1 1701   1.417   4.131   7.439
   87MPD1    H6 1702   1.492   4.083   7.390
   87MPD1    H7 1703   1.436   4.148   7.537
   88MPD1     C 1704   4.056   1.688   9.734
   88MPD1    C1 1705   3.945   1.687   9.816
   88MPD1    C2 1706   3.932   1.796   9.906
   88MPD1    C3 1707   4.033   1.892   9.920
   88MPD1    C4 1708   4.150   1.882   9.836
   88MPD1    C5 1709   4.150   1.787   9.739
   88MPD1     H 1710   3.842   1.807   9.966
   88MPD1    H1 1711   4.238   1.945   9.838
   88MPD1    H2 1712   4.069   1.618   9.652
   88MPD1    H3 1713   4.234   1.793   9.671
   88MPD1     N 1714   4.009   1.998  10.011
   88MPD1    H5 1715   3.922   2.008  10.062
   88MPD1    N1 1716   3.831   1.611   9.780
   88MPD1    H6 1717   3.857   1.530   9.725
   88MPD1    H7 1718   3.784   1.582   9.865
   89MPD1     C 1719   2.397   3.682  11.806
   89MPD1    C1 1720   2.356   3.581  11.725
   89MPD1    C2 1721   2.364   3.454  11.782
   89MPD1    C3 1722   2.431   3.439  11.902
   89MPD1    C4 1723   2.496   3.543  11.972
   89MPD1    C5 1724   2.471   3.668  11.917
   89MPD1     H 1725   2.311   3.378  11.725
   89MPD1    H1 1726   2.563   3.523  12.055
   89MPD1    H2 1727   2.384   3.785  11.774
   89MPD1    H3 1728   2.497   3.761  11.967
   89MPD1     N 1729   2.448   3.318  11.972
   89MPD1    H5 1730   2.508   3.321  12.053
   89MPD1    N1 1731   2.272   3.602  11.616
   89MPD1    H6 1732   2.287   3.689  11.565
   89MPD1    H7 1733   2.265   3.522  11.552
   90MPD1     C 1734   0.745   1.999  13.734
   90MPD1    C1 1735   0.796   2.082  13.641
   90MPD1    C2 1736   0.937   2.103  13.646
   90MPD1    C3 1737   1.016   2.023  13.722
   90MPD1    C4 1738   0.964   1.931  13.815
   90MPD1    C5 1739   0.824   1.920  13.813
   90MPD1     H 1740   0.976   2.177  13.577
   90MPD1    H1 1741   1.020   1.871  13.886
   90MPD1    H2 1742   0.638   1.987  13.737
   90MPD1    H3 1743   0.773   1.856  13.884
   90MPD1     N 1744   1.154   2.039  13.727
   90MPD1    H5 1745   1.201   1.979  13.795
   90MPD1    N1 1746   0.704   2.170  13.578
   90MPD1    H6 1747   0.614   2.128  13.553
   90MPD1    H7 1748   0.745   2.186  13.486
   91MPD1     C 1749   3.006   2.463  10.755
   91MPD1    C1 1750   2.869   2.468  10.732
   91MPD1    C2 1751   2.801   2.352  10.726
   91MPD1    C3 1752   2.861   2.232  10.743
   91MPD1    C4 1753   2.996   2.228  10.772
   91MPD1    C5 1754   3.068   2.346  10.780
   91MPD1     H 1755   2.694   2.348  10.711
   91MPD1    H1 1756   3.050   2.136  10.789
   91MPD1    H2 1757   3.061   2.556  10.758
   91MPD1    H3 1758   3.176   2.340  10.784
   91MPD1     N 1759   2.780   2.129  10.701
   91MPD1    H5 1760   2.689   2.151  10.661
   91MPD1    N1 1761   2.804   2.588  10.695
   91MPD1    H6 1762   2.703   2.595  10.709
   91MPD1    H7 1763   2.841   2.680  10.716
   92MPD1     C 1764   2.781   1.162  10.976
   92MPD1    C1 1765   2.659   1.196  10.931
   92MPD1    C2 1766   2.636   1.308  10.860
   92MPD1    C3 1767   2.741   1.388  10.820
   92MPD1    C4 1768   2.869   1.348  10.851
   92MPD1    C5 1769   2.886   1.249  10.941
   92MPD1     H 1770   2.532   1.338  10.850
   92MPD1    H1 1771   2.960   1.398  10.819
   92MPD1    H2 1772   2.795   1.084  11.049
   92MPD1    H3 1773   2.983   1.213  10.975
   92MPD1     N 1774   2.723   1.503  10.745
   92MPD1    H5 1775   2.808   1.543  10.705
   92MPD1    N1 1776   2.557   1.100  10.949
   92MPD1    H6 1777   2.464   1.139  10.963
   92MPD1    H7 1778   2.581   1.044  11.030
   93MPD1     C 1779   1.801   4.230  12.013
   93MPD1    C1 1780   1.716   4.259  12.114
   93MPD1    C2 1781   1.655   4.153  12.179
   93MPD1    C3 1782   1.695   4.024  12.162
   93MPD1    C4 1783   1.794   3.994  12.070
   93MPD1    C5 1784   1.845   4.102  11.996
   93MPD1     H 1785   1.576   4.179  12.249
   93MPD1    H1 1786   1.828   3.895  12.040
   93MPD1    H2 1787   1.851   4.309  11.959
   93MPD1    H3 1788   1.923   4.085  11.923
   93MPD1     N 1789   1.615   3.918  12.213
   93MPD1    H5 1790   1.660   3.828  12.205
   93MPD1    N1 1791   1.661   4.390  12.124
   93MPD1    H6 1792   1.627   4.416  12.216
   93MPD1    H7 1793   1.731   4.459  12.097
   94MPD1     C 1794   3.107   0.210  12.868
   94MPD1    C1 1795   3.189   0.322  12.855
   94MPD1    C2 1796   3.197   0.408  12.961
   94MPD1    C3 1797   3.121   0.391  13.078
   94MPD1    C4 1798   3.052   0.270  13.085
   94MPD1    C5 1799   3.033   0.189  12.977
   94MPD1     H 1800   3.259   0.496  12.953
   94MPD1    H1 1801   2.992   0.250  13.174
   94MPD1    H2 1802   3.089   0.144  12.784
   94MPD1    H3 1803   2.967   0.104  12.981
   94MPD1     N 1804   3.116   0.484  13.182
   94MPD1    H5 1805   3.181   0.561  13.174
   94MPD1    N1 1806   3.272   0.338  12.738
   94MPD1    H6 1807   3.308   0.431  12.719
   94MPD1    H7 1808   3.228   0.300  12.655
   95MPD1     C 1809   1.365   0.624   6.568
   95MPD1    C1 1810   1.300   0.724   6.623
   95MPD1    C2 1811   1.163   0.730   6.604
   95MPD1    C3 1812   1.094   0.632   6.538
   95MPD1    C4 1813   1.163   0.526   6.487
   95MPD1    C5 1814   1.299   0.524   6.498
   95MPD1     H 1815   1.109   0.814   6.649
   95MPD1    H1 1816   1.106   0.443   6.446
   95MPD1    H2 1817   1.471   0.608   6.585
   95MPD1    H3 1818   1.354   0.436   6.467
   95MPD1     N 1819   0.954   0.644   6.532
   95MPD1    H5 1820   0.908   0.724   6.574
   95MPD1    N1 1821   1.364   0.831   6.684
   95MPD1    H6 1822   1.443   0.806   6.744
   95MPD1    H7 1823   1.297   0.887   6.736
   96MPD1     C 1824   4.641   0.875  13.091
   96MPD1    C1 1825   4.517   0.825  13.101
   96MPD1    C2 1826   4.413   0.918  13.116
   96MPD1    C3 1827   4.427   1.050  13.081
   96MPD1    C4 1828   4.552   1.091  13.060
   96MPD1    C5 1829   4.662   1.009  13.066
   96MPD1     H 1830   4.317   0.879  13.149
   96MPD1    H1 1831   4.577   1.196  13.050
   96MPD1    H2 1832   4.722   0.804  13.108
   96MPD1    H3 1833   4.764   1.045  13.056
   96MPD1     N 1834   4.325   1.151  13.091
   96MPD1    H5 1835   4.353   1.249  13.091
   96MPD1    N1 1836   4.490   0.693  13.141
   96MPD1    H6 1837   4.390   0.671  13.138
   96MPD1    H7 1838   4.538   0.625  13.082
   97MPD1     C 1839   3.849   4.563  12.179
   97MPD1    C1 1840   3.915   4.494  12.079
   97MPD1    C2 1841   3.901   4.356  12.093
   97MPD1    C3 1842   3.825   4.294  12.189
   97MPD1    C4 1843   3.749   4.367  12.277
   97MPD1    C5 1844   3.778   4.499  12.275
   97MPD1     H 1845   3.930   4.290  12.012
   97MPD1    H1 1846   3.699   4.308  12.353
   97MPD1    H2 1847   3.856   4.671  12.182
   97MPD1    H3 1848   3.738   4.566  12.350
   97MPD1     N 1849   3.812   4.150  12.198
   97MPD1    H5 1850   3.778   4.103  12.281
   97MPD1    N1 1851   3.965   4.554  11.959
   97MPD1    H6 1852   4.036   4.494  11.918
   97MPD1    H7 1853   4.003   4.646  11.980
   98MPD1     C 1854   3.176   0.849  10.898
   98MPD1    C1 1855   3.223   0.749  10.815
   98MPD1    C2 1856   3.132   0.708  10.718
   98MPD1    C3 1857   2.998   0.749  10.714
   98MPD1    C4 1858   2.954   0.834  10.817
   98MPD1    C5 1859   3.045   0.890  10.896
   98MPD1     H 1860   3.163   0.642  10.638
   98MPD1    H1 1861   2.856   0.880  10.814
   98MPD1    H2 1862   3.234   0.898  10.975
   98MPD1    H3 1863   3.011   0.962  10.969
   98MPD1     N 1864   2.919   0.701  10.609
   98MPD1    H5 1865   2.968   0.638  10.547
   98MPD1    N1 1866   3.359   0.718  10.817
   98MPD1    H6 1867   3.416   0.775  10.753
   98MPD1    H7 1868   3.360   0.624  10.776
   99MPD1     C 1869   0.564   2.012   6.458
   99MPD1    C1 1870   0.479   2.104   6.510
   99MPD1    C2 1871   0.494   2.141   6.637
   99MPD1    C3 1872   0.603   2.095   6.710
   99MPD1    C4 1873   0.688   1.997   6.657
   99MPD1    C5 1874   0.667   1.960   6.526
   99MPD1     H 1875   0.435   2.226   6.670
   99MPD1    H1 1876   0.775   1.964   6.713
   99MPD1    H2 1877   0.549   1.970   6.359
   99MPD1    H3 1878   0.733   1.887   6.480
   99MPD1     N 1879   0.638   2.150   6.835
   99MPD1    H5 1880   0.729   2.119   6.868
   99MPD1    N1 1881   0.359   2.136   6.436
   99MPD1    H6 1882   0.366   2.132   6.335
   99MPD1    H7 1883   0.300   2.216   6.459
  100MPD1     C 1884   0.037   1.422  14.673
  100MPD1    C1 1885   0.056   1.541  14.609
  100MPD1    C2 1886   0.177   1.560  14.541
  100MPD1    C3 1887   0.259   1.451  14.511
  100MPD1    C4 1888   0.216   1.326  14.549
  100MPD1    C5 1889   0.115   1.316  14.644
  100MPD1     H 1890   0.204   1.654  14.494
  100MPD1    H1 1891   0.270   1.234  14.530
  100MPD1    H2 1892   4.747   1.409  14.741
  100MPD1    H3 1893   0.081   1.223  14.686
  100MPD1     N 1894   0.389   1.460  14.452
  100MPD1    H5 1895   0.443   1.374  14.447
  100MPD1    N1 1896   4.775   1.652  14.650
  100MPD1    H6 1897   4.677   1.628  14.662
  100MPD1    H7 1898   4.777   1.728  14.581
  101MPD1     C 1899   2.030   1.414   7.736
  101MPD1    C1 1900   2.165   1.439   7.754
  101MPD1    C2 1901   2.210   1.563   7.721
  101MPD1    C3 1902   2.128   1.645   7.642
  101MPD1    C4 1903   1.997   1.615   7.613
  101MPD1    C5 1904   1.950   1.506   7.683
  101MPD1     H 1905   2.315   1.579   7.740
  101MPD1    H1 1906   1.929   1.679   7.559
  101MPD1    H2 1907   1.978   1.329   7.779
  101MPD1    H3 1908   1.845   1.478   7.681
  101MPD1     N 1909   2.184   1.770   7.595
  101MPD1    H5 1910   2.284   1.777   7.611
  101MPD1    N1 1911   2.257   1.353   7.822
  101MPD1    H6 1912   2.245   1.252   7.811
  101MPD1    H7 1913   2.354   1.382   7.811
  102MPD1     C 1914   1.028   4.342   7.134
  102MPD1    C1 1915   1.056   4.418   7.245
  102MPD1    C2 1916   1.091   4.556   7.235
  102MPD1    C3 1917   1.109   4.613   7.113
  102MPD1    C4 1918   1.075   4.535   6.998
  102MPD1    C5 1919   1.041   4.404   7.014
  102MPD1     H 1920   1.089   4.616   7.326
  102MPD1    H1 1921   1.101   4.566   6.898
  102MPD1    H2 1922   1.007   4.235   7.130
  102MPD1    H3 1923   1.031   4.346   6.922
  102MPD1     N 1924   1.152   4.746   7.083
  102MPD1    H5 1925   1.130   4.769   6.986
  102MPD1    N1 1926   1.028   4.356   7.372
  102MPD1    H6 1927   1.077   4.405   7.446
  102MPD1    H7 1928   1.054   4.257   7.370
  103MPD1     C 1929   0.851   0.962   6.973
  103MPD1    C1 1930   0.909   0.912   7.083
  103MPD1    C2 1931   0.935   0.774   7.082
  103MPD1    C3 1932   0.917   0.689   6.976
  103MPD1    C4 1933   0.853   0.742   6.866
  103MPD1    C5 1934   0.822   0.878   6.869
  103MPD1     H 1935   0.976   0.750   7.180
  103MPD1    H1 1936   0.856   0.687   6.773
  103MPD1    H2 1937   0.817   1.065   6.967
  103MPD1    H3 1938   0.768   0.915   6.783
  103MPD1     N 1939   0.961   0.548   6.970
  103MPD1    H5 1940   0.950   0.494   6.885
  103MPD1    N1 1941   0.917   0.989   7.201
  103MPD1    H6 1942   0.938   1.087   7.183
  103MPD1    H7 1943   0.983   0.945   7.264
  104MPD1     C 1944   4.487   3.817  12.456
  104MPD1    C1 1945   4.431   3.879  12.355
  104MPD1    C2 1946   4.334   3.977  12.383
  104MPD1    C3 1947   4.299   4.013  12.510
  104MPD1    C4 1948   4.362   3.953  12.609
  104MPD1    C5 1949   4.456   3.858  12.586
  104MPD1     H 1950   4.284   4.024  12.298
  104MPD1    H1 1951   4.344   3.986  12.710
  104MPD1    H2 1952   4.542   3.723  12.455
  104MPD1    H3 1953   4.505   3.816  12.673
  104MPD1     N 1954   4.204   4.118  12.534
  104MPD1    H5 1955   4.177   4.132  12.631
  104MPD1    N1 1956   4.448   3.833  12.226
  104MPD1    H6 1957   4.541   3.794  12.213
  104MPD1    H7 1958   4.438   3.906  12.156
  105MPD1     C 1959   2.982   1.172  14.320
  105MPD1    C1 1960   3.033   1.083  14.226
  105MPD1    C2 1961   3.056   1.125  14.095
  105MPD1    C3 1962   3.041   1.258  14.062
  105MPD1    C4 1963   2.992   1.346  14.156
  105MPD1    C5 1964   2.963   1.304  14.281
  105MPD1     H 1965   3.090   1.047  14.029
  105MPD1    H1 1966   2.973   1.450  14.129
  105MPD1    H2 1967   2.945   1.150  14.420
  105MPD1    H3 1968   2.916   1.377  14.346
  105MPD1     N 1969   3.070   1.314  13.939
  105MPD1    H5 1970   3.062   1.415  13.932
  105MPD1    N1 1971   3.031   0.946  14.264
  105MPD1    H6 1972   3.110   0.909  14.212
  105MPD1    H7 1973   3.041   0.936  14.364
  106MPD1     C 1974   3.029   1.867   7.248
  106MPD1    C1 1975   3.109   1.756   7.261
  106MPD1    C2 1976   3.075   1.661   7.351
  106MPD1    C3 1977   2.956   1.663   7.423
  106MPD1    C4 1978   2.875   1.771   7.415
  106MPD1    C5 1979   2.919   1.865   7.322
  106MPD1     H 1980   3.138   1.573   7.357
  106MPD1    H1 1981   2.792   1.796   7.481
  106MPD1    H2 1982   3.047   1.949   7.179
  106MPD1    H3 1983   2.861   1.957   7.318
  106MPD1     N 1984   2.906   1.555   7.508
  106MPD1    H5 1985   2.818   1.559   7.559
  106MPD1    N1 1986   3.235   1.747   7.200
  106MPD1    H6 1987   3.240   1.794   7.109
  106MPD1    H7 1988   3.274   1.653   7.194
  107MPD1     C 1989   4.705   1.901  13.784
  107MPD1    C1 1990   4.715   2.024  13.847
  107MPD1    C2 1991   4.598   2.088  13.872
  107MPD1    C3 1992   4.471   2.043  13.832
  107MPD1    C4 1993   4.473   1.940  13.744
  107MPD1    C5 1994   4.585   1.868  13.728
  107MPD1     H 1995   4.606   2.177  13.933
  107MPD1    H1 1996   4.387   1.905  13.688
  107MPD1    H2 1997   0.003   1.846  13.762
  107MPD1    H3 1998   4.582   1.789  13.654
  107MPD1     N 1999   4.368   2.125  13.866
  107MPD1    H5 2000   4.401   2.212  13.905
  107MPD1    N1 2001   0.044   2.050  13.917
  107MPD1    H6 2002   0.061   2.147  13.941
  107MPD1    H7 2003   0.129   2.011  13.876
  108MPD1     C 2004   3.067   0.823  11.724
  108MPD1    C1 2005   3.175   0.846  11.647
  108MPD1    C2 2006   3.282   0.749  11.639
  108MPD1    C3 2007   3.269   0.629  11.709
  108MPD1    C4 2008   3.152   0.604  11.776
  108MPD1    C5 2009   3.056   0.704  11.776
  108MPD1     H 2010   3.380   0.777  11.601
  108MPD1    H1 2011   3.131   0.504  11.813
  108MPD1    H2 2012   2.991   0.900  11.736
  108MPD1    H3 2013   2.962   0.675  11.823
  108MPD1     N 2014   3.368   0.530  11.721
  108MPD1    H5 2015   3.345   0.443  11.767
  108MPD1    N1 2016   3.199   0.981  11.605
  108MPD1    H6 2017   3.124   1.028  11.554
  108MPD1    H7 2018   3.271   0.997  11.535
  109MPD1     C 2019   3.790   2.691   9.802
  109MPD1    C1 2020   3.873   2.728   9.702
  109MPD1    C2 2021   3.849   2.840   9.627
  109MPD1    C3 2022   3.729   2.907   9.643
  109MPD1    C4 2023   3.658   2.885   9.758
  109MPD1    C5 2024   3.686   2.774   9.837
  109MPD1     H 2025   3.913   2.872   9.546
  109MPD1    H1 2026   3.574   2.949   9.782
  109MPD1    H2 2027   3.803   2.608   9.870
  109MPD1    H3 2028   3.642   2.758   9.935
  109MPD1     N 2029   3.696   3.012   9.551
  109MPD1    H5 2030   3.753   3.037   9.471
  109MPD1    N1 2031   3.989   2.647   9.672
  109MPD1    H6 2032   4.028   2.614   9.760
  109MPD1    H7 2033   4.049   2.693   9.604
  110MPD1     C 2034   2.937   3.537   8.947
  110MPD1    C1 2035   2.925   3.492   9.080
  110MPD1    C2 2036   3.035   3.437   9.149
  110MPD1    C3 2037   3.158   3.424   9.087
  110MPD1    C4 2038   3.176   3.484   8.965
  110MPD1    C5 2039   3.065   3.535   8.892
  110MPD1     H 2040   3.027   3.405   9.253
  110MPD1    H1 2041   3.273   3.490   8.918
  110MPD1    H2 2042   2.858   3.578   8.885
  110MPD1    H3 2043   3.077   3.575   8.793
  110MPD1     N 2044   3.282   3.379   9.143
  110MPD1    H5 2045   3.367   3.379   9.089
  110MPD1    N1 2046   2.805   3.507   9.145
  110MPD1    H6 2047   2.765   3.598   9.123
  110MPD1    H7 2048   2.819   3.513   9.246
  111MPD1     C 2049   2.412   2.562  12.496
  111MPD1    C1 2050   2.524   2.590  12.421
  111MPD1    C2 2051   2.610   2.690  12.468
  111MPD1    C3 2052   2.587   2.762  12.581
  111MPD1    C4 2053   2.477   2.730  12.660
  111MPD1    C5 2054   2.400   2.625  12.623
  111MPD1     H 2055   2.695   2.716  12.407
  111MPD1    H1 2056   2.461   2.784  12.752
  111MPD1    H2 2057   2.337   2.491  12.462
  111MPD1    H3 2058   2.314   2.596  12.683
  111MPD1     N 2059   2.676   2.867  12.625
  111MPD1    H5 2060   2.663   2.907  12.717
  111MPD1    N1 2061   2.539   2.520  12.305
  111MPD1    H6 2062   2.611   2.561  12.245
  111MPD1    H7 2063   2.461   2.523  12.240
  112MPD1     C 2064   4.723   0.500  13.318
  112MPD1    C1 2065   4.643   0.451  13.417
  112MPD1    C2 2066   4.660   0.318  13.459
  112MPD1    C3 2067   4.764   0.243  13.412
  112MPD1    C4 2068   0.065   0.306  13.335
  112MPD1    C5 2069   0.048   0.432  13.287
  112MPD1     H 2070   4.590   0.281  13.533
  112MPD1    H1 2071   0.155   0.253  13.308
  112MPD1    H2 2072   4.714   0.599  13.274
  112MPD1    H3 2073   0.119   0.474  13.217
  112MPD1     N 2074   0.001   0.111  13.450
  112MPD1    H5 2075   0.088   0.078  13.409
  112MPD1    N1 2076   4.524   0.514  13.448
  112MPD1    H6 2077   4.493   0.493  13.542
  112MPD1    H7 2078   4.530   0.613  13.427
  113MPD1     C 2079   2.758   2.229  13.839
  113MPD1    C1 2080   2.737   2.186  13.972
  113MPD1    C2 2081   2.690   2.056  13.996
  113MPD1    C3 2082   2.695   1.965  13.890
  113MPD1    C4 2083   2.731   2.002  13.759
  113MPD1    C5 2084   2.757   2.131  13.736
  113MPD1     H 2085   2.672   2.032  14.100
  113MPD1    H1 2086   2.745   1.931  13.679
  113MPD1    H2 2087   2.785   2.330  13.811
  113MPD1    H3 2088   2.779   2.162  13.634
  113MPD1     N 2089   2.668   1.829  13.913
  113MPD1    H5 2090   2.702   1.759  13.848
  113MPD1    N1 2091   2.741   2.282  14.076
  113MPD1    H6 2092   2.752   2.237  14.167
  113MPD1    H7 2093   2.802   2.361  14.052
  114MPD1     C 2094   0.751   0.498  14.285
  114MPD1    C1 2095   0.848   0.519  14.191
  114MPD1    C2 2096   0.956   0.602  14.212
  114MPD1    C3 2097   0.966   0.676  14.326
  114MPD1    C4 2098   0.857   0.666  14.412
  114MPD1    C5 2099   0.754   0.579  14.391
  114MPD1     H 2100   1.040   0.598  14.143
  114MPD1    H1 2101   0.848   0.730  14.499
  114MPD1    H2 2102   0.667   0.431  14.271
  114MPD1    H3 2103   0.678   0.587  14.468
  114MPD1     N 2104   1.065   0.764  14.370
  114MPD1    H5 2105   1.063   0.814  14.459
  114MPD1    N1 2106   0.855   0.424  14.086
  114MPD1    H6 2107   0.765   0.382  14.065
  114MPD1    H7 2108   0.902   0.464  14.004
  115MPD1     C 2109   1.100   4.152  13.230
  115MPD1    C1 2110   1.088   4.266  13.151
  115MPD1    C2 2111   1.172   4.287  13.043
  115MPD1    C3 2112   1.274   4.196  13.016
  115MPD1    C4 2113   1.285   4.081  13.096
  115MPD1    C5 2114   1.191   4.057  13.197
  115MPD1     H 2115   1.166   4.381  12.990
  115MPD1    H1 2116   1.355   4.002  13.072
  115MPD1    H2 2117   1.043   4.131  13.320
  115MPD1    H3 2118   1.205   3.974  13.265
  115MPD1     N 2119   1.360   4.207  12.904
  115MPD1    H5 2120   1.410   4.122  12.882
  115MPD1    N1 2121   0.977   4.343  13.173
  115MPD1    H6 2122   0.999   4.440  13.150
  115MPD1    H7 2123   0.940   4.344  13.268
  116MPD1     C 2124   4.148   1.079  10.912
  116MPD1    C1 2125   4.062   1.178  10.869
  116MPD1    C2 2126   4.004   1.255  10.968
  116MPD1    C3 2127   4.018   1.234  11.099
  116MPD1    C4 2128   4.108   1.137  11.137
  116MPD1    C5 2129   4.168   1.063  11.050
  116MPD1     H 2130   3.942   1.343  10.952
  116MPD1    H1 2131   4.142   1.121  11.239
  116MPD1    H2 2132   4.191   1.012  10.839
  116MPD1    H3 2133   4.238   0.993  11.094
  116MPD1     N 2134   3.959   1.323  11.199
  116MPD1    H5 2135   3.926   1.414  11.171
  116MPD1    N1 2136   4.064   1.198  10.729
  116MPD1    H6 2137   4.004   1.275  10.699
  116MPD1    H7 2138   4.157   1.229  10.702
  117MPD1     C 2139   1.015   2.825   7.526
  117MPD1    C1 2140   1.002   2.716   7.439
  117MPD1    C2 2141   0.965   2.727   7.313
  117MPD1    C3 2142   0.960   2.858   7.250
  117MPD1    C4 2143   0.964   2.961   7.337
  117MPD1    C5 2144   0.998   2.947   7.468
  117MPD1     H 2145   0.961   2.642   7.246
  117MPD1    H1 2146   0.958   3.063   7.302
  117MPD1    H2 2147   1.034   2.819   7.632
  117MPD1    H3 2148   1.017   3.031   7.534
  117MPD1     N 2149   0.949   2.869   7.113
  117MPD1    H5 2150   0.960   2.963   7.075
  117MPD1    N1 2151   1.003   2.587   7.499
  117MPD1    H6 2152   1.028   2.585   7.597
  117MPD1    H7 2153   1.050   2.515   7.444
  118MPD1     C 2154   3.678   3.048  11.481
  118MPD1    C1 2155   3.709   3.082  11.352
  118MPD1    C2 2156   3.841   3.069  11.311
  118MPD1    C3 2157   3.945   3.043  11.399
  118MPD1    C4 2158   3.908   2.996  11.523
  118MPD1    C5 2159   3.779   3.008  11.564
  118MPD1     H 2160   3.854   3.078  11.204
  118MPD1    H1 2161   3.977   2.941  11.586
  118MPD1    H2 2162   3.576   3.033  11.513
  118MPD1    H3 2163   3.762   2.965  11.662
  118MPD1     N 2164   4.083   3.045  11.359
  118MPD1    H5 2165   4.102   3.070  11.263
  118MPD1    N1 2166   3.610   3.111  11.251
  118MPD1    H6 2167   3.516   3.133  11.283
  118MPD1    H7 2168   3.641   3.187  11.192
  119MPD1     C 2169   2.538   1.900   9.312
  119MPD1    C1 2170   2.653   1.901   9.387
  119MPD1    C2 2171   2.649   1.844   9.515
  119MPD1    C3 2172   2.530   1.797   9.569
  119MPD1    C4 2173   2.412   1.809   9.492
  119MPD1    C5 2174   2.418   1.865   9.368
  119MPD1     H 2175   2.742   1.839   9.570
  119MPD1    H1 2176   2.317   1.764   9.521
  119MPD1    H2 2177   2.534   1.938   9.210
  119MPD1    H3 2178   2.334   1.872   9.300
  119MPD1     N 2179   2.533   1.738   9.697
  119MPD1    H5 2180   2.632   1.729   9.717
  119MPD1    N1 2181   2.778   1.934   9.340
  119MPD1    H6 2182   2.763   1.993   9.259
  119MPD1    H7 2183   2.839   1.978   9.408
  120MPD1     C 2184   1.973   0.864   6.317
  120MPD1    C1 2185   1.921   0.818   6.436
  120MPD1    C2 2186   1.956   0.884   6.550
  120MPD1    C3 2187   2.034   0.999   6.548
  120MPD1    C4 2188   2.085   1.038   6.429
  120MPD1    C5 2189   2.057   0.974   6.311
  120MPD1     H 2190   1.917   0.847   6.644
  120MPD1    H1 2191   2.143   1.130   6.423
  120MPD1    H2 2192   1.967   0.806   6.226
  120MPD1    H3 2193   2.101   1.001   6.216
  120MPD1     N 2194   2.070   1.073   6.665
  120MPD1    H5 2195   2.126   1.158   6.672
  120MPD1    N1 2196   1.854   0.696   6.447
  120MPD1    H6 2197   1.787   0.691   6.370
  120MPD1    H7 2198   1.800   0.681   6.532
  121MPD1     C 2199   1.492   2.415   9.043
  121MPD1    C1 2200   1.424   2.298   9.027
  121MPD1    C2 2201   1.327   2.268   9.120
  121MPD1    C3 2202   1.274   2.357   9.213
  121MPD1    C4 2203   1.336   2.479   9.215
  121MPD1    C5 2204   1.446   2.504   9.132
  121MPD1     H 2205   1.278   2.171   9.123
  121MPD1    H1 2206   1.307   2.561   9.280
  121MPD1    H2 2207   1.576   2.423   8.974
  121MPD1    H3 2208   1.503   2.594   9.147
  121MPD1     N 2209   1.169   2.316   9.300
  121MPD1    H5 2210   1.141   2.219   9.296
  121MPD1    N1 2211   1.478   2.201   8.943
  121MPD1    H6 2212   1.408   2.133   8.915
  121MPD1    H7 2213   1.525   2.231   8.857
  122MPD1     C 2214   1.186   3.242  13.592
  122MPD1    C1 2215   1.167   3.147  13.492
  122MPD1    C2 2216   1.093   3.186  13.379
  122MPD1    C3 2217   1.048   3.318  13.363
  122MPD1    C4 2218   1.074   3.408  13.455
  122MPD1    C5 2219   1.131   3.367  13.573
  122MPD1     H 2220   1.079   3.110  13.303
  122MPD1    H1 2221   1.013   3.497  13.465
  122MPD1    H2 2222   1.228   3.217  13.689
  122MPD1    H3 2223   1.145   3.433  13.658
  122MPD1     N 2224   0.959   3.334  13.254
  122MPD1    H5 2225   0.944   3.257  13.191
  122MPD1    N1 2226   1.208   3.012  13.513
  122MPD1    H6 2227   1.270   3.007  13.594
  122MPD1    H7 2228   1.125   2.956  13.530
  123MPD1     C 2229   0.700   2.354  12.355
  123MPD1    C1 2230   0.686   2.256  12.445
  123MPD1    C2 2231   0.624   2.292  12.564
  123MPD1    C3 2232   0.582   2.425  12.594
  123MPD1    C4 2233   0.581   2.518  12.488
  123MPD1    C5 2234   0.651   2.482  12.379
  123MPD1     H 2235   0.623   2.223  12.647
  123MPD1    H1 2236   0.538   2.618  12.495
  123MPD1    H2 2237   0.729   2.319  12.257
  123MPD1    H3 2238   0.651   2.557  12.301
  123MPD1     N 2239   0.522   2.469  12.713
  123MPD1    H5 2240   0.508   2.570  12.716
  123MPD1    N1 2241   0.743   2.131  12.431
  123MPD1    H6 2242   0.692   2.066  12.491
  123MPD1    H7 2243   0.743   2.110  12.332
  124MPD1     C 2244   0.954   0.175  12.958
  124MPD1    C1 2245   0.881   0.234  13.061
  124MPD1    C2 2246   0.778   0.320  13.017
  124MPD1    C3 2247   0.738   0.320  12.888
  124MPD1    C4 2248   0.820   0.271  12.790
  124MPD1    C5 2249   0.928   0.195  12.829
  124MPD1     H 2250   0.723   0.377  13.092
  124MPD1    H1 2251   0.801   0.281  12.684
  124MPD1    H2 2252   1.049   0.125  12.972
  124MPD1    H3 2253   0.997   0.160  12.753
  124MPD1     N 2254   0.630   0.400  12.856
  124MPD1    H5 2255   0.610   0.414  12.758
  124MPD1    N1 2256   0.942   0.248  13.188
  124MPD1    H6 2257   0.998   0.164  13.204
  124MPD1    H7 2258   0.857   0.252  13.244
  125MPD1     C 2259   4.138   2.841   5.530
  125MPD1    C1 2260   4.142   2.977   5.560
  125MPD1    C2 2261   4.205   3.012   5.679
  125MPD1    C3 2262   4.260   2.923   5.765
  125MPD1    C4 2263   4.245   2.794   5.735
  125MPD1    C5 2264   4.181   2.757   5.622
  125MPD1     H 2265   4.214   3.119   5.694
  125MPD1    H1 2266   4.272   2.715   5.804
  125MPD1    H2 2267   4.099   2.799   5.439
  125MPD1    H3 2268   4.154   2.653   5.614
  125MPD1     N 2269   4.291   2.954   5.902
  125MPD1    H5 2270   4.313   2.876   5.963
  125MPD1    N1 2271   4.123   3.070   5.461
  125MPD1    H6 2272   4.053   3.042   5.392
  125MPD1    H7 2273   4.101   3.162   5.499
  126MPD1     C 2274   1.554   1.818  13.542
  126MPD1    C1 2275   1.515   1.682  13.553
  126MPD1    C2 2276   1.375   1.664  13.550
  126MPD1    C3 2277   1.284   1.761  13.513
  126MPD1    C4 2278   1.333   1.888  13.479
  126MPD1    C5 2279   1.465   1.917  13.497
  126MPD1     H 2280   1.336   1.566  13.576
  126MPD1    H1 2281   1.270   1.965  13.438
  126MPD1    H2 2282   1.655   1.857  13.548
  126MPD1    H3 2283   1.501   2.016  13.475
  126MPD1     N 2284   1.150   1.717  13.510
  126MPD1    H5 2285   1.128   1.627  13.550
  126MPD1    N1 2286   1.620   1.591  13.582
  126MPD1    H6 2287   1.587   1.495  13.571
  126MPD1    H7 2288   1.681   1.593  13.501
  127MPD1     C 2289   4.036   1.935   7.165
  127MPD1    C1 2290   4.025   2.022   7.273
  127MPD1    C2 2291   4.056   2.157   7.263
  127MPD1    C3 2292   4.104   2.207   7.144
  127MPD1    C4 2293   4.116   2.114   7.042
  127MPD1    C5 2294   4.072   1.986   7.048
  127MPD1     H 2295   4.033   2.222   7.346
  127MPD1    H1 2296   4.153   2.147   6.945
  127MPD1    H2 2297   3.993   1.836   7.159
  127MPD1    H3 2298   4.073   1.924   6.959
  127MPD1     N 2299   4.142   2.336   7.119
  127MPD1    H5 2300   4.171   2.361   7.025
  127MPD1    N1 2301   3.964   1.966   7.383
  127MPD1    H6 2302   3.948   1.866   7.392
  127MPD1    H7 2303   3.954   2.016   7.471
  128MPD1     C 2304   0.001   3.093   7.458
  128MPD1    C1 2305   4.679   3.060   7.525
  128MPD1    C2 2306   4.569   3.002   7.460
  128MPD1    C3 2307   4.580   2.962   7.330
  128MPD1    C4 2308   4.692   3.012   7.263
  128MPD1    C5 2309   0.005   3.079   7.320
  128MPD1     H 2310   4.489   2.971   7.527
  128MPD1    H1 2311   4.702   2.993   7.157
  128MPD1    H2 2312   0.085   3.141   7.507
  128MPD1    H3 2313   0.089   3.109   7.258
  128MPD1     N 2314   4.485   2.893   7.251
  128MPD1    H5 2315   4.507   2.870   7.155
  128MPD1    N1 2316   4.678   3.085   7.660
  128MPD1    H6 2317   4.593   3.050   7.703
  128MPD1    H7 2318   4.739   3.017   7.705
  129MPD1     C 2319   0.187   1.804  13.163
  129MPD1    C1 2320   0.109   1.896  13.100
  129MPD1    C2 2321   0.140   1.924  12.971
  129MPD1    C3 2322   0.248   1.876  12.903
  129MPD1    C4 2323   0.329   1.792  12.975
  129MPD1    C5 2324   0.310   1.764  13.109
  129MPD1     H 2325   0.074   1.985  12.909
  129MPD1    H1 2326   0.411   1.736  12.931
  129MPD1    H2 2327   0.173   1.754  13.258
  129MPD1    H3 2328   0.370   1.687  13.154
  129MPD1     N 2329   0.258   1.916  12.763
  129MPD1    H5 2330   0.197   1.990  12.729
  129MPD1    N1 2331   4.788   1.952  13.159
  129MPD1    H6 2332   0.015   1.961  13.258
  129MPD1    H7 2333   4.759   2.042  13.121
  130MPD1     C 2334   4.003   0.749  13.023
  130MPD1    C1 2335   4.107   0.703  12.948
  130MPD1    C2 2336   4.177   0.589  12.994
  130MPD1    C3 2337   4.149   0.534  13.111
  130MPD1    C4 2338   4.051   0.591  13.191
  130MPD1    C5 2339   3.984   0.694  13.146
  130MPD1     H 2340   4.242   0.543  12.921
  130MPD1    H1 2341   4.022   0.555  13.289
  130MPD1    H2 2342   3.937   0.833  13.002
  130MPD1    H3 2343   3.915   0.747  13.211
  130MPD1     N 2344   4.207   0.420  13.167
  130MPD1    H5 2345   4.176   0.377  13.254
  130MPD1    N1 2346   4.121   0.739  12.816
  130MPD1    H6 2347   4.214   0.711  12.785
  130MPD1    H7 2348   4.095   0.832  12.784
  131MPD1     C 2349   3.421   1.303  11.254
  131MPD1    C1 2350   3.327   1.388  11.195
  131MPD1    C2 2351   3.197   1.351  11.197
  131MPD1    C3 2352   3.157   1.239  11.262
  131MPD1    C4 2353   3.248   1.145  11.310
  131MPD1    C5 2354   3.376   1.186  11.318
  131MPD1     H 2355   3.127   1.416  11.144
  131MPD1    H1 2356   3.227   1.045  11.347
  131MPD1    H2 2357   3.526   1.323  11.239
  131MPD1    H3 2358   3.452   1.119  11.355
  131MPD1     N 2359   3.018   1.219  11.280
  131MPD1    H5 2360   2.955   1.292  11.250
  131MPD1    N1 2361   3.365   1.504  11.122
  131MPD1    H6 2362   3.302   1.581  11.142
  131MPD1    H7 2363   3.463   1.522  11.145
  132MPD1     C 2364   2.305   0.466  11.353
  132MPD1    C1 2365   2.324   0.532  11.236
  132MPD1    C2 2366   2.408   0.643  11.239
  132MPD1    C3 2367   2.468   0.695  11.352
  132MPD1    C4 2368   2.455   0.616  11.468
  132MPD1    C5 2369   2.372   0.504  11.460
  132MPD1     H 2370   2.415   0.699  11.147
  132MPD1    H1 2371   2.503   0.650  11.559
  132MPD1    H2 2372   2.232   0.386  11.363
  132MPD1    H3 2373   2.366   0.439  11.547
  132MPD1     N 2374   2.541   0.817  11.362
  132MPD1    H5 2375   2.579   0.839  11.454
  132MPD1    N1 2376   2.258   0.498  11.117
  132MPD1    H6 2377   2.312   0.498  11.030
  132MPD1    H7 2378   2.206   0.411  11.114
  133MPD1     C 2379   3.268   1.885   7.571
  133MPD1    C1 2380   3.347   1.992   7.532
  133MPD1    C2 2381   3.377   2.092   7.625
  133MPD1    C3 2382   3.325   2.089   7.752
  133MPD1    C4 2383   3.234   1.987   7.787
  133MPD1    C5 2384   3.210   1.885   7.696
  133MPD1     H 2385   3.443   2.174   7.602
  133MPD1    H1 2386   3.196   1.984   7.889
  133MPD1    H2 2387   3.235   1.805   7.506
  133MPD1    H3 2388   3.141   1.805   7.721
  133MPD1     N 2389   3.345   2.203   7.833
  133MPD1    H5 2390   3.423   2.266   7.816
  133MPD1    N1 2391   3.382   2.002   7.400
  133MPD1    H6 2392   3.475   2.037   7.376
  133MPD1    H7 2393   3.352   1.926   7.339
  134MPD1     C 2394   3.581   4.099  13.446
  134MPD1    C1 2395   3.714   4.134  13.431
  134MPD1    C2 2396   3.811   4.086  13.519
  134MPD1    C3 2397   3.782   3.994  13.613
  134MPD1    C4 2398   3.652   3.949  13.621
  134MPD1    C5 2399   3.551   4.005  13.545
  134MPD1     H 2400   3.913   4.122  13.521
  134MPD1    H1 2401   3.615   3.879  13.695
  134MPD1    H2 2402   3.502   4.136  13.381
  134MPD1    H3 2403   3.450   3.976  13.571
  134MPD1     N 2404   3.882   3.940  13.696
  134MPD1    H5 2405   3.969   3.992  13.690
  134MPD1    N1 2406   3.752   4.230  13.331
  134MPD1    H6 2407   3.849   4.232  13.301
  134MPD1    H7 2408   3.678   4.228  13.261
  135MPD1     C 2409   1.643   1.260   6.868
  135MPD1    C1 2410   1.542   1.288   6.967
  135MPD1    C2 2411   1.407   1.282   6.928
  135MPD1    C3 2412   1.372   1.251   6.797
  135MPD1    C4 2413   1.468   1.220   6.708
  135MPD1    C5 2414   1.603   1.220   6.744
  135MPD1     H 2415   1.328   1.297   7.000
  135MPD1    H1 2416   1.439   1.192   6.607
  135MPD1    H2 2417   1.746   1.260   6.902
  135MPD1    H3 2418   1.679   1.199   6.670
  135MPD1     N 2419   1.239   1.230   6.751
  135MPD1    H5 2420   1.229   1.205   6.653
  135MPD1    N1 2421   1.559   1.339   7.092
  135MPD1    H6 2422   1.645   1.301   7.133
  135MPD1    H7 2423   1.485   1.316   7.157
  136MPD1     C 2424   2.683   3.333   9.561
  136MPD1    C1 2425   2.795   3.394   9.515
  136MPD1    C2 2426   2.909   3.322   9.497
  136MPD1    C3 2427   2.911   3.187   9.519
  136MPD1    C4 2428   2.800   3.130   9.577
  136MPD1    C5 2429   2.691   3.206   9.600
  136MPD1     H 2430   2.997   3.368   9.453
  136MPD1    H1 2431   2.794   3.027   9.612
  136MPD1    H2 2432   2.593   3.391   9.576
  136MPD1    H3 2433   2.602   3.169   9.651
  136MPD1     N 2434   3.030   3.117   9.492
  136MPD1    H5 2435   3.101   3.173   9.447
  136MPD1    N1 2436   2.778   3.522   9.464
  136MPD1    H6 2437   2.691   3.557   9.504
  136MPD1    H7 2438   2.858   3.584   9.478
  137MPD1     C 2439   3.525   3.162   8.794
  137MPD1    C1 2440   3.612   3.132   8.901
  137MPD1    C2 2441   3.545   3.072   9.009
  137MPD1    C3 2442   3.409   3.045   9.018
  137MPD1    C4 2443   3.332   3.105   8.924
  137MPD1    C5 2444   3.395   3.158   8.813
  137MPD1     H 2445   3.603   3.036   9.093
  137MPD1    H1 2446   3.226   3.124   8.938
  137MPD1    H2 2447   3.565   3.197   8.700
  137MPD1    H3 2448   3.327   3.202   8.741
  137MPD1     N 2449   3.351   2.989   9.136
  137MPD1    H5 2450   3.249   2.985   9.142
  137MPD1    N1 2451   3.748   3.133   8.893
  137MPD1    H6 2452   3.793   3.144   8.984
  137MPD1    H7 2453   3.784   3.184   8.813
  138MPD1     C 2454   2.544   3.538   6.819
  138MPD1    C1 2455   2.494   3.505   6.940
  138MPD1    C2 2456   2.552   3.397   7.013
  138MPD1    C3 2457   2.682   3.368   6.987
  138MPD1    C4 2458   2.741   3.417   6.874
  138MPD1    C5 2459   2.669   3.496   6.790
  138MPD1     H 2460   2.511   3.355   7.103
  138MPD1    H1 2461   2.845   3.399   6.849
  138MPD1    H2 2462   2.491   3.611   6.758
  138MPD1    H3 2463   2.713   3.531   6.697
  138MPD1     N 2464   2.750   3.280   7.075
  138MPD1    H5 2465   2.694   3.242   7.151
  138MPD1    N1 2466   2.376   3.549   6.983
  138MPD1    H6 2467   2.353   3.646   6.961
  138MPD1    H7 2468   2.373   3.547   7.085
  139MPD1     C 2469   4.650   1.733  12.657
  139MPD1    C1 2470   4.668   1.667  12.533
  139MPD1    C2 2471   4.775   1.583  12.527
  139MPD1    C3 2472   0.079   1.578  12.627
  139MPD1    C4 2473   0.063   1.656  12.738
  139MPD1    C5 2474   4.745   1.728  12.752
  139MPD1     H 2475   4.778   1.527  12.434
  139MPD1    H1 2476   0.142   1.665  12.811
  139MPD1    H2 2477   4.558   1.786  12.680
  139MPD1    H3 2478   4.724   1.783  12.843
  139MPD1     N 2479   0.202   1.510  12.611
  139MPD1    H5 2480   0.264   1.522  12.691
  139MPD1    N1 2481   4.561   1.658  12.448
  139MPD1    H6 2482   4.590   1.649  12.351
  139MPD1    H7 2483   4.500   1.738  12.461
  140MPD1     C 2484   3.676   0.469  14.762
  140MPD1    C1 2485   3.764   0.442  14.662
  140MPD1    C2 2486   3.744   0.504  14.541
  140MPD1    C3 2487   3.642   0.600  14.519
  140MPD1    C4 2488   3.551   0.618  14.621
  140MPD1    C5 2489   3.572   0.556  14.743
  140MPD1     H 2490   3.813   0.491  14.459
  140MPD1    H1 2491   3.472   0.690  14.601
  140MPD1    H2 2492   3.683   0.427  14.862
  140MPD1    H3 2493   3.502   0.565  14.825
  140MPD1     N 2494   3.614   0.661  14.396
  140MPD1    H5 2495   3.540   0.730  14.389
  140MPD1    N1 2496   3.845   0.327  14.663
  140MPD1    H6 2497   3.841   0.276  14.751
  140MPD1    H7 2498   3.942   0.349  14.640
  141MPD1     C 2499   4.266   1.074  13.777
  141MPD1    C1 2500   4.275   0.944  13.817
  141MPD1    C2 2501   4.150   0.883  13.842
  141MPD1    C3 2502   4.028   0.954  13.845
  141MPD1    C4 2503   4.026   1.085  13.815
  141MPD1    C5 2504   4.147   1.144  13.785
  141MPD1     H 2505   4.138   0.777  13.863
  141MPD1    H1 2506   3.934   1.142  13.815
  141MPD1    H2 2507   4.359   1.124  13.755
  141MPD1    H3 2508   4.159   1.252  13.781
  141MPD1     N 2509   3.906   0.882  13.894
  141MPD1    H5 2510   3.906   0.784  13.918
  141MPD1    N1 2511   4.380   0.859  13.796
  141MPD1    H6 2512   4.382   0.778  13.858
  141MPD1    H7 2513   4.469   0.908  13.811
  142MPD1     C 2514   2.346   1.954   6.966
  142MPD1    C1 2515   2.366   2.067   6.887
  142MPD1    C2 2516   2.259   2.153   6.875
  142MPD1    C3 2517   2.135   2.129   6.941
  142MPD1    C4 2518   2.128   2.025   7.031
  142MPD1    C5 2519   2.233   1.942   7.045
  142MPD1     H 2520   2.268   2.243   6.815
  142MPD1    H1 2521   2.045   2.016   7.101
  142MPD1    H2 2522   2.431   1.887   6.973
  142MPD1    H3 2523   2.227   1.857   7.113
  142MPD1     N 2524   2.021   2.204   6.915
  142MPD1    H5 2525   1.940   2.179   6.971
  142MPD1    N1 2526   2.493   2.086   6.834
  142MPD1    H6 2527   2.497   2.159   6.763
  142MPD1    H7 2528   2.537   1.999   6.806
  143MPD1     C 2529   2.440   4.545   9.197
  143MPD1    C1 2530   2.504   4.449   9.121
  143MPD1    C2 2531   2.528   4.328   9.182
  143MPD1    C3 2532   2.492   4.303   9.317
  143MPD1    C4 2533   2.413   4.398   9.382
  143MPD1    C5 2534   2.399   4.516   9.324
  143MPD1     H 2535   2.580   4.255   9.122
  143MPD1    H1 2536   2.382   4.390   9.485
  143MPD1    H2 2537   2.406   4.642   9.162
  143MPD1    H3 2538   2.333   4.588   9.371
  143MPD1     N 2539   2.504   4.183   9.387
  143MPD1    H5 2540   2.444   4.171   9.468
  143MPD1    N1 2541   2.553   4.487   8.997
  143MPD1    H6 2542   2.489   4.559   8.964
  143MPD1    H7 2543   2.545   4.412   8.929
  144MPD1     C 2544   1.206   2.607   6.829
  144MPD1    C1 2545   1.272   2.636   6.713
  144MPD1    C2 2546   1.370   2.730   6.721
  144MPD1    C3 2547   1.427   2.768   6.839
  144MPD1    C4 2548   1.361   2.730   6.958
  144MPD1    C5 2549   1.257   2.649   6.955
  144MPD1     H 2550   1.428   2.759   6.635
  144MPD1    H1 2551   1.402   2.755   7.055
  144MPD1    H2 2552   1.125   2.535   6.832
  144MPD1    H3 2553   1.219   2.617   7.052
  144MPD1     N 2554   1.544   2.853   6.844
  144MPD1    H5 2555   1.576   2.896   6.758
  144MPD1    N1 2556   1.217   2.592   6.588
  144MPD1    H6 2557   1.152   2.514   6.590
  144MPD1    H7 2558   1.289   2.578   6.516
  145MPD1     C 2559   1.700   3.745   6.758
  145MPD1    C1 2560   1.599   3.657   6.720
  145MPD1    C2 2561   1.613   3.517   6.729
  145MPD1    C3 2562   1.734   3.470   6.779
  145MPD1    C4 2563   1.835   3.562   6.816
  145MPD1    C5 2564   1.817   3.697   6.803
  145MPD1     H 2565   1.536   3.449   6.694
  145MPD1    H1 2566   1.931   3.533   6.857
  145MPD1    H2 2567   1.705   3.853   6.756
  145MPD1    H3 2568   1.906   3.753   6.828
  145MPD1     N 2569   1.745   3.329   6.794
  145MPD1    H5 2570   1.655   3.283   6.801
  145MPD1    N1 2571   1.482   3.716   6.672
  145MPD1    H6 2572   1.441   3.663   6.596
  145MPD1    H7 2573   1.509   3.803   6.625
  146MPD1     C 2574   3.718   1.092   9.054
  146MPD1    C1 2575   3.594   1.068   8.999
  146MPD1    C2 2576   3.556   0.945   8.973
  146MPD1    C3 2577   3.637   0.836   9.006
  146MPD1    C4 2578   3.755   0.858   9.070
  146MPD1    C5 2579   3.794   0.987   9.097
  146MPD1     H 2580   3.458   0.925   8.931
  146MPD1    H1 2581   3.801   0.776   9.123
  146MPD1    H2 2582   3.752   1.191   9.081
  146MPD1    H3 2583   3.882   1.000   9.158
  146MPD1     N 2584   3.582   0.707   8.975
  146MPD1    H5 2585   3.485   0.698   8.946
  146MPD1    N1 2586   3.515   1.167   8.937
  146MPD1    H6 2587   3.523   1.255   8.987
  146MPD1    H7 2588   3.419   1.134   8.935
  147MPD1     C 2589   3.460   4.583  10.771
  147MPD1    C1 2590   3.401   4.620  10.890
  147MPD1    C2 2591   3.447   4.560  11.011
  147MPD1    C3 2592   3.563   4.488  11.017
  147MPD1    C4 2593   3.631   4.454  10.895
  147MPD1    C5 2594   3.577   4.500  10.771
  147MPD1     H 2595   3.396   4.581  11.104
  147MPD1    H1 2596   3.709   4.379  10.898
  147MPD1    H2 2597   3.429   4.616  10.672
  147MPD1    H3 2598   3.626   4.482  10.675
  147MPD1     N 2599   3.612   4.422  11.132
  147MPD1    H5 2600   3.692   4.362  11.112
  147MPD1    N1 2601   3.273   4.685  10.894
  147MPD1    H6 2602   3.246   4.719  10.986
  147MPD1    H7 2603   3.276   4.764  10.830
  148MPD1     C 2604   4.276   4.391  11.883
  148MPD1    C1 2605   4.192   4.288  11.917
  148MPD1    C2 2606   4.112   4.248  11.814
  148MPD1    C3 2607   4.087   4.335  11.712
  148MPD1    C4 2608   4.147   4.458  11.693
  148MPD1    C5 2609   4.248   4.483  11.784
  148MPD1     H 2610   4.058   4.154  11.819
  148MPD1    H1 2611   4.137   4.527  11.610
  148MPD1    H2 2612   4.363   4.416  11.943
  148MPD1    H3 2613   4.317   4.565  11.770
  148MPD1     N 2614   3.990   4.290  11.624
  148MPD1    H5 2615   3.956   4.200  11.656
  148MPD1    N1 2616   4.224   4.202  12.026
  148MPD1    H6 2617   4.209   4.251  12.114
  148MPD1    H7 2618   4.144   4.140  12.039
  149MPD1     C 2619   2.641   0.732  11.798
  149MPD1    C1 2620   2.505   0.715  11.831
  149MPD1    C2 2621   2.408   0.796  11.774
  149MPD1    C3 2622   2.446   0.910  11.713
  149MPD1    C4 2623   2.574   0.933  11.684
  149MPD1    C5 2624   2.672   0.853  11.730
  149MPD1     H 2625   2.304   0.769  11.789
  149MPD1    H1 2626   2.607   1.027  11.641
  149MPD1    H2 2627   2.726   0.667  11.817
  149MPD1    H3 2628   2.774   0.885  11.710
  149MPD1     N 2629   2.339   0.990  11.655
  149MPD1    H5 2630   2.245   0.951  11.654
  149MPD1    N1 2631   2.476   0.594  11.887
  149MPD1    H6 2632   2.531   0.565  11.967
  149MPD1    H7 2633   2.380   0.584  11.920
  150MPD1     C 2634   3.369   4.050  14.052
  150MPD1    C1 2635   3.371   4.003  13.925
  150MPD1    C2 2636   3.385   3.867  13.912
  150MPD1    C3 2637   3.378   3.777  14.021
  150MPD1    C4 2638   3.374   3.830  14.148
  150MPD1    C5 2639   3.371   3.969  14.162
  150MPD1     H 2640   3.381   3.823  13.813
  150MPD1    H1 2641   3.369   3.776  14.241
  150MPD1    H2 2642   3.361   4.156  14.073
  150MPD1    H3 2643   3.358   4.019  14.258
  150MPD1     N 2644   3.368   3.647  13.976
  150MPD1    H5 2645   3.364   3.637  13.875
  150MPD1    N1 2646   3.360   4.083  13.812
  150MPD1    H6 2647   3.305   4.041  13.737
  150MPD1    H7 2648   3.332   4.179  13.831
  151MPD1     C 2649   0.300   1.286  13.213
  151MPD1    C1 2650   0.305   1.191  13.313
  151MPD1    C2 2651   0.314   1.234  13.450
  151MPD1    C3 2652   0.349   1.362  13.480
  151MPD1    C4 2653   0.364   1.455  13.373
  151MPD1    C5 2654   0.330   1.419  13.246
  151MPD1     H 2655   0.297   1.168  13.534
  151MPD1    H1 2656   0.376   1.562  13.389
  151MPD1    H2 2657   0.277   1.266  13.109
  151MPD1    H3 2658   0.327   1.490  13.165
  151MPD1     N 2659   0.363   1.416  13.612
  151MPD1    H5 2660   0.402   1.506  13.638
  151MPD1    N1 2661   0.270   1.059  13.281
  151MPD1    H6 2662   0.283   1.028  13.185
  151MPD1    H7 2663   0.322   0.995  13.341
  152MPD1     C 2664   0.978   1.676   7.292
  152MPD1    C1 2665   0.892   1.616   7.205
  152MPD1    C2 2666   0.923   1.645   7.073
  152MPD1    C3 2667   1.016   1.735   7.039
  152MPD1    C4 2668   1.103   1.791   7.125
  152MPD1    C5 2669   1.077   1.761   7.260
  152MPD1     H 2670   0.870   1.598   6.992
  152MPD1    H1 2671   1.184   1.851   7.085
  152MPD1    H2 2672   0.969   1.654   7.398
  152MPD1    H3 2673   1.132   1.798   7.346
  152MPD1     N 2674   1.023   1.765   6.901
  152MPD1    H5 2675   0.942   1.734   6.848
  152MPD1    N1 2676   0.802   1.517   7.239
  152MPD1    H6 2677   0.734   1.521   7.163
  152MPD1    H7 2678   0.756   1.528   7.330
  153MPD1     C 2679   3.041   3.818   5.962
  153MPD1    C1 2680   3.125   3.781   6.065
  153MPD1    C2 2681   3.122   3.863   6.174
  153MPD1    C3 2682   3.044   3.983   6.176
  153MPD1    C4 2683   2.969   4.014   6.064
  153MPD1    C5 2684   2.967   3.931   5.955
  153MPD1     H 2685   3.189   3.843   6.257
  153MPD1    H1 2686   2.897   4.095   6.058
  153MPD1    H2 2687   3.031   3.748   5.879
  153MPD1    H3 2688   2.889   3.951   5.882
  153MPD1     N 2689   3.058   4.067   6.286
  153MPD1    H5 2690   3.098   4.022   6.368
  153MPD1    N1 2691   3.197   3.657   6.070
  153MPD1    H6 2692   3.196   3.606   5.981
  153MPD1    H7 2693   3.296   3.659   6.095
  154MPD1     C 2694   2.756   3.914   6.346
  154MPD1    C1 2695   2.714   4.011   6.433
  154MPD1    C2 2696   2.738   3.989   6.567
  154MPD1    C3 2697   2.824   3.887   6.610
  154MPD1    C4 2698   2.855   3.788   6.519
  154MPD1    C5 2699   2.825   3.800   6.388
  154MPD1     H 2700   2.682   4.051   6.637
  154MPD1    H1 2701   2.903   3.699   6.559
  154MPD1    H2 2702   2.726   3.930   6.243
  154MPD1    H3 2703   2.842   3.718   6.319
  154MPD1     N 2704   2.858   3.872   6.744
  154MPD1    H5 2705   2.885   3.779   6.774
  154MPD1    N1 2706   2.634   4.113   6.384
  154MPD1    H6 2707   2.657   4.143   6.289
  154MPD1    H7 2708   2.655   4.185   6.453
  155MPD1     C 2709   2.624   2.271  11.022
  155MPD1    C1 2710   2.638   2.314  11.153
  155MPD1    C2 2711   2.576   2.233  11.253
  155MPD1    C3 2712   2.501   2.123  11.219
  155MPD1    C4 2713   2.475   2.100  11.080
  155MPD1    C5 2714   2.543   2.171  10.985
  155MPD1     H 2715   2.575   2.276  11.353
  155MPD1    H1 2716   2.404   2.027  11.042
  155MPD1    H2 2717   2.667   2.337  10.947
  155MPD1    H3 2718   2.519   2.151  10.882
  155MPD1     N 2719   2.436   2.041  11.305
  155MPD1    H5 2720   2.361   1.987  11.263
  155MPD1    N1 2721   2.679   2.444  11.185
  155MPD1    H6 2722   2.766   2.462  11.136
  155MPD1    H7 2723   2.705   2.460  11.282
  156MPD1     C 2724   3.699   1.977  10.521
  156MPD1    C1 2725   3.591   1.945  10.440
  156MPD1    C2 2726   3.539   1.817  10.441
  156MPD1    C3 2727   3.602   1.719  10.521
  156MPD1    C4 2728   3.706   1.747  10.609
  156MPD1    C5 2729   3.739   1.881  10.619
  156MPD1     H 2730   3.467   1.788  10.366
  156MPD1    H1 2731   3.744   1.665  10.669
  156MPD1    H2 2732   3.729   2.080  10.537
  156MPD1    H3 2733   3.792   1.915  10.707
  156MPD1     N 2734   3.561   1.585  10.506
  156MPD1    H5 2735   3.591   1.512  10.570
  156MPD1    N1 2736   3.536   2.040  10.350
  156MPD1    H6 2737   3.440   2.011  10.333
  156MPD1    H7 2738   3.546   2.137  10.379
  157MPD1     C 2739   4.299   2.399  11.649
  157MPD1    C1 2740   4.224   2.515  11.637
  157MPD1    C2 2741   4.137   2.520  11.530
  157MPD1    C3 2742   4.142   2.433  11.426
  157MPD1    C4 2743   4.220   2.323  11.435
  157MPD1    C5 2744   4.280   2.301  11.557
  157MPD1     H 2745   4.083   2.614  11.523
  157MPD1    H1 2746   4.233   2.254  11.352
  157MPD1    H2 2747   4.348   2.370  11.741
  157MPD1    H3 2748   4.339   2.211  11.568
  157MPD1     N 2749   4.092   2.468  11.295
  157MPD1    H5 2750   4.127   2.421  11.212
  157MPD1    N1 2751   4.203   2.607  11.742
  157MPD1    H6 2752   4.159   2.689  11.701
  157MPD1    H7 2753   4.296   2.636  11.774
  158MPD1     C 2754   3.203   2.317  10.225
  158MPD1    C1 2755   3.088   2.248  10.261
  158MPD1    C2 2756   3.088   2.169  10.379
  158MPD1    C3 2757   3.200   2.173  10.456
  158MPD1    C4 2758   3.303   2.263  10.433
  158MPD1    C5 2759   3.304   2.326  10.315
  158MPD1     H 2760   3.001   2.107  10.396
  158MPD1    H1 2761   3.392   2.277  10.493
  158MPD1    H2 2762   3.214   2.373  10.133
  158MPD1    H3 2763   3.395   2.378  10.287
  158MPD1     N 2764   3.208   2.075  10.555
  158MPD1    H5 2765   3.134   2.005  10.557
  158MPD1    N1 2766   2.983   2.236  10.173
  158MPD1    H6 2767   2.971   2.310  10.105
  158MPD1    H7 2768   3.014   2.167  10.106
  159MPD1     C 2769   3.980   1.784  11.115
  159MPD1    C1 2770   3.954   1.687  11.027
  159MPD1    C2 2771   3.826   1.683  10.980
  159MPD1    C3 2772   3.734   1.783  11.003
  159MPD1    C4 2773   3.771   1.887  11.086
  159MPD1    C5 2774   3.892   1.886  11.147
  159MPD1     H 2775   3.791   1.608  10.911
  159MPD1    H1 2776   3.694   1.961  11.104
  159MPD1    H2 2777   4.079   1.799  11.157
  159MPD1    H3 2778   3.918   1.966  11.215
  159MPD1     N 2779   3.604   1.788  10.954
  159MPD1    H5 2780   3.548   1.867  10.984
  159MPD1    N1 2781   4.050   1.580  11.009
  159MPD1    H6 2782   4.051   1.540  10.915
  159MPD1    H7 2783   4.142   1.616  11.033
  160MPD1     C 2784   3.313   4.288  12.204
  160MPD1    C1 2785   3.218   4.381  12.171
  160MPD1    C2 2786   3.248   4.476  12.071
  160MPD1    C3 2787   3.375   4.491  12.027
  160MPD1    C4 2788   3.475   4.401  12.068
  160MPD1    C5 2789   3.441   4.298  12.153
  160MPD1     H 2790   3.170   4.540  12.033
  160MPD1    H1 2791   3.575   4.405  12.027
  160MPD1    H2 2792   3.293   4.206  12.271
  160MPD1    H3 2793   3.517   4.224  12.176
  160MPD1     N 2794   3.417   4.580  11.924
  160MPD1    H5 2795   3.511   4.565  11.888
  160MPD1    N1 2796   3.086   4.364  12.222
  160MPD1    H6 2797   3.083   4.334  12.320
  160MPD1    H7 2798   3.040   4.455  12.224
  161MPD1     C 2799   4.032   3.480  13.416
  161MPD1    C1 2800   4.081   3.474  13.545
  161MPD1    C2 2801   4.190   3.400  13.566
  161MPD1    C3 2802   4.240   3.323  13.465
  161MPD1    C4 2803   4.175   3.308  13.343
  161MPD1    C5 2804   4.076   3.394  13.319
  161MPD1     H 2805   4.233   3.400  13.665
  161MPD1    H1 2806   4.192   3.238  13.263
  161MPD1    H2 2807   3.946   3.543  13.397
  161MPD1    H3 2808   4.035   3.400  13.219
  161MPD1     N 2809   4.351   3.243  13.488
  161MPD1    H5 2810   4.403   3.264  13.573
  161MPD1    N1 2811   4.031   3.563  13.638
  161MPD1    H6 2812   4.042   3.526  13.732
  161MPD1    H7 2813   3.931   3.578  13.624
  162MPD1     C 2814   4.495   2.339  13.585
  162MPD1    C1 2815   4.401   2.432  13.562
  162MPD1    C2 2816   4.436   2.566  13.566
  162MPD1    C3 2817   4.569   2.605  13.556
  162MPD1    C4 2818   4.668   2.509  13.543
  162MPD1    C5 2819   4.626   2.375  13.569
  162MPD1     H 2820   4.360   2.642  13.563
  162MPD1    H1 2821   4.772   2.533  13.526
  162MPD1    H2 2822   4.467   2.241  13.620
  162MPD1    H3 2823   4.696   2.293  13.578
  162MPD1     N 2824   4.591   2.740  13.539
  162MPD1    H5 2825   4.509   2.800  13.530
  162MPD1    N1 2826   4.274   2.385  13.567
  162MPD1    H6 2827   4.278   2.297  13.518
  162MPD1    H7 2828   4.210   2.440  13.510
  163MPD1     C 2829   2.457   3.693   9.872
  163MPD1    C1 2830   2.567   3.777   9.868
  163MPD1    C2 2831   2.562   3.910   9.911
  163MPD1    C3 2832   2.441   3.958   9.966
  163MPD1    C4 2833   2.325   3.876   9.954
  163MPD1    C5 2834   2.339   3.750   9.911
  163MPD1     H 2835   2.650   3.973   9.919
  163MPD1    H1 2836   2.230   3.920   9.983
  163MPD1    H2 2837   2.468   3.588   9.848
  163MPD1    H3 2838   2.251   3.687   9.911
  163MPD1     N 2839   2.445   4.084  10.023
  163MPD1    H5 2840   2.538   4.123  10.036
  163MPD1    N1 2841   2.694   3.733   9.830
  163MPD1    H6 2842   2.729   3.796   9.758
  163MPD1    H7 2843   2.705   3.636   9.803
  164MPD1     C 2844   3.455   1.946   8.168
  164MPD1    C1 2845   3.571   1.963   8.096
  164MPD1    C2 2846   3.589   1.900   7.973
  164MPD1    C3 2847   3.505   1.803   7.928
  164MPD1    C4 2848   3.386   1.787   7.998
  164MPD1    C5 2849   3.360   1.857   8.112
  164MPD1     H 2850   3.682   1.917   7.921
  164MPD1    H1 2851   3.305   1.729   7.954
  164MPD1    H2 2852   3.425   1.995   8.260
  164MPD1    H3 2853   3.258   1.841   8.145
  164MPD1     N 2854   3.538   1.742   7.807
  164MPD1    H5 2855   3.623   1.778   7.765
  164MPD1    N1 2856   3.661   2.059   8.135
  164MPD1    H6 2857   3.658   2.069   8.236
  164MPD1    H7 2858   3.756   2.027   8.114
  165MPD1     C 2859   3.438   1.407   8.016
  165MPD1    C1 2860   3.328   1.328   8.009
  165MPD1    C2 2861   3.320   1.231   7.907
  165MPD1    C3 2862   3.423   1.210   7.817
  165MPD1    C4 2863   3.538   1.288   7.832
  165MPD1    C5 2864   3.542   1.381   7.928
  165MPD1     H 2865   3.230   1.173   7.892
  165MPD1    H1 2866   3.625   1.281   7.768
  165MPD1    H2 2867   3.448   1.481   8.095
  165MPD1    H3 2868   3.620   1.455   7.936
  165MPD1     N 2869   3.410   1.109   7.725
  165MPD1    H5 2870   3.324   1.055   7.736
  165MPD1    N1 2871   3.209   1.359   8.079
  165MPD1    H6 2872   3.221   1.428   8.154
  165MPD1    H7 2873   3.164   1.277   8.119
  166MPD1     C 2874   1.294   3.937  11.825
  166MPD1    C1 2875   1.233   4.000  11.724
  166MPD1    C2 2876   1.311   4.092  11.654
  166MPD1    C3 2877   1.435   4.134  11.690
  166MPD1    C4 2878   1.488   4.077  11.807
  166MPD1    C5 2879   1.417   3.975  11.868
  166MPD1     H 2880   1.262   4.136  11.568
  166MPD1    H1 2881   1.583   4.105  11.851
  166MPD1    H2 2882   1.250   3.849  11.873
  166MPD1    H3 2883   1.465   3.902  11.933
  166MPD1     N 2884   1.514   4.234  11.623
  166MPD1    H5 2885   1.598   4.261  11.672
  166MPD1    N1 2886   1.108   3.962  11.676
  166MPD1    H6 2887   1.058   3.896  11.736
  166MPD1    H7 2888   1.048   4.039  11.645
  167MPD1     C 2889   2.137   3.456  13.545
  167MPD1    C1 2890   2.055   3.343  13.559
  167MPD1    C2 2891   2.125   3.237  13.618
  167MPD1    C3 2892   2.240   3.273  13.692
  167MPD1    C4 2893   2.301   3.399  13.694
  167MPD1    C5 2894   2.249   3.487  13.613
  167MPD1     H 2895   2.072   3.143  13.615
  167MPD1    H1 2896   2.384   3.421  13.760
  167MPD1    H2 2897   2.087   3.537  13.493
  167MPD1    H3 2898   2.272   3.593  13.612
  167MPD1     N 2899   2.300   3.171  13.772
  167MPD1    H5 2900   2.280   3.074  13.749
  167MPD1    N1 2901   1.936   3.338  13.491
  167MPD1    H6 2902   1.894   3.431  13.483
  167MPD1    H7 2903   1.873   3.275  13.541
  168MPD1     C 2904   0.309   0.993  14.745
  168MPD1    C1 2905   0.431   1.030  14.803
  168MPD1    C2 2906   0.527   0.932  14.809
  168MPD1    C3 2907   0.499   0.805  14.762
  168MPD1    C4 2908   0.381   0.774  14.714
  168MPD1    C5 2909   0.284   0.868  14.707
  168MPD1     H 2910   0.625   0.950  14.850
  168MPD1    H1 2911   0.360   0.676  14.673
  168MPD1    H2 2912   0.223   1.059  14.737
  168MPD1    H3 2913   0.188   0.840  14.665
  168MPD1     N 2914   0.587   0.692  14.759
  168MPD1    H5 2915   0.553   0.607  14.717
  168MPD1    N1 2916   0.467   1.160  14.826
  168MPD1    H6 2917   0.384   1.214  14.850
  168MPD1    H7 2918   0.532   1.163  14.905
  169MPD1     C 2919   4.600   3.583   7.219
  169MPD1    C1 2920   4.638   3.459   7.261
  169MPD1    C2 2921   4.563   3.405   7.364
  169MPD1    C3 2922   4.468   3.485   7.426
  169MPD1    C4 2923   4.429   3.608   7.371
  169MPD1    C5 2924   4.494   3.660   7.264
  169MPD1     H 2925   4.588   3.306   7.399
  169MPD1    H1 2926   4.341   3.658   7.410
  169MPD1    H2 2927   4.663   3.617   7.137
  169MPD1    H3 2928   4.456   3.749   7.214
  169MPD1     N 2929   4.415   3.436   7.545
  169MPD1    H5 2930   4.433   3.339   7.568
  169MPD1    N1 2931   4.735   3.381   7.187
  169MPD1    H6 2932   4.786   3.440   7.122
  169MPD1    H7 2933   0.000   3.308   7.226
  170MPD2     C 2934   1.346   3.075  10.381
  170MPD2    C1 2935   1.281   2.961  10.354
  170MPD2    C2 2936   1.163   2.966  10.282
  170MPD2    C3 2937   1.112   3.087  10.246
  170MPD2    C4 2938   1.186   3.206  10.261
  170MPD2    C5 2939   1.301   3.198  10.338
  170MPD2     H 2940   1.126   2.875  10.238
  170MPD2    H1 2941   1.149   3.306  10.242
  170MPD2    H2 2942   1.430   3.063  10.448
  170MPD2    H3 2943   1.356   3.288  10.362
  170MPD2     N 2944   0.992   3.096  10.174
  170MPD2    H5 2945   0.986   3.173  10.109
  170MPD2    N1 2946   1.363   2.845  10.386
  170MPD2    H7 2947   1.458   2.873  10.405
  171MPD2     C 2948   0.381   2.603  10.086
  171MPD2    C1 2949   0.422   2.649   9.966
  171MPD2    C2 2950   0.355   2.607   9.852
  171MPD2    C3 2951   0.257   2.505   9.857
  171MPD2    C4 2952   0.205   2.469   9.981
  171MPD2    C5 2953   0.273   2.514  10.090
  171MPD2     H 2954   0.376   2.655   9.757
  171MPD2    H1 2955   0.126   2.399  10.002
  171MPD2    H2 2956   0.434   2.644  10.172
  171MPD2    H3 2957   0.234   2.494  10.189
  171MPD2     N 2958   0.193   2.446   9.743
  171MPD2    H5 2959   0.130   2.369   9.762
  171MPD2    N1 2960   0.519   2.751   9.973
  171MPD2    H7 2961   0.573   2.763  10.058
  172MPD2     C 2962   0.441   3.692  10.100
  172MPD2    C1 2963   0.400   3.555  10.093
  172MPD2    C2 2964   0.484   3.463  10.034
  172MPD2    C3 2965   0.610   3.496   9.985
  172MPD2    C4 2966   0.653   3.621  10.002
  172MPD2    C5 2967   0.569   3.720  10.061
  172MPD2     H 2968   0.450   3.361  10.039
  172MPD2    H1 2969   0.752   3.660   9.980
  172MPD2    H2 2970   0.380   3.764  10.153
  172MPD2    H3 2971   0.606   3.821  10.073
  172MPD2     N 2972   0.692   3.392   9.945
  172MPD2    H5 2973   0.791   3.405   9.961
  172MPD2    N1 2974   0.275   3.505  10.136
  172MPD2    H7 2975   0.263   3.404  10.131
  173MPD2     C 2976   1.437   4.627   6.783
  173MPD2    C1 2977   1.437   4.543   6.889
  173MPD2    C2 2978   1.406   4.411   6.862
  173MPD2    C3 2979   1.353   4.365   6.743
  173MPD2    C4 2980   1.330   4.465   6.646
  173MPD2    C5 2981   1.378   4.592   6.668
  173MPD2     H 2982   1.414   4.342   6.946
  173MPD2    H1 2983   1.283   4.446   6.550
  173MPD2    H2 2984   1.467   4.731   6.790
  173MPD2    H3 2985   1.371   4.667   6.590
  173MPD2     N 2986   1.321   4.231   6.728
  173MPD2    H5 2987   1.339   4.173   6.809
  173MPD2    N1 2988   1.468   4.577   7.017
  173MPD2    H7 2989   1.462   4.509   7.092
  174MPD2     C 2990   1.190   3.242   6.371
  174MPD2    C1 2991   1.187   3.231   6.514
  174MPD2    C2 2992   1.185   3.351   6.584
  174MPD2    C3 2993   1.187   3.472   6.526
  174MPD2    C4 2994   1.211   3.468   6.385
  174MPD2    C5 2995   1.208   3.356   6.314
  174MPD2     H 2996   1.152   3.357   6.687
  174MPD2    H1 2997   1.231   3.561   6.332
  174MPD2    H2 2998   1.197   3.148   6.319
  174MPD2    H3 2999   1.238   3.361   6.210
  174MPD2     N 3000   1.185   3.588   6.600
  174MPD2    H5 3001   1.189   3.566   6.699
  174MPD2    N1 3002   1.157   3.104   6.571
  174MPD2    H7 3003   1.125   3.030   6.510
  175MPD2     C 3004   2.083   3.101  12.299
  175MPD2    C1 3005   2.013   3.020  12.386
  175MPD2    C2 3006   1.874   3.037  12.382
  175MPD2    C3 3007   1.812   3.107  12.280
  175MPD2    C4 3008   1.889   3.176  12.189
  175MPD2    C5 3009   2.024   3.175  12.205
  175MPD2     H 3010   1.815   2.998  12.465
  175MPD2    H1 3011   1.843   3.230  12.106
  175MPD2    H2 3012   2.191   3.105  12.304
  175MPD2    H3 3013   2.085   3.224  12.130
  175MPD2     N 3014   1.677   3.105  12.246
  175MPD2    H5 3015   1.646   3.119  12.150
  175MPD2    N1 3016   2.091   2.945  12.479
  175MPD2    H7 3017   2.189   2.969  12.484
  176MPD2     C 3018   1.922   2.658  11.762
  176MPD2    C1 3019   1.805   2.700  11.833
  176MPD2    C2 3020   1.797   2.678  11.968
  176MPD2    C3 3021   1.902   2.611  12.032
  176MPD2    C4 3022   2.022   2.572  11.962
  176MPD2    C5 3023   2.022   2.592  11.831
  176MPD2     H 3024   1.704   2.704  12.017
  176MPD2    H1 3025   2.101   2.523  12.018
  176MPD2    H2 3026   1.938   2.682  11.657
  176MPD2    H3 3027   2.115   2.562  11.785
  176MPD2     N 3028   1.900   2.589  12.175
  176MPD2    H5 3029   1.988   2.579  12.224
  176MPD2    N1 3030   1.706   2.778  11.771
  176MPD2    H7 3031   1.628   2.814  11.827
  177MPD2     C 3032   1.844   2.370  13.223
  177MPD2    C1 3033   1.751   2.315  13.133
  177MPD2    C2 3034   1.746   2.364  13.004
  177MPD2    C3 3035   1.815   2.481  12.973
  177MPD2    C4 3036   1.886   2.546  13.075
  177MPD2    C5 3037   1.898   2.493  13.199
  177MPD2     H 3038   1.688   2.318  12.925
  177MPD2    H1 3039   1.939   2.638  13.052
  177MPD2    H2 3040   1.869   2.330  13.321
  177MPD2    H3 3041   1.968   2.540  13.267
  177MPD2     N 3042   1.819   2.537  12.845
  177MPD2    H5 3043   1.881   2.617  12.830
  177MPD2    N1 3044   1.682   2.204  13.180
  177MPD2    H7 3045   1.711   2.169  13.271
  178MPD2     C 3046   4.674   1.289   7.305
  178MPD2    C1 3047   4.698   1.386   7.402
  178MPD2    C2 3048   4.707   1.517   7.354
  178MPD2    C3 3049   4.715   1.545   7.224
  178MPD2    C4 3050   4.698   1.448   7.128
  178MPD2    C5 3051   4.672   1.318   7.168
  178MPD2     H 3052   4.718   1.599   7.425
  178MPD2    H1 3053   4.717   1.461   7.022
  178MPD2    H2 3054   4.646   1.190   7.338
  178MPD2    H3 3055   4.659   1.232   7.104
  178MPD2     N 3056   4.753   1.670   7.179
  178MPD2    H5 3057   4.764   1.736   7.256
  178MPD2    N1 3058   4.697   1.366   7.546
  178MPD2    H7 3059   4.689   1.446   7.608
  179MPD2     C 3060   0.268   0.777   7.958
  179MPD2    C1 3061   0.140   0.781   7.905
  179MPD2    C2 3062   0.088   0.680   7.838
  179MPD2    C3 3063   0.165   0.571   7.812
  179MPD2    C4 3064   0.295   0.562   7.856
  179MPD2    C5 3065   0.348   0.666   7.934
  179MPD2     H 3066   4.776   0.685   7.813
  179MPD2    H1 3067   0.361   0.475   7.852
  179MPD2    H2 3068   0.315   0.866   7.998
  179MPD2    H3 3069   0.451   0.656   7.967
  179MPD2     N 3070   0.103   0.467   7.740
  179MPD2    H5 3071   0.002   0.465   7.754
  179MPD2    N1 3072   0.069   0.899   7.925
  179MPD2    H7 3073   0.125   0.977   7.957
  180MPD2     C 3074   4.123   0.919   7.933
  180MPD2    C1 3075   4.233   0.943   7.853
  180MPD2    C2 3076   4.294   1.066   7.863
  180MPD2    C3 3077   4.256   1.159   7.966
  180MPD2    C4 3078   4.146   1.130   8.052
  180MPD2    C5 3079   4.083   1.008   8.027
  180MPD2     H 3080   4.368   1.094   7.789
  180MPD2    H1 3081   4.118   1.190   8.138
  180MPD2    H2 3082   4.067   0.826   7.927
  180MPD2    H3 3083   4.004   0.974   8.093
  180MPD2     N 3084   4.324   1.277   8.004
  180MPD2    H5 3085   4.277   1.331   8.076
  180MPD2    N1 3086   4.278   0.844   7.760
  180MPD2    H7 3087   4.237   0.751   7.764
  181MPD2     C 3088   4.247   2.950   9.864
  181MPD2    C1 3089   4.319   2.837   9.826
  181MPD2    C2 3090   4.283   2.709   9.869
  181MPD2    C3 3091   4.174   2.705   9.960
  181MPD2    C4 3092   4.121   2.826  10.006
  181MPD2    C5 3093   4.150   2.946   9.959
  181MPD2     H 3094   4.329   2.618   9.832
  181MPD2    H1 3095   4.039   2.816  10.077
  181MPD2    H2 3096   4.260   3.045   9.813
  181MPD2    H3 3097   4.101   3.036   9.993
  181MPD2     N 3098   4.134   2.580  10.015
  181MPD2    H5 3099   4.163   2.499   9.960
  181MPD2    N1 3100   4.413   2.860   9.723
  181MPD2    H7 3101   4.427   2.960   9.714
  182MPD2     C 3102   3.957   2.134  10.747
  182MPD2    C1 3103   4.039   2.088  10.644
  182MPD2    C2 3104   4.142   2.007  10.677
  182MPD2    C3 3105   4.175   1.983  10.811
  182MPD2    C4 3106   4.093   2.034  10.906
  182MPD2    C5 3107   3.990   2.112  10.873
  182MPD2     H 3108   4.210   1.980  10.597
  182MPD2    H1 3109   4.107   2.020  11.013
  182MPD2    H2 3110   3.870   2.195  10.723
  182MPD2    H3 3111   3.930   2.154  10.952
  182MPD2     N 3112   4.296   1.912  10.841
  182MPD2    H5 3113   4.352   1.880  10.763
  182MPD2    N1 3114   4.028   2.140  10.513
  182MPD2    H7 3115   4.101   2.105  10.453
  183MPD2     C 3116   2.711   3.241  14.277
  183MPD2    C1 3117   2.783   3.331  14.197
  183MPD2    C2 3118   2.809   3.292  14.067
  183MPD2    C3 3119   2.762   3.175  14.015
  183MPD2    C4 3120   2.706   3.080  14.101
  183MPD2    C5 3121   2.688   3.117  14.233
  183MPD2     H 3122   2.845   3.365  13.995
  183MPD2    H1 3123   2.688   2.977  14.073
  183MPD2    H2 3124   2.680   3.276  14.375
  183MPD2    H3 3125   2.657   3.037  14.299
  183MPD2     N 3126   2.758   3.142  13.876
  183MPD2    H5 3127   2.698   3.064  13.853
  183MPD2    N1 3128   2.800   3.459  14.249
  183MPD2    H7 3129   2.760   3.482  14.339
  184MPD2     C 3130   2.174   4.057  14.472
  184MPD2    C1 3131   2.253   4.009  14.569
  184MPD2    C2 3132   2.382   3.960  14.531
  184MPD2    C3 3133   2.419   3.958  14.398
  184MPD2    C4 3134   2.329   4.009  14.307
  184MPD2    C5 3135   2.217   4.067  14.349
  184MPD2     H 3136   2.451   3.918  14.603
  184MPD2    H1 3137   2.346   4.021  14.201
  184MPD2    H2 3138   2.074   4.095  14.490
  184MPD2    H3 3139   2.160   4.118  14.272
  184MPD2     N 3140   2.548   3.915  14.357
  184MPD2    H5 3141   2.604   3.865  14.425
  184MPD2    N1 3142   2.205   4.022  14.703
  184MPD2    H7 3143   2.134   4.094  14.712
  185MPD2     C 3144   3.214   3.670  13.562
  185MPD2    C1 3145   3.186   3.570  13.653
  185MPD2    C2 3146   3.113   3.606  13.766
  185MPD2    C3 3147   3.082   3.734  13.789
  185MPD2    C4 3148   3.117   3.834  13.701
  185MPD2    C5 3149   3.180   3.804  13.586
  185MPD2     H 3150   3.063   3.532  13.828
  185MPD2    H1 3151   3.112   3.941  13.719
  185MPD2    H2 3152   3.261   3.640  13.469
  185MPD2    H3 3153   3.186   3.879  13.508
  185MPD2     N 3154   3.030   3.764  13.919
  185MPD2    H5 3155   3.022   3.689  13.987
  185MPD2    N1 3156   3.212   3.433  13.607
  185MPD2    H7 3157   3.226   3.438  13.507
  186MPD2     C 3158   4.566   3.645   8.649
  186MPD2    C1 3159   4.631   3.546   8.720
  186MPD2    C2 3160   4.579   3.421   8.727
  186MPD2    C3 3161   4.468   3.395   8.655
  186MPD2    C4 3162   4.408   3.489   8.575
  186MPD2    C5 3163   4.463   3.616   8.568
  186MPD2     H 3164   4.629   3.341   8.781
  186MPD2    H1 3165   4.329   3.467   8.504
  186MPD2    H2 3166   4.597   3.748   8.635
  186MPD2    H3 3167   4.423   3.687   8.496
  186MPD2     N 3168   4.428   3.258   8.625
  186MPD2    H5 3169   4.365   3.249   8.546
  186MPD2    N1 3170   4.753   3.567   8.778
  186MPD2    H7 3171   0.008   3.489   8.820
  187MPD2     C 3172   4.793   2.333   8.893
  187MPD2    C1 3173   4.780   2.445   8.970
  187MPD2    C2 3174   4.748   2.561   8.907
  187MPD2    C3 3175   4.722   2.568   8.775
  187MPD2    C4 3176   4.723   2.448   8.704
  187MPD2    C5 3177   4.758   2.329   8.761
  187MPD2     H 3178   4.739   2.645   8.976
  187MPD2    H1 3179   4.715   2.453   8.596
  187MPD2    H2 3180   0.033   2.242   8.941
  187MPD2    H3 3181   4.771   2.238   8.703
  187MPD2     N 3182   4.684   2.692   8.711
  187MPD2    H5 3183   4.689   2.777   8.767
  187MPD2    N1 3184   0.019   2.453   9.111
  187MPD2    H7 3185   0.006   2.544   9.155
  188MPD2     C 3186   0.161   3.289   8.388
  188MPD2    C1 3187   0.035   3.321   8.357
  188MPD2    C2 3188   4.788   3.449   8.350
  188MPD2    C3 3189   0.082   3.549   8.390
  188MPD2    C4 3190   0.205   3.514   8.450
  188MPD2    C5 3191   0.244   3.383   8.445
  188MPD2     H 3192   4.690   3.484   8.321
  188MPD2    H1 3193   0.269   3.590   8.493
  188MPD2    H2 3194   0.196   3.187   8.394
  188MPD2    H3 3195   0.345   3.359   8.478
  188MPD2     N 3196   0.046   3.685   8.396
  188MPD2    H5 3197   0.118   3.747   8.431
  188MPD2    N1 3198   4.732   3.226   8.337
  188MPD2    H7 3199   4.637   3.260   8.329
  189MPD2     C 3200   1.299   3.097   8.755
  189MPD2    C1 3201   1.299   3.058   8.624
  189MPD2    C2 3202   1.270   3.147   8.520
  189MPD2    C3 3203   1.257   3.285   8.549
  189MPD2    C4 3204   1.276   3.322   8.686
  189MPD2    C5 3205   1.294   3.232   8.784
  189MPD2     H 3206   1.259   3.116   8.416
  189MPD2    H1 3207   1.279   3.429   8.705
  189MPD2    H2 3208   1.326   3.026   8.833
  189MPD2    H3 3209   1.306   3.263   8.887
  189MPD2     N 3210   1.236   3.379   8.448
  189MPD2    H5 3211   1.264   3.476   8.456
  189MPD2    N1 3212   1.327   2.923   8.592
  189MPD2    H7 3213   1.340   2.859   8.670
  190MPD2     C 3214   0.911   2.269   8.915
  190MPD2    C1 3215   0.911   2.243   8.783
  190MPD2    C2 3216   1.019   2.289   8.698
  190MPD2    C3 3217   1.116   2.374   8.747
  190MPD2    C4 3218   1.108   2.402   8.883
  190MPD2    C5 3219   1.009   2.354   8.965
  190MPD2     H 3220   1.004   2.257   8.595
  190MPD2    H1 3221   1.175   2.476   8.924
  190MPD2    H2 3222   0.824   2.254   8.979
  190MPD2    H3 3223   1.000   2.385   9.069
  190MPD2     N 3224   1.213   2.446   8.672
  190MPD2    H5 3225   1.271   2.515   8.719
  190MPD2    N1 3226   0.802   2.165   8.743
  190MPD2    H7 3227   0.754   2.120   8.820
  191MPD2     C 3228   1.885   2.362   8.328
  191MPD2    C1 3229   1.808   2.449   8.254
  191MPD2    C2 3230   1.871   2.500   8.137
  191MPD2    C3 3231   1.996   2.467   8.096
  191MPD2    C4 3232   2.069   2.373   8.169
  191MPD2    C5 3233   2.011   2.327   8.284
  191MPD2     H 3234   1.817   2.564   8.068
  191MPD2    H1 3235   2.160   2.327   8.133
  191MPD2    H2 3236   1.843   2.325   8.421
  191MPD2    H3 3237   2.061   2.252   8.344
  191MPD2     N 3238   2.047   2.521   7.974
  191MPD2    H5 3239   1.978   2.583   7.933
  191MPD2    N1 3240   1.675   2.474   8.295
  191MPD2    H7 3241   1.640   2.435   8.382
  192MPD2     C 3242   2.370   2.461  11.905
  192MPD2    C1 3243   2.457   2.560  11.853
  192MPD2    C2 3244   2.547   2.522  11.752
  192MPD2    C3 3245   2.564   2.391  11.730
  192MPD2    C4 3246   2.485   2.293  11.788
  192MPD2    C5 3247   2.385   2.328  11.873
  192MPD2     H 3248   2.601   2.599  11.698
  192MPD2    H1 3249   2.510   2.190  11.767
  192MPD2    H2 3250   2.304   2.482  11.988
  192MPD2    H3 3251   2.314   2.266  11.928
  192MPD2     N 3252   2.669   2.336  11.644
  192MPD2    H5 3253   2.692   2.237  11.649
  192MPD2    N1 3254   2.445   2.694  11.904
  192MPD2    H7 3255   2.497   2.774  11.868
  193MPD2     C 3256   2.487   3.247  12.585
  193MPD2    C1 3257   2.585   3.224  12.486
  193MPD2    C2 3258   2.707   3.292  12.491
  193MPD2    C3 3259   2.723   3.391  12.584
  193MPD2    C4 3260   2.625   3.410  12.682
  193MPD2    C5 3261   2.514   3.333  12.686
  193MPD2     H 3262   2.788   3.261  12.426
  193MPD2    H1 3263   2.631   3.491  12.754
  193MPD2    H2 3264   2.394   3.192  12.599
  193MPD2    H3 3265   2.448   3.333  12.772
  193MPD2     N 3266   2.840   3.475  12.588
  193MPD2    H5 3267   2.837   3.546  12.661
  193MPD2    N1 3268   2.568   3.128  12.380
  193MPD2    H7 3269   2.633   3.140  12.303
  194MPD2     C 3270   0.446   3.964  14.484
  194MPD2    C1 3271   0.362   3.874  14.547
  194MPD2    C2 3272   0.234   3.919  14.578
  194MPD2    C3 3273   0.199   4.053  14.562
  194MPD2    C4 3274   0.288   4.139  14.503
  194MPD2    C5 3275   0.402   4.096  14.458
  194MPD2     H 3276   0.165   3.840  14.603
  194MPD2    H1 3277   0.268   4.243  14.480
  194MPD2    H2 3278   0.545   3.948  14.444
  194MPD2    H3 3279   0.466   4.156  14.393
  194MPD2     N 3280   0.070   4.099  14.587
  194MPD2    H5 3281   0.045   4.193  14.560
  194MPD2    N1 3282   0.401   3.741  14.573
  194MPD2    H7 3283   0.329   3.682  14.614
  195MPD2     C 3284   3.942   4.106  14.647
  195MPD2    C1 3285   4.062   4.044  14.625
  195MPD2    C2 3286   4.078   3.972  14.503
  195MPD2    C3 3287   3.977   3.970  14.410
  195MPD2    C4 3288   3.852   4.020  14.440
  195MPD2    C5 3289   3.832   4.084  14.560
  195MPD2     H 3290   4.167   3.911  14.490
  195MPD2    H1 3291   3.770   4.008  14.370
  195MPD2    H2 3292   3.928   4.179  14.727
  195MPD2    H3 3293   3.733   4.123  14.579
  195MPD2     N 3294   3.993   3.910  14.275
  195MPD2    H5 3295   3.913   3.915  14.213
  195MPD2    N1 3296   4.172   4.066  14.712
  195MPD2    H7 3297   4.165   4.145  14.775
  196MPD2     C 3298   4.464   4.214  13.851
  196MPD2    C1 3299   4.561   4.301  13.901
  196MPD2    C2 3300   4.574   4.315  14.040
  196MPD2    C3 3301   4.488   4.242  14.115
  196MPD2    C4 3302   4.389   4.157  14.061
  196MPD2    C5 3303   4.380   4.147  13.926
  196MPD2     H 3304   4.663   4.367  14.075
  196MPD2    H1 3305   4.331   4.086  14.119
  196MPD2    H2 3306   4.447   4.216  13.744
  196MPD2    H3 3307   4.292   4.103  13.882
  196MPD2     N 3308   4.502   4.256  14.253
  196MPD2    H5 3309   4.594   4.279  14.289
  196MPD2    N1 3310   4.648   4.382  13.824
  196MPD2    H7 3311   4.715   4.440  13.873
  197MPD2     C 3312   0.867   2.226  11.789
  197MPD2    C1 3313   0.854   2.322  11.889
  197MPD2    C2 3314   0.953   2.326  11.978
  197MPD2    C3 3315   1.076   2.264  11.967
  197MPD2    C4 3316   1.099   2.193  11.845
  197MPD2    C5 3317   0.990   2.179  11.758
  197MPD2     H 3318   0.927   2.374  12.072
  197MPD2    H1 3319   1.195   2.151  11.817
  197MPD2    H2 3320   0.786   2.203  11.721
  197MPD2    H3 3321   0.987   2.106  11.677
  197MPD2     N 3322   1.175   2.278  12.063
  197MPD2    H5 3323   1.147   2.307  12.156
  197MPD2    N1 3324   0.729   2.377  11.911
  197MPD2    H7 3325   0.655   2.337  11.854
  198MPD2     C 3326   0.689   3.107  11.933
  198MPD2    C1 3327   0.563   3.062  11.908
  198MPD2    C2 3328   0.469   3.153  11.871
  198MPD2    C3 3329   0.509   3.285  11.863
  198MPD2    C4 3330   0.631   3.332  11.902
  198MPD2    C5 3331   0.724   3.238  11.930
  198MPD2     H 3332   0.364   3.135  11.848
  198MPD2    H1 3333   0.671   3.433  11.897
  198MPD2    H2 3334   0.766   3.036  11.963
  198MPD2    H3 3335   0.828   3.262  11.951
  198MPD2     N 3336   0.411   3.384  11.822
  198MPD2    H5 3337   0.316   3.357  11.801
  198MPD2    N1 3338   0.540   2.929  11.929
  198MPD2    H7 3339   0.617   2.870  11.957
  199MPD2     C 3340   4.703   2.508  11.740
  199MPD2    C1 3341   0.029   2.446  11.707
  199MPD2    C2 3342   0.039   2.361  11.598
  199MPD2    C3 3343   4.726   2.354  11.512
  199MPD2    C4 3344   4.608   2.420  11.545
  199MPD2    C5 3345   4.596   2.489  11.663
  199MPD2     H 3346   0.129   2.301  11.588
  199MPD2    H1 3347   4.528   2.407  11.473
  199MPD2    H2 3348   4.689   2.562  11.833
  199MPD2    H3 3349   4.502   2.527  11.702
  199MPD2     N 3350   4.728   2.279  11.391
  199MPD2    H5 3351   4.647   2.272  11.331
  199MPD2    N1 3352   0.127   2.484  11.803
  199MPD2    H7 3353   0.099   2.550  11.875
  200MPD2     C 3354   4.499   2.746  11.485
  200MPD2    C1 3355   4.631   2.738  11.450
  200MPD2    C2 3356   4.658   2.669  11.331
  200MPD2    C3 3357   4.559   2.596  11.264
  200MPD2    C4 3358   4.431   2.599  11.307
  200MPD2    C5 3359   4.407   2.676  11.416
  200MPD2     H 3360   4.756   2.682  11.286
  200MPD2    H1 3361   4.346   2.555  11.257
  200MPD2    H2 3362   4.460   2.808  11.565
  200MPD2    H3 3363   4.300   2.682  11.437
  200MPD2     N 3364   4.593   2.528  11.151
  200MPD2    H5 3365   4.677   2.561  11.102
  200MPD2    N1 3366   4.728   2.802  11.523
  200MPD2    H7 3367   4.695   2.876  11.585
  201MPD2     C 3368   4.560   2.843  10.594
  201MPD2    C1 3369   4.482   2.744  10.645
  201MPD2    C2 3370   4.347   2.750  10.633
  201MPD2    C3 3371   4.280   2.854  10.573
  201MPD2    C4 3372   4.363   2.959  10.516
  201MPD2    C5 3373   4.501   2.953  10.535
  201MPD2     H 3374   4.294   2.658  10.656
  201MPD2    H1 3375   4.307   3.040  10.470
  201MPD2    H2 3376   4.668   2.846  10.604
  201MPD2    H3 3377   4.567   3.034  10.506
  201MPD2     N 3378   4.144   2.867  10.567
  201MPD2    H5 3379   4.103   2.953  10.532
  201MPD2    N1 3380   4.538   2.632  10.710
  201MPD2    H7 3381   4.471   2.560  10.737
  202MPD2     C 3382   0.471   1.853  10.963
  202MPD2    C1 3383   0.426   1.902  11.086
  202MPD2    C2 3384   0.333   2.007  11.090
  202MPD2    C3 3385   0.270   2.052  10.971
  202MPD2    C4 3386   0.340   2.019  10.855
  202MPD2    C5 3387   0.433   1.922  10.854
  202MPD2     H 3388   0.281   2.037  11.180
  202MPD2    H1 3389   0.318   2.052  10.754
  202MPD2    H2 3390   0.537   1.767  10.957
  202MPD2    H3 3391   0.480   1.897  10.759
  202MPD2     N 3392   0.153   2.131  10.977
  202MPD2    H5 3393   0.104   2.152  11.063
  202MPD2    N1 3394   0.466   1.832  11.201
  202MPD2    H7 3395   0.525   1.753  11.179
  203MPD2     C 3396   1.220   1.685   8.661
  203MPD2    C1 3397   1.138   1.704   8.551
  203MPD2    C2 3398   1.189   1.705   8.422
  203MPD2    C3 3399   1.317   1.653   8.407
  203MPD2    C4 3400   1.404   1.630   8.514
  203MPD2    C5 3401   1.354   1.651   8.639
  203MPD2     H 3402   1.138   1.731   8.330
  203MPD2    H1 3403   1.511   1.616   8.503
  203MPD2    H2 3404   1.184   1.683   8.763
  203MPD2    H3 3405   1.428   1.641   8.717
  203MPD2     N 3406   1.379   1.643   8.285
  203MPD2    H5 3407   1.478   1.617   8.284
  203MPD2    N1 3408   1.006   1.735   8.585
  203MPD2    H7 3409   0.989   1.769   8.678
  204MPD2     C 3410   1.941   1.082   8.309
  204MPD2    C1 3411   1.838   1.144   8.379
  204MPD2    C2 3412   1.758   1.228   8.302
  204MPD2    C3 3413   1.779   1.253   8.168
  204MPD2    C4 3414   1.885   1.198   8.104
  204MPD2    C5 3415   1.967   1.118   8.176
  204MPD2     H 3416   1.676   1.276   8.355
  204MPD2    H1 3417   1.900   1.200   7.997
  204MPD2    H2 3418   2.014   1.011   8.347
  204MPD2    H3 3419   2.052   1.070   8.128
  204MPD2     N 3420   1.665   1.314   8.100
  204MPD2    H5 3421   1.586   1.329   8.162
  204MPD2    N1 3422   1.828   1.121   8.517
  204MPD2    H7 3423   1.880   1.045   8.559
  205MPD2     C 3424   1.010   1.969   7.537
  205MPD2    C1 3425   0.988   1.848   7.585
  205MPD2    C2 3426   1.095   1.769   7.628
  205MPD2    C3 3427   1.223   1.818   7.614
  205MPD2    C4 3428   1.242   1.948   7.565
  205MPD2    C5 3429   1.133   2.023   7.526
  205MPD2     H 3430   1.080   1.672   7.673
  205MPD2    H1 3431   1.346   1.979   7.565
  205MPD2    H2 3432   0.927   2.036   7.516
  205MPD2    H3 3433   1.143   2.127   7.501
  205MPD2     N 3434   1.339   1.753   7.672
  205MPD2    H5 3435   1.413   1.811   7.711
  205MPD2    N1 3436   0.852   1.807   7.612
  205MPD2    H7 3437   0.777   1.872   7.592
  206MPD2     C 3438   1.920   4.195  11.025
  206MPD2    C1 3439   1.929   4.179  11.164
  206MPD2    C2 3440   2.023   4.261  11.222
  206MPD2    C3 3441   2.085   4.363  11.152
  206MPD2    C4 3442   2.069   4.379  11.014
  206MPD2    C5 3443   1.983   4.290  10.951
  206MPD2     H 3444   2.039   4.261  11.329
  206MPD2    H1 3445   2.116   4.455  10.952
  206MPD2    H2 3446   1.844   4.131  10.982
  206MPD2    H3 3447   1.960   4.307  10.847
  206MPD2     N 3448   2.163   4.460  11.225
  206MPD2    H5 3449   2.179   4.450  11.325
  206MPD2    N1 3450   1.844   4.083  11.226
  206MPD2    H7 3451   1.781   4.034  11.163
  207MPD2     C 3452   1.430   3.650  11.023
  207MPD2    C1 3453   1.374   3.692  11.138
  207MPD2    C2 3454   1.261   3.628  11.186
  207MPD2    C3 3455   1.205   3.526  11.110
  207MPD2    C4 3456   1.261   3.485  10.993
  207MPD2    C5 3457   1.382   3.542  10.954
  207MPD2     H 3458   1.208   3.649  11.278
  207MPD2    H1 3459   1.218   3.398  10.945
  207MPD2    H2 3460   1.517   3.698  10.980
  207MPD2    H3 3461   1.441   3.517  10.866
  207MPD2     N 3462   1.090   3.469  11.165
  207MPD2    H5 3463   1.060   3.480  11.261
  207MPD2    N1 3464   1.455   3.776  11.217
  207MPD2    H7 3465   1.541   3.802  11.168
  208MPD2     C 3466   1.645   3.339  11.991
  208MPD2    C1 3467   1.584   3.334  11.868
  208MPD2    C2 3468   1.576   3.443  11.780
  208MPD2    C3 3469   1.646   3.556  11.806
  208MPD2    C4 3470   1.711   3.566  11.927
  208MPD2    C5 3471   1.707   3.464  12.020
  208MPD2     H 3472   1.527   3.445  11.684
  208MPD2    H1 3473   1.746   3.663  11.959
  208MPD2    H2 3474   1.626   3.263  12.066
  208MPD2    H3 3475   1.760   3.483  12.112
  208MPD2     N 3476   1.637   3.660  11.712
  208MPD2    H5 3477   1.587   3.635  11.628
  208MPD2    N1 3478   1.521   3.203  11.830
  208MPD2    H7 3479   1.552   3.116  11.872
  209MPD2     C 3480   2.593   1.993  10.369
  209MPD2    C1 3481   2.705   2.050  10.309
  209MPD2    C2 3482   2.779   1.974  10.223
  209MPD2    C3 3483   2.733   1.851  10.180
  209MPD2    C4 3484   2.626   1.796  10.252
  209MPD2    C5 3485   2.557   1.872  10.343
  209MPD2     H 3486   2.860   2.024  10.172
  209MPD2    H1 3487   2.590   1.699  10.219
  209MPD2    H2 3488   2.524   2.042  10.436
  209MPD2    H3 3489   2.467   1.831  10.388
  209MPD2     N 3490   2.824   1.778  10.086
  209MPD2    H5 3491   2.908   1.831  10.065
  209MPD2    N1 3492   2.736   2.188  10.328
  209MPD2    H7 3493   2.811   2.229  10.273
  210MPD2     C 3494   3.319   2.881  10.012
  210MPD2    C1 3495   3.239   2.967  10.081
  210MPD2    C2 3496   3.142   2.909  10.157
  210MPD2    C3 3497   3.111   2.774  10.156
  210MPD2    C4 3498   3.185   2.690  10.075
  210MPD2    C5 3499   3.290   2.746  10.013
  210MPD2     H 3500   3.064   2.972  10.198
  210MPD2    H1 3501   3.177   2.583  10.067
  210MPD2    H2 3502   3.397   2.905   9.940
  210MPD2    H3 3503   3.359   2.684   9.957
  210MPD2     N 3504   2.998   2.733  10.232
  210MPD2    H5 3505   2.962   2.792  10.306
  210MPD2    N1 3506   3.251   3.106  10.060
  210MPD2    H7 3507   3.308   3.117   9.977
  211MPD2     C 3508   2.218   2.837  10.355
  211MPD2    C1 3509   2.256   2.709  10.389
  211MPD2    C2 3510   2.168   2.615  10.425
  211MPD2    C3 3511   2.035   2.644  10.417
  211MPD2    C4 3512   1.999   2.775  10.381
  211MPD2    C5 3513   2.089   2.873  10.366
  211MPD2     H 3514   2.197   2.511  10.434
  211MPD2    H1 3515   1.893   2.797  10.368
  211MPD2    H2 3516   2.295   2.912  10.342
  211MPD2    H3 3517   2.058   2.975  10.348
  211MPD2     N 3518   1.929   2.549  10.416
  211MPD2    H5 3519   1.839   2.582  10.384
  211MPD2    N1 3520   2.386   2.662  10.391
  211MPD2    H7 3521   2.400   2.588  10.458
  212MPD2     C 3522   1.785   2.876  13.728
  212MPD2    C1 3523   1.675   2.867  13.646
  212MPD2    C2 3524   1.607   2.744  13.635
  212MPD2    C3 3525   1.647   2.637  13.713
  212MPD2    C4 3526   1.767   2.649  13.782
  212MPD2    C5 3527   1.836   2.765  13.790
  212MPD2     H 3528   1.518   2.725  13.576
  212MPD2    H1 3529   1.818   2.571  13.836
  212MPD2    H2 3530   1.846   2.964  13.745
  212MPD2    H3 3531   1.921   2.776  13.856
  212MPD2     N 3532   1.585   2.510  13.710
  212MPD2    H5 3533   1.509   2.499  13.644
  212MPD2    N1 3534   1.633   2.977  13.568
  212MPD2    H7 3535   1.556   2.949  13.509
  213MPD2     C 3536   1.837   1.834  13.722
  213MPD2    C1 3537   1.836   1.958  13.775
  213MPD2    C2 3538   1.945   2.041  13.746
  213MPD2    C3 3539   2.042   2.000  13.655
  213MPD2    C4 3540   2.039   1.872  13.600
  213MPD2    C5 3541   1.936   1.791  13.641
  213MPD2     H 3542   1.960   2.137  13.793
  213MPD2    H1 3543   2.114   1.834  13.532
  213MPD2    H2 3544   1.760   1.760  13.741
  213MPD2    H3 3545   1.933   1.690  13.604
  213MPD2     N 3546   2.135   2.091  13.597
  213MPD2    H5 3547   2.186   2.052  13.518
  213MPD2    N1 3548   1.729   2.020  13.839
  213MPD2    H7 3549   1.730   2.121  13.851
  214MPD2     C 3550   1.044   3.223  10.707
  214MPD2    C1 3551   0.986   3.227  10.581
  214MPD2    C2 3552   0.928   3.113  10.531
  214MPD2    C3 3553   0.926   2.996  10.598
  214MPD2    C4 3554   0.971   2.991  10.728
  214MPD2    C5 3555   1.029   3.107  10.780
  214MPD2     H 3556   0.884   3.110  10.432
  214MPD2    H1 3557   0.977   2.906  10.795
  214MPD2    H2 3558   1.094   3.308  10.753
  214MPD2    H3 3559   1.075   3.099  10.877
  214MPD2     N 3560   0.910   2.878  10.527
  214MPD2    H5 3561   0.916   2.890  10.426
  214MPD2    N1 3562   0.990   3.352  10.508
  214MPD2    H7 3563   1.040   3.420  10.563
  215MPD2     C 3564   0.613   2.372   9.788
  215MPD2    C1 3565   0.584   2.337   9.914
  215MPD2    C2 3566   0.653   2.395  10.020
  215MPD2    C3 3567   0.762   2.470  10.000
  215MPD2    C4 3568   0.787   2.509   9.871
  215MPD2    C5 3569   0.716   2.461   9.765
  215MPD2     H 3570   0.620   2.383  10.122
  215MPD2    H1 3571   0.874   2.569   9.847
  215MPD2    H2 3572   0.565   2.326   9.703
  215MPD2    H3 3573   0.728   2.496   9.663
  215MPD2     N 3574   0.833   2.516  10.112
  215MPD2    H5 3575   0.807   2.464  10.195
  215MPD2    N1 3576   0.491   2.234   9.930
  215MPD2    H7 3577   0.433   2.206   9.851
  216MPD2     C 3578   2.753   4.300  10.786
  216MPD2    C1 3579   2.658   4.266  10.883
  216MPD2    C2 3580   2.564   4.170  10.854
  216MPD2    C3 3581   2.551   4.116  10.724
  216MPD2    C4 3582   2.650   4.151  10.634
  216MPD2    C5 3583   2.759   4.233  10.667
  216MPD2     H 3584   2.498   4.130  10.930
  216MPD2    H1 3585   2.647   4.114  10.533
  216MPD2    H2 3586   2.831   4.375  10.798
  216MPD2    H3 3587   2.836   4.264  10.598
  216MPD2     N 3588   2.448   4.025  10.690
  216MPD2    H5 3589   2.389   3.986  10.763
  216MPD2    N1 3590   2.647   4.328  11.010
  216MPD2    H7 3591   2.572   4.300  11.072
  217MPD2     C 3592   2.654   0.360  11.223
  217MPD2    C1 3593   2.737   0.276  11.302
  217MPD2    C2 3594   2.856   0.324  11.347
  217MPD2    C3 3595   2.905   0.446  11.312
  217MPD2    C4 3596   2.825   0.524  11.229
  217MPD2    C5 3597   2.704   0.482  11.192
  217MPD2     H 3598   2.915   0.259  11.410
  217MPD2    H1 3599   2.853   0.626  11.204
  217MPD2    H2 3600   2.552   0.334  11.195
  217MPD2    H3 3601   2.646   0.550  11.131
  217MPD2     N 3602   3.036   0.482  11.360
  217MPD2    H5 3603   3.083   0.422  11.427
  217MPD2    N1 3604   2.709   0.142  11.327
  217MPD2    H7 3605   2.775   0.084  11.378
  218MPD2     C 3606   2.794   4.475  12.012
  218MPD2    C1 3607   2.744   4.383  11.925
  218MPD2    C2 3608   2.759   4.399  11.787
  218MPD2    C3 3609   2.820   4.508  11.734
  218MPD2    C4 3610   2.879   4.594  11.821
  218MPD2    C5 3611   2.868   4.573  11.956
  218MPD2     H 3612   2.723   4.320  11.722
  218MPD2    H1 3613   2.925   4.683  11.777
  218MPD2    H2 3614   2.788   4.472  12.120
  218MPD2    H3 3615   2.907   4.654  12.017
  218MPD2     N 3616   2.814   4.536  11.594
  218MPD2    H5 3617   2.862   4.617  11.555
  218MPD2    N1 3618   2.665   4.284  11.985
  218MPD2    H7 3619   2.636   4.300  12.080
  219MPD2     C 3620   1.870   4.067   8.243
  219MPD2    C1 3621   1.819   3.999   8.350
  219MPD2    C2 3622   1.722   3.902   8.330
  219MPD2    C3 3623   1.685   3.862   8.195
  219MPD2    C4 3624   1.741   3.934   8.088
  219MPD2    C5 3625   1.832   4.032   8.114
  219MPD2     H 3626   1.699   3.837   8.413
  219MPD2    H1 3627   1.712   3.909   7.987
  219MPD2    H2 3628   1.954   4.135   8.251
  219MPD2    H3 3629   1.886   4.083   8.035
  219MPD2     N 3630   1.595   3.756   8.160
  219MPD2    H5 3631   1.580   3.727   8.064
  219MPD2    N1 3632   1.885   4.024   8.478
  219MPD2    H7 3633   1.968   4.081   8.470
  220MPD2     C 3634   1.469   3.482   9.016
  220MPD2    C1 3635   1.583   3.544   8.989
  220MPD2    C2 3636   1.695   3.526   9.076
  220MPD2    C3 3637   1.680   3.442   9.186
  220MPD2    C4 3638   1.557   3.380   9.211
  220MPD2    C5 3639   1.451   3.401   9.127
  220MPD2     H 3640   1.777   3.597   9.071
  220MPD2    H1 3641   1.535   3.314   9.294
  220MPD2    H2 3642   1.381   3.503   8.957
  220MPD2    H3 3643   1.355   3.363   9.160
  220MPD2     N 3644   1.786   3.423   9.277
  220MPD2    H5 3645   1.772   3.352   9.349
  220MPD2    N1 3646   1.595   3.648   8.885
  220MPD2    H7 3647   1.687   3.689   8.873
  221MPD2     C 3648   1.222   4.297   8.936
  221MPD2    C1 3649   1.244   4.263   8.807
  221MPD2    C2 3650   1.195   4.337   8.698
  221MPD2    C3 3651   1.153   4.466   8.721
  221MPD2    C4 3652   1.142   4.513   8.857
  221MPD2    C5 3653   1.161   4.422   8.964
  221MPD2     H 3654   1.188   4.295   8.598
  221MPD2    H1 3655   1.108   4.616   8.859
  221MPD2    H2 3656   1.257   4.241   9.022
  221MPD2    H3 3657   1.137   4.453   9.065
  221MPD2     N 3658   1.122   4.557   8.615
  221MPD2    H5 3659   1.123   4.655   8.641
  221MPD2    N1 3660   1.339   4.159   8.783
  221MPD2    H7 3661   1.340   4.084   8.852
  222MPD2     C 3662   1.055   1.075  14.169
  222MPD2    C1 3663   0.937   1.073  14.241
  222MPD2    C2 3664   0.933   1.147  14.358
  222MPD2    C3 3665   1.038   1.238  14.394
  222MPD2    C4 3666   1.152   1.229  14.323
  222MPD2    C5 3667   1.161   1.143  14.214
  222MPD2     H 3668   0.839   1.143  14.412
  222MPD2    H1 3669   1.241   1.290  14.338
  222MPD2    H2 3670   1.080   1.027  14.075
  222MPD2    H3 3671   1.259   1.142  14.167
  222MPD2     N 3672   1.030   1.335  14.497
  222MPD2    H5 3673   1.118   1.380  14.519
  222MPD2    N1 3674   0.833   0.983  14.219
  222MPD2    H7 3675   0.747   0.983  14.273
  223MPD2     C 3676   0.320   1.985  14.795
  223MPD2    C1 3677   0.443   2.032  14.830
  223MPD2    C2 3678   0.544   1.942  14.838
  223MPD2    C3 3679   0.530   1.809  14.803
  223MPD2    C4 3680   0.405   1.772  14.765
  223MPD2    C5 3681   0.299   1.859  14.773
  223MPD2     H 3682   0.647   1.974  14.849
  223MPD2    H1 3683   0.376   1.669  14.747
  223MPD2    H2 3684   0.229   2.043  14.790
  223MPD2    H3 3685   0.200   1.821  14.747
  223MPD2     N 3686   0.636   1.716  14.801
  223MPD2    H5 3687   0.616   1.620  14.777
  223MPD2    N1 3688   0.472   2.168  14.854
  223MPD2    H7 3689   0.567   2.194  14.880
  224MPD2     C 3690   1.723   1.624  14.893
  224MPD2    C1 3691   1.630   1.651  14.997
  224MPD2    C2 3692   1.493   1.645  14.965
  224MPD2    C3 3693   1.454   1.600  14.840
  224MPD2    C4 3694   1.552   1.583  14.740
  224MPD2    C5 3695   1.684   1.596  14.764
  224MPD2     H 3696   1.419   1.657  15.044
  224MPD2    H1 3697   1.524   1.553  14.639
  224MPD2    H2 3698   1.828   1.644  14.912
  224MPD2    H3 3699   1.758   1.567  14.690
  224MPD2     N 3700   1.317   1.590  14.809
  224MPD2    H5 3701   1.292   1.567  14.713
  224MPD2    N1 3702   1.676   1.706  15.122
  224MPD2    H7 3703   1.777   1.715  15.124
  225MPD2     C 3704   2.129   1.736  11.216
  225MPD2    C1 3705   2.203   1.633  11.169
  225MPD2    C2 3706   2.277   1.644  11.054
  225MPD2    C3 3707   2.273   1.766  10.991
  225MPD2    C4 3708   2.201   1.875  11.034
  225MPD2    C5 3709   2.125   1.857  11.142
  225MPD2     H 3710   2.332   1.557  11.021
  225MPD2    H1 3711   2.187   1.967  10.977
  225MPD2    H2 3712   2.071   1.734  11.308
  225MPD2    H3 3713   2.061   1.938  11.175
  225MPD2     N 3714   2.347   1.781  10.869
  225MPD2    H5 3715   2.384   1.694  10.830
  225MPD2    N1 3716   2.207   1.509  11.231
  225MPD2    H7 3717   2.251   1.432  11.183
  226MPD2     C 3718   2.254   0.701  10.789
  226MPD2    C1 3719   2.390   0.737  10.790
  226MPD2    C2 3720   2.415   0.866  10.748
  226MPD2    C3 3721   2.326   0.967  10.713
  226MPD2    C4 3722   2.196   0.925  10.715
  226MPD2    C5 3723   2.165   0.799  10.757
  226MPD2     H 3724   2.521   0.892  10.747
  226MPD2    H1 3725   2.118   0.996  10.692
  226MPD2    H2 3726   2.209   0.606  10.816
  226MPD2    H3 3727   2.059   0.778  10.754
  226MPD2     N 3728   2.379   1.095  10.679
  226MPD2    H5 3729   2.475   1.115  10.703
  226MPD2    N1 3730   2.499   0.647  10.826
  226MPD2    H7 3731   2.593   0.680  10.806
  227MPD2     C 3732   3.194   1.229  10.607
  227MPD2    C1 3733   3.128   1.355  10.594
  227MPD2    C2 3734   2.992   1.362  10.550
  227MPD2    C3 3735   2.930   1.251  10.515
  227MPD2    C4 3736   2.989   1.130  10.539
  227MPD2    C5 3737   3.118   1.118  10.587
  227MPD2     H 3738   2.943   1.455  10.524
  227MPD2    H1 3739   2.932   1.040  10.518
  227MPD2    H2 3740   3.292   1.201  10.643
  227MPD2    H3 3741   3.165   1.021  10.600
  227MPD2     N 3742   2.794   1.248  10.465
  227MPD2    H5 3743   2.746   1.161  10.445
  227MPD2    N1 3744   3.194   1.470  10.627
  227MPD2    H7 3745   3.292   1.463  10.654
  228MPD2     C 3746   2.210   1.812  10.227
  228MPD2    C1 3747   2.211   1.756  10.352
  228MPD2    C2 3748   2.168   1.842  10.452
  228MPD2    C3 3749   2.175   1.979  10.431
  228MPD2    C4 3750   2.210   2.029  10.311
  228MPD2    C5 3751   2.215   1.949  10.205
  228MPD2     H 3752   2.153   1.805  10.553
  228MPD2    H1 3753   2.215   2.137  10.301
  228MPD2    H2 3754   2.222   1.746  10.141
  228MPD2    H3 3755   2.222   1.980  10.101
  228MPD2     N 3756   2.158   2.069  10.536
  228MPD2    H5 3757   2.179   2.165  10.508
  228MPD2    N1 3758   2.237   1.619  10.377
  228MPD2    H7 3759   2.206   1.581  10.466
  229MPD2     C 3760   1.585   0.155  13.556
  229MPD2    C1 3761   1.724   0.154  13.565
  229MPD2    C2 3762   1.787   0.247  13.643
  229MPD2    C3 3763   1.710   0.348  13.710
  229MPD2    C4 3764   1.568   0.334  13.709
  229MPD2    C5 3765   1.514   0.240  13.632
  229MPD2     H 3766   1.893   0.228  13.652
  229MPD2    H1 3767   1.498   0.400  13.759
  229MPD2    H2 3768   1.529   0.101  13.480
  229MPD2    H3 3769   1.409   0.250  13.607
  229MPD2     N 3770   1.766   0.446  13.790
  229MPD2    H5 3771   1.699   0.502  13.842
  229MPD2    N1 3772   1.809   0.063  13.501
  229MPD2    H7 3773   1.909   0.071  13.514
  230MPD2     C 3774   1.925   1.228  13.920
  230MPD2    C1 3775   2.024   1.153  13.976
  230MPD2    C2 3776   2.137   1.219  14.025
  230MPD2    C3 3777   2.144   1.360  14.014
  230MPD2    C4 3778   2.045   1.429  13.955
  230MPD2    C5 3779   1.934   1.360  13.902
  230MPD2     H 3780   2.216   1.160  14.069
  230MPD2    H1 3781   2.056   1.534  13.934
  230MPD2    H2 3782   1.830   1.182  13.896
  230MPD2    H3 3783   1.850   1.417  13.864
  230MPD2     N 3784   2.263   1.430  14.042
  230MPD2    H5 3785   2.257   1.530  14.024
  230MPD2    N1 3786   2.019   1.017  13.987
  230MPD2    H7 3787   2.080   0.974  14.056
  231MPD2     C 3788   1.511   0.569  14.365
  231MPD2    C1 3789   1.539   0.530  14.242
  231MPD2    C2 3790   1.445   0.451  14.170
  231MPD2    C3 3791   1.319   0.422  14.222
  231MPD2    C4 3792   1.298   0.462  14.354
  231MPD2    C5 3793   1.398   0.522  14.428
  231MPD2     H 3794   1.479   0.419  14.072
  231MPD2    H1 3795   1.200   0.436  14.394
  231MPD2    H2 3796   1.577   0.614  14.439
  231MPD2    H3 3797   1.369   0.539  14.531
  231MPD2     N 3798   1.219   0.343  14.160
  231MPD2    H5 3799   1.139   0.312  14.214
  231MPD2    N1 3800   1.657   0.566  14.170
  231MPD2    H7 3801   1.664   0.528  14.077
  232MPD2     C 3802   3.327   1.884   9.270
  232MPD2    C1 3803   3.448   1.936   9.228
  232MPD2    C2 3804   3.506   1.882   9.113
  232MPD2    C3 3805   3.437   1.795   9.028
  232MPD2    C4 3806   3.326   1.742   9.081
  232MPD2    C5 3807   3.272   1.784   9.195
  232MPD2     H 3808   3.607   1.914   9.088
  232MPD2    H1 3809   3.274   1.657   9.038
  232MPD2    H2 3810   3.277   1.919   9.360
  232MPD2    H3 3811   3.184   1.732   9.233
  232MPD2     N 3812   3.485   1.734   8.911
  232MPD2    H5 3813   3.439   1.649   8.882
  232MPD2    N1 3814   3.532   2.025   9.310
  232MPD2    H7 3815   3.630   2.034   9.287
  233MPD2     C 3816   4.201   2.109   9.401
  233MPD2    C1 3817   4.127   2.123   9.513
  233MPD2    C2 3818   4.194   2.139   9.629
  233MPD2    C3 3819   4.327   2.154   9.635
  233MPD2    C4 3820   4.405   2.135   9.526
  233MPD2    C5 3821   4.342   2.118   9.408
  233MPD2     H 3822   4.132   2.134   9.718
  233MPD2    H1 3823   4.512   2.135   9.543
  233MPD2    H2 3824   4.157   2.088   9.304
  233MPD2    H3 3825   4.406   2.111   9.321
  233MPD2     N 3826   4.384   2.192   9.755
  233MPD2    H5 3827   4.320   2.196   9.834
  233MPD2    N1 3828   3.987   2.143   9.498
  233MPD2    H7 3829   3.941   2.110   9.414
  234MPD2     C 3830   3.698   2.681   9.132
  234MPD2    C1 3831   3.790   2.624   9.224
  234MPD2    C2 3832   3.925   2.639   9.198
  234MPD2    C3 3833   3.969   2.726   9.093
  234MPD2    C4 3834   3.884   2.797   9.015
  234MPD2    C5 3835   3.749   2.765   9.032
  234MPD2     H 3836   3.997   2.596   9.266
  234MPD2    H1 3837   3.910   2.862   8.933
  234MPD2    H2 3838   3.590   2.673   9.143
  234MPD2    H3 3839   3.674   2.818   8.975
  234MPD2     N 3840   4.106   2.749   9.060
  234MPD2    H5 3841   4.123   2.798   8.973
  234MPD2    N1 3842   3.754   2.548   9.335
  234MPD2    H7 3843   3.828   2.519   9.398
  235MPD2     C 3844   3.216   0.912  14.903
  235MPD2    C1 3845   3.285   0.876  15.016
  235MPD2    C2 3846   3.424   0.848  14.998
  235MPD2    C3 3847   3.495   0.879  14.884
  235MPD2    C4 3848   3.425   0.922  14.782
  235MPD2    C5 3849   3.290   0.938  14.782
  235MPD2     H 3850   3.482   0.806  15.080
  235MPD2    H1 3851   3.467   0.940  14.683
  235MPD2    H2 3852   3.110   0.937  14.895
  235MPD2    H3 3853   3.245   0.983  14.694
  235MPD2     N 3854   3.633   0.855  14.881
  235MPD2    H5 3855   3.677   0.832  14.970
  235MPD2    N1 3856   3.218   0.858  15.136
  235MPD2    H7 3857   3.266   0.817  15.215
  236MPD2     C 3858   4.391   0.614  14.402
  236MPD2    C1 3859   4.267   0.673  14.425
  236MPD2    C2 3860   4.206   0.645  14.548
  236MPD2    C3 3861   4.266   0.573  14.643
  236MPD2    C4 3862   4.390   0.515  14.612
  236MPD2    C5 3863   4.449   0.531  14.491
  236MPD2     H 3864   4.108   0.686  14.569
  236MPD2    H1 3865   4.437   0.445  14.681
  236MPD2    H2 3866   4.448   0.627  14.311
  236MPD2    H3 3867   4.543   0.485  14.464
  236MPD2     N 3868   4.209   0.548  14.769
  236MPD2    H5 3869   4.255   0.477  14.827
  236MPD2    N1 3870   4.205   0.752  14.325
  236MPD2    H7 3871   4.110   0.778  14.348
  237MPD2     C 3872   4.211   1.287  14.519
  237MPD2    C1 3873   4.135   1.283  14.629
  237MPD2    C2 3874   4.075   1.399  14.671
  237MPD2    C3 3875   4.094   1.521  14.604
  237MPD2    C4 3876   4.183   1.526  14.503
  237MPD2    C5 3877   4.233   1.404  14.460
  237MPD2     H 3878   4.017   1.403  14.763
  237MPD2    H1 3879   4.202   1.619  14.450
  237MPD2    H2 3880   4.244   1.195  14.472
  237MPD2    H3 3881   4.281   1.412  14.363
  237MPD2     N 3882   4.011   1.634  14.627
  237MPD2    H5 3883   4.019   1.711  14.561
  237MPD2    N1 3884   4.107   1.161  14.700
  237MPD2    H7 3885   4.037   1.180  14.771
  238MPD2     C 3886   1.711   3.324  12.547
  238MPD2    C1 3887   1.716   3.460  12.519
  238MPD2    C2 3888   1.803   3.545  12.582
  238MPD2    C3 3889   1.888   3.487  12.676
  238MPD2    C4 3890   1.883   3.355  12.701
  238MPD2    C5 3891   1.791   3.273  12.642
  238MPD2     H 3892   1.818   3.649  12.557
  238MPD2    H1 3893   1.947   3.312  12.776
  238MPD2    H2 3894   1.658   3.259  12.478
  238MPD2    H3 3895   1.786   3.171  12.677
  238MPD2     N 3896   1.979   3.578  12.735
  238MPD2    H5 3897   1.972   3.675  12.707
  238MPD2    N1 3898   1.636   3.525  12.427
  238MPD2    H7 3899   1.656   3.621  12.403
  239MPD2     C 3900   0.775   3.591  12.407
  239MPD2    C1 3901   0.894   3.627  12.471
  239MPD2    C2 3902   0.883   3.675  12.605
  239MPD2    C3 3903   0.764   3.692  12.661
  239MPD2    C4 3904   0.651   3.671  12.593
  239MPD2    C5 3905   0.657   3.617  12.467
  239MPD2     H 3906   0.973   3.690  12.664
  239MPD2    H1 3907   0.551   3.685  12.633
  239MPD2    H2 3908   0.786   3.538  12.313
  239MPD2    H3 3909   0.566   3.587  12.415
  239MPD2     N 3910   0.762   3.750  12.789
  239MPD2    H5 3911   0.852   3.768  12.832
  239MPD2    N1 3912   1.018   3.616  12.404
  239MPD2    H7 3913   1.028   3.552  12.325
  240MPD2     C 3914   1.584   3.419   7.164
  240MPD2    C1 3915   1.714   3.436   7.196
  240MPD2    C2 3916   1.791   3.330   7.230
  240MPD2    C3 3917   1.739   3.205   7.246
  240MPD2    C4 3918   1.607   3.185   7.206
  240MPD2    C5 3919   1.525   3.296   7.171
  240MPD2     H 3920   1.895   3.352   7.251
  240MPD2    H1 3921   1.556   3.090   7.219
  240MPD2    H2 3922   1.528   3.501   7.122
  240MPD2    H3 3923   1.424   3.276   7.137
  240MPD2     N 3924   1.818   3.102   7.299
  240MPD2    H5 3925   1.771   3.015   7.321
  240MPD2    N1 3926   1.783   3.562   7.182
  240MPD2    H7 3927   1.878   3.563   7.217
  241MPD2     C 3928   2.813   2.910   7.716
  241MPD2    C1 3929   2.760   3.019   7.642
  241MPD2    C2 3930   2.627   3.023   7.610
  241MPD2    C3 3931   2.541   2.915   7.627
  241MPD2    C4 3932   2.592   2.809   7.710
  241MPD2    C5 3933   2.722   2.811   7.749
  241MPD2     H 3934   2.596   3.117   7.564
  241MPD2    H1 3935   2.522   2.733   7.742
  241MPD2    H2 3936   2.912   2.904   7.761
  241MPD2    H3 3937   2.752   2.730   7.815
  241MPD2     N 3938   2.411   2.908   7.588
  241MPD2    H5 3939   2.364   2.821   7.612
  241MPD2    N1 3940   2.839   3.135   7.624
  241MPD2    H7 3941   2.921   3.145   7.683
  242MPD2     C 3942   1.581   2.976   8.079
  242MPD2    C1 3943   1.589   3.079   7.983
  242MPD2    C2 3944   1.672   3.076   7.868
  242MPD2    C3 3945   1.769   2.980   7.866
  242MPD2    C4 3946   1.767   2.879   7.958
  242MPD2    C5 3947   1.683   2.883   8.063
  242MPD2     H 3948   1.666   3.154   7.793
  242MPD2    H1 3949   1.837   2.798   7.969
  242MPD2    H2 3950   1.506   2.974   8.158
  242MPD2    H3 3951   1.688   2.805   8.138
  242MPD2     N 3952   1.846   2.975   7.753
  242MPD2    H5 3953   1.835   3.050   7.686
  242MPD2    N1 3954   1.501   3.188   8.020
  242MPD2    H7 3955   1.454   3.176   8.109
  243MPD2     C 3956   4.293   3.111  14.395
  243MPD2    C1 3957   4.324   3.171  14.513
  243MPD2    C2 3958   4.259   3.288  14.559
  243MPD2    C3 3959   4.148   3.341  14.487
  243MPD2    C4 3960   4.125   3.275  14.372
  243MPD2    C5 3961   4.197   3.172  14.320
  243MPD2     H 3962   4.293   3.328  14.654
  243MPD2    H1 3963   4.060   3.325  14.300
  243MPD2    H2 3964   4.348   3.029  14.349
  243MPD2    H3 3965   4.178   3.141  14.218
  243MPD2     N 3966   4.067   3.452  14.525
  243MPD2    H5 3967   3.981   3.470  14.474
  243MPD2    N1 3968   4.438   3.126  14.586
  243MPD2    H7 3969   4.468   3.194  14.654
  244MPD2     C 3970   4.119   4.140  15.288
  244MPD2    C1 3971   4.007   4.172  15.209
  244MPD2    C2 3972   3.970   4.081  15.110
  244MPD2    C3 3973   4.052   3.975  15.076
  244MPD2    C4 3974   4.170   3.957  15.147
  244MPD2    C5 3975   4.200   4.036  15.254
  244MPD2     H 3976   3.880   4.101  15.053
  244MPD2    H1 3977   4.237   3.876  15.119
  244MPD2    H2 3978   4.148   4.208  15.368
  244MPD2    H3 3979   4.289   4.016  15.312
  244MPD2     N 3980   4.025   3.882  14.971
  244MPD2    H5 3981   4.100   3.820  14.942
  244MPD2    N1 3982   3.915   4.275  15.238
  244MPD2    H7 3983   3.825   4.278  15.190
  245MPD2     C 3984   3.323   3.647  14.529
  245MPD2    C1 3985   3.408   3.752  14.570
  245MPD2    C2 3986   3.375   3.889  14.563
  245MPD2    C3 3987   3.245   3.919  14.517
  245MPD2    C4 3988   3.158   3.818  14.464
  245MPD2    C5 3989   3.208   3.686  14.467
  245MPD2     H 3990   3.452   3.961  14.586
  245MPD2    H1 3991   3.062   3.843  14.421
  245MPD2    H2 3992   3.352   3.543  14.545
  245MPD2    H3 3993   3.143   3.616  14.416
  245MPD2     N 3994   3.206   4.056  14.519
  245MPD2    H5 3995   3.265   4.109  14.583
  245MPD2    N1 3996   3.530   3.729  14.641
  245MPD2    H7 3997   3.564   3.806  14.698
  246MPD2     C 3998   4.668   2.393   8.257
  246MPD2    C1 3999   4.675   2.420   8.120
  246MPD2    C2 4000   4.621   2.316   8.035
  246MPD2    C3 4001   4.542   2.211   8.084
  246MPD2    C4 4002   4.532   2.198   8.222
  246MPD2    C5 4003   4.598   2.290   8.305
  246MPD2     H 4004   4.628   2.327   7.927
  246MPD2    H1 4005   4.477   2.118   8.269
  246MPD2    H2 4006   4.719   2.458   8.327
  246MPD2    H3 4007   4.592   2.286   8.413
  246MPD2     N 4008   4.481   2.126   7.987
  246MPD2    H5 4009   4.492   2.164   7.894
  246MPD2    N1 4010   4.751   2.532   8.083
  246MPD2    H7 4011   0.002   2.569   8.166
  247MPD2     C 4012   0.214   2.790   7.337
  247MPD2    C1 4013   0.089   2.730   7.341
  247MPD2    C2 4014   0.033   2.697   7.217
  247MPD2    C3 4015   0.100   2.714   7.104
  247MPD2    C4 4016   0.224   2.771   7.103
  247MPD2    C5 4017   0.285   2.808   7.221
  247MPD2     H 4018   4.727   2.653   7.216
  247MPD2    H1 4019   0.276   2.777   7.009
  247MPD2    H2 4020   0.258   2.828   7.429
  247MPD2    H3 4021   0.389   2.840   7.220
  247MPD2     N 4022   0.041   2.679   6.982
  247MPD2    H5 4023   0.104   2.666   6.903
  247MPD2    N1 4024   0.019   2.705   7.468
  247MPD2    H7 4025   0.079   2.721   7.548
  248MPD2     C 4026   3.936   2.339   8.015
  248MPD2    C1 4027   4.008   2.297   7.905
  248MPD2    C2 4028   4.112   2.375   7.856
  248MPD2    C3 4029   4.171   2.469   7.936
  248MPD2    C4 4030   4.107   2.501   8.053
  248MPD2    C5 4031   3.994   2.441   8.092
  248MPD2     H 4032   4.149   2.343   7.759
  248MPD2    H1 4033   4.160   2.573   8.115
  248MPD2    H2 4034   3.844   2.297   8.052
  248MPD2    H3 4035   3.948   2.476   8.183
  248MPD2     N 4036   4.296   2.527   7.908
  248MPD2    H5 4037   4.340   2.593   7.972
  248MPD2    N1 4038   3.943   2.196   7.830
  248MPD2    H7 4039   3.844   2.183   7.848
  249MPD2     C 4040   3.001   4.616  11.167
  249MPD2    C1 4041   3.109   4.581  11.244
  249MPD2    C2 4042   3.174   4.680  11.321
  249MPD2    C3 4043   3.126   0.018  11.315
  249MPD2    C4 4044   3.050   0.051  11.208
  249MPD2    C5 4045   2.991   4.744  11.133
  249MPD2     H 4046   3.249   4.640  11.389
  249MPD2    H1 4047   3.037   0.155  11.181
  249MPD2    H2 4048   2.950   4.544  11.104
  249MPD2    H3 4049   2.915   4.771  11.061
  249MPD2     N 4050   3.164   0.132  11.386
  249MPD2    H5 4051   3.093   0.200  11.362
  249MPD2    N1 4052   3.159   4.450  11.232
  249MPD2    H7 4053   3.257   4.439  11.257
  250MPD2     C 4054   3.729   3.962  11.165
  250MPD2    C1 4055   3.618   3.938  11.080
  250MPD2    C2 4056   3.613   3.808  11.022
  250MPD2    C3 4057   3.708   3.710  11.050
  250MPD2    C4 4058   3.811   3.736  11.142
  250MPD2    C5 4059   3.817   3.858  11.202
  250MPD2     H 4060   3.538   3.783  10.948
  250MPD2    H1 4061   3.887   3.661  11.160
  250MPD2    H2 4062   3.740   4.058  11.214
  250MPD2    H3 4063   3.896   3.863  11.276
  250MPD2     N 4064   3.698   3.594  10.969
  250MPD2    H5 4065   3.637   3.605  10.889
  250MPD2    N1 4066   3.527   4.044  11.059
  250MPD2    H7 4067   3.554   4.127  11.112
  251MPD2     C 4068   3.026   4.643  10.610
  251MPD2    C1 4069   3.062   4.511  10.590
  251MPD2    C2 4070   3.041   4.451  10.472
  251MPD2    C3 4071   2.988   4.525  10.371
  251MPD2    C4 4072   2.939   4.649  10.392
  251MPD2    C5 4073   2.966   4.712  10.511
  251MPD2     H 4074   3.080   4.351  10.458
  251MPD2    H1 4075   2.887   4.707  10.317
  251MPD2    H2 4076   3.051   4.696  10.702
  251MPD2    H3 4077   2.918   0.015  10.522
  251MPD2     N 4078   2.993   4.485  10.233
  251MPD2    H5 4079   2.947   4.549  10.168
  251MPD2    N1 4080   3.116   4.450  10.708
  251MPD2    H7 4081   3.139   4.505  10.790
  252MPD2     C 4082   4.050   2.461  14.210
  252MPD2    C1 4083   4.108   2.584  14.223
  252MPD2    C2 4084   4.245   2.591  14.237
  252MPD2    C3 4085   4.327   2.479  14.248
  252MPD2    C4 4086   4.269   2.358  14.245
  252MPD2    C5 4087   4.133   2.350  14.225
  252MPD2     H 4088   4.277   2.693  14.258
  252MPD2    H1 4089   4.318   2.261  14.250
  252MPD2    H2 4090   3.945   2.437  14.196
  252MPD2    H3 4091   4.084   2.253  14.234
  252MPD2     N 4092   4.461   2.504  14.271
  252MPD2    H5 4093   4.501   2.597  14.259
  252MPD2    N1 4094   4.033   2.704  14.232
  252MPD2    H7 4095   4.087   2.789  14.219
  253MPD2     C 4096   0.299   2.441  13.554
  253MPD2    C1 4097   0.377   2.514  13.636
  253MPD2    C2 4098   0.344   2.521  13.771
  253MPD2    C3 4099   0.231   2.457  13.821
  253MPD2    C4 4100   0.156   2.376  13.732
  253MPD2    C5 4101   0.191   2.365  13.601
  253MPD2     H 4102   0.405   2.572  13.843
  253MPD2    H1 4103   0.062   2.331  13.760
  253MPD2    H2 4104   0.324   2.431  13.449
  253MPD2    H3 4105   0.140   2.297  13.534
  253MPD2     N 4106   0.187   2.487  13.947
  253MPD2    H5 4107   0.237   2.559  13.998
  253MPD2    N1 4108   0.484   2.588  13.582
  253MPD2    H7 4109   0.545   2.641  13.643
  254MPD2     C 4110   4.616   3.072  14.209
  254MPD2    C1 4111   4.746   3.020  14.214
  254MPD2    C2 4112   0.061   3.113  14.206
  254MPD2    C3 4113   0.038   3.251  14.193
  254MPD2    C4 4114   4.705   3.300  14.203
  254MPD2    C5 4115   4.602   3.211  14.211
  254MPD2     H 4116   0.162   3.076  14.208
  254MPD2    H1 4117   4.677   3.404  14.192
  254MPD2    H2 4118   4.529   3.008  14.210
  254MPD2    H3 4119   4.500   3.251  14.208
  254MPD2     N 4120   0.152   3.330  14.159
  254MPD2    H5 4121   0.153   3.432  14.165
  254MPD2    N1 4122   4.780   2.887  14.230
  254MPD2    H7 4123   0.087   2.867  14.232
  255MPD2     C 4124   0.265   2.547  12.441
  255MPD2    C1 4125   0.208   2.457  12.531
  255MPD2    C2 4126   0.143   2.518  12.639
  255MPD2    C3 4127   0.141   2.658  12.657
  255MPD2    C4 4128   0.200   2.740  12.567
  255MPD2    C5 4129   0.259   2.681  12.462
  255MPD2     H 4130   0.098   2.452  12.713
  255MPD2    H1 4131   0.196   2.846  12.589
  255MPD2    H2 4132   0.312   2.515  12.349
  255MPD2    H3 4133   0.305   2.745  12.388
  255MPD2     N 4134   0.064   2.721  12.756
  255MPD2    H5 4135   0.066   2.823  12.752
  255MPD2    N1 4136   0.220   2.319  12.515
  255MPD2    H7 4137   0.193   2.257  12.590
  256MPD2     C 4138   4.213   2.735  13.347
  256MPD2    C1 4139   4.222   2.840  13.262
  256MPD2    C2 4140   4.119   2.925  13.262
  256MPD2    C3 4141   4.016   2.916  13.354
  256MPD2    C4 4142   4.020   2.815  13.447
  256MPD2    C5 4143   4.118   2.724  13.442
  256MPD2     H 4144   4.122   3.010  13.196
  256MPD2    H1 4145   3.935   2.801  13.513
  256MPD2    H2 4146   4.272   2.645  13.332
  256MPD2    H3 4147   4.125   2.634  13.502
  256MPD2     N 4148   3.905   3.005  13.363
  256MPD2    H5 4149   3.826   2.978  13.421
  256MPD2    N1 4150   4.322   2.866  13.167
  256MPD2    H7 4151   4.321   2.953  13.115
  257MPD2     C 4152   0.010   3.094  12.388
  257MPD2    C1 4153   4.675   3.075  12.434
  257MPD2    C2 4154   4.647   3.100  12.565
  257MPD2    C3 4155   4.749   3.124  12.654
  257MPD2    C4 4156   0.079   3.135  12.604
  257MPD2    C5 4157   0.111   3.117  12.474
  257MPD2     H 4158   4.544   3.097  12.600
  257MPD2    H1 4159   0.162   3.163  12.668
  257MPD2    H2 4160   0.037   3.085  12.283
  257MPD2    H3 4161   0.204   3.153  12.431
  257MPD2     N 4162   4.735   3.128  12.798
  257MPD2    H5 4163   0.032   3.129  12.846
  257MPD2    N1 4164   4.586   3.038  12.334
  257MPD2    H7 4165   4.624   3.018  12.242
  258MPD2     C 4166   1.388   4.676  10.272
  258MPD2    C1 4167   1.406   4.535  10.270
  258MPD2    C2 4168   1.368   4.462  10.163
  258MPD2    C3 4169   1.316   4.520  10.054
  258MPD2    C4 4170   1.303   4.662  10.049
  258MPD2    C5 4171   1.335   4.734  10.161
  258MPD2     H 4172   1.376   4.354  10.168
  258MPD2    H1 4173   1.269   4.719   9.963
  258MPD2    H2 4174   1.439   4.737  10.346
  258MPD2    H3 4175   1.318   0.048  10.162
  258MPD2     N 4176   1.273   4.431   9.954
  258MPD2    H5 4177   1.302   4.335   9.965
  258MPD2    N1 4178   1.461   4.476  10.387
  258MPD2    H7 4179   1.461   4.532  10.472
  259MPD2     C 4180   1.577   4.650   9.449
  259MPD2    C1 4181   1.502   4.649   9.326
  259MPD2    C2 4182   1.415   4.538   9.302
  259MPD2    C3 4183   1.415   4.435   9.387
  259MPD2    C4 4184   1.503   4.428   9.496
  259MPD2    C5 4185   1.576   4.538   9.524
  259MPD2     H 4186   1.341   4.538   9.223
  259MPD2    H1 4187   1.512   4.337   9.555
  259MPD2    H2 4188   1.636   4.734   9.484
  259MPD2    H3 4189   1.644   4.531   9.608
  259MPD2     N 4190   1.323   4.332   9.355
  259MPD2    H5 4191   1.276   4.343   9.265
  259MPD2    N1 4192   1.480   4.758   9.234
  259MPD2    H7 4193   1.394   4.745   9.182
  260MPD2     C 4194   1.071   3.965  10.074
  260MPD2    C1 4195   1.130   3.965   9.947
  260MPD2    C2 4196   1.052   3.951   9.829
  260MPD2    C3 4197   0.916   3.925   9.847
  260MPD2    C4 4198   0.860   3.945   9.970
  260MPD2    C5 4199   0.939   3.954  10.084
  260MPD2     H 4200   1.103   3.941   9.733
  260MPD2    H1 4201   0.754   3.923   9.972
  260MPD2    H2 4202   1.132   3.975  10.163
  260MPD2    H3 4203   0.886   3.953  10.178
  260MPD2     N 4204   0.841   3.903   9.729
  260MPD2    H5 4205   0.890   3.879   9.643
  260MPD2    N1 4206   1.269   3.974   9.955
  260MPD2    H7 4207   1.314   3.956  10.044
  261MPD2     C 4208   1.258   3.962   8.346
  261MPD2    C1 4209   1.214   4.065   8.272
  261MPD2    C2 4210   1.084   4.084   8.243
  261MPD2    C3 4211   0.989   3.988   8.285
  261MPD2    C4 4212   1.032   3.884   8.364
  261MPD2    C5 4213   1.164   3.872   8.397
  261MPD2     H 4214   1.054   4.182   8.209
  261MPD2    H1 4215   0.968   3.808   8.408
  261MPD2    H2 4216   1.359   3.949   8.381
  261MPD2    H3 4217   1.187   3.789   8.462
  261MPD2     N 4218   0.846   4.002   8.284
  261MPD2    H5 4219   0.803   3.945   8.356
  261MPD2    N1 4220   1.309   4.168   8.249
  261MPD2    H7 4221   1.398   4.148   8.293
  262MPD2     C 4222   0.971   3.744   7.577
  262MPD2    C1 4223   0.866   3.833   7.579
  262MPD2    C2 4224   0.780   3.841   7.469
  262MPD2    C3 4225   0.801   3.766   7.354
  262MPD2    C4 4226   0.919   3.694   7.351
  262MPD2    C5 4227   0.999   3.694   7.456
  262MPD2     H 4228   0.691   3.903   7.478
  262MPD2    H1 4229   0.954   3.646   7.260
  262MPD2    H2 4230   1.046   3.753   7.655
  262MPD2    H3 4231   1.093   3.640   7.449
  262MPD2     N 4232   0.702   3.784   7.253
  262MPD2    H5 4233   0.638   3.861   7.272
  262MPD2    N1 4234   0.848   3.929   7.681
  262MPD2    H7 4235   0.771   3.994   7.672
  263MPD2     C 4236   1.314   4.367   7.670
  263MPD2    C1 4237   1.251   4.468   7.600
  263MPD2    C2 4238   1.114   4.492   7.626
  263MPD2    C3 4239   1.047   4.414   7.723
  263MPD2    C4 4240   1.123   4.320   7.793
  263MPD2    C5 4241   1.250   4.296   7.769
  263MPD2     H 4242   1.057   4.565   7.571
  263MPD2    H1 4243   1.089   4.256   7.874
  263MPD2    H2 4244   1.418   4.335   7.660
  263MPD2    H3 4245   1.303   4.227   7.833
  263MPD2     N 4246   0.912   4.445   7.752
  263MPD2    H5 4247   0.882   4.532   7.710
  263MPD2    N1 4248   1.324   4.555   7.512
  263MPD2    H7 4249   1.276   4.636   7.475
  264MPD2     C 4250   1.087   2.921  12.916
  264MPD2    C1 4251   1.119   2.872  13.046
  264MPD2    C2 4252   1.213   2.934  13.120
  264MPD2    C3 4253   1.289   3.039  13.069
  264MPD2    C4 4254   1.258   3.095  12.949
  264MPD2    C5 4255   1.159   3.031  12.872
  264MPD2     H 4256   1.232   2.903  13.222
  264MPD2    H1 4257   1.310   3.185  12.917
  264MPD2    H2 4258   1.009   2.880  12.852
  264MPD2    H3 4259   1.131   3.076  12.778
  264MPD2     N 4260   1.387   3.089  13.156
  264MPD2    H5 4261   1.401   3.035  13.241
  264MPD2    N1 4262   1.063   2.759  13.110
  264MPD2    H7 4263   1.091   2.746  13.207
  265MPD2     C 4264   1.309   3.748  13.585
  265MPD2    C1 4265   1.294   3.688  13.460
  265MPD2    C2 4266   1.178   3.692  13.387
  265MPD2    C3 4267   1.081   3.778  13.431
  265MPD2    C4 4268   1.096   3.833  13.557
  265MPD2    C5 4269   1.207   3.822  13.632
  265MPD2     H 4270   1.174   3.637  13.294
  265MPD2    H1 4271   1.016   3.899  13.590
  265MPD2    H2 4272   1.404   3.748  13.638
  265MPD2    H3 4273   1.212   3.875  13.726
  265MPD2     N 4274   0.963   3.816  13.355
  265MPD2    H5 4275   0.907   3.892  13.393
  265MPD2    N1 4276   1.388   3.586  13.420
  265MPD2    H7 4277   1.363   3.529  13.340
  266MPD2     C 4278   2.456   0.487   9.299
  266MPD2    C1 4279   2.521   0.584   9.221
  266MPD2    C2 4280   2.656   0.607   9.242
  266MPD2    C3 4281   2.729   0.538   9.334
  266MPD2    C4 4282   2.667   0.432   9.404
  266MPD2    C5 4283   2.533   0.411   9.379
  266MPD2     H 4284   2.698   0.692   9.189
  266MPD2    H1 4285   2.724   0.375   9.476
  266MPD2    H2 4286   2.352   0.464   9.277
  266MPD2    H3 4287   2.492   0.331   9.439
  266MPD2     N 4288   2.863   0.582   9.358
  266MPD2    H5 4289   2.897   0.662   9.306
  266MPD2    N1 4290   2.458   0.679   9.140
  266MPD2    H7 4291   2.507   0.765   9.120
  267MPD2     C 4292   3.141   1.352   9.096
  267MPD2    C1 4293   3.145   1.233   9.026
  267MPD2    C2 4294   3.183   1.113   9.079
  267MPD2    C3 4295   3.185   1.110   9.215
  267MPD2    C4 4296   3.190   1.225   9.292
  267MPD2    C5 4297   3.174   1.345   9.230
  267MPD2     H 4298   3.196   1.021   9.025
  267MPD2    H1 4299   3.212   1.227   9.398
  267MPD2    H2 4300   3.130   1.454   9.060
  267MPD2    H3 4301   3.184   1.440   9.281
  267MPD2     N 4302   3.205   0.984   9.272
  267MPD2    H5 4303   3.238   0.907   9.215
  267MPD2    N1 4304   3.105   1.227   8.892
  267MPD2    H7 4305   3.115   1.140   8.841
  268MPD2     C 4306   3.726   0.578   9.352
  268MPD2    C1 4307   3.662   0.554   9.474
  268MPD2    C2 4308   3.733   0.550   9.591
  268MPD2    C3 4309   3.874   0.578   9.579
  268MPD2    C4 4310   3.937   0.601   9.459
  268MPD2    C5 4311   3.859   0.603   9.351
  268MPD2     H 4312   3.699   0.536   9.693
  268MPD2    H1 4313   4.045   0.601   9.454
  268MPD2    H2 4314   3.672   0.587   9.258
  268MPD2    H3 4315   3.908   0.623   9.257
  268MPD2     N 4316   3.948   0.561   9.699
  268MPD2    H5 4317   3.897   0.544   9.786
  268MPD2    N1 4318   3.521   0.541   9.490
  268MPD2    H7 4319   3.491   0.530   9.586
  269MPD2     C 4320   2.807   2.368  12.125
  269MPD2    C1 4321   2.874   2.426  12.232
  269MPD2    C2 4322   2.888   2.560  12.230
  269MPD2    C3 4323   2.831   2.641  12.135
  269MPD2    C4 4324   2.784   2.578  12.020
  269MPD2    C5 4325   2.770   2.440  12.019
  269MPD2     H 4326   2.946   2.606  12.309
  269MPD2    H1 4327   2.752   2.629  11.930
  269MPD2    H2 4328   2.790   2.260  12.124
  269MPD2    H3 4329   2.738   2.391  11.928
  269MPD2     N 4330   2.857   2.785  12.139
  269MPD2    H5 4331   2.934   2.810  12.200
  269MPD2    N1 4332   2.919   2.339  12.336
  269MPD2    H7 4333   2.906   2.241  12.314
  270MPD2     C 4334   3.453   2.734  12.984
  270MPD2    C1 4335   3.510   2.616  12.950
  270MPD2    C2 4336   3.439   2.501  12.904
  270MPD2    C3 4337   3.299   2.525  12.886
  270MPD2    C4 4338   3.246   2.645  12.919
  270MPD2    C5 4339   3.315   2.750  12.969
  270MPD2     H 4340   3.487   2.408  12.873
  270MPD2    H1 4341   3.141   2.666  12.902
  270MPD2    H2 4342   3.518   2.819  13.002
  270MPD2    H3 4343   3.262   2.843  12.989
  270MPD2     N 4344   3.217   2.419  12.829
  270MPD2    H5 4345   3.121   2.446  12.814
  270MPD2    N1 4346   3.648   2.595  12.944
  270MPD2    H7 4347   3.680   2.502  12.922
  271MPD2     C 4348   3.387   1.494  12.480
  271MPD2    C1 4349   3.350   1.579  12.374
  271MPD2    C2 4350   3.290   1.699  12.401
  271MPD2    C3 4351   3.253   1.728  12.538
  271MPD2    C4 4352   3.285   1.641  12.635
  271MPD2    C5 4353   3.357   1.525  12.611
  271MPD2     H 4354   3.274   1.771  12.322
  271MPD2    H1 4355   3.245   1.647  12.736
  271MPD2    H2 4356   3.433   1.397  12.462
  271MPD2    H3 4357   3.372   1.452  12.690
  271MPD2     N 4358   3.192   1.846  12.580
  271MPD2    H5 4359   3.173   1.855  12.679
  271MPD2    N1 4360   3.375   1.553  12.244
  271MPD2    H7 4361   3.334   1.620  12.179
  272MPD2     C 4362   4.244   1.881  12.856
  272MPD2    C1 4363   4.154   1.943  12.949
  272MPD2    C2 4364   4.106   2.066  12.922
  272MPD2    C3 4365   4.140   2.127  12.802
  272MPD2    C4 4366   4.228   2.065  12.717
  272MPD2    C5 4367   4.273   1.939  12.736
  272MPD2     H 4368   4.040   2.116  12.992
  272MPD2    H1 4369   4.256   2.107  12.621
  272MPD2    H2 4370   4.285   1.782  12.870
  272MPD2    H3 4371   4.330   1.892  12.657
  272MPD2     N 4372   4.101   2.257  12.773
  272MPD2    H5 4373   4.162   2.315  12.716
  272MPD2    N1 4374   4.131   1.894  13.082
  272MPD2    H7 4375   4.066   1.951  13.134
  273MPD2     C 4376   4.336   2.216  13.284
  273MPD2    C1 4377   4.213   2.277  13.273
  273MPD2    C2 4378   4.105   2.219  13.340
  273MPD2    C3 4379   4.121   2.110  13.417
  273MPD2    C4 4380   4.246   2.062  13.441
  273MPD2    C5 4381   4.354   2.123  13.381
  273MPD2     H 4382   4.003   2.248  13.317
  273MPD2    H1 4383   4.265   2.004  13.531
  273MPD2    H2 4384   4.416   2.261  13.225
  273MPD2    H3 4385   4.453   2.088  13.408
  273MPD2     N 4386   4.010   2.057  13.484
  273MPD2    H5 4387   3.929   2.116  13.496
  273MPD2    N1 4388   4.196   2.376  13.177
  273MPD2    H7 4389   4.264   2.394  13.103
  274MPD2     C 4390   3.348   3.427  11.222
  274MPD2    C1 4391   3.237   3.391  11.155
  274MPD2    C2 4392   3.171   3.483  11.077
  274MPD2    C3 4393   3.214   3.613  11.061
  274MPD2    C4 4394   3.340   3.645  11.116
  274MPD2    C5 4395   3.404   3.554  11.198
  274MPD2     H 4396   3.085   3.438  11.029
  274MPD2    H1 4397   3.374   3.747  11.102
  274MPD2    H2 4398   3.412   3.361  11.281
  274MPD2    H3 4399   3.497   3.585  11.245
  274MPD2     N 4400   3.149   3.714  10.992
  274MPD2    H5 4401   3.197   3.803  10.984
  274MPD2    N1 4402   3.169   3.264  11.181
  274MPD2    H7 4403   3.082   3.249  11.132
  275MPD2     C 4404   2.703   3.701  10.273
  275MPD2    C1 4405   2.663   3.694  10.406
  275MPD2    C2 4406   2.583   3.586  10.438
  275MPD2    C3 4407   2.570   3.476  10.350
  275MPD2    C4 4408   2.628   3.478  10.223
  275MPD2    C5 4409   2.691   3.595  10.182
  275MPD2     H 4410   2.544   3.586  10.539
  275MPD2    H1 4411   2.632   3.399  10.149
  275MPD2    H2 4412   2.751   3.793  10.241
  275MPD2    H3 4413   2.743   3.603  10.087
  275MPD2     N 4414   2.511   3.358  10.397
  275MPD2    H5 4415   2.448   3.360  10.476
  275MPD2    N1 4416   2.712   3.790  10.499
  275MPD2    H7 4417   2.787   3.847  10.461
  276MPD2     C 4418   3.333   3.949  10.091
  276MPD2    C1 4419   3.393   3.987  10.202
  276MPD2    C2 4420   3.324   3.991  10.322
  276MPD2    C3 4421   3.188   3.962  10.322
  276MPD2    C4 4422   3.129   3.927  10.198
  276MPD2    C5 4423   3.204   3.929  10.087
  276MPD2     H 4424   3.370   4.030  10.412
  276MPD2    H1 4425   3.022   3.915  10.188
  276MPD2    H2 4426   3.387   3.929   9.999
  276MPD2    H3 4427   3.158   3.898   9.994
  276MPD2     N 4428   3.106   3.962  10.437
  276MPD2    H5 4429   3.006   3.968  10.422
  276MPD2    N1 4430   3.534   3.997  10.213
  276MPD2    H7 4431   3.574   3.947  10.134
  277MPD2     C 4432   3.402   4.593   9.870
  277MPD2    C1 4433   3.365   4.542   9.991
  277MPD2    C2 4434   3.408   4.417  10.021
  277MPD2    C3 4435   3.489   4.345   9.942
  277MPD2    C4 4436   3.531   4.396   9.823
  277MPD2    C5 4437   3.487   4.523   9.789
  277MPD2     H 4438   3.382   4.368  10.114
  277MPD2    H1 4439   3.604   4.350   9.758
  277MPD2    H2 4440   3.386   4.697   9.844
  277MPD2    H3 4441   3.532   4.567   9.701
  277MPD2     N 4442   3.519   4.204   9.973
  277MPD2    H5 4443   3.442   4.148  10.007
  277MPD2    N1 4444   3.326   4.630  10.088
  277MPD2    H7 4445   3.327   4.726  10.055
  278MPD2     C 4446   4.121   4.497  10.571
  278MPD2    C1 4447   4.111   4.628  10.521
  278MPD2    C2 4448   3.989   4.683  10.479
  278MPD2    C3 4449   3.874   4.605  10.479
  278MPD2    C4 4450   3.885   4.478  10.529
  278MPD2    C5 4451   4.005   4.421  10.567
  278MPD2     H 4452   3.987   4.789  10.455
  278MPD2    H1 4453   3.804   4.408  10.517
  278MPD2    H2 4454   4.213   4.445  10.595
  278MPD2    H3 4455   4.007   4.319  10.603
  278MPD2     N 4456   3.746   4.656  10.460
  278MPD2    H5 4457   3.677   4.581  10.457
  278MPD2    N1 4458   4.230   4.711  10.521
  278MPD2    H7 4459   4.231   0.009  10.477
  279MPD2     C 4460   3.379   0.556  10.063
  279MPD2    C1 4461   3.291   0.446  10.081
  279MPD2    C2 4462   3.158   0.465  10.106
  279MPD2    C3 4463   3.108   0.594  10.119
  279MPD2    C4 4464   3.186   0.707  10.102
  279MPD2    C5 4465   3.318   0.680  10.074
  279MPD2     H 4466   3.092   0.380  10.103
  279MPD2    H1 4467   3.145   0.807  10.104
  279MPD2    H2 4468   3.484   0.552  10.035
  279MPD2    H3 4469   3.394   0.757  10.064
  279MPD2     N 4470   2.973   0.620  10.149
  279MPD2    H5 4471   2.939   0.714  10.163
  279MPD2    N1 4472   3.336   0.306  10.100
  279MPD2    H7 4473   3.263   0.238  10.117
  280MPD2     C 4474   0.729   2.017   8.026
  280MPD2    C1 4475   0.795   1.915   8.094
  280MPD2    C2 4476   0.929   1.928   8.106
  280MPD2    C3 4477   0.999   2.026   8.048
  280MPD2    C4 4478   0.937   2.120   7.971
  280MPD2    C5 4479   0.800   2.121   7.964
  280MPD2     H 4480   0.989   1.855   8.158
  280MPD2    H1 4481   0.997   2.191   7.916
  280MPD2    H2 4482   0.621   2.027   8.026
  280MPD2    H3 4483   0.745   2.188   7.899
  280MPD2     N 4484   1.138   2.036   8.047
  280MPD2    H5 4485   1.172   2.107   7.983
  280MPD2    N1 4486   0.735   1.803   8.150
  280MPD2    H7 4487   0.778   1.768   8.235
  281MPD2     C 4488   0.274   2.396   8.039
  281MPD2    C1 4489   0.355   2.396   7.927
  281MPD2    C2 4490   0.376   2.276   7.855
  281MPD2    C3 4491   0.329   2.157   7.908
  281MPD2    C4 4492   0.244   2.156   8.020
  281MPD2    C5 4493   0.214   2.276   8.078
  281MPD2     H 4494   0.429   2.273   7.761
  281MPD2    H1 4495   0.200   2.060   8.045
  281MPD2    H2 4496   0.248   2.487   8.093
  281MPD2    H3 4497   0.150   2.288   8.164
  281MPD2     N 4498   0.354   2.030   7.848
  281MPD2    H5 4499   0.291   1.957   7.880
  281MPD2    N1 4500   0.406   2.522   7.884
  281MPD2    H7 4501   0.361   2.601   7.929
  282MPD2     C 4502   3.427   1.134  13.667
  282MPD2    C1 4503   3.388   1.095  13.540
  282MPD2    C2 4504   3.385   1.180  13.433
  282MPD2    C3 4505   3.416   1.311  13.457
  282MPD2    C4 4506   3.456   1.355  13.581
  282MPD2    C5 4507   3.475   1.259  13.682
  282MPD2     H 4508   3.356   1.156  13.331
  282MPD2    H1 4509   3.475   1.459  13.602
  282MPD2    H2 4510   3.441   1.072  13.754
  282MPD2    H3 4511   3.509   1.289  13.780
  282MPD2     N 4512   3.369   1.391  13.351
  282MPD2    H5 4513   3.331   1.354  13.264
  282MPD2    N1 4514   3.338   0.959  13.539
  282MPD2    H7 4515   3.333   0.924  13.634
  283MPD2     C 4516   2.783   1.157  13.665
  283MPD2    C1 4517   2.789   1.125  13.798
  283MPD2    C2 4518   2.829   0.999  13.841
  283MPD2    C3 4519   2.864   0.902  13.744
  283MPD2    C4 4520   2.836   0.921  13.609
  283MPD2    C5 4521   2.801   1.051  13.579
  283MPD2     H 4522   2.833   0.978  13.948
  283MPD2    H1 4523   2.836   0.854  13.524
  283MPD2    H2 4524   2.736   1.250  13.634
  283MPD2    H3 4525   2.774   1.069  13.476
  283MPD2     N 4526   2.903   0.776  13.796
  283MPD2    H5 4527   2.883   0.759  13.894
  283MPD2    N1 4528   2.752   1.230  13.891
  283MPD2    H7 4529   2.736   1.192  13.983
  284MPD2     C 4530   0.132   1.161   6.791
  284MPD2    C1 4531   0.097   1.031   6.811
  284MPD2    C2 4532   0.176   0.934   6.765
  284MPD2    C3 4533   0.296   0.959   6.700
  284MPD2    C4 4534   0.334   1.097   6.694
  284MPD2    C5 4535   0.253   1.197   6.740
  284MPD2     H 4536   0.147   0.830   6.775
  284MPD2    H1 4537   0.436   1.120   6.668
  284MPD2    H2 4538   0.074   1.244   6.829
  284MPD2    H3 4539   0.291   1.298   6.746
  284MPD2     N 4540   0.374   0.849   6.644
  284MPD2    H5 4541   0.334   0.756   6.657
  284MPD2    N1 4542   4.765   0.994   6.865
  284MPD2    H7 4543   4.747   0.897   6.888
  285MPD2     C 4544   0.250   4.702   6.603
  285MPD2    C1 4545   0.380   4.704   6.645
  285MPD2    C2 4546   0.458   0.022   6.625
  285MPD2    C3 4547   0.403   0.138   6.573
  285MPD2    C4 4548   0.267   0.136   6.538
  285MPD2    C5 4549   0.195   0.019   6.553
  285MPD2     H 4550   0.562   0.032   6.653
  285MPD2    H1 4551   0.214   0.210   6.479
  285MPD2    H2 4552   0.190   4.618   6.636
  285MPD2    H3 4553   0.088   0.026   6.535
  285MPD2     N 4554   0.480   0.250   6.556
  285MPD2    H5 4555   0.580   0.239   6.544
  285MPD2    N1 4556   0.437   4.593   6.716
  285MPD2    H7 4557   0.362   4.527   6.735
  286MPD2     C 4558   4.784   3.255   9.606
  286MPD2    C1 4559   0.006   3.361   9.521
  286MPD2    C2 4560   0.124   3.432   9.529
  286MPD2    C3 4561   0.229   3.388   9.607
  286MPD2    C4 4562   0.207   3.278   9.693
  286MPD2    C5 4563   0.087   3.211   9.689
  286MPD2     H 4564   0.119   3.521   9.468
  286MPD2    H1 4565   0.278   3.235   9.762
  286MPD2    H2 4566   4.693   3.197   9.614
  286MPD2    H3 4567   0.069   3.127   9.755
  286MPD2     N 4568   0.354   3.443   9.602
  286MPD2    H5 4569   0.417   3.397   9.667
  286MPD2    N1 4570   4.704   3.401   9.417
  286MPD2    H7 4571   4.723   3.493   9.380
  287MPD2     C 4572   4.244   3.919   9.709
  287MPD2    C1 4573   4.300   3.956   9.590
  287MPD2    C2 4574   4.267   3.877   9.484
  287MPD2    C3 4575   4.197   3.757   9.502
  287MPD2    C4 4576   4.141   3.719   9.623
  287MPD2    C5 4577   4.166   3.805   9.732
  287MPD2     H 4578   4.315   3.891   9.388
  287MPD2    H1 4579   4.096   3.625   9.652
  287MPD2    H2 4580   4.274   3.980   9.794
  287MPD2    H3 4581   4.116   3.768   9.821
  287MPD2     N 4582   4.212   3.674   9.394
  287MPD2    H5 4583   4.268   3.720   9.322
  287MPD2    N1 4584   4.394   4.054   9.558
  287MPD2    H7 4585   4.414   4.060   9.459
  288MPD2     C 4586   4.429   4.090   8.750
  288MPD2    C1 4587   4.515   4.085   8.851
  288MPD2    C2 4588   4.507   3.970   8.935
  288MPD2    C3 4589   4.419   3.870   8.913
  288MPD2    C4 4590   4.334   3.883   8.806
  288MPD2    C5 4591   4.342   3.991   8.731
  288MPD2     H 4592   4.575   3.968   9.020
  288MPD2    H1 4593   4.261   3.807   8.780
  288MPD2    H2 4594   4.429   4.174   8.682
  288MPD2    H3 4595   4.274   4.006   8.647
  288MPD2     N 4596   4.407   3.750   8.981
  288MPD2    H5 4597   4.334   3.689   8.944
  288MPD2    N1 4598   4.608   4.194   8.875
  288MPD2    H7 4599   4.688   4.175   8.935
  289MPD2     C 4600   4.202   0.622   8.065
  289MPD2    C1 4601   4.338   0.647   8.057
  289MPD2    C2 4602   4.415   0.552   7.991
  289MPD2    C3 4603   4.358   0.440   7.928
  289MPD2    C4 4604   4.219   0.426   7.936
  289MPD2    C5 4605   4.143   0.514   7.999
  289MPD2     H 4606   4.523   0.565   7.998
  289MPD2    H1 4607   4.165   0.346   7.886
  289MPD2    H2 4608   4.132   0.684   8.120
  289MPD2    H3 4609   4.038   0.494   8.014
  289MPD2     N 4610   4.435   0.337   7.879
  289MPD2    H5 4611   4.386   0.248   7.886
  289MPD2    N1 4612   4.402   0.749   8.135
  289MPD2    H7 4613   4.502   0.732   8.142
  290MPD2     C 4614   4.110   0.094   8.176
  290MPD2    C1 4615   4.218   0.016   8.162
  290MPD2    C2 4616   4.199   4.694   8.092
  290MPD2    C3 4617   4.074   4.660   8.045
  290MPD2    C4 4618   3.966   4.743   8.067
  290MPD2    C5 4619   3.981   0.064   8.138
  290MPD2     H 4620   4.282   4.624   8.082
  290MPD2    H1 4621   3.871   4.720   8.021
  290MPD2    H2 4622   4.120   0.189   8.226
  290MPD2    H3 4623   3.897   0.131   8.153
  290MPD2     N 4624   4.062   4.537   7.984
  290MPD2    H5 4625   4.139   4.471   7.977
  290MPD2    N1 4626   4.350   0.063   8.191
  290MPD2    H7 4627   4.370   0.161   8.206
  291MPD2     C 4628   0.347   0.396   8.216
  291MPD2    C1 4629   0.315   0.305   8.115
  291MPD2    C2 4630   0.419   0.292   8.024
  291MPD2    C3 4631   0.546   0.346   8.036
  291MPD2    C4 4632   0.561   0.440   8.135
  291MPD2    C5 4633   0.468   0.455   8.233
  291MPD2     H 4634   0.395   0.222   7.944
  291MPD2    H1 4635   0.658   0.488   8.144
  291MPD2    H2 4636   0.268   0.418   8.286
  291MPD2    H3 4637   0.498   0.522   8.312
  291MPD2     N 4638   0.634   0.309   7.933
  291MPD2    H5 4639   0.609   0.231   7.873
  291MPD2    N1 4640   0.188   0.241   8.094
  291MPD2    H7 4641   0.180   0.181   8.012
  292MPD2     C 4642   4.559   1.579  13.019
  292MPD2    C1 4643   4.509   1.483  12.935
  292MPD2    C2 4644   4.594   1.386  12.884
  292MPD2    C3 4645   4.724   1.382  12.921
  292MPD2    C4 4646   4.777   1.490  12.992
  292MPD2    C5 4647   4.690   1.586  13.045
  292MPD2     H 4648   4.553   1.309  12.820
  292MPD2    H1 4649   0.089   1.508  13.013
  292MPD2    H2 4650   4.496   1.647  13.074
  292MPD2    H3 4651   4.742   1.663  13.102
  292MPD2     N 4652   0.007   1.287  12.852
  292MPD2    H5 4653   4.755   1.203  12.817
  292MPD2    N1 4654   4.367   1.487  12.921
  292MPD2    H7 4655   4.315   1.559  12.970
  293MPD2     C 4656   3.732   0.675  12.633
  293MPD2    C1 4657   3.695   0.713  12.762
  293MPD2    C2 4658   3.745   0.838  12.805
  293MPD2    C3 4659   3.826   0.920  12.725
  293MPD2    C4 4660   3.857   0.875  12.606
  293MPD2    C5 4661   3.804   0.764  12.552
  293MPD2     H 4662   3.730   0.871  12.907
  293MPD2    H1 4663   3.907   0.949  12.544
  293MPD2    H2 4664   3.695   0.587  12.581
  293MPD2    H3 4665   3.826   0.739  12.449
  293MPD2     N 4666   3.871   1.034  12.782
  293MPD2    H5 4667   3.819   1.058  12.866
  293MPD2    N1 4668   3.623   0.633  12.849
  293MPD2    H7 4669   3.623   0.666  12.945
  294MPD2     C 4670   4.176   3.613  12.388
  294MPD2    C1 4671   4.112   3.603  12.514
  294MPD2    C2 4672   4.101   3.479  12.575
  294MPD2    C3 4673   4.163   3.364  12.521
  294MPD2    C4 4674   4.232   3.379  12.404
  294MPD2    C5 4675   4.242   3.503  12.344
  294MPD2     H 4676   4.054   3.477  12.672
  294MPD2    H1 4677   4.264   3.302  12.335
  294MPD2    H2 4678   4.188   3.707  12.335
  294MPD2    H3 4679   4.301   3.513  12.254
  294MPD2     N 4680   4.153   3.233  12.567
  294MPD2    H5 4681   4.195   3.158  12.513
  294MPD2    N1 4682   4.040   3.714  12.572
  294MPD2    H7 4683   4.039   3.723  12.673
  295MPD2     C 4684   3.458   3.434  12.099
  295MPD2    C1 4685   3.469   3.571  12.090
  295MPD2    C2 4686   3.360   3.644  12.051
  295MPD2    C3 4687   3.245   3.579  11.994
  295MPD2    C4 4688   3.249   3.442  11.996
  295MPD2    C5 4689   3.349   3.370  12.047
  295MPD2     H 4690   3.361   3.752  12.043
  295MPD2    H1 4691   3.173   3.382  11.947
  295MPD2    H2 4692   3.540   3.369  12.128
  295MPD2    H3 4693   3.351   3.262  12.038
  295MPD2     N 4694   3.142   3.655  11.937
  295MPD2    H5 4695   3.156   3.755  11.934
  295MPD2    N1 4696   3.585   3.647  12.126
  295MPD2    H7 4697   3.580   3.747  12.110
  296MPD2     C 4698   2.936   2.999  14.572
  296MPD2    C1 4699   2.990   3.123  14.583
  296MPD2    C2 4700   3.051   3.187  14.472
  296MPD2    C3 4701   3.054   3.130  14.350
  296MPD2    C4 4702   3.002   2.999  14.343
  296MPD2    C5 4703   2.942   2.937  14.447
  296MPD2     H 4704   3.091   3.288  14.476
  296MPD2    H1 4705   3.017   2.936  14.257
  296MPD2    H2 4706   2.887   2.950  14.656
  296MPD2    H3 4707   2.887   2.845  14.430
  296MPD2     N 4708   3.114   3.189  14.234
  296MPD2    H5 4709   3.159   3.279  14.248
  296MPD2    N1 4710   2.994   3.192  14.711
  296MPD2    H7 4711   2.979   3.137  14.794
  297MPD2     C 4712   3.918   3.244  14.744
  297MPD2    C1 4713   3.804   3.210  14.677
  297MPD2    C2 4714   3.677   3.253  14.720
  297MPD2    C3 4715   3.667   3.317  14.846
  297MPD2    C4 4716   3.781   3.334  14.918
  297MPD2    C5 4717   3.908   3.307  14.868
  297MPD2     H 4718   3.590   3.242  14.655
  297MPD2    H1 4719   3.774   3.391  15.010
  297MPD2    H2 4720   4.015   3.229  14.699
  297MPD2    H3 4721   3.998   3.350  14.909
  297MPD2     N 4722   3.544   3.361  14.904
  297MPD2    H5 4723   3.547   3.396  14.999
  297MPD2    N1 4724   3.806   3.135  14.559
  297MPD2    H7 4725   3.723   3.112  14.504
  298MPD2     C 4726   3.095   2.958  15.332
  298MPD2    C1 4727   3.090   2.944  15.191
  298MPD2    C2 4728   3.028   2.835  15.138
  298MPD2    C3 4729   2.977   2.734  15.219
  298MPD2    C4 4730   2.977   2.750  15.354
  298MPD2    C5 4731   3.037   2.859  15.409
  298MPD2     H 4732   3.014   2.829  15.030
  298MPD2    H1 4733   2.924   2.680  15.418
  298MPD2    H2 4734   3.135   3.045  15.382
  298MPD2    H3 4735   3.046   2.867  15.516
  298MPD2     N 4736   2.911   2.621  15.157
  298MPD2    H5 4737   2.909   2.625  15.056
  298MPD2    N1 4738   3.126   3.046  15.105
  298MPD2    H7 4739   3.116   3.027  15.006
  299MPD2     C 4740   4.176   4.783   7.290
  299MPD2    C1 4741   4.104   0.108   7.315
  299MPD2    C2 4742   4.163   0.212   7.388
  299MPD2    C3 4743   4.287   0.190   7.446
  299MPD2    C4 4744   4.354   0.065   7.422
  299MPD2    C5 4745   4.300   4.762   7.338
  299MPD2     H 4746   4.102   0.300   7.405
  299MPD2    H1 4747   4.462   0.061   7.433
  299MPD2    H2 4748   4.128   4.705   7.232
  299MPD2    H3 4749   4.358   4.673   7.318
  299MPD2     N 4750   4.371   0.291   7.501
  299MPD2    H5 4751   4.470   0.277   7.520
  299MPD2    N1 4752   3.964   0.125   7.283
  299MPD2    H7 4753   3.918   0.201   7.332
  300MPD2     C 4754   0.267   0.812   7.084
  300MPD2    C1 4755   0.247   0.679   7.121
  300MPD2    C2 4756   0.151   0.656   7.219
  300MPD2    C3 4757   0.081   0.760   7.283
  300MPD2    C4 4758   0.102   0.885   7.238
  300MPD2    C5 4759   0.194   0.913   7.139
  300MPD2     H 4760   0.135   0.553   7.249
  300MPD2    H1 4761   0.059   0.962   7.301
  300MPD2    H2 4762   0.341   0.837   7.009
  300MPD2    H3 4763   0.211   1.017   7.110
  300MPD2     N 4764   4.775   0.739   7.382
  300MPD2    H5 4765   4.722   0.817   7.420
  300MPD2    N1 4766   0.308   0.564   7.062
  300MPD2    H7 4767   0.278   0.474   7.097
  301MPD2     C 4768   2.516   3.480  13.232
  301MPD2    C1 4769   2.446   3.402  13.142
  301MPD2    C2 4770   2.524   3.321  13.057
  301MPD2    C3 4771   2.659   3.315  13.051
  301MPD2    C4 4772   2.727   3.399  13.128
  301MPD2    C5 4773   2.655   3.473  13.220
  301MPD2     H 4774   2.458   3.260  12.996
  301MPD2    H1 4775   2.834   3.398  13.143
  301MPD2    H2 4776   2.475   3.547  13.307
  301MPD2    H3 4777   2.721   3.528  13.285
  301MPD2     N 4778   2.718   3.217  12.975
  301MPD2    H5 4779   2.662   3.141  12.939
  301MPD2    N1 4780   2.307   3.409  13.144
  301MPD2    H7 4781   2.260   3.343  13.083
  302MPD2     C 4782   1.590   4.126  13.357
  302MPD2    C1 4783   1.728   4.145  13.332
  302MPD2    C2 4784   1.800   4.032  13.291
  302MPD2    C3 4785   1.739   3.907  13.287
  302MPD2    C4 4786   1.604   3.894  13.319
  302MPD2    C5 4787   1.529   4.006  13.347
  302MPD2     H 4788   1.901   4.045  13.254
  302MPD2    H1 4789   1.544   3.803  13.318
  302MPD2    H2 4790   1.525   4.204  13.393
  302MPD2    H3 4791   1.429   3.980  13.382
  302MPD2     N 4792   1.815   3.805  13.228
  302MPD2    H5 4793   1.913   3.828  13.214
  302MPD2    N1 4794   1.779   4.276  13.343
  302MPD2    H7 4795   1.712   4.352  13.356
  303MPD2     C 4796   1.746   2.764  13.319
  303MPD2    C1 4797   1.718   2.814  13.192
  303MPD2    C2 4798   1.787   2.933  13.155
  303MPD2    C3 4799   1.870   3.002  13.241
  303MPD2    C4 4800   1.906   2.939  13.354
  303MPD2    C5 4801   1.852   2.818  13.391
  303MPD2     H 4802   1.774   2.975  13.057
  303MPD2    H1 4803   1.979   2.981  13.422
  303MPD2    H2 4804   1.716   2.664  13.346
  303MPD2    H3 4805   1.882   2.773  13.485
  303MPD2     N 4806   1.920   3.138  13.222
  303MPD2    H5 4807   1.980   3.178  13.294
  303MPD2    N1 4808   1.630   2.739  13.102
  303MPD2    H7 4809   1.575   2.667  13.147
  304MPD2     C 4810   3.892   4.493   7.330
  304MPD2    C1 4811   3.771   4.494   7.262
  304MPD2    C2 4812   3.664   4.556   7.324
  304MPD2    C3 4813   3.676   4.607   7.454
  304MPD2    C4 4814   3.801   4.605   7.514
  304MPD2    C5 4815   3.911   4.551   7.448
  304MPD2     H 4816   3.571   4.564   7.268
  304MPD2    H1 4817   3.812   4.654   7.610
  304MPD2    H2 4818   3.983   4.447   7.292
  304MPD2    H3 4819   4.010   4.537   7.489
  304MPD2     N 4820   3.571   4.647   7.536
  304MPD2    H5 4821   3.597   4.665   7.633
  304MPD2    N1 4822   3.764   4.429   7.139
  304MPD2    H7 4823   3.852   4.410   7.092
  305MPD2     C 4824   3.488   3.627   7.424
  305MPD2    C1 4825   3.367   3.689   7.436
  305MPD2    C2 4826   3.365   3.820   7.392
  305MPD2    C3 4827   3.475   3.890   7.358
  305MPD2    C4 4828   3.590   3.825   7.352
  305MPD2    C5 4829   3.599   3.692   7.373
  305MPD2     H 4830   3.264   3.856   7.382
  305MPD2    H1 4831   3.682   3.866   7.313
  305MPD2    H2 4832   3.493   3.524   7.456
  305MPD2    H3 4833   3.699   3.650   7.361
  305MPD2     N 4834   3.468   4.023   7.310
  305MPD2    H5 4835   3.553   4.061   7.269
  305MPD2    N1 4836   3.248   3.624   7.474
  305MPD2    H7 4837   3.171   3.681   7.508
  306MPD2     C 4838   2.815   4.441   7.040
  306MPD2    C1 4839   2.946   4.487   7.040
  306MPD2    C2 4840   2.960   4.625   7.020
  306MPD2    C3 4841   2.855   4.709   7.007
  306MPD2    C4 4842   2.727   4.660   7.018
  306MPD2    C5 4843   2.707   4.525   7.029
  306MPD2     H 4844   3.059   4.669   7.010
  306MPD2    H1 4845   2.635   4.717   7.014
  306MPD2    H2 4846   2.800   4.334   7.055
  306MPD2    H3 4847   2.608   4.482   7.042
  306MPD2     N 4848   2.878   0.056   6.992
  306MPD2    H5 4849   2.973   0.085   6.969
  306MPD2    N1 4850   3.052   4.402   7.070
  306MPD2    H7 4851   3.032   4.322   7.129
  307MPD2     C 4852   2.606   0.005  10.269
  307MPD2    C1 4853   2.602   0.079  10.154
  307MPD2    C2 4854   2.528   0.198  10.151
  307MPD2    C3 4855   2.468   0.248  10.265
  307MPD2    C4 4856   2.471   0.169  10.379
  307MPD2    C5 4857   2.532   0.050  10.374
  307MPD2     H 4858   2.523   0.251  10.057
  307MPD2    H1 4859   2.408   0.193  10.464
  307MPD2    H2 4860   2.661   4.705  10.278
  307MPD2    H3 4861   2.542   0.003  10.471
  307MPD2     N 4862   2.423   0.381  10.279
  307MPD2    H5 4863   2.425   0.435  10.193
  307MPD2    N1 4864   2.670   0.050  10.034
  307MPD2    H7 4865   2.646   0.112   9.958
  308MPD2     C 4866   1.515   0.125   8.155
  308MPD2    C1 4867   1.513   0.083   8.286
  308MPD2    C2 4868   1.633   0.048   8.350
  308MPD2    C3 4869   1.760   0.065   8.289
  308MPD2    C4 4870   1.756   0.107   8.156
  308MPD2    C5 4871   1.635   0.140   8.091
  308MPD2     H 4872   1.632   0.003   8.449
  308MPD2    H1 4873   1.844   0.113   8.093
  308MPD2    H2 4874   1.422   0.142   8.101
  308MPD2    H3 4875   1.632   0.165   7.985
  308MPD2     N 4876   1.889   0.033   8.338
  308MPD2    H5 4877   1.965   0.025   8.271
  308MPD2    N1 4878   1.391   0.075   8.357
  308MPD2    H7 4879   1.404   0.025   8.445
  309MPD2     C 4880   1.457   0.562   8.635
  309MPD2    C1 4881   1.486   0.457   8.547
  309MPD2    C2 4882   1.404   0.443   8.434
  309MPD2    C3 4883   1.302   0.532   8.411
  309MPD2    C4 4884   1.281   0.633   8.502
  309MPD2    C5 4885   1.353   0.648   8.612
  309MPD2     H 4886   1.429   0.361   8.368
  309MPD2    H1 4887   1.199   0.704   8.492
  309MPD2    H2 4888   1.517   0.570   8.726
  309MPD2    H3 4889   1.326   0.733   8.674
  309MPD2     N 4890   1.235   0.535   8.289
  309MPD2    H5 4891   1.242   0.451   8.231
  309MPD2    N1 4892   1.586   0.354   8.572
  309MPD2    H7 4893   1.609   0.279   8.507
  310MPD2     C 4894   1.660   4.362   8.887
  310MPD2    C1 4895   1.728   4.468   8.940
  310MPD2    C2 4896   1.776   4.450   9.072
  310MPD2    C3 4897   1.735   4.344   9.148
  310MPD2    C4 4898   1.653   4.248   9.099
  310MPD2    C5 4899   1.614   4.260   8.967
  310MPD2     H 4900   1.845   4.524   9.109
  310MPD2    H1 4901   1.618   4.160   9.152
  310MPD2    H2 4902   1.638   4.339   8.783
  310MPD2    H3 4903   1.556   4.184   8.915
  310MPD2     N 4904   1.791   4.330   9.274
  310MPD2    H5 4905   1.880   4.375   9.289
  310MPD2    N1 4906   1.747   4.581   8.855
  310MPD2    H7 4907   1.715   4.570   8.760
  311MPD2     C 4908   0.581   2.757   7.447
  311MPD2    C1 4909   0.632   2.763   7.314
  311MPD2    C2 4910   0.642   2.881   7.250
  311MPD2    C3 4911   0.630   3.000   7.315
  311MPD2    C4 4912   0.567   3.002   7.432
  311MPD2    C5 4913   0.555   2.883   7.506
  311MPD2     H 4914   0.675   2.884   7.146
  311MPD2    H1 4915   0.553   3.097   7.484
  311MPD2    H2 4916   0.579   2.666   7.506
  311MPD2    H3 4917   0.525   2.881   7.610
  311MPD2     N 4918   0.665   3.119   7.245
  311MPD2    H5 4919   0.688   3.114   7.146
  311MPD2    N1 4920   0.647   2.638   7.245
  311MPD2    H7 4921   0.686   2.635   7.151
  312MPD2     C 4922   1.456   2.395   7.344
  312MPD2    C1 4923   1.422   2.404   7.209
  312MPD2    C2 4924   1.287   2.388   7.178
  312MPD2    C3 4925   1.186   2.359   7.272
  312MPD2    C4 4926   1.222   2.360   7.405
  312MPD2    C5 4927   1.357   2.373   7.438
  312MPD2     H 4928   1.263   2.380   7.073
  312MPD2    H1 4929   1.143   2.354   7.478
  312MPD2    H2 4930   1.560   2.408   7.370
  312MPD2    H3 4931   1.386   2.371   7.542
  312MPD2     N 4932   1.049   2.344   7.249
  312MPD2    H5 4933   0.985   2.342   7.327
  312MPD2    N1 4934   1.512   2.437   7.107
  312MPD2    H7 4935   1.469   2.443   7.015
  313MPD2     C 4936   3.591   0.470  15.165
  313MPD2    C1 4937   3.508   0.372  15.106
  313MPD2    C2 4938   3.533   0.240  15.116
  313MPD2    C3 4939   3.626   0.192  15.205
  313MPD2    C4 4940   3.706   0.290  15.270
  313MPD2    C5 4941   3.689   0.424  15.248
  313MPD2     H 4942   3.464   0.170  15.070
  313MPD2    H1 4943   3.781   0.258  15.342
  313MPD2    H2 4944   3.577   0.577  15.153
  313MPD2    H3 4945   3.753   0.490  15.305
  313MPD2     N 4946   3.633   0.056  15.239
  313MPD2    H5 4947   3.563   4.790  15.196
  313MPD2    N1 4948   3.389   0.399  15.035
  313MPD2    H7 4949   3.365   0.329  14.965
  314MPD2     C 4950   2.973   4.487  15.052
  314MPD2    C1 4951   3.091   4.447  14.992
  314MPD2    C2 4952   3.205   4.427  15.061
  314MPD2    C3 4953   3.208   4.459  15.196
  314MPD2    C4 4954   3.091   4.500  15.256
  314MPD2    C5 4955   2.975   4.508  15.185
  314MPD2     H 4956   3.293   4.402  15.003
  314MPD2    H1 4957   3.086   4.496  15.365
  314MPD2    H2 4958   2.875   4.480  15.006
  314MPD2    H3 4959   2.881   4.530  15.236
  314MPD2     N 4960   3.331   4.463  15.268
  314MPD2    H5 4961   3.332   4.495  15.364
  314MPD2    N1 4962   3.096   4.429  14.856
  314MPD2    H7 4963   3.170   4.375  14.814
  315MPD2     C 4964   1.627   1.920  10.006
  315MPD2    C1 4965   1.503   1.881  10.037
  315MPD2    C2 4966   1.400   1.932   9.967
  315MPD2    C3 4967   1.423   2.015   9.863
  315MPD2    C4 4968   1.548   2.055   9.832
  315MPD2    C5 4969   1.649   2.015   9.909
  315MPD2     H 4970   1.299   1.895   9.977
  315MPD2    H1 4971   1.571   2.120   9.748
  315MPD2    H2 4972   1.717   1.884  10.055
  315MPD2    H3 4973   1.753   2.035   9.885
  315MPD2     N 4974   1.302   2.053   9.795
  315MPD2    H5 4975   1.219   1.998   9.812
  315MPD2    N1 4976   1.487   1.783  10.135
  315MPD2    H7 4977   1.575   1.732  10.137
  316MPD2     C 4978   1.282   1.118  10.421
  316MPD2    C1 4979   1.169   1.171  10.366
  316MPD2    C2 4980   1.042   1.120  10.389
  316MPD2    C3 4981   1.034   1.003  10.459
  316MPD2    C4 4982   1.155   0.934  10.506
  316MPD2    C5 4983   1.275   0.997  10.491
  316MPD2     H 4984   0.951   1.158  10.342
  316MPD2    H1 4985   1.160   0.842  10.564
  316MPD2    H2 4986   1.381   1.162  10.417
  316MPD2    H3 4987   1.364   0.950  10.531
  316MPD2     N 4988   0.909   0.949  10.483
  316MPD2    H5 4989   0.834   1.007  10.449
  316MPD2    N1 4990   1.187   1.290  10.288
  316MPD2    H7 4991   1.274   1.342  10.292
  317MPD2     C 4992   1.443   1.816   9.421
  317MPD2    C1 4993   1.535   1.827   9.520
  317MPD2    C2 4994   1.501   1.769   9.644
  317MPD2    C3 4995   1.390   1.690   9.666
  317MPD2    C4 4996   1.293   1.692   9.564
  317MPD2    C5 4997   1.321   1.758   9.447
  317MPD2     H 4998   1.565   1.797   9.727
  317MPD2    H1 4999   1.194   1.652   9.582
  317MPD2    H2 5000   1.455   1.866   9.325
  317MPD2    H3 5001   1.248   1.742   9.369
  317MPD2     N 5002   1.384   1.626   9.794
  317MPD2    H5 5003   1.468   1.630   9.852
  317MPD2    N1 5004   1.647   1.909   9.504
  317MPD2    H7 5005   1.649   1.964   9.419
  318MPD2     C 5006   2.679   2.839   8.516
  318MPD2    C1 5007   2.666   2.960   8.575
  318MPD2    C2 5008   2.623   2.965   8.709
  318MPD2    C3 5009   2.610   2.845   8.778
  318MPD2    C4 5010   2.630   2.723   8.717
  318MPD2    C5 5011   2.661   2.724   8.590
  318MPD2     H 5012   2.608   3.064   8.750
  318MPD2    H1 5013   2.609   2.628   8.766
  318MPD2    H2 5014   2.698   2.831   8.410
  318MPD2    H3 5015   2.668   2.630   8.538
  318MPD2     N 5016   2.566   2.835   8.911
  318MPD2    H5 5017   2.574   2.738   8.939
  318MPD2    N1 5018   2.675   3.081   8.497
  318MPD2    H7 5019   2.708   3.077   8.401
  319MPD2     C 5020   1.776   2.417   9.389
  319MPD2    C1 5021   1.851   2.381   9.281
  319MPD2    C2 5022   1.975   2.430   9.252
  319MPD2    C3 5023   2.020   2.541   9.323
  319MPD2    C4 5024   1.941   2.582   9.432
  319MPD2    C5 5025   1.824   2.524   9.457
  319MPD2     H 5026   2.038   2.384   9.177
  319MPD2    H1 5027   1.971   2.665   9.496
  319MPD2    H2 5028   1.686   2.367   9.422
  319MPD2    H3 5029   1.776   2.544   9.553
  319MPD2     N 5030   2.138   2.623   9.300
  319MPD2    H5 5031   2.154   2.701   9.363
  319MPD2    N1 5032   1.802   2.270   9.208
  319MPD2    H7 5033   1.726   2.216   9.248
  320MPD2     C 5034   2.274   3.168   9.635
  320MPD2    C1 5035   2.340   3.210   9.528
  320MPD2    C2 5036   2.365   3.346   9.504
  320MPD2    C3 5037   2.314   3.440   9.596
  320MPD2    C4 5038   2.247   3.398   9.706
  320MPD2    C5 5039   2.221   3.264   9.725
  320MPD2     H 5040   2.426   3.368   9.418
  320MPD2    H1 5041   2.207   3.466   9.780
  320MPD2    H2 5042   2.268   3.067   9.674
  320MPD2    H3 5043   2.167   3.237   9.815
  320MPD2     N 5044   2.329   3.580   9.578
  320MPD2    H5 5045   2.308   3.634   9.661
  320MPD2    N1 5046   2.378   3.109   9.427
  320MPD2    H7 5047   2.400   3.150   9.336
  321MPD2     C 5048   0.523   1.122  13.950
  321MPD2    C1 5049   0.625   1.217  13.960
  321MPD2    C2 5050   0.682   1.268  13.850
  321MPD2    C3 5051   0.645   1.231  13.724
  321MPD2    C4 5052   0.549   1.130  13.711
  321MPD2    C5 5053   0.487   1.077  13.823
  321MPD2     H 5054   0.742   1.358  13.859
  321MPD2    H1 5055   0.520   1.098  13.611
  321MPD2    H2 5056   0.468   1.081  14.034
  321MPD2    H3 5057   0.402   1.009  13.820
  321MPD2     N 5058   0.693   1.295  13.607
  321MPD2    H5 5059   0.657   1.273  13.515
  321MPD2    N1 5060   0.641   1.278  14.086
  321MPD2    H7 5061   0.569   1.259  14.155
  322MPD2     C 5062   0.733   2.034  14.267
  322MPD2    C1 5063   0.768   1.908  14.248
  322MPD2    C2 5064   0.699   1.831  14.153
  322MPD2    C3 5065   0.594   1.893  14.082
  322MPD2    C4 5066   0.561   2.024  14.097
  322MPD2    C5 5067   0.634   2.095  14.195
  322MPD2     H 5068   0.725   1.728  14.134
  322MPD2    H1 5069   0.486   2.076  14.038
  322MPD2    H2 5070   0.782   2.092  14.344
  322MPD2    H3 5071   0.612   2.201  14.205
  322MPD2     N 5072   0.513   1.818  13.989
  322MPD2    H5 5073   0.420   1.852  13.964
  322MPD2    N1 5074   0.862   1.854  14.339
  322MPD2    H7 5075   0.919   1.920  14.390
  323MPD2     C 5076   1.940   0.411   8.994
  323MPD2    C1 5077   1.942   0.455   8.863
  323MPD2    C2 5078   1.888   0.578   8.837
  323MPD2    C3 5079   1.858   0.663   8.940
  323MPD2    C4 5080   1.860   0.620   9.070
  323MPD2    C5 5081   1.911   0.499   9.101
  323MPD2     H 5082   1.905   0.619   8.738
  323MPD2    H1 5083   1.819   0.680   9.151
  323MPD2    H2 5084   1.967   0.306   9.000
  323MPD2    H3 5085   1.907   0.470   9.205
  323MPD2     N 5086   1.825   0.804   8.909
  323MPD2    H5 5087   1.800   0.823   8.812
  323MPD2    N1 5088   2.010   0.381   8.761
  323MPD2    H7 5089   2.050   0.293   8.793
  324MPD2     C 5090   1.467   1.584   9.080
  324MPD2    C1 5091   1.446   1.475   8.994
  324MPD2    C2 5092   1.323   1.455   8.930
  324MPD2    C3 5093   1.222   1.540   8.969
  324MPD2    C4 5094   1.248   1.662   9.038
  324MPD2    C5 5095   1.372   1.683   9.095
  324MPD2     H 5096   1.313   1.369   8.865
  324MPD2    H1 5097   1.168   1.730   9.066
  324MPD2    H2 5098   1.559   1.591   9.136
  324MPD2    H3 5099   1.402   1.766   9.158
  324MPD2     N 5100   1.088   1.514   8.928
  324MPD2    H5 5101   1.031   1.597   8.914
  324MPD2    N1 5102   1.548   1.380   8.966
  324MPD2    H7 5103   1.535   1.323   8.883
  325MPD2     C 5104   2.476   4.622  12.700
  325MPD2    C1 5105   2.450   4.747  12.652
  325MPD2    C2 5106   2.360   0.031  12.721
  325MPD2    C3 5107   2.295   4.787  12.837
  325MPD2    C4 5108   2.308   4.656  12.877
  325MPD2    C5 5109   2.411   4.579  12.815
  325MPD2     H 5110   2.340   0.129  12.680
  325MPD2    H1 5111   2.253   4.624  12.965
  325MPD2    H2 5112   2.538   4.553  12.645
  325MPD2    H3 5113   2.423   4.476  12.847
  325MPD2     N 5114   2.211   0.082  12.914
  325MPD2    H5 5115   2.174   0.043  13.000
  325MPD2    N1 5116   2.520   0.017  12.538
  325MPD2    H7 5117   2.494   0.113  12.518
  326MPD2     C 5118   3.315   4.741  12.285
  326MPD2    C1 5119   3.222   4.744  12.394
  326MPD2    C2 5120   3.258   4.712  12.525
  326MPD2    C3 5121   3.391   4.664  12.546
  326MPD2    C4 5122   3.477   4.671  12.440
  326MPD2    C5 5123   3.443   4.705  12.316
  326MPD2     H 5124   3.190   4.714  12.610
  326MPD2    H1 5125   3.574   4.623  12.449
  326MPD2    H2 5126   3.289   4.753  12.180
  326MPD2    H3 5127   3.512   4.677  12.237
  326MPD2     N 5128   3.435   4.597  12.660
  326MPD2    H5 5129   3.522   4.546  12.656
  326MPD2    N1 5130   3.087   4.780  12.375
  326MPD2    H7 5131   3.026   4.771  12.455
  327MPD2     C 5132   2.874   0.693  12.123
  327MPD2    C1 5133   2.771   0.615  12.163
  327MPD2    C2 5134   2.645   0.672  12.177
  327MPD2    C3 5135   2.626   0.808  12.149
  327MPD2    C4 5136   2.738   0.882  12.098
  327MPD2    C5 5137   2.852   0.824  12.084
  327MPD2     H 5138   2.560   0.608  12.199
  327MPD2    H1 5139   2.741   0.981  12.053
  327MPD2    H2 5140   2.969   0.642  12.111
  327MPD2    H3 5141   2.931   0.880  12.036
  327MPD2     N 5142   2.493   0.860  12.140
  327MPD2    H5 5143   2.422   0.789  12.143
  327MPD2    N1 5144   2.799   0.479  12.202
  327MPD2    H7 5145   2.897   0.457  12.191
  328MPD2     C 5146   2.373   2.457   7.009
  328MPD2    C1 5147   2.269   2.435   7.094
  328MPD2    C2 5148   2.180   2.537   7.111
  328MPD2    C3 5149   2.190   2.654   7.029
  328MPD2    C4 5150   2.303   2.671   6.954
  328MPD2    C5 5151   2.392   2.570   6.938
  328MPD2     H 5152   2.102   2.540   7.185
  328MPD2    H1 5153   2.325   2.757   6.893
  328MPD2    H2 5154   2.454   2.386   7.001
  328MPD2    H3 5155   2.475   2.571   6.868
  328MPD2     N 5156   2.085   2.754   7.028
  328MPD2    H5 5157   2.000   2.733   7.080
  328MPD2    N1 5158   2.274   2.315   7.167
  328MPD2    H7 5159   2.357   2.259   7.153
  329MPD2     C 5160   2.607   1.506   7.016
  329MPD2    C1 5161   2.490   1.505   7.088
  329MPD2    C2 5162   2.455   1.609   7.181
  329MPD2    C3 5163   2.544   1.715   7.204
  329MPD2    C4 5164   2.653   1.725   7.117
  329MPD2    C5 5165   2.689   1.621   7.030
  329MPD2     H 5166   2.365   1.600   7.240
  329MPD2    H1 5167   2.722   1.808   7.120
  329MPD2    H2 5168   2.648   1.419   6.965
  329MPD2    H3 5169   2.779   1.629   6.970
  329MPD2     N 5170   2.502   1.808   7.303
  329MPD2    H5 5171   2.415   1.776   7.345
  329MPD2    N1 5172   2.390   1.406   7.076
  329MPD2    H7 5173   2.307   1.434   7.126
  330MPD2     C 5174   1.156   2.701   8.015
  330MPD2    C1 5175   1.021   2.714   8.043
  330MPD2    C2 5176   0.968   2.796   8.141
  330MPD2    C3 5177   1.057   2.878   8.202
  330MPD2    C4 5178   1.188   2.871   8.165
  330MPD2    C5 5179   1.243   2.776   8.082
  330MPD2     H 5180   0.861   2.807   8.155
  330MPD2    H1 5181   1.251   2.949   8.206
  330MPD2    H2 5182   1.190   2.614   7.960
  330MPD2    H3 5183   1.350   2.766   8.071
  330MPD2     N 5184   1.021   2.989   8.286
  330MPD2    H5 5185   1.083   3.068   8.272
  330MPD2    N1 5186   0.931   2.628   7.970
  330MPD2    H7 5187   0.834   2.625   7.999
  331MPD2     C 5188   0.798   2.076   7.304
  331MPD2    C1 5189   0.690   2.090   7.390
  331MPD2    C2 5190   0.584   1.997   7.384
  331MPD2    C3 5191   0.577   1.897   7.281
  331MPD2    C4 5192   0.688   1.890   7.198
  331MPD2    C5 5193   0.804   1.969   7.220
  331MPD2     H 5194   0.503   2.004   7.456
  331MPD2    H1 5195   0.686   1.822   7.114
  331MPD2    H2 5196   0.891   2.132   7.303
  331MPD2    H3 5197   0.882   1.955   7.147
  331MPD2     N 5198   0.484   1.790   7.282
  331MPD2    H5 5199   0.490   1.723   7.206
  331MPD2    N1 5200   0.684   2.183   7.498
  331MPD2    H7 5201   0.611   2.171   7.567
  332MPD2     C 5202   3.773   3.441  11.881
  332MPD2    C1 5203   3.748   3.307  11.848
  332MPD2    C2 5204   3.848   3.214  11.871
  332MPD2    C3 5205   3.965   3.257  11.935
  332MPD2    C4 5206   3.981   3.388  11.976
  332MPD2    C5 5207   3.896   3.482  11.935
  332MPD2     H 5208   3.840   3.112  11.835
  332MPD2    H1 5209   4.068   3.419  12.034
  332MPD2    H2 5210   3.694   3.514  11.871
  332MPD2    H3 5211   3.923   3.583  11.964
  332MPD2     N 5212   4.060   3.155  11.969
  332MPD2    H5 5213   4.046   3.055  11.957
  332MPD2    N1 5214   3.623   3.280  11.793
  332MPD2    H7 5215   3.566   3.360  11.767
  333MPD2     C 5216   3.143   2.613  11.787
  333MPD2    C1 5217   3.240   2.682  11.862
  333MPD2    C2 5218   3.348   2.615  11.899
  333MPD2    C3 5219   3.369   2.482  11.860
  333MPD2    C4 5220   3.275   2.411  11.792
  333MPD2    C5 5221   3.162   2.477  11.754
  333MPD2     H 5222   3.430   2.661  11.954
  333MPD2    H1 5223   3.292   2.309  11.762
  333MPD2    H2 5224   3.046   2.659  11.774
  333MPD2    H3 5225   3.085   2.428  11.696
  333MPD2     N 5226   3.502   2.437  11.868
  333MPD2    H5 5227   3.566   2.489  11.928
  333MPD2    N1 5228   3.249   2.820  11.875
  333MPD2    H7 5229   3.336   2.854  11.914
  334MPD2     C 5230   2.803   3.548  11.305
  334MPD2    C1 5231   2.911   3.596  11.375
  334MPD2    C2 5232   2.992   3.511  11.442
  334MPD2    C3 5233   2.964   3.375  11.449
  334MPD2    C4 5234   2.851   3.331  11.379
  334MPD2    C5 5235   2.774   3.413  11.316
  334MPD2     H 5236   3.075   3.548  11.502
  334MPD2    H1 5237   2.816   3.230  11.389
  334MPD2    H2 5238   2.733   3.608  11.248
  334MPD2    H3 5239   2.681   3.373  11.277
  334MPD2     N 5240   3.048   3.278  11.511
  334MPD2    H5 5241   3.006   3.185  11.515
  334MPD2    N1 5242   2.923   3.738  11.386
  334MPD2    H7 5243   2.835   3.781  11.359
  335MPD2     C 5244   0.114   0.614   9.767
  335MPD2    C1 5245   0.071   0.492   9.720
  335MPD2    C2 5246   4.786   0.417   9.801
  335MPD2    C3 5247   4.780   0.445   9.935
  335MPD2    C4 5248   0.046   0.556   9.987
  335MPD2    C5 5249   0.104   0.638   9.896
  335MPD2     H 5250   4.740   0.322   9.774
  335MPD2    H1 5251   0.040   0.579  10.092
  335MPD2    H2 5252   0.161   0.689   9.705
  335MPD2    H3 5253   0.151   0.731   9.928
  335MPD2     N 5254   4.724   0.361  10.034
  335MPD2    H5 5255   4.763   0.353  10.128
  335MPD2    N1 5256   0.120   0.451   9.598
  335MPD2    H7 5257   0.198   0.503   9.557
  336MPD2     C 5258   0.381   4.602   9.606
  336MPD2    C1 5259   0.335   4.728   9.644
  336MPD2    C2 5260   0.387   0.045   9.584
  336MPD2    C3 5261   0.501   0.035   9.505
  336MPD2    C4 5262   0.553   4.704   9.481
  336MPD2    C5 5263   0.485   4.596   9.525
  336MPD2     H 5264   0.350   0.144   9.610
  336MPD2    H1 5265   0.635   4.690   9.412
  336MPD2    H2 5266   0.336   4.512   9.645
  336MPD2    H3 5267   0.523   4.497   9.499
  336MPD2     N 5268   0.577   0.143   9.457
  336MPD2    H5 5269   0.670   0.123   9.421
  336MPD2    N1 5270   0.218   4.723   9.725
  336MPD2    H7 5271   0.183   4.631   9.751
  337MPD2     C 5272   4.265   4.390   9.571
  337MPD2    C1 5273   4.279   4.379   9.710
  337MPD2    C2 5274   4.389   4.434   9.769
  337MPD2    C3 5275   4.468   4.523   9.699
  337MPD2    C4 5276   4.449   4.539   9.564
  337MPD2    C5 5277   4.356   4.468   9.502
  337MPD2     H 5278   4.388   4.414   9.876
  337MPD2    H1 5279   4.508   4.606   9.503
  337MPD2    H2 5280   4.172   4.355   9.526
  337MPD2    H3 5281   4.327   4.479   9.398
  337MPD2     N 5282   4.557   4.609   9.760
  337MPD2    H5 5283   4.619   4.669   9.706
  337MPD2    N1 5284   4.189   4.325   9.803
  337MPD2    H7 5285   4.197   4.341   9.902
  338MPD2     C 5286   4.264   4.770  11.936
  338MPD2    C1 5287   4.271   4.752  12.066
  338MPD2    C2 5288   4.174   0.013  12.137
  338MPD2    C3 5289   4.067   0.092  12.104
  338MPD2    C4 5290   4.055   0.110  11.962
  338MPD2    C5 5291   4.154   0.047  11.883
  338MPD2     H 5292   4.188   0.011  12.244
  338MPD2    H1 5293   3.981   0.180  11.925
  338MPD2    H2 5294   4.337   4.736  11.863
  338MPD2    H3 5295   4.150   0.069  11.777
  338MPD2     N 5296   3.990   0.143  12.206
  338MPD2    H5 5297   4.016   0.128  12.302
  338MPD2    N1 5298   4.379   4.693  12.141
  338MPD2    H7 5299   4.358   4.677  12.239
  339MPD2     C 5300   3.953   0.262  13.002
  339MPD2    C1 5301   3.989   0.182  12.893
  339MPD2    C2 5302   4.051   0.059  12.912
  339MPD2    C3 5303   4.074   0.007  13.042
  339MPD2    C4 5304   4.024   0.084  13.146
  339MPD2    C5 5305   3.962   0.205  13.126
  339MPD2     H 5306   4.071   4.792  12.825
  339MPD2    H1 5307   4.023   0.031  13.240
  339MPD2    H2 5308   3.905   0.359  12.998
  339MPD2    H3 5309   3.918   0.262  13.207
  339MPD2     N 5310   4.124   4.667  13.065
  339MPD2    H5 5311   4.130   4.640  13.163
  339MPD2    N1 5312   3.966   0.230  12.766
  339MPD2    H7 5313   3.954   0.330  12.753
  340MPD2     C 5314   4.577   0.757  12.224
  340MPD2    C1 5315   4.469   0.816  12.168
  340MPD2    C2 5316   4.341   0.772  12.204
  340MPD2    C3 5317   4.330   0.676  12.306
  340MPD2    C4 5318   4.447   0.612  12.355
  340MPD2    C5 5319   4.565   0.661  12.317
  340MPD2     H 5320   4.255   0.806  12.147
  340MPD2    H1 5321   4.445   0.522  12.416
  340MPD2    H2 5322   4.675   0.804  12.222
  340MPD2    H3 5323   4.656   0.631  12.368
  340MPD2     N 5324   4.204   0.623  12.346
  340MPD2    H5 5325   4.131   0.653  12.282
  340MPD2    N1 5326   4.486   0.914  12.062
  340MPD2    H7 5327   4.406   0.966  12.028
  341MPD2     C 5328   0.222   4.144  12.072
  341MPD2    C1 5329   0.087   4.158  12.064
  341MPD2    C2 5330   0.011   4.056  12.007
  341MPD2    C3 5331   0.073   3.937  11.976
  341MPD2    C4 5332   0.208   3.927  11.980
  341MPD2    C5 5333   0.283   4.037  12.020
  341MPD2     H 5334   4.696   4.054  12.014
  341MPD2    H1 5335   0.256   3.834  11.950
  341MPD2    H2 5336   0.290   4.218  12.113
  341MPD2    H3 5337   0.390   4.023  12.028
  341MPD2     N 5338   4.779   3.833  11.939
  341MPD2    H5 5339   4.681   3.858  11.941
  341MPD2    N1 5340   0.021   4.271  12.116
  341MPD2    H7 5341   4.720   4.294  12.086
  342MPD2     C 5342   0.638   4.046  11.817
  342MPD2    C1 5343   0.524   4.055  11.730
  342MPD2    C2 5344   0.491   4.182  11.677
  342MPD2    C3 5345   0.552   4.298  11.727
  342MPD2    C4 5346   0.648   4.277  11.823
  342MPD2    C5 5347   0.695   4.159  11.854
  342MPD2     H 5348   0.421   4.184  11.594
  342MPD2    H1 5349   0.701   4.361  11.867
  342MPD2    H2 5350   0.685   3.949  11.833
  342MPD2    H3 5351   0.770   4.141  11.930
  342MPD2     N 5352   0.517   4.435  11.699
  342MPD2    H5 5353   0.545   4.507  11.765
  342MPD2    N1 5354   0.459   3.941  11.684
  342MPD2    H7 5355   0.511   3.856  11.706
  343MPD2     C 5356   0.119   4.512  10.925
  343MPD2    C1 5357   0.134   4.390  10.846
  343MPD2    C2 5358   0.023   4.333  10.789
  343MPD2    C3 5359   4.701   4.412  10.787
  343MPD2    C4 5360   4.683   4.525  10.864
  343MPD2    C5 5361   4.785   4.563  10.949
  343MPD2     H 5362   0.028   4.237  10.740
  343MPD2    H1 5363   4.589   4.579  10.871
  343MPD2    H2 5364   0.202   4.557  10.978
  343MPD2    H3 5365   4.777   4.652  11.010
  343MPD2     N 5366   4.585   4.375  10.705
  343MPD2    H5 5367   4.504   4.429  10.735
  343MPD2    N1 5368   0.266   4.319  10.841
  343MPD2    H7 5369   0.342   4.379  10.872
  344MPD2     C 5370   0.389   0.107  10.123
  344MPD2    C1 5371   0.409   4.778  10.066
  344MPD2    C2 5372   0.339   4.676  10.131
  344MPD2    C3 5373   0.251   4.698  10.238
  344MPD2    C4 5374   0.247   0.024  10.293
  344MPD2    C5 5375   0.319   0.124  10.241
  344MPD2     H 5376   0.341   4.575  10.091
  344MPD2    H1 5377   0.203   0.048  10.389
  344MPD2    H2 5378   0.427   0.202  10.089
  344MPD2    H3 5379   0.323   0.221  10.290
  344MPD2     N 5380   0.197   4.583  10.299
  344MPD2    H5 5381   0.206   4.496  10.246
  344MPD2    N1 5382   0.499   4.752   9.960
  344MPD2    H7 5383   0.523   4.657   9.933
  345MPD2     C 5384   0.323   3.616  10.518
  345MPD2    C1 5385   0.407   3.722  10.501
  345MPD2    C2 5386   0.358   3.857  10.505
  345MPD2    C3 5387   0.219   3.871  10.507
  345MPD2    C4 5388   0.137   3.759  10.529
  345MPD2    C5 5389   0.190   3.633  10.540
  345MPD2     H 5390   0.427   3.940  10.492
  345MPD2    H1 5391   0.028   3.765  10.531
  345MPD2    H2 5392   0.369   3.519  10.510
  345MPD2    H3 5393   0.126   3.547  10.558
  345MPD2     N 5394   0.151   3.989  10.481
  345MPD2    H5 5395   0.050   3.978  10.490
  345MPD2    N1 5396   0.550   3.682  10.481
  345MPD2    H7 5397   0.562   3.581  10.481
  346MPD2     C 5398   1.789   0.597   6.736
  346MPD2    C1 5399   1.698   0.662   6.820
  346MPD2    C2 5400   1.586   0.587   6.862
  346MPD2    C3 5401   1.549   0.467   6.814
  346MPD2    C4 5402   1.632   0.411   6.713
  346MPD2    C5 5403   1.754   0.469   6.687
  346MPD2     H 5404   1.524   0.631   6.939
  346MPD2    H1 5405   1.607   0.318   6.663
  346MPD2    H2 5406   1.880   0.640   6.698
  346MPD2    H3 5407   1.817   0.423   6.611
  346MPD2     N 5408   1.417   0.411   6.841
  346MPD2    H5 5409   1.350   0.476   6.880
  346MPD2    N1 5410   1.734   0.785   6.882
  346MPD2    H7 5411   1.825   0.826   6.862
  347MPD2     C 5412   1.432   0.141  12.346
  347MPD2    C1 5413   1.420   0.264  12.401
  347MPD2    C2 5414   1.523   0.355  12.393
  347MPD2    C3 5415   1.642   0.323  12.325
  347MPD2    C4 5416   1.646   0.199  12.261
  347MPD2    C5 5417   1.546   0.110  12.274
  347MPD2     H 5418   1.520   0.452  12.441
  347MPD2    H1 5419   1.738   0.170  12.211
  347MPD2    H2 5420   1.350   0.070  12.342
  347MPD2    H3 5421   1.549   0.006  12.241
  347MPD2     N 5422   1.747   0.413  12.330
  347MPD2    H5 5423   1.728   0.497  12.385
  347MPD2    N1 5424   1.296   0.306  12.456
  347MPD2    H7 5425   1.212   0.250  12.439
  348MPD2     C 5426   0.578   0.758  13.102
  348MPD2    C1 5427   0.615   0.803  12.978
  348MPD2    C2 5428   0.737   0.761  12.929
  348MPD2    C3 5429   0.821   0.675  12.999
  348MPD2    C4 5430   0.780   0.628  13.127
  348MPD2    C5 5431   0.661   0.673  13.168
  348MPD2     H 5432   0.759   0.798  12.830
  348MPD2    H1 5433   0.836   0.556  13.185
  348MPD2    H2 5434   0.488   0.792  13.153
  348MPD2    H3 5435   0.630   0.644  13.268
  348MPD2     N 5436   0.943   0.637  12.943
  348MPD2    H5 5437   0.988   0.554  12.980
  348MPD2    N1 5438   0.536   0.884  12.896
  348MPD2    H7 5439   0.576   0.915  12.809
  349MPD2     C 5440   1.044   0.927  12.123
  349MPD2    C1 5441   0.999   0.934  12.249
  349MPD2    C2 5442   0.953   0.822  12.315
  349MPD2    C3 5443   0.977   0.701  12.258
  349MPD2    C4 5444   1.035   0.688  12.139
  349MPD2    C5 5445   1.067   0.800  12.069
  349MPD2     H 5446   0.913   0.832  12.415
  349MPD2    H1 5447   1.052   0.594  12.087
  349MPD2    H2 5448   1.082   1.017  12.075
  349MPD2    H3 5449   1.100   0.800  11.966
  349MPD2     N 5450   0.953   0.588  12.326
  349MPD2    H5 5451   0.985   0.501  12.285
  349MPD2    N1 5452   0.981   1.059  12.318
  349MPD2    H7 5453   0.970   1.059  12.418
  350MPD2     C 5454   3.925   0.076   9.594
  350MPD2    C1 5455   3.999   4.790   9.513
  350MPD2    C2 5456   4.118   0.054   9.469
  350MPD2    C3 5457   4.150   0.183   9.499
  350MPD2    C4 5458   4.061   0.265   9.565
  350MPD2    C5 5459   3.951   0.208   9.624
  350MPD2     H 5460   4.179   4.782   9.409
  350MPD2    H1 5461   4.082   0.370   9.580
  350MPD2    H2 5462   3.832   0.041   9.637
  350MPD2    H3 5463   3.883   0.265   9.687
  350MPD2     N 5464   4.267   0.247   9.448
  350MPD2    H5 5465   4.265   0.345   9.422
  350MPD2    N1 5466   3.950   4.660   9.491
  350MPD2    H7 5467   3.867   4.636   9.544
  351MPD2     C 5468   0.034   0.488   9.078
  351MPD2    C1 5469   0.069   0.381   8.995
  351MPD2    C2 5470   0.140   0.406   8.880
  351MPD2    C3 5471   0.188   0.544   8.858
  351MPD2    C4 5472   0.160   0.647   8.951
  351MPD2    C5 5473   0.071   0.620   9.054
  351MPD2     H 5474   0.156   0.324   8.811
  351MPD2    H1 5475   0.201   0.746   8.935
  351MPD2    H2 5476   4.780   0.471   9.174
  351MPD2    H3 5477   0.037   0.700   9.119
  351MPD2     N 5478   0.263   0.589   8.751
  351MPD2    H5 5479   0.275   0.689   8.740
  351MPD2    N1 5480   0.038   0.244   9.024
  351MPD2    H7 5481   0.072   0.174   8.959
  352MPD2     C 5482   4.229   0.628   8.542
  352MPD2    C1 5483   4.182   0.662   8.667
  352MPD2    C2 5484   4.242   0.596   8.773
  352MPD2    C3 5485   4.342   0.498   8.747
  352MPD2    C4 5486   4.386   0.472   8.622
  352MPD2    C5 5487   4.331   0.539   8.521
  352MPD2     H 5488   4.221   0.621   8.876
  352MPD2    H1 5489   4.449   0.387   8.601
  352MPD2    H2 5490   4.166   0.658   8.459
  352MPD2    H3 5491   4.363   0.525   8.419
  352MPD2     N 5492   4.400   0.418   8.857
  352MPD2    H5 5493   4.474   0.351   8.835
  352MPD2    N1 5494   4.080   0.759   8.680
  352MPD2    H7 5495   4.046   0.805   8.596
  353MPD2     C 5496   0.020   3.042  11.933
  353MPD2    C1 5497   4.682   3.028  11.904
  353MPD2    C2 5498   4.602   3.141  11.889
  353MPD2    C3 5499   4.648   3.265  11.918
  353MPD2    C4 5500   4.776   3.280  11.967
  353MPD2    C5 5501   0.066   3.169  11.967
  353MPD2     H 5502   4.500   3.125  11.857
  353MPD2    H1 5503   0.023   3.375  11.998
  353MPD2    H2 5504   0.076   2.949  11.944
  353MPD2    H3 5505   0.166   3.188  12.006
  353MPD2     N 5506   4.568   3.384  11.903
  353MPD2    H5 5507   4.612   3.470  11.936
  353MPD2    N1 5508   4.639   2.898  11.890
  353MPD2    H7 5509   4.711   2.828  11.876
  354MPD2     C 5510   3.837   4.506  13.065
  354MPD2    C1 5511   3.809   4.578  12.955
  354MPD2    C2 5512   3.731   4.692  12.955
  354MPD2    C3 5513   3.687   4.743  13.069
  354MPD2    C4 5514   3.714   4.668  13.187
  354MPD2    C5 5515   3.794   4.558  13.181
  354MPD2     H 5516   3.710   4.738  12.859
  354MPD2    H1 5517   3.679   4.696  13.286
  354MPD2    H2 5518   3.882   4.408  13.070
  354MPD2    H3 5519   3.811   4.505  13.274
  354MPD2     N 5520   3.617   0.074  13.064
  354MPD2    H5 5521   3.592   0.115  12.975
  354MPD2    N1 5522   3.847   4.528  12.827
  354MPD2    H7 5523   3.819   4.583  12.747
  355MPD2     C 5524   4.505   0.234  12.620
  355MPD2    C1 5525   4.457   0.207  12.490
  355MPD2    C2 5526   4.350   0.123  12.481
  355MPD2    C3 5527   4.295   0.059  12.592
  355MPD2    C4 5528   4.333   0.107  12.723
  355MPD2    C5 5529   4.440   0.200  12.731
  355MPD2     H 5530   4.319   0.088  12.383
  355MPD2    H1 5531   4.284   0.071  12.812
  355MPD2    H2 5532   4.600   0.283  12.634
  355MPD2    H3 5533   4.481   0.228  12.827
  355MPD2     N 5534   4.228   4.734  12.599
  355MPD2    H5 5535   4.204   4.709  12.695
  355MPD2    N1 5536   4.518   0.259  12.371
  355MPD2    H7 5537   4.612   0.297  12.368
  356MPD2     C 5538   2.986   0.992  13.204
  356MPD2    C1 5539   2.964   1.130  13.214
  356MPD2    C2 5540   2.879   1.185  13.119
  356MPD2    C3 5541   2.831   1.100  13.012
  356MPD2    C4 5542   2.858   0.968  13.006
  356MPD2    C5 5543   2.942   0.912  13.100
  356MPD2     H 5544   2.853   1.289  13.135
  356MPD2    H1 5545   2.809   0.902  12.935
  356MPD2    H2 5546   3.056   0.941  13.269
  356MPD2    H3 5547   2.980   0.811  13.092
  356MPD2     N 5548   2.740   1.140  12.913
  356MPD2    H5 5549   2.709   1.069  12.847
  356MPD2    N1 5550   2.999   1.201  13.330
  356MPD2    H7 5551   3.043   1.146  13.403
  357MPD2     C 5552   3.433   2.083  13.757
  357MPD2    C1 5553   3.352   2.062  13.650
  357MPD2    C2 5554   3.282   1.946  13.637
  357MPD2    C3 5555   3.291   1.847  13.734
  357MPD2    C4 5556   3.383   1.857  13.835
  357MPD2    C5 5557   3.457   1.972  13.846
  357MPD2     H 5558   3.216   1.948  13.551
  357MPD2    H1 5559   3.386   1.780  13.911
  357MPD2    H2 5560   3.495   2.171  13.770
  357MPD2    H3 5561   3.545   1.972  13.909
  357MPD2     N 5562   3.223   1.722  13.720
  357MPD2    H5 5563   3.261   1.646  13.775
  357MPD2    N1 5564   3.340   2.154  13.544
  357MPD2    H7 5565   3.281   2.119  13.470
  358MPD2     C 5566   1.129   2.869   9.009
  358MPD2    C1 5567   1.038   2.945   9.081
  358MPD2    C2 5568   1.081   2.987   9.202
  358MPD2    C3 5569   1.199   2.944   9.265
  358MPD2    C4 5570   1.289   2.879   9.193
  358MPD2    C5 5571   1.250   2.839   9.070
  358MPD2     H 5572   1.015   3.046   9.264
  358MPD2    H1 5573   1.392   2.867   9.226
  358MPD2    H2 5574   1.103   2.836   8.909
  358MPD2    H3 5575   1.323   2.780   9.016
  358MPD2     N 5576   1.213   2.949   9.407
  358MPD2    H5 5577   1.304   2.926   9.445
  358MPD2    N1 5578   0.915   2.985   9.025
  358MPD2    H7 5579   0.883   2.937   8.942
  359MPD2     C 5580   0.299   2.948   9.475
  359MPD2    C1 5581   0.416   3.009   9.452
  359MPD2    C2 5582   0.415   3.111   9.356
  359MPD2    C3 5583   0.290   3.158   9.307
  359MPD2    C4 5584   0.172   3.109   9.363
  359MPD2    C5 5585   0.177   3.001   9.443
  359MPD2     H 5586   0.507   3.154   9.318
  359MPD2    H1 5587   0.076   3.125   9.316
  359MPD2    H2 5588   0.294   2.847   9.515
  359MPD2    H3 5589   0.090   2.937   9.458
  359MPD2     N 5590   0.290   3.253   9.197
  359MPD2    H5 5591   0.213   3.318   9.186
  359MPD2    N1 5592   0.534   2.952   9.505
  359MPD2    H7 5593   0.524   2.879   9.574
  360MPD2     C 5594   0.669   2.469   8.869
  360MPD2    C1 5595   0.768   2.565   8.849
  360MPD2    C2 5596   0.828   2.618   8.961
  360MPD2    C3 5597   0.785   2.588   9.095
  360MPD2    C4 5598   0.675   2.511   9.111
  360MPD2    C5 5599   0.622   2.444   8.995
  360MPD2     H 5600   0.918   2.677   8.952
  360MPD2    H1 5601   0.636   2.484   9.208
  360MPD2    H2 5602   0.621   2.411   8.791
  360MPD2    H3 5603   0.543   2.370   9.002
  360MPD2     N 5604   0.865   2.636   9.208
  360MPD2    H5 5605   0.929   2.713   9.190
  360MPD2    N1 5606   0.819   2.578   8.715
  360MPD2    H7 5607   0.784   2.512   8.646
  361MPD2     C 5608   0.274   1.084   8.167
  361MPD2    C1 5609   0.253   0.987   8.263
  361MPD2    C2 5610   0.359   0.916   8.323
  361MPD2    C3 5611   0.487   0.937   8.279
  361MPD2    C4 5612   0.509   1.025   8.176
  361MPD2    C5 5613   0.406   1.093   8.116
  361MPD2     H 5614   0.332   0.840   8.395
  361MPD2    H1 5615   0.607   1.059   8.146
  361MPD2    H2 5616   0.195   1.150   8.134
  361MPD2    H3 5617   0.435   1.175   8.052
  361MPD2     N 5618   0.601   0.883   8.342
  361MPD2    H5 5619   0.687   0.893   8.290
  361MPD2    N1 5620   0.118   0.955   8.312
  361MPD2    H7 5621   0.113   0.870   8.367
  362MPD2     C 5622   0.751   0.216   8.328
  362MPD2    C1 5623   0.805   0.230   8.457
  362MPD2    C2 5624   0.796   0.121   8.535
  362MPD2    C3 5625   0.749   4.789   8.492
  362MPD2    C4 5626   0.689   4.784   8.370
  362MPD2    C5 5627   0.692   0.102   8.287
  362MPD2     H 5628   0.840   0.122   8.634
  362MPD2    H1 5629   0.636   4.695   8.338
  362MPD2    H2 5630   0.737   0.294   8.254
  362MPD2    H3 5631   0.640   0.107   8.192
  362MPD2     N 5632   0.749   4.674   8.576
  362MPD2    H5 5633   0.708   4.589   8.538
  362MPD2    N1 5634   0.857   0.351   8.509
  362MPD2    H7 5635   0.879   0.356   8.608
  363MPD2     C 5636   0.743   0.839   9.155
  363MPD2    C1 5637   0.690   0.763   9.052
  363MPD2    C2 5638   0.582   0.683   9.081
  363MPD2    C3 5639   0.531   0.668   9.211
  363MPD2    C4 5640   0.587   0.748   9.311
  363MPD2    C5 5641   0.690   0.833   9.280
  363MPD2     H 5642   0.546   0.622   8.999
  363MPD2    H1 5643   0.563   0.731   9.415
  363MPD2    H2 5644   0.823   0.911   9.137
  363MPD2    H3 5645   0.735   0.886   9.363
  363MPD2     N 5646   0.434   0.571   9.250
  363MPD2    H5 5647   0.404   0.576   9.347
  363MPD2    N1 5648   0.750   0.764   8.922
  363MPD2    H7 5649   0.806   0.845   8.898
  364MPD2     C 5650   2.506   1.061   7.234
  364MPD2    C1 5651   2.601   1.008   7.320
  364MPD2    C2 5652   2.651   0.882   7.285
  364MPD2    C3 5653   2.633   0.822   7.160
  364MPD2    C4 5654   2.545   0.873   7.071
  364MPD2    C5 5655   2.489   0.994   7.107
  364MPD2     H 5656   2.721   0.829   7.350
  364MPD2    H1 5657   2.514   0.827   6.978
  364MPD2    H2 5658   2.467   1.160   7.250
  364MPD2    H3 5659   2.429   1.033   7.025
  364MPD2     N 5660   2.699   0.702   7.134
  364MPD2    H5 5661   2.751   0.671   7.215
  364MPD2    N1 5662   2.644   1.070   7.438
  364MPD2    H7 5663   2.704   1.006   7.489
  365MPD2     C 5664   3.174   0.771   7.633
  365MPD2    C1 5665   3.051   0.803   7.579
  365MPD2    C2 5666   2.994   0.725   7.492
  365MPD2    C3 5667   3.054   0.613   7.438
  365MPD2    C4 5668   3.174   0.575   7.495
  365MPD2    C5 5669   3.229   0.650   7.594
  365MPD2     H 5670   2.894   0.745   7.454
  365MPD2    H1 5671   3.237   0.494   7.459
  365MPD2    H2 5672   3.220   0.821   7.718
  365MPD2    H3 5673   3.313   0.607   7.647
  365MPD2     N 5674   3.005   0.555   7.318
  365MPD2    H5 5675   2.918   0.587   7.276
  365MPD2    N1 5676   2.972   0.912   7.623
  365MPD2    H7 5677   2.877   0.912   7.589
  366MPD2     C 5678   1.714   3.187   8.773
  366MPD2    C1 5679   1.846   3.215   8.752
  366MPD2    C2 5680   1.940   3.192   8.847
  366MPD2    C3 5681   1.894   3.154   8.967
  366MPD2    C4 5682   1.759   3.138   8.995
  366MPD2    C5 5683   1.668   3.162   8.903
  366MPD2     H 5684   2.044   3.203   8.819
  366MPD2    H1 5685   1.735   3.105   9.095
  366MPD2    H2 5686   1.646   3.196   8.689
  366MPD2    H3 5687   1.562   3.151   8.923
  366MPD2     N 5688   2.006   3.134   9.050
  366MPD2    H5 5689   2.092   3.178   9.017
  366MPD2    N1 5690   1.904   3.240   8.623
  366MPD2    H7 5691   2.004   3.241   8.605
  367MPD2     C 5692   2.043   3.742   8.105
  367MPD2    C1 5693   1.975   3.648   8.028
  367MPD2    C2 5694   1.928   3.668   7.900
  367MPD2    C3 5695   1.981   3.784   7.832
  367MPD2    C4 5696   2.067   3.869   7.902
  367MPD2    C5 5697   2.106   3.845   8.032
  367MPD2     H 5698   1.862   3.594   7.856
  367MPD2    H1 5699   2.104   3.959   7.855
  367MPD2    H2 5700   2.061   3.722   8.210
  367MPD2    H3 5701   2.163   3.926   8.076
  367MPD2     N 5702   1.951   3.815   7.697
  367MPD2    H5 5703   2.014   3.877   7.649
  367MPD2    N1 5704   1.931   3.534   8.104
  367MPD2    H7 5705   1.961   3.530   8.201
  368MPD2     C 5706   1.775   2.773   8.601
  368MPD2    C1 5707   1.897   2.717   8.581
  368MPD2    C2 5708   1.979   2.747   8.473
  368MPD2    C3 5709   1.933   2.844   8.384
  368MPD2    C4 5710   1.806   2.895   8.405
  368MPD2    C5 5711   1.730   2.865   8.514
  368MPD2     H 5712   2.080   2.710   8.461
  368MPD2    H1 5713   1.755   2.965   8.339
  368MPD2    H2 5714   1.704   2.752   8.680
  368MPD2    H3 5715   1.629   2.901   8.529
  368MPD2     N 5716   2.026   2.884   8.282
  368MPD2    H5 5717   2.102   2.818   8.271
  368MPD2    N1 5718   1.949   2.632   8.677
  368MPD2    H7 5719   2.045   2.603   8.661
  369MPD2     C 5720   1.837   0.396   7.140
  369MPD2    C1 5721   1.887   0.481   7.228
  369MPD2    C2 5722   1.989   0.439   7.312
  369MPD2    C3 5723   2.028   0.313   7.308
  369MPD2    C4 5724   1.968   0.232   7.217
  369MPD2    C5 5725   1.868   0.264   7.138
  369MPD2     H 5726   2.035   0.518   7.372
  369MPD2    H1 5727   2.010   0.134   7.198
  369MPD2    H2 5728   1.759   0.432   7.074
  369MPD2    H3 5729   1.819   0.196   7.070
  369MPD2     N 5730   2.124   0.249   7.385
  369MPD2    H5 5731   2.157   0.167   7.336
  369MPD2    N1 5732   1.853   0.618   7.212
  369MPD2    H7 5733   1.802   0.649   7.131
  370MPD2     C 5734   1.324   1.088   7.808
  370MPD2    C1 5735   1.334   0.963   7.767
  370MPD2    C2 5736   1.415   0.933   7.653
  370MPD2    C3 5737   1.464   1.031   7.570
  370MPD2    C4 5738   1.447   1.162   7.612
  370MPD2    C5 5739   1.383   1.189   7.734
  370MPD2     H 5740   1.445   0.832   7.629
  370MPD2    H1 5741   1.508   1.243   7.576
  370MPD2    H2 5742   1.270   1.111   7.899
  370MPD2    H3 5743   1.372   1.290   7.770
  370MPD2     N 5744   1.557   0.982   7.474
  370MPD2    H5 5745   1.589   0.886   7.474
  370MPD2    N1 5746   1.267   0.862   7.837
  370MPD2    H7 5747   1.199   0.896   7.904
  371MPD2     C 5748   0.511   3.541   8.199
  371MPD2    C1 5749   0.585   3.451   8.121
  371MPD2    C2 5750   0.722   3.480   8.098
  371MPD2    C3 5751   0.784   3.597   8.143
  371MPD2    C4 5752   0.708   3.675   8.229
  371MPD2    C5 5753   0.573   3.654   8.249
  371MPD2     H 5754   0.772   3.406   8.036
  371MPD2    H1 5755   0.750   3.755   8.289
  371MPD2    H2 5756   0.409   3.517   8.224
  371MPD2    H3 5757   0.513   3.709   8.320
  371MPD2     N 5758   0.920   3.630   8.124
  371MPD2    H5 5759   0.961   3.700   8.184
  371MPD2    N1 5760   0.530   3.329   8.075
  371MPD2    H7 5761   0.599   3.265   8.037
  372MPD2     C 5762   0.471   3.193   7.734
  372MPD2    C1 5763   0.484   3.332   7.718
  372MPD2    C2 5764   0.372   3.415   7.706
  372MPD2    C3 5765   0.242   3.361   7.706
  372MPD2    C4 5766   0.230   3.225   7.724
  372MPD2    C5 5767   0.342   3.146   7.733
  372MPD2     H 5768   0.389   3.522   7.702
  372MPD2    H1 5769   0.129   3.187   7.730
  372MPD2    H2 5770   0.548   3.117   7.735
  372MPD2    H3 5771   0.320   3.041   7.750
  372MPD2     N 5772   0.132   3.440   7.671
  372MPD2    H5 5773   0.045   3.392   7.693
  372MPD2    N1 5774   0.612   3.390   7.707
  372MPD2    H7 5775   0.686   3.322   7.715
  373MPD2     C 5776   1.199   3.180   7.158
  373MPD2    C1 5777   1.099   3.276   7.140
  373MPD2    C2 5778   1.055   3.342   7.253
  373MPD2    C3 5779   1.102   3.314   7.380
  373MPD2    C4 5780   1.198   3.220   7.392
  373MPD2    C5 5781   1.252   3.159   7.281
  373MPD2     H 5782   0.979   3.419   7.248
  373MPD2    H1 5783   1.236   3.193   7.490
  373MPD2    H2 5784   1.234   3.121   7.073
  373MPD2    H3 5785   1.335   3.090   7.296
  373MPD2     N 5786   1.039   3.370   7.487
  373MPD2    H5 5787   0.977   3.448   7.474
  373MPD2    N1 5788   1.059   3.304   7.003
  373MPD2    H7 5789   1.103   3.251   6.929
  374MPD2     C 5790   2.636   3.516   7.370
  374MPD2    C1 5791   2.606   3.604   7.268
  374MPD2    C2 5792   2.471   3.642   7.259
  374MPD2    C3 5793   2.367   3.597   7.345
  374MPD2    C4 5794   2.401   3.504   7.445
  374MPD2    C5 5795   2.534   3.464   7.452
  374MPD2     H 5796   2.454   3.722   7.188
  374MPD2    H1 5797   2.326   3.458   7.509
  374MPD2    H2 5798   2.734   3.473   7.387
  374MPD2    H3 5799   2.563   3.388   7.524
  374MPD2     N 5800   2.237   3.643   7.352
  374MPD2    H5 5801   2.169   3.589   7.404
  374MPD2    N1 5802   2.699   3.662   7.182
  374MPD2    H7 5803   2.665   3.714   7.102
  375MPD2     C 5804   1.971   0.699  11.190
  375MPD2    C1 5805   1.923   0.817  11.254
  375MPD2    C2 5806   1.787   0.838  11.278
  375MPD2    C3 5807   1.693   0.753  11.221
  375MPD2    C4 5808   1.742   0.652  11.138
  375MPD2    C5 5809   1.874   0.624  11.130
  375MPD2     H 5810   1.757   0.928  11.330
  375MPD2    H1 5811   1.669   0.590  11.087
  375MPD2    H2 5812   2.077   0.677  11.177
  375MPD2    H3 5813   1.908   0.547  11.062
  375MPD2     N 5814   1.548   0.769  11.223
  375MPD2    H5 5815   1.495   0.688  11.192
  375MPD2    N1 5816   2.025   0.914  11.290
  375MPD2    H7 5817   2.121   0.883  11.279
  376MPD2     C 5818   1.028   0.540  10.821
  376MPD2    C1 5819   1.134   0.578  10.910
  376MPD2    C2 5820   1.116   0.700  10.978
  376MPD2    C3 5821   1.000   0.780  10.963
  376MPD2    C4 5822   0.908   0.744  10.869
  376MPD2    C5 5823   0.926   0.622  10.806
  376MPD2     H 5824   1.193   0.723  11.052
  376MPD2    H1 5825   0.822   0.805  10.846
  376MPD2    H2 5826   1.022   0.446  10.767
  376MPD2    H3 5827   0.849   0.584  10.739
  376MPD2     N 5828   0.991   0.919  11.000
  376MPD2    H5 5829   0.924   0.977  10.951
  376MPD2    N1 5830   1.240   0.495  10.943
  376MPD2    H7 5831   1.299   0.530  11.019
  377MPD2     C 5832   1.111   0.104  11.481
  377MPD2    C1 5833   1.065   0.166  11.365
  377MPD2    C2 5834   1.104   0.294  11.348
  377MPD2    C3 5835   1.179   0.364  11.433
  377MPD2    C4 5836   1.225   0.306  11.547
  377MPD2    C5 5837   1.191   0.175  11.565
  377MPD2     H 5838   1.067   0.336  11.255
  377MPD2    H1 5839   1.292   0.356  11.616
  377MPD2    H2 5840   1.095   4.792  11.499
  377MPD2    H3 5841   1.237   0.122  11.647
  377MPD2     N 5842   1.194   0.503  11.424
  377MPD2    H5 5843   1.255   0.544  11.493
  377MPD2    N1 5844   0.985   0.112  11.262
  377MPD2    H7 5845   0.960   0.175  11.187
  378MPD2     C 5846   1.773   1.203  13.343
  378MPD2    C1 5847   1.718   1.095  13.288
  378MPD2    C2 5848   1.689   0.994  13.377
  378MPD2    C3 5849   1.716   1.010  13.514
  378MPD2    C4 5850   1.798   1.116  13.555
  378MPD2    C5 5851   1.821   1.215  13.469
  378MPD2     H 5852   1.629   0.908  13.349
  378MPD2    H1 5853   1.832   1.135  13.657
  378MPD2    H2 5854   1.790   1.289  13.278
  378MPD2    H3 5855   1.890   1.295  13.493
  378MPD2     N 5856   1.680   0.911  13.609
  378MPD2    H5 5857   1.745   0.911  13.687
  378MPD2    N1 5858   1.678   1.103  13.151
  378MPD2    H7 5859   1.706   1.181  13.093
  379MPD2     C 5860   1.018   1.321  13.234
  379MPD2    C1 5861   1.142   1.316  13.296
  379MPD2    C2 5862   1.223   1.428  13.303
  379MPD2    C3 5863   1.201   1.538  13.223
  379MPD2    C4 5864   1.086   1.539  13.151
  379MPD2    C5 5865   0.992   1.435  13.154
  379MPD2     H 5866   1.309   1.430  13.369
  379MPD2    H1 5867   1.070   1.618  13.078
  379MPD2    H2 5868   0.945   1.241  13.234
  379MPD2    H3 5869   0.901   1.449  13.097
  379MPD2     N 5870   1.296   1.641  13.227
  379MPD2    H5 5871   1.379   1.628  13.284
  379MPD2    N1 5872   1.170   1.189  13.354
  379MPD2    H7 5873   1.091   1.126  13.361
  380MPD2     C 5874   0.910   0.520  13.463
  380MPD2    C1 5875   0.925   0.656  13.493
  380MPD2    C2 5876   0.828   0.726  13.556
  380MPD2    C3 5877   0.722   0.657  13.613
  380MPD2    C4 5878   0.696   0.518  13.593
  380MPD2    C5 5879   0.791   0.459  13.509
  380MPD2     H 5880   0.841   0.829  13.585
  380MPD2    H1 5881   0.618   0.457  13.636
  380MPD2    H2 5882   0.978   0.463  13.401
  380MPD2    H3 5883   0.788   0.350  13.510
  380MPD2     N 5884   0.650   0.737  13.703
  380MPD2    H5 5885   0.683   0.831  13.723
  380MPD2    N1 5886   1.041   0.733  13.459
  380MPD2    H7 5887   1.041   0.832  13.481
  381MPD2     C 5888   4.251   2.837  13.778
  381MPD2    C1 5889   4.337   2.746  13.841
  381MPD2    C2 5890   4.465   2.791  13.872
  381MPD2    C3 5891   4.520   2.908  13.827
  381MPD2    C4 5892   4.433   3.002  13.772
  381MPD2    C5 5893   4.308   2.957  13.743
  381MPD2     H 5894   4.537   2.722  13.915
  381MPD2    H1 5895   4.464   3.097  13.729
  381MPD2    H2 5896   4.152   2.818  13.739
  381MPD2    H3 5897   4.248   3.024  13.682
  381MPD2     N 5898   4.662   2.929  13.855
  381MPD2    H5 5899   4.715   2.854  13.900
  381MPD2    N1 5900   4.292   2.623  13.896
  381MPD2    H7 5901   4.354   2.559  13.946
  382MPD2     C 5902   3.325   2.339  14.135
  382MPD2    C1 5903   3.409   2.231  14.129
  382MPD2    C2 5904   3.540   2.234  14.069
  382MPD2    C3 5905   3.581   2.354  14.010
  382MPD2    C4 5906   3.489   2.460  14.010
  382MPD2    C5 5907   3.361   2.444  14.056
  382MPD2     H 5908   3.603   2.146  14.073
  382MPD2    H1 5909   3.507   2.565  13.989
  382MPD2    H2 5910   3.220   2.324  14.158
  382MPD2    H3 5911   3.298   2.532  14.051
  382MPD2     N 5912   3.712   2.364  13.954
  382MPD2    H5 5913   3.748   2.459  13.946
  382MPD2    N1 5914   3.361   2.112  14.186
  382MPD2    H7 5915   3.262   2.114  14.209
  383MPD2     C 5916   3.030   1.063  12.588
  383MPD2    C1 5917   2.982   1.185  12.568
  383MPD2    C2 5918   3.007   1.280  12.662
  383MPD2    C3 5919   3.063   1.252  12.785
  383MPD2    C4 5920   3.089   1.117  12.812
  383MPD2    C5 5921   3.082   1.024  12.711
  383MPD2     H 5922   2.969   1.381  12.648
  383MPD2    H1 5923   3.121   1.083  12.909
  383MPD2    H2 5924   3.024   0.981  12.517
  383MPD2    H3 5925   3.117   0.922  12.721
  383MPD2     N 5926   3.077   1.357  12.887
  383MPD2    H5 5927   3.051   1.453  12.866
  383MPD2    N1 5928   2.895   1.219  12.462
  383MPD2    H7 5929   2.844   1.307  12.461
  384MPD2     C 5930   2.581   1.888  13.399
  384MPD2    C1 5931   2.604   1.758  13.434
  384MPD2    C2 5932   2.710   1.696  13.370
  384MPD2    C3 5933   2.798   1.767  13.289
  384MPD2    C4 5934   2.773   1.900  13.268
  384MPD2    C5 5935   2.665   1.961  13.327
  384MPD2     H 5936   2.727   1.592  13.396
  384MPD2    H1 5937   2.838   1.963  13.208
  384MPD2    H2 5938   2.492   1.937  13.436
  384MPD2    H3 5939   2.647   2.067  13.317
  384MPD2     N 5940   2.911   1.701  13.230
  384MPD2    H5 5941   2.926   1.603  13.250
  384MPD2    N1 5942   2.515   1.703  13.528
  384MPD2    H7 5943   2.445   1.769  13.559
  385MPD2     C 5944   0.758   4.157  14.439
  385MPD2    C1 5945   0.850   4.064  14.477
  385MPD2    C2 5946   0.906   3.977  14.387
  385MPD2    C3 5947   0.873   3.980  14.256
  385MPD2    C4 5948   0.782   4.072  14.218
  385MPD2    C5 5949   0.724   4.161  14.304
  385MPD2     H 5950   0.971   3.895  14.415
  385MPD2    H1 5951   0.751   4.095  14.116
  385MPD2    H2 5952   0.721   4.242  14.495
  385MPD2    H3 5953   0.666   4.246  14.271
  385MPD2     N 5954   0.950   3.904  14.152
  385MPD2    H5 5955   0.945   3.939  14.057
  385MPD2    N1 5956   0.895   4.044  14.614
  385MPD2    H7 5957   0.959   3.967  14.634
  386MPD2     C 5958   1.401   4.432  13.697
  386MPD2    C1 5959   1.303   4.424  13.786
  386MPD2    C2 5960   1.277   4.302  13.854
  386MPD2    C3 5961   1.361   4.195  13.832
  386MPD2    C4 5962   1.464   4.205  13.744
  386MPD2    C5 5963   1.475   4.321  13.674
  386MPD2     H 5964   1.206   4.296  13.936
  386MPD2    H1 5965   1.539   4.130  13.720
  386MPD2    H2 5966   1.428   4.521  13.643
  386MPD2    H3 5967   1.559   4.335  13.607
  386MPD2     N 5968   1.315   4.077  13.898
  386MPD2    H5 5969   1.227   4.087  13.947
  386MPD2    N1 5970   1.225   4.524  13.842
  386MPD2    H7 5971   1.154   4.499  13.909
  387MPD2     C 5972   1.826   3.478  14.417
  387MPD2    C1 5973   1.844   3.450  14.284
  387MPD2    C2 5974   1.734   3.467  14.196
  387MPD2    C3 5975   1.616   3.517  14.244
  387MPD2    C4 5976   1.603   3.545  14.376
  387MPD2    C5 5977   1.705   3.526  14.462
  387MPD2     H 5978   1.740   3.449  14.089
  387MPD2    H1 5979   1.517   3.598  14.415
  387MPD2    H2 5980   1.915   3.467  14.479
  387MPD2    H3 5981   1.693   3.562  14.563
  387MPD2     N 5982   1.517   3.555  14.147
  387MPD2    H5 5983   1.538   3.534  14.050
  387MPD2    N1 5984   1.967   3.407  14.244
  387MPD2    H7 5985   2.032   3.381  14.317
  388MPD2     C 5986   4.432   2.216  10.529
  388MPD2    C1 5987   4.353   2.309  10.476
  388MPD2    C2 5988   4.277   2.392  10.560
  388MPD2    C3 5989   4.283   2.382  10.695
  388MPD2    C4 5990   4.359   2.279  10.752
  388MPD2    C5 5991   4.425   2.196  10.660
  388MPD2     H 5992   4.212   2.470  10.521
  388MPD2    H1 5993   4.361   2.263  10.859
  388MPD2    H2 5994   4.499   2.154  10.470
  388MPD2    H3 5995   4.491   2.118  10.699
  388MPD2     N 5996   4.188   2.450  10.773
  388MPD2    H5 5997   4.127   2.505  10.713
  388MPD2    N1 5998   4.357   2.350  10.341
  388MPD2    H7 5999   4.316   2.439  10.319
  389MPD2     C 6000   0.069   2.823   9.843
  389MPD2    C1 6001   0.012   2.772   9.955
  389MPD2    C2 6002   0.071   2.796  10.077
  389MPD2    C3 6003   0.174   2.883  10.099
  389MPD2    C4 6004   0.238   2.931   9.983
  389MPD2    C5 6005   0.179   2.902   9.859
  389MPD2     H 6006   0.038   2.740  10.164
  389MPD2    H1 6007   0.327   2.991   9.998
  389MPD2    H2 6008   0.040   2.792   9.743
  389MPD2    H3 6009   0.241   2.938   9.778
  389MPD2     N 6010   0.231   2.887  10.223
  389MPD2    H5 6011   0.196   2.827  10.298
  389MPD2    N1 6012   4.691   2.683   9.944
  389MPD2    H7 6013   4.668   2.651   9.850
  390MPD2     C 6014   3.834   3.948  10.772
  390MPD2    C1 6015   3.903   3.836  10.749
  390MPD2    C2 6016   3.857   3.733  10.674
  390MPD2    C3 6017   3.739   3.746  10.608
  390MPD2    C4 6018   3.670   3.862  10.615
  390MPD2    C5 6019   3.719   3.961  10.694
  390MPD2     H 6020   3.920   3.646  10.662
  390MPD2    H1 6021   3.584   3.868  10.550
  390MPD2    H2 6022   3.876   4.031  10.828
  390MPD2    H3 6023   3.669   4.055  10.710
  390MPD2     N 6024   3.690   3.645  10.524
  390MPD2    H5 6025   3.629   3.683  10.452
  390MPD2    N1 6026   4.021   3.805  10.819
  390MPD2    H7 6027   4.071   3.720  10.795
  391MPD2     C 6028   4.640   3.459  11.598
  391MPD2    C1 6029   4.591   3.367  11.511
  391MPD2    C2 6030   4.486   3.400  11.424
  391MPD2    C3 6031   4.430   3.526  11.430
  391MPD2    C4 6032   4.477   3.615  11.525
  391MPD2    C5 6033   4.587   3.585  11.596
  391MPD2     H 6034   4.437   3.341  11.348
  391MPD2    H1 6035   4.439   3.715  11.538
  391MPD2    H2 6036   4.731   3.441  11.653
  391MPD2    H3 6037   4.623   3.654  11.671
  391MPD2     N 6038   4.331   3.569  11.342
  391MPD2    H5 6039   4.299   3.500  11.275
  391MPD2    N1 6040   4.665   3.245  11.502
  391MPD2    H7 6041   4.759   3.244  11.543
  392MPD2     C 6042   4.569   3.302  10.789
  392MPD2    C1 6043   4.478   3.293  10.895
  392MPD2    C2 6044   4.457   3.168  10.959
  392MPD2    C3 6045   4.530   3.057  10.920
  392MPD2    C4 6046   4.618   3.065  10.819
  392MPD2    C5 6047   4.638   3.185  10.756
  392MPD2     H 6048   4.391   3.165  11.045
  392MPD2    H1 6049   4.681   2.981  10.790
  392MPD2    H2 6050   4.591   3.395  10.737
  392MPD2    H3 6051   4.718   3.195  10.683
  392MPD2     N 6052   4.506   2.927  10.967
  392MPD2    H5 6053   4.531   2.857  10.897
  392MPD2    N1 6054   4.405   3.403  10.951
  392MPD2    H7 6055   4.353   3.383  11.035
  393MPD2     C 6056   3.380   0.435   6.286
  393MPD2    C1 6057   3.412   0.514   6.402
  393MPD2    C2 6058   3.304   0.591   6.451
  393MPD2    C3 6059   3.175   0.589   6.400
  393MPD2    C4 6060   3.147   0.501   6.292
  393MPD2    C5 6061   3.256   0.434   6.237
  393MPD2     H 6062   3.306   0.643   6.546
  393MPD2    H1 6063   3.048   0.475   6.256
  393MPD2    H2 6064   3.449   0.362   6.244
  393MPD2    H3 6065   3.231   0.357   6.165
  393MPD2     N 6066   3.078   0.675   6.467
  393MPD2    H5 6067   3.095   0.722   6.556
  393MPD2    N1 6068   3.532   0.514   6.474
  393MPD2    H7 6069   3.535   0.582   6.550
  394MPD2     C 6070   2.231   0.617   6.630
  394MPD2    C1 6071   2.340   0.595   6.710
  394MPD2    C2 6072   2.326   0.518   6.822
  394MPD2    C3 6073   2.203   0.442   6.832
  394MPD2    C4 6074   2.102   0.453   6.741
  394MPD2    C5 6075   2.115   0.542   6.643
  394MPD2     H 6076   2.415   0.499   6.880
  394MPD2    H1 6077   2.014   0.390   6.742
  394MPD2    H2 6078   2.241   0.689   6.550
  394MPD2    H3 6079   2.043   0.554   6.563
  394MPD2     N 6080   2.194   0.345   6.937
  394MPD2    H5 6081   2.114   0.283   6.923
  394MPD2    N1 6082   2.461   0.677   6.707
  394MPD2    H7 6083   2.524   0.668   6.787
  395MPD2     C 6084   2.998   1.204   7.247
  395MPD2    C1 6085   3.063   1.085   7.207
  395MPD2    C2 6086   2.997   1.012   7.105
  395MPD2    C3 6087   2.884   1.065   7.039
  395MPD2    C4 6088   2.823   1.179   7.082
  395MPD2    C5 6089   2.882   1.252   7.183
  395MPD2     H 6090   3.047   0.923   7.068
  395MPD2    H1 6091   2.731   1.212   7.036
  395MPD2    H2 6092   3.042   1.259   7.329
  395MPD2    H3 6093   2.837   1.346   7.210
  395MPD2     N 6094   2.830   1.001   6.921
  395MPD2    H5 6095   2.764   1.056   6.867
  395MPD2    N1 6096   3.173   1.038   7.285
  395MPD2    H7 6097   3.197   1.100   7.362
  396MPD2     C 6098   2.464   1.651  12.309
  396MPD2    C1 6099   2.472   1.670  12.447
  396MPD2    C2 6100   2.471   1.797  12.494
  396MPD2    C3 6101   2.444   1.907  12.410
  396MPD2    C4 6102   2.428   1.894  12.275
  396MPD2    C5 6103   2.443   1.760  12.228
  396MPD2     H 6104   2.505   1.815  12.595
  396MPD2    H1 6105   2.411   1.978  12.208
  396MPD2    H2 6106   2.449   1.553  12.266
  396MPD2    H3 6107   2.439   1.738  12.122
  396MPD2     N 6108   2.440   2.041  12.456
  396MPD2    H5 6109   2.464   2.120  12.397
  396MPD2    N1 6110   2.475   1.555  12.539
  396MPD2    H7 6111   2.491   1.586  12.634
  397MPD2     C 6112   1.826   0.830  12.718
  397MPD2    C1 6113   1.946   0.775  12.758
  397MPD2    C2 6114   2.067   0.843  12.741
  397MPD2    C3 6115   2.062   0.979  12.714
  397MPD2    C4 6116   1.943   1.034  12.694
  397MPD2    C5 6117   1.828   0.966  12.680
  397MPD2     H 6118   2.161   0.792  12.758
  397MPD2    H1 6119   1.922   1.138  12.674
  397MPD2    H2 6120   1.734   0.773  12.716
  397MPD2    H3 6121   1.743   1.019  12.640
  397MPD2     N 6122   2.178   1.061  12.703
  397MPD2    H5 6123   2.164   1.153  12.663
  397MPD2    N1 6124   1.966   0.643  12.802
  397MPD2    H7 6125   2.061   0.617  12.828
  398MPD2     C 6126   2.182   1.373  10.845
  398MPD2    C1 6127   2.055   1.342  10.794
  398MPD2    C2 6128   1.992   1.228  10.838
  398MPD2    C3 6129   2.038   1.153  10.941
  398MPD2    C4 6130   2.165   1.186  10.982
  398MPD2    C5 6131   2.242   1.289  10.931
  398MPD2     H 6132   1.895   1.206  10.796
  398MPD2    H1 6133   2.219   1.125  11.053
  398MPD2    H2 6134   2.226   1.466  10.811
  398MPD2    H3 6135   2.342   1.312  10.966
  398MPD2     N 6136   1.987   1.024  10.968
  398MPD2    H5 6137   2.048   0.961  11.019
  398MPD2    N1 6138   1.981   1.427  10.714
  398MPD2    H7 6139   1.888   1.386  10.707
  399MPD2     C 6140   1.845   1.627  11.437
  399MPD2    C1 6141   1.767   1.654  11.326
  399MPD2    C2 6142   1.720   1.543  11.258
  399MPD2    C3 6143   1.747   1.416  11.306
  399MPD2    C4 6144   1.829   1.388  11.417
  399MPD2    C5 6145   1.870   1.500  11.486
  399MPD2     H 6146   1.665   1.560  11.166
  399MPD2    H1 6147   1.848   1.292  11.463
  399MPD2    H2 6148   1.891   1.704  11.498
  399MPD2    H3 6149   1.927   1.502  11.579
  399MPD2     N 6150   1.712   1.305  11.224
  399MPD2    H5 6151   1.750   1.217  11.257
  399MPD2    N1 6152   1.735   1.785  11.295
  399MPD2    H7 6153   1.765   1.862  11.353
  400MPD2     C 6154   1.222   1.400  10.660
  400MPD2    C1 6155   1.353   1.360  10.677
  400MPD2    C2 6156   1.376   1.236  10.743
  400MPD2    C3 6157   1.271   1.155  10.779
  400MPD2    C4 6158   1.140   1.193  10.757
  400MPD2    C5 6159   1.125   1.317  10.705
  400MPD2     H 6160   1.474   1.192  10.736
  400MPD2    H1 6161   1.049   1.135  10.768
  400MPD2    H2 6162   1.198   1.497  10.619
  400MPD2    H3 6163   1.021   1.344  10.696
  400MPD2     N 6164   1.287   1.022  10.831
  400MPD2    H5 6165   1.201   0.970  10.839
  400MPD2    N1 6166   1.452   1.449  10.626
  400MPD2    H7 6167   1.420   1.537  10.588
  401MPD2     C 6168   4.396   3.998  10.767
  401MPD2    C1 6169   4.362   4.105  10.837
  401MPD2    C2 6170   4.450   4.152  10.934
  401MPD2    C3 6171   4.581   4.096  10.952
  401MPD2    C4 6172   4.612   3.984  10.871
  401MPD2    C5 6173   4.518   3.938  10.780
  401MPD2     H 6174   4.430   4.243  10.989
  401MPD2    H1 6175   4.705   3.928  10.878
  401MPD2    H2 6176   4.338   3.960  10.683
  401MPD2    H3 6177   4.539   3.848  10.724
  401MPD2     N 6178   4.679   4.140  11.043
  401MPD2    H5 6179   4.765   4.085  11.048
  401MPD2    N1 6180   4.236   4.157  10.808
  401MPD2    H7 6181   4.195   4.111  10.728
  402MPD2     C 6182   3.802   0.194  11.307
  402MPD2    C1 6183   3.778   0.066  11.352
  402MPD2    C2 6184   3.860   4.756  11.313
  402MPD2    C3 6185   3.969   4.774  11.231
  402MPD2    C4 6186   3.999   0.113  11.187
  402MPD2    C5 6187   3.916   0.216  11.233
  402MPD2     H 6188   3.837   4.653  11.340
  402MPD2    H1 6189   4.089   0.137  11.131
  402MPD2    H2 6190   3.733   0.272  11.338
  402MPD2    H3 6191   3.945   0.319  11.217
  402MPD2     N 6192   4.055   4.657  11.214
  402MPD2    H5 6193   4.027   4.573  11.263
  402MPD2    N1 6194   3.666   0.041  11.431
  402MPD2    H7 6195   3.601   0.118  11.443
  403MPD2     C 6196   4.447   4.299  11.612
  403MPD2    C1 6197   4.367   4.219  11.539
  403MPD2    C2 6198   4.342   4.092  11.587
  403MPD2    C3 6199   4.412   4.036  11.695
  403MPD2    C4 6200   4.499   4.122  11.760
  403MPD2    C5 6201   4.524   4.250  11.717
  403MPD2     H 6202   4.272   4.024  11.539
  403MPD2    H1 6203   4.537   4.097  11.858
  403MPD2    H2 6204   4.476   4.394  11.570
  403MPD2    H3 6205   4.602   4.310  11.763
  403MPD2     N 6206   4.368   3.913  11.742
  403MPD2    H5 6207   4.304   3.862  11.683
  403MPD2    N1 6208   4.315   4.277  11.423
  403MPD2    H7 6209   4.351   4.367  11.394
  404MPD2     C 6210   0.568   2.603   6.419
  404MPD2    C1 6211   0.558   2.643   6.553
  404MPD2    C2 6212   0.448   2.603   6.618
  404MPD2    C3 6213   0.351   2.524   6.562
  404MPD2    C4 6214   0.362   2.485   6.430
  404MPD2    C5 6215   0.471   2.522   6.367
  404MPD2     H 6216   0.425   2.626   6.721
  404MPD2    H1 6217   0.285   2.436   6.372
  404MPD2    H2 6218   0.657   2.619   6.358
  404MPD2    H3 6219   0.497   2.488   6.267
  404MPD2     N 6220   0.227   2.513   6.627
  404MPD2    H5 6221   0.206   2.558   6.715
  404MPD2    N1 6222   0.655   2.724   6.613
  404MPD2    H7 6223   0.642   2.750   6.710
  405MPD2     C 6224   4.449   1.884   7.243
  405MPD2    C1 6225   4.445   2.010   7.294
  405MPD2    C2 6226   4.473   2.118   7.211
  405MPD2    C3 6227   4.512   2.096   7.078
  405MPD2    C4 6228   4.509   1.967   7.033
  405MPD2    C5 6229   4.486   1.863   7.115
  405MPD2     H 6230   4.462   2.219   7.246
  405MPD2    H1 6231   4.532   1.943   6.930
  405MPD2    H2 6232   4.426   1.795   7.301
  405MPD2    H3 6233   4.484   1.765   7.068
  405MPD2     N 6234   4.543   2.203   7.001
  405MPD2    H5 6235   4.567   2.287   7.052
  405MPD2    N1 6236   4.402   2.040   7.430
  405MPD2    H7 6237   4.366   2.134   7.450
  406MPD2     C 6238   0.962   1.614   9.304
  406MPD2    C1 6239   0.960   1.751   9.274
  406MPD2    C2 6240   0.901   1.790   9.152
  406MPD2    C3 6241   0.822   1.691   9.079
  406MPD2    C4 6242   0.820   1.559   9.120
  406MPD2    C5 6243   0.890   1.531   9.233
  406MPD2     H 6244   0.888   1.894   9.126
  406MPD2    H1 6245   0.758   1.485   9.071
  406MPD2    H2 6246   1.008   1.577   9.395
  406MPD2    H3 6247   0.886   1.428   9.266
  406MPD2     N 6248   0.760   1.710   8.952
  406MPD2    H5 6249   0.711   1.636   8.903
  406MPD2    N1 6250   1.017   1.843   9.367
  406MPD2    H7 6251   1.040   1.805   9.459
  407MPD2     C 6252   0.816   2.613  13.932
  407MPD2    C1 6253   0.808   2.724  13.848
  407MPD2    C2 6254   0.699   2.811  13.858
  407MPD2    C3 6255   0.596   2.775  13.944
  407MPD2    C4 6256   0.601   2.662  14.018
  407MPD2    C5 6257   0.709   2.578  14.012
  407MPD2     H 6258   0.701   2.908  13.809
  407MPD2    H1 6259   0.522   2.638  14.088
  407MPD2    H2 6260   0.894   2.537  13.921
  407MPD2    H3 6261   0.713   2.487  14.071
  407MPD2     N 6262   0.481   2.860  13.931
  407MPD2    H5 6263   0.488   2.951  13.885
  407MPD2    N1 6264   0.912   2.741  13.753
  407MPD2    H7 6265   1.004   2.711  13.782
  408MPD2     C 6266   3.051   2.522   9.792
  408MPD2    C1 6267   3.184   2.521   9.753
  408MPD2    C2 6268   3.264   2.401   9.772
  408MPD2    C3 6269   3.206   2.295   9.835
  408MPD2    C4 6270   3.073   2.300   9.872
  408MPD2    C5 6271   2.999   2.415   9.860
  408MPD2     H 6272   3.359   2.393   9.721
  408MPD2    H1 6273   3.026   2.216   9.921
  408MPD2    H2 6274   2.991   2.609   9.769
  408MPD2    H3 6275   2.893   2.419   9.884
  408MPD2     N 6276   3.283   2.183   9.881
  408MPD2    H5 6277   3.236   2.119   9.943
  408MPD2    N1 6278   3.220   2.641   9.684
  408MPD2    H7 6279   3.155   2.716   9.666
  409MPD2     C 6280   3.466   1.467   9.343
  409MPD2    C1 6281   3.576   1.551   9.335
  409MPD2    C2 6282   3.606   1.631   9.439
  409MPD2    C3 6283   3.528   1.624   9.557
  409MPD2    C4 6284   3.418   1.538   9.565
  409MPD2    C5 6285   3.396   1.454   9.458
  409MPD2     H 6286   3.686   1.704   9.438
  409MPD2    H1 6287   3.344   1.533   9.644
  409MPD2    H2 6288   3.436   1.398   9.264
  409MPD2    H3 6289   3.308   1.391   9.464
  409MPD2     N 6290   3.557   1.718   9.664
  409MPD2    H5 6291   3.626   1.790   9.643
  409MPD2    N1 6292   3.664   1.547   9.228
  409MPD2    H7 6293   3.741   1.613   9.221
  410MPD2     C 6294   3.010   1.436  10.198
  410MPD2    C1 6295   3.073   1.430  10.076
  410MPD2    C2 6296   3.167   1.522  10.048
  410MPD2    C3 6297   3.183   1.634  10.130
  410MPD2    C4 6298   3.118   1.638  10.248
  410MPD2    C5 6299   3.027   1.541  10.275
  410MPD2     H 6300   3.234   1.520   9.963
  410MPD2    H1 6301   3.131   1.726  10.310
  410MPD2    H2 6302   2.942   1.362  10.237
  410MPD2    H3 6303   2.983   1.563  10.372
  410MPD2     N 6304   3.290   1.720  10.100
  410MPD2    H5 6305   3.333   1.699  10.011
  410MPD2    N1 6306   3.046   1.315   9.985
  410MPD2    H7 6307   3.016   1.234  10.039
  411MPD2     C 6308   0.385   3.610  10.877
  411MPD2    C1 6309   0.501   3.539  10.831
  411MPD2    C2 6310   0.485   3.419  10.768
  411MPD2    C3 6311   0.361   3.364  10.760
  411MPD2    C4 6312   0.249   3.426  10.800
  411MPD2    C5 6313   0.262   3.551  10.851
  411MPD2     H 6314   0.570   3.367  10.726
  411MPD2    H1 6315   0.150   3.391  10.772
  411MPD2    H2 6316   0.383   3.696  10.942
  411MPD2    H3 6317   0.180   3.603  10.901
  411MPD2     N 6318   0.345   3.244  10.684
  411MPD2    H5 6319   0.252   3.221  10.652
  411MPD2    N1 6320   0.633   3.591  10.854
  411MPD2    H7 6321   0.706   3.530  10.819
  412MPD2     C 6322   0.669   2.336  10.944
  412MPD2    C1 6323   0.741   2.434  10.880
  412MPD2    C2 6324   0.665   2.532  10.803
  412MPD2    C3 6325   0.529   2.521  10.792
  412MPD2    C4 6326   0.457   2.420  10.860
  412MPD2    C5 6327   0.534   2.332  10.925
  412MPD2     H 6328   0.721   2.610  10.752
  412MPD2    H1 6329   0.349   2.411  10.860
  412MPD2    H2 6330   0.714   2.255  10.999
  412MPD2    H3 6331   0.481   2.248  10.970
  412MPD2     N 6332   0.454   2.624  10.725
  412MPD2    H5 6333   0.357   2.641  10.753
  412MPD2    N1 6334   0.878   2.448  10.879
  412MPD2    H7 6335   0.915   2.522  10.820
  413MPD2     C 6336   2.242   4.760   9.604
  413MPD2    C1 6337   2.199   0.005   9.480
  413MPD2    C2 6338   2.287   0.043   9.382
  413MPD2    C3 6339   2.424   0.028   9.406
  413MPD2    C4 6340   2.467   4.777   9.522
  413MPD2    C5 6341   2.376   4.750   9.623
  413MPD2     H 6342   2.249   0.080   9.288
  413MPD2    H1 6343   2.573   4.779   9.544
  413MPD2    H2 6344   2.168   4.741   9.681
  413MPD2    H3 6345   2.417   4.724   9.720
  413MPD2     N 6346   2.517   0.065   9.310
  413MPD2    H5 6347   2.610   0.026   9.320
  413MPD2    N1 6348   2.058   0.022   9.461
  413MPD2    H7 6349   2.005   0.020   9.548
  414MPD2     C 6350   2.158   0.779   9.524
  414MPD2    C1 6351   2.046   0.775   9.442
  414MPD2    C2 6352   1.954   0.675   9.452
  414MPD2    C3 6353   1.984   0.569   9.529
  414MPD2    C4 6354   2.106   0.554   9.591
  414MPD2    C5 6355   2.190   0.662   9.586
  414MPD2     H 6356   1.864   0.683   9.392
  414MPD2    H1 6357   2.151   0.461   9.624
  414MPD2    H2 6358   2.243   0.846   9.522
  414MPD2    H3 6359   2.286   0.670   9.636
  414MPD2     N 6360   1.908   0.448   9.518
  414MPD2    H5 6361   1.948   0.364   9.559
  414MPD2    N1 6362   2.033   0.875   9.349
  414MPD2    H7 6363   1.972   0.863   9.269
  415MPD2     C 6364   2.331   0.334  15.139
  415MPD2    C1 6365   2.340   0.387  15.010
  415MPD2    C2 6366   2.476   0.421  14.974
  415MPD2    C3 6367   2.588   0.398  15.047
  415MPD2    C4 6368   2.571   0.338  15.168
  415MPD2    C5 6369   2.446   0.311  15.208
  415MPD2     H 6370   2.502   0.451  14.873
  415MPD2    H1 6371   2.657   0.327  15.234
  415MPD2    H2 6372   2.236   0.316  15.188
  415MPD2    H3 6373   2.430   0.277  15.310
  415MPD2     N 6374   2.713   0.421  14.996
  415MPD2    H5 6375   2.714   0.452  14.899
  415MPD2    N1 6376   2.224   0.419  14.935
  415MPD2    H7 6377   2.249   0.482  14.860
  416MPD2     C 6378   3.132   0.607  14.389
  416MPD2    C1 6379   3.196   0.502  14.448
  416MPD2    C2 6380   3.292   0.434  14.379
  416MPD2    C3 6381   3.298   0.443  14.242
  416MPD2    C4 6382   3.226   0.541  14.176
  416MPD2    C5 6383   3.146   0.619  14.254
  416MPD2     H 6384   3.349   0.356  14.428
  416MPD2    H1 6385   3.226   0.565  14.070
  416MPD2    H2 6386   3.074   0.685  14.437
  416MPD2    H3 6387   3.099   0.705  14.208
  416MPD2     N 6388   3.380   0.366  14.160
  416MPD2    H5 6389   3.364   0.377  14.061
  416MPD2    N1 6390   3.176   0.467  14.586
  416MPD2    H7 6391   3.233   0.391  14.623
  417MPD2     C 6392   3.027   4.060  12.447
  417MPD2    C1 6393   3.084   3.975  12.537
  417MPD2    C2 6394   3.048   3.978  12.664
  417MPD2    C3 6395   2.948   4.068  12.706
  417MPD2    C4 6396   2.907   4.168  12.620
  417MPD2    C5 6397   2.938   4.160  12.490
  417MPD2     H 6398   3.083   3.896  12.726
  417MPD2    H1 6399   2.846   4.253  12.649
  417MPD2    H2 6400   3.046   4.059  12.341
  417MPD2    H3 6401   2.905   4.239  12.423
  417MPD2     N 6402   2.902   4.077  12.835
  417MPD2    H5 6403   2.831   4.147  12.853
  417MPD2    N1 6404   3.171   3.873  12.487
  417MPD2    H7 6405   3.194   3.866  12.388
  418MPD2     C 6406   2.477   4.709  13.141
  418MPD2    C1 6407   2.429   4.599  13.207
  418MPD2    C2 6408   2.505   4.485  13.214
  418MPD2    C3 6409   2.640   4.489  13.167
  418MPD2    C4 6410   2.682   4.602  13.103
  418MPD2    C5 6411   2.598   4.707  13.083
  418MPD2     H 6412   2.468   4.391  13.254
  418MPD2    H1 6413   2.777   4.600  13.051
  418MPD2    H2 6414   2.415   0.004  13.132
  418MPD2    H3 6415   2.627   0.002  13.027
  418MPD2     N 6416   2.728   4.378  13.179
  418MPD2    H5 6417   2.821   4.393  13.141
  418MPD2    N1 6418   2.299   4.593  13.260
  418MPD2    H7 6419   2.275   4.509  13.311
  419MPD2     C 6420   2.754   3.623  13.599
  419MPD2    C1 6421   2.666   3.721  13.548
  419MPD2    C2 6422   2.556   3.743  13.623
  419MPD2    C3 6423   2.530   3.678  13.749
  419MPD2    C4 6424   2.621   3.587  13.802
  419MPD2    C5 6425   2.727   3.565  13.724
  419MPD2     H 6426   2.489   3.822  13.591
  419MPD2    H1 6427   2.608   3.538  13.898
  419MPD2    H2 6428   2.854   3.606  13.561
  419MPD2    H3 6429   2.807   3.498  13.754
  419MPD2     N 6430   2.414   3.710  13.817
  419MPD2    H5 6431   2.358   3.776  13.764
  419MPD2    N1 6432   2.695   3.803  13.433
  419MPD2    H7 6433   2.632   3.877  13.406
  420MPD2     C 6434   1.808   0.633  11.574
  420MPD2    C1 6435   1.671   0.632  11.553
  420MPD2    C2 6436   1.618   0.547  11.465
  420MPD2    C3 6437   1.705   0.460  11.395
  420MPD2    C4 6438   1.836   0.461  11.416
  420MPD2    C5 6439   1.884   0.554  11.507
  420MPD2     H 6440   1.514   0.552  11.434
  420MPD2    H1 6441   1.902   0.403  11.353
  420MPD2    H2 6442   1.855   0.717  11.625
  420MPD2    H3 6443   1.992   0.558  11.512
  420MPD2     N 6444   1.662   0.378  11.289
  420MPD2    H5 6445   1.726   0.310  11.249
  420MPD2    N1 6446   1.593   0.719  11.627
  420MPD2    H7 6447   1.646   0.796  11.666
  421MPD2     C 6448   0.821   1.062  11.803
  421MPD2    C1 6449   0.865   1.129  11.692
  421MPD2    C2 6450   0.804   1.237  11.637
  421MPD2    C3 6451   0.685   1.281  11.691
  421MPD2    C4 6452   0.635   1.218  11.798
  421MPD2    C5 6453   0.704   1.113  11.852
  421MPD2     H 6454   0.857   1.282  11.553
  421MPD2    H1 6455   0.541   1.244  11.844
  421MPD2    H2 6456   0.860   0.977  11.859
  421MPD2    H3 6457   0.652   1.056  11.928
  421MPD2     N 6458   0.616   1.401  11.656
  421MPD2    H5 6459   0.541   1.434  11.716
  421MPD2    N1 6460   0.987   1.099  11.643
  421MPD2    H7 6461   1.031   1.155  11.571
  422MPD2     C 6462   1.419   1.532  11.461
  422MPD2    C1 6463   1.477   1.446  11.556
  422MPD2    C2 6464   1.552   1.497  11.658
  422MPD2    C3 6465   1.594   1.629  11.650
  422MPD2    C4 6466   1.542   1.710  11.552
  422MPD2    C5 6467   1.451   1.665  11.462
  422MPD2     H 6468   1.580   1.435  11.743
  422MPD2    H1 6469   1.569   1.815  11.548
  422MPD2    H2 6470   1.339   1.504  11.394
  422MPD2    H3 6471   1.428   1.736  11.383
  422MPD2     N 6472   1.684   1.688  11.740
  422MPD2    H5 6473   1.710   1.786  11.731
  422MPD2    N1 6474   1.420   1.313  11.546
  422MPD2    H7 6475   1.382   1.297  11.453
  423MPD2     C 6476   2.284   1.314  13.206
  423MPD2    C1 6477   2.201   1.413  13.256
  423MPD2    C2 6478   2.170   1.521  13.170
  423MPD2    C3 6479   2.236   1.530  13.045
  423MPD2    C4 6480   2.327   1.434  13.005
  423MPD2    C5 6481   2.345   1.320  13.081
  423MPD2     H 6482   2.112   1.608  13.198
  423MPD2    H1 6483   2.380   1.428  12.911
  423MPD2    H2 6484   2.313   1.228  13.265
  423MPD2    H3 6485   2.407   1.239  13.045
  423MPD2     N 6486   2.228   1.641  12.968
  423MPD2    H5 6487   2.155   1.706  12.994
  423MPD2    N1 6488   2.167   1.408  13.390
  423MPD2    H7 6489   2.224   1.343  13.443
  424MPD2     C 6490   2.553   0.776  13.850
  424MPD2    C1 6491   2.496   0.811  13.731
  424MPD2    C2 6492   2.434   0.934  13.716
  424MPD2    C3 6493   2.445   1.031  13.823
  424MPD2    C4 6494   2.506   0.990  13.936
  424MPD2    C5 6495   2.560   0.865  13.951
  424MPD2     H 6496   2.394   0.962  13.619
  424MPD2    H1 6497   2.513   1.050  14.026
  424MPD2    H2 6498   2.599   0.678  13.859
  424MPD2    H3 6499   2.615   0.831  14.038
  424MPD2     N 6500   2.390   1.164  13.820
  424MPD2    H5 6501   2.400   1.235  13.891
  424MPD2    N1 6502   2.487   0.729  13.618
  424MPD2    H7 6503   2.414   0.757  13.553
  425MPD2     C 6504   4.423   2.004   8.803
  425MPD2    C1 6505   4.365   1.944   8.697
  425MPD2    C2 6506   4.239   1.883   8.710
  425MPD2    C3 6507   4.191   1.851   8.834
  425MPD2    C4 6508   4.255   1.899   8.946
  425MPD2    C5 6509   4.363   1.985   8.921
  425MPD2     H 6510   4.184   1.850   8.623
  425MPD2    H1 6511   4.231   1.875   9.049
  425MPD2    H2 6512   4.516   2.058   8.792
  425MPD2    H3 6513   4.404   2.024   9.013
  425MPD2     N 6514   4.074   1.767   8.832
  425MPD2    H5 6515   4.053   1.720   8.745
  425MPD2    N1 6516   4.418   1.954   8.570
  425MPD2    H7 6517   4.352   1.948   8.493
  426MPD2     C 6518   2.608   4.069   8.015
  426MPD2    C1 6519   2.550   4.177   8.082
  426MPD2    C2 6520   2.462   4.257   8.008
  426MPD2    C3 6521   2.440   4.231   7.871
  426MPD2    C4 6522   2.479   4.116   7.826
  426MPD2    C5 6523   2.557   4.025   7.899
  426MPD2     H 6524   2.427   4.346   8.060
  426MPD2    H1 6525   2.446   4.080   7.730
  426MPD2    H2 6526   2.680   4.000   8.058
  426MPD2    H3 6527   2.587   3.933   7.851
  426MPD2     N 6528   2.350   4.307   7.795
  426MPD2    H5 6529   2.338   4.278   7.699
  426MPD2    N1 6530   2.590   4.222   8.214
  426MPD2    H7 6531   2.539   4.303   8.247
  427MPD2     C 6532   2.416   0.359   7.799
  427MPD2    C1 6533   2.317   0.279   7.837
  427MPD2    C2 6534   2.264   0.295   7.969
  427MPD2    C3 6535   2.328   0.373   8.060
  427MPD2    C4 6536   2.427   0.460   8.023
  427MPD2    C5 6537   2.465   0.453   7.890
  427MPD2     H 6538   2.182   0.239   8.012
  427MPD2    H1 6539   2.475   0.527   8.094
  427MPD2    H2 6540   2.456   0.368   7.699
  427MPD2    H3 6541   2.545   0.518   7.855
  427MPD2     N 6542   2.285   0.373   8.192
  427MPD2    H5 6543   2.192   0.333   8.196
  427MPD2    N1 6544   2.273   0.168   7.758
  427MPD2    H7 6545   2.327   0.146   7.675
  428MPD2     C 6546   2.297   4.500   7.125
  428MPD2    C1 6547   2.357   4.437   7.232
  428MPD2    C2 6548   2.418   4.314   7.212
  428MPD2    C3 6549   2.420   4.249   7.090
  428MPD2    C4 6550   2.358   4.315   6.988
  428MPD2    C5 6551   2.291   4.436   7.007
  428MPD2     H 6552   2.469   4.264   7.294
  428MPD2    H1 6553   2.364   4.271   6.889
  428MPD2    H2 6554   2.250   4.597   7.139
  428MPD2    H3 6555   2.250   4.476   6.915
  428MPD2     N 6556   2.485   4.129   7.063
  428MPD2    H5 6557   2.513   4.114   6.966
  428MPD2    N1 6558   2.373   4.492   7.361
  428MPD2    H7 6559   2.426   4.436   7.427
  429MPD2     C 6560   4.152   0.431  11.460
  429MPD2    C1 6561   4.100   0.390  11.577
  429MPD2    C2 6562   4.186   0.351  11.684
  429MPD2    C3 6563   4.324   0.345  11.665
  429MPD2    C4 6564   4.371   0.387  11.543
  429MPD2    C5 6565   4.285   0.436  11.447
  429MPD2     H 6566   4.148   0.334  11.784
  429MPD2    H1 6567   4.475   0.386  11.513
  429MPD2    H2 6568   4.083   0.460  11.381
  429MPD2    H3 6569   4.322   0.478  11.354
  429MPD2     N 6570   4.399   0.309  11.774
  429MPD2    H5 6571   4.342   0.309  11.858
  429MPD2    N1 6572   3.956   0.378  11.585
  429MPD2    H7 6573   3.904   0.441  11.524
  430MPD2     C 6574   3.468   0.418  12.418
  430MPD2    C1 6575   3.484   0.518  12.319
  430MPD2    C2 6576   3.514   0.483  12.187
  430MPD2    C3 6577   3.520   0.348  12.153
  430MPD2    C4 6578   3.515   0.259  12.256
  430MPD2    C5 6579   3.485   0.287  12.381
  430MPD2     H 6580   3.521   0.560  12.112
  430MPD2    H1 6581   3.543   0.156  12.242
  430MPD2    H2 6582   3.445   0.450  12.519
  430MPD2    H3 6583   3.469   0.210  12.456
  430MPD2     N 6584   3.556   0.317  12.020
  430MPD2    H5 6585   3.565   0.397  11.958
  430MPD2    N1 6586   3.473   0.653  12.368
  430MPD2    H7 6587   3.461   0.677  12.466
  431MPD2     C 6588   4.232   3.271   9.019
  431MPD2    C1 6589   4.200   3.178   9.112
  431MPD2    C2 6590   4.070   3.174   9.156
  431MPD2    C3 6591   3.971   3.267   9.123
  431MPD2    C4 6592   4.015   3.367   9.037
  431MPD2    C5 6593   4.136   3.366   8.982
  431MPD2     H 6594   4.039   3.096   9.226
  431MPD2    H1 6595   3.952   3.453   9.018
  431MPD2    H2 6596   4.335   3.277   8.984
  431MPD2    H3 6597   4.154   3.454   8.923
  431MPD2     N 6598   3.846   3.258   9.182
  431MPD2    H5 6599   3.836   3.171   9.233
  431MPD2    N1 6600   4.296   3.087   9.161
  431MPD2    H7 6601   4.391   3.104   9.129
  432MPD2     C 6602   1.114   2.582  12.126
  432MPD2    C1 6603   1.241   2.637  12.143
  432MPD2    C2 6604   1.300   2.647  12.270
  432MPD2    C3 6605   1.226   2.609  12.381
  432MPD2    C4 6606   1.104   2.555  12.359
  432MPD2    C5 6607   1.052   2.552  12.239
  432MPD2     H 6608   1.398   2.691  12.284
  432MPD2    H1 6609   1.041   2.518  12.439
  432MPD2    H2 6610   1.073   2.565  12.027
  432MPD2    H3 6611   0.949   2.519  12.231
  432MPD2     N 6612   1.280   2.605  12.514
  432MPD2    H5 6613   1.220   2.557  12.580
  432MPD2    N1 6614   1.317   2.654  12.022
  432MPD2    H7 6615   1.286   2.601  11.941
  433MPD2     C 6616   0.852   3.187  12.273
  433MPD2    C1 6617   0.955   3.191  12.368
  433MPD2    C2 6618   0.935   3.217  12.505
  433MPD2    C3 6619   0.806   3.274  12.534
  433MPD2    C4 6620   0.712   3.286  12.434
  433MPD2    C5 6621   0.726   3.230  12.309
  433MPD2     H 6622   1.012   3.209  12.580
  433MPD2    H1 6623   0.613   3.325  12.453
  433MPD2    H2 6624   0.860   3.146  12.173
  433MPD2    H3 6625   0.643   3.235  12.240
  433MPD2     N 6626   0.764   3.321  12.670
  433MPD2    H5 6627   0.667   3.348  12.678
  433MPD2    N1 6628   1.086   3.140  12.333
  433MPD2    H7 6629   1.142   3.117  12.415
  434MPD2     C 6630   3.629   3.710  11.489
  434MPD2    C1 6631   3.727   3.799  11.526
  434MPD2    C2 6632   3.837   3.742  11.580
  434MPD2    C3 6633   3.872   3.610  11.577
  434MPD2    C4 6634   3.773   3.522  11.528
  434MPD2    C5 6635   3.649   3.578  11.491
  434MPD2     H 6636   3.899   3.803  11.645
  434MPD2    H1 6637   3.796   3.417  11.528
  434MPD2    H2 6638   3.533   3.749  11.456
  434MPD2    H3 6639   3.568   3.512  11.461
  434MPD2     N 6640   3.991   3.562  11.619
  434MPD2    H5 6641   3.997   3.461  11.629
  434MPD2    N1 6642   3.712   3.941  11.526
  434MPD2    H7 6643   3.798   3.993  11.535
  435MPD2     C 6644   1.396   0.022  12.711
  435MPD2    C1 6645   1.501   4.778  12.637
  435MPD2    C2 6646   1.610   0.069  12.616
  435MPD2    C3 6647   1.613   0.185  12.679
  435MPD2    C4 6648   1.506   0.224  12.755
  435MPD2    C5 6649   1.395   0.142  12.774
  435MPD2     H 6650   1.692   0.043  12.549
  435MPD2    H1 6651   1.507   0.319  12.808
  435MPD2    H2 6652   1.324   4.738  12.739
  435MPD2    H3 6653   1.320   0.176  12.845
  435MPD2     N 6654   1.719   0.283  12.663
  435MPD2    H5 6655   1.685   0.376  12.686
  435MPD2    N1 6656   1.501   4.647  12.580
  435MPD2    H7 6657   1.412   4.609  12.610
  436MPD2     C 6658   1.895   4.377  12.970
  436MPD2    C1 6659   1.987   4.389  12.869
  436MPD2    C2 6660   2.043   4.277  12.823
  436MPD2    C3 6661   2.017   4.150  12.886
  436MPD2    C4 6662   1.924   4.140  12.985
  436MPD2    C5 6663   1.863   4.255  13.029
  436MPD2     H 6664   2.119   4.288  12.747
  436MPD2    H1 6665   1.903   4.042  13.027
  436MPD2    H2 6666   1.833   4.453  13.017
  436MPD2    H3 6667   1.778   4.258  13.097
  436MPD2     N 6668   2.085   4.032  12.850
  436MPD2    H5 6669   2.059   3.955  12.910
  436MPD2    N1 6670   2.000   4.508  12.796
  436MPD2    H7 6671   2.059   4.506  12.713
  437MPD2     C 6672   2.094   4.693  11.872
  437MPD2    C1 6673   2.140   4.609  11.971
  437MPD2    C2 6674   2.125   4.645  12.103
  437MPD2    C3 6675   2.065   4.766  12.136
  437MPD2    C4 6676   2.026   0.059  12.033
  437MPD2    C5 6677   2.031   0.015  11.909
  437MPD2     H 6678   2.155   4.576  12.181
  437MPD2    H1 6679   1.973   0.153  12.046
  437MPD2    H2 6680   2.098   4.657  11.769
  437MPD2    H3 6681   2.000   0.077  11.826
  437MPD2     N 6682   2.060   0.015  12.274
  437MPD2    H5 6683   2.026   0.109  12.293
  437MPD2    N1 6684   2.195   4.482  11.932
  437MPD2    H7 6685   2.231   4.467  11.838
  438MPD2     C 6686   3.564   2.661  12.544
  438MPD2    C1 6687   3.574   2.780  12.611
  438MPD2    C2 6688   3.460   2.846  12.657
  438MPD2    C3 6689   3.338   2.796  12.621
  438MPD2    C4 6690   3.332   2.679  12.552
  438MPD2    C5 6691   3.445   2.612  12.524
  438MPD2     H 6692   3.464   2.945  12.701
  438MPD2    H1 6693   3.239   2.634  12.518
  438MPD2    H2 6694   3.646   2.605  12.500
  438MPD2    H3 6695   3.443   2.526  12.458
  438MPD2     N 6696   3.221   2.866  12.642
  438MPD2    H5 6697   3.136   2.821  12.608
  438MPD2    N1 6698   3.699   2.846  12.632
  438MPD2    H7 6699   3.694   2.940  12.670
  439MPD2     C 6700   2.008   4.358   8.438
  439MPD2    C1 6701   1.980   4.412   8.313
  439MPD2    C2 6702   2.090   4.444   8.236
  439MPD2    C3 6703   2.221   4.440   8.284
  439MPD2    C4 6704   2.248   4.373   8.403
  439MPD2    C5 6705   2.137   4.342   8.478
  439MPD2     H 6706   2.083   4.492   8.139
  439MPD2    H1 6707   2.347   4.361   8.445
  439MPD2    H2 6708   1.939   4.311   8.507
  439MPD2    H3 6709   2.162   4.286   8.567
  439MPD2     N 6710   2.325   4.512   8.216
  439MPD2    H5 6711   2.295   4.566   8.136
  439MPD2    N1 6712   1.855   4.421   8.256
  439MPD2    H7 6713   1.852   4.462   8.163
  440MPD2     C 6714   3.048   0.518   8.293
  440MPD2    C1 6715   3.072   0.393   8.337
  440MPD2    C2 6716   2.968   0.301   8.335
  440MPD2    C3 6717   2.840   0.346   8.300
  440MPD2    C4 6718   2.811   0.477   8.268
  440MPD2    C5 6719   2.921   0.564   8.263
  440MPD2     H 6720   2.984   0.195   8.356
  440MPD2    H1 6721   2.716   0.515   8.231
  440MPD2    H2 6722   3.128   0.588   8.278
  440MPD2    H3 6723   2.899   0.667   8.237
  440MPD2     N 6724   2.730   0.255   8.273
  440MPD2    H5 6725   2.642   0.298   8.247
  440MPD2    N1 6726   3.207   0.364   8.370
  440MPD2    H7 6727   3.276   0.438   8.363
  441MPD2     C 6728   2.864   0.201   7.711
  441MPD2    C1 6729   2.740   0.144   7.718
  441MPD2    C2 6730   2.659   0.169   7.605
  441MPD2    C3 6731   2.706   0.261   7.508
  441MPD2    C4 6732   2.825   0.321   7.523
  441MPD2    C5 6733   2.910   0.279   7.618
  441MPD2     H 6734   2.562   0.122   7.593
  441MPD2    H1 6735   2.857   0.399   7.454
  441MPD2    H2 6736   2.930   0.195   7.798
  441MPD2    H3 6737   3.004   0.333   7.628
  441MPD2     N 6738   2.614   0.305   7.407
  441MPD2    H5 6739   2.528   0.252   7.407
  441MPD2    N1 6740   2.700   0.084   7.846
  441MPD2    H7 6741   2.775   0.090   7.914
  442MPD2     C 6742   0.521   4.420  12.981
  442MPD2    C1 6743   0.508   4.332  13.089
  442MPD2    C2 6744   0.417   4.369  13.188
  442MPD2    C3 6745   0.337   4.482  13.168
  442MPD2    C4 6746   0.346   4.557  13.049
  442MPD2    C5 6747   0.436   4.518  12.951
  442MPD2     H 6748   0.401   4.310  13.277
  442MPD2    H1 6749   0.279   4.640  13.031
  442MPD2    H2 6750   0.594   4.398  12.904
  442MPD2    H3 6751   0.427   4.559  12.851
  442MPD2     N 6752   0.239   4.522  13.264
  442MPD2    H5 6753   0.184   4.606  13.249
  442MPD2    N1 6754   0.569   4.208  13.092
  442MPD2    H7 6755   0.612   4.182  13.004
  443MPD2     C 6756   1.498   3.336  10.627
  443MPD2    C1 6757   1.601   3.265  10.572
  443MPD2    C2 6758   1.615   3.129  10.612
  443MPD2    C3 6759   1.525   3.078  10.702
  443MPD2    C4 6760   1.420   3.152  10.749
  443MPD2    C5 6761   1.407   3.281  10.712
  443MPD2     H 6762   1.706   3.077  10.585
  443MPD2    H1 6763   1.334   3.109  10.799
  443MPD2    H2 6764   1.468   3.433  10.591
  443MPD2    H3 6765   1.322   3.341  10.742
  443MPD2     N 6766   1.535   2.948  10.759
  443MPD2    H5 6767   1.470   2.919  10.832
  443MPD2    N1 6768   1.698   3.329  10.487
  443MPD2    H7 6769   1.714   3.428  10.501
  444MPD2     C 6770   2.263   3.118  10.698
  444MPD2    C1 6771   2.131   3.128  10.662
  444MPD2    C2 6772   2.044   3.031  10.694
  444MPD2    C3 6773   2.086   2.915  10.754
  444MPD2    C4 6774   2.219   2.903  10.773
  444MPD2    C5 6775   2.304   3.003  10.739
  444MPD2     H 6776   1.940   3.045  10.665
  444MPD2    H1 6777   2.260   2.811  10.814
  444MPD2    H2 6778   2.335   3.197  10.679
  444MPD2    H3 6779   2.407   3.005  10.772
  444MPD2     N 6780   1.985   2.821  10.789
  444MPD2    H5 6781   1.889   2.835  10.757
  444MPD2    N1 6782   2.088   3.237  10.579
  444MPD2    H7 6783   1.999   3.220  10.534
  445MPD2     C 6784   2.570   3.024   9.931
  445MPD2    C1 6785   2.600   3.151   9.966
  445MPD2    C2 6786   2.494   3.233  10.000
  445MPD2    C3 6787   2.364   3.183  10.021
  445MPD2    C4 6788   2.337   3.054   9.977
  445MPD2    C5 6789   2.442   2.978   9.935
  445MPD2     H 6790   2.511   3.340  10.004
  445MPD2    H1 6791   2.237   3.012   9.978
  445MPD2    H2 6792   2.648   2.968   9.881
  445MPD2    H3 6793   2.431   2.879   9.892
  445MPD2     N 6794   2.265   3.265  10.072
  445MPD2    H5 6795   2.291   3.355  10.110
  445MPD2    N1 6796   2.728   3.190   9.935
  445MPD2    H7 6797   2.796   3.114   9.927
  446MPD2     C 6798   3.686   1.318  14.684
  446MPD2    C1 6799   3.543   1.322  14.703
  446MPD2    C2 6800   3.480   1.396  14.606
  446MPD2    C3 6801   3.538   1.453  14.494
  446MPD2    C4 6802   3.678   1.443  14.484
  446MPD2    C5 6803   3.747   1.372  14.566
  446MPD2     H 6804   3.378   1.433  14.615
  446MPD2    H1 6805   3.725   1.495  14.401
  446MPD2    H2 6806   3.743   1.258  14.754
  446MPD2    H3 6807   3.854   1.376  14.548
  446MPD2     N 6808   3.472   1.538  14.402
  446MPD2    H5 6809   3.524   1.605  14.345
  446MPD2    N1 6810   3.485   1.287  14.827
  446MPD2    H7 6811   3.547   1.253  14.900
  447MPD2     C 6812   3.281   1.910  14.783
  447MPD2    C1 6813   3.190   1.883  14.886
  447MPD2    C2 6814   3.206   1.770  14.974
  447MPD2    C3 6815   3.323   1.701  14.951
  447MPD2    C4 6816   3.402   1.726  14.843
  447MPD2    C5 6817   3.382   1.829  14.760
  447MPD2     H 6818   3.128   1.746  15.045
  447MPD2    H1 6819   3.496   1.673  14.833
  447MPD2    H2 6820   3.277   2.000  14.722
  447MPD2    H3 6821   3.448   1.845  14.676
  447MPD2     N 6822   3.364   1.591  15.026
  447MPD2    H5 6823   3.443   1.533  15.000
  447MPD2    N1 6824   3.070   1.956  14.906
  447MPD2    H7 6825   3.002   1.924  14.974
  448MPD2     C 6826   2.507   1.405  15.280
  448MPD2    C1 6827   2.572   1.429  15.160
  448MPD2    C2 6828   2.712   1.414  15.158
  448MPD2    C3 6829   2.784   1.353  15.263
  448MPD2    C4 6830   2.715   1.329  15.385
  448MPD2    C5 6831   2.576   1.360  15.391
  448MPD2     H 6832   2.774   1.432  15.071
  448MPD2    H1 6833   2.759   1.289  15.476
  448MPD2    H2 6834   2.399   1.411  15.291
  448MPD2    H3 6835   2.520   1.340  15.482
  448MPD2     N 6836   2.925   1.326  15.248
  448MPD2    H5 6837   2.972   1.310  15.337
  448MPD2    N1 6838   2.495   1.470  15.046
  448MPD2    H7 6839   2.394   1.473  15.057
  449MPD2     C 6840   0.477   4.410   8.587
  449MPD2    C1 6841   0.462   4.297   8.513
  449MPD2    C2 6842   0.431   4.179   8.576
  449MPD2    C3 6843   0.438   4.173   8.717
  449MPD2    C4 6844   0.463   4.282   8.796
  449MPD2    C5 6845   0.482   4.397   8.728
  449MPD2     H 6846   0.412   4.098   8.506
  449MPD2    H1 6847   0.459   4.285   8.904
  449MPD2    H2 6848   0.478   4.508   8.540
  449MPD2    H3 6849   0.468   4.487   8.787
  449MPD2     N 6850   0.394   4.057   8.788
  449MPD2    H5 6851   0.373   4.077   8.886
  449MPD2    N1 6852   0.445   4.295   8.373
  449MPD2    H7 6853   0.409   4.213   8.326
  450MPD2     C 6854   0.555   3.870   9.312
  450MPD2    C1 6855   0.452   3.802   9.247
  450MPD2    C2 6856   0.495   3.694   9.164
  450MPD2    C3 6857   0.622   3.661   9.153
  450MPD2    C4 6858   0.724   3.730   9.226
  450MPD2    C5 6859   0.687   3.833   9.311
  450MPD2     H 6860   0.423   3.639   9.106
  450MPD2    H1 6861   0.831   3.724   9.207
  450MPD2    H2 6862   0.537   3.951   9.382
  450MPD2    H3 6863   0.766   3.881   9.368
  450MPD2     N 6864   0.659   3.564   9.060
  450MPD2    H5 6865   0.574   3.532   9.014
  450MPD2    N1 6866   0.317   3.853   9.250
  450MPD2    H7 6867   0.300   3.919   9.325
  451MPD2     C 6868   3.464   3.164  12.332
  451MPD2    C1 6869   3.349   3.215  12.379
  451MPD2    C2 6870   3.335   3.265  12.503
  451MPD2    C3 6871   3.446   3.282  12.581
  451MPD2    C4 6872   3.565   3.217  12.542
  451MPD2    C5 6873   3.570   3.151  12.420
  451MPD2     H 6874   3.232   3.286  12.530
  451MPD2    H1 6875   3.654   3.201  12.603
  451MPD2    H2 6876   3.464   3.114  12.235
  451MPD2    H3 6877   3.658   3.092  12.394
  451MPD2     N 6878   3.443   3.345  12.709
  451MPD2    H5 6879   3.530   3.335  12.759
  451MPD2    N1 6880   3.227   3.213  12.301
  451MPD2    H7 6881   3.146   3.263  12.337
  452MPD2     C 6882   0.008   2.950   8.890
  452MPD2    C1 6883   0.035   2.881   9.005
  452MPD2    C2 6884   0.159   2.816   9.020
  452MPD2    C3 6885   0.253   2.817   8.913
  452MPD2    C4 6886   0.224   2.884   8.797
  452MPD2    C5 6887   0.108   2.962   8.796
  452MPD2     H 6888   0.189   2.762   9.109
  452MPD2    H1 6889   0.292   2.900   8.714
  452MPD2    H2 6890   4.711   3.011   8.893
  452MPD2    H3 6891   0.093   3.019   8.705
  452MPD2     N 6892   0.389   2.798   8.927
  452MPD2    H5 6893   0.447   2.836   8.852
  452MPD2    N1 6894   4.730   2.883   9.109
  452MPD2    H7 6895   4.666   2.962   9.107
  453MPD2     C 6896   2.340   0.991   7.517
  453MPD2    C1 6897   2.276   0.940   7.408
  453MPD2    C2 6898   2.172   1.012   7.348
  453MPD2    C3 6899   2.139   1.134   7.403
  453MPD2    C4 6900   2.195   1.181   7.520
  453MPD2    C5 6901   2.307   1.109   7.566
  453MPD2     H 6902   2.114   0.973   7.265
  453MPD2    H1 6903   2.167   1.269   7.577
  453MPD2    H2 6904   2.428   0.944   7.561
  453MPD2    H3 6905   2.371   1.139   7.648
  453MPD2     N 6906   2.033   1.212   7.353
  453MPD2    H5 6907   1.995   1.276   7.422
  453MPD2    N1 6908   2.323   0.814   7.365
  453MPD2    H7 6909   2.391   0.770   7.425
  454MPD2     C 6910   2.478   4.713  15.414
  454MPD2    C1 6911   2.513   4.689  15.283
  454MPD2    C2 6912   2.453   4.584  15.213
  454MPD2    C3 6913   2.358   4.508  15.281
  454MPD2    C4 6914   2.328   4.530  15.408
  454MPD2    C5 6915   2.391   4.631  15.472
  454MPD2     H 6916   2.490   4.543  15.119
  454MPD2    H1 6917   2.265   4.467  15.470
  454MPD2    H2 6918   2.529   4.784  15.478
  454MPD2    H3 6919   2.376   4.644  15.579
  454MPD2     N 6920   2.299   4.390  15.217
  454MPD2    H5 6921   2.234   4.344  15.279
  454MPD2    N1 6922   2.624   4.760  15.228
  454MPD2    H7 6923   2.682   0.010  15.298
  455MPD2     C 6924   3.310   0.180  15.352
  455MPD2    C1 6925   3.173   0.213  15.335
  455MPD2    C2 6926   3.131   0.324  15.401
  455MPD2    C3 6927   3.213   0.410  15.474
  455MPD2    C4 6928   3.345   0.381  15.479
  455MPD2    C5 6929   3.390   0.256  15.429
  455MPD2     H 6930   3.025   0.343  15.392
  455MPD2    H1 6931   3.417   0.442  15.533
  455MPD2    H2 6932   3.353   0.088  15.314
  455MPD2    H3 6933   3.492   0.221  15.445
  455MPD2     N 6934   3.171   0.539  15.518
  455MPD2    H5 6935   3.246   0.596  15.556
  455MPD2    N1 6936   3.078   0.150  15.252
  455MPD2    H7 6937   2.982   0.182  15.257
  456MPD2     C 6938   3.100   0.069  14.445
  456MPD2    C1 6939   3.003   0.137  14.517
  456MPD2    C2 6940   2.924   0.223  14.449
  456MPD2    C3 6941   2.944   0.249  14.316
  456MPD2    C4 6942   3.045   0.190  14.252
  456MPD2    C5 6943   3.116   0.097  14.313
  456MPD2     H 6944   2.843   0.281  14.492
  456MPD2    H1 6945   3.070   0.202  14.147
  456MPD2    H2 6946   3.171   0.003  14.493
  456MPD2    H3 6947   3.204   0.063  14.261
  456MPD2     N 6948   2.848   0.337  14.256
  456MPD2    H5 6949   2.769   0.369  14.311
  456MPD2    N1 6950   2.988   0.103  14.656
  456MPD2    H7 6951   3.058   0.042  14.697
  457MPD2     C 6952   4.541   4.273  12.566
  457MPD2    C1 6953   4.552   4.229  12.698
  457MPD2    C2 6954   4.652   4.131  12.722
  457MPD2    C3 6955   4.740   4.077  12.632
  457MPD2    C4 6956   4.727   4.128  12.501
  457MPD2    C5 6957   4.629   4.225  12.473
  457MPD2     H 6958   4.667   4.099  12.825
  457MPD2    H1 6959   4.793   4.098  12.420
  457MPD2    H2 6960   4.484   4.359  12.532
  457MPD2    H3 6961   4.619   4.254  12.369
  457MPD2     N 6962   0.028   3.971  12.669
  457MPD2    H5 6963   0.019   3.932  12.762
  457MPD2    N1 6964   4.460   4.272  12.795
  457MPD2    H7 6965   4.409   4.357  12.775
  458MPD2     C 6966   0.299   3.454  13.422
  458MPD2    C1 6967   0.190   3.427  13.340
  458MPD2    C2 6968   0.191   3.479  13.210
  458MPD2    C3 6969   0.288   3.566  13.173
  458MPD2    C4 6970   0.382   3.613  13.258
  458MPD2    C5 6971   0.385   3.548  13.378
  458MPD2     H 6972   0.113   3.455  13.139
  458MPD2    H1 6973   0.464   3.676  13.225
  458MPD2    H2 6974   0.320   3.404  13.515
  458MPD2    H3 6975   0.477   3.578  13.427
  458MPD2     N 6976   0.292   3.596  13.041
  458MPD2    H5 6977   0.249   3.523  12.985
  458MPD2    N1 6978   0.088   3.335  13.368
  458MPD2    H7 6979   0.021   3.317  13.294
  459MPD2     C 6980   0.086   3.491  12.280
  459MPD2    C1 6981   0.133   3.467  12.406
  459MPD2    C2 6982   0.041   3.444  12.510
  459MPD2    C3 6983   4.695   3.447  12.490
  459MPD2    C4 6984   4.650   3.476  12.362
  459MPD2    C5 6985   4.744   3.506  12.264
  459MPD2     H 6986   0.082   3.423  12.608
  459MPD2    H1 6987   4.546   3.483  12.333
  459MPD2    H2 6988   0.150   3.505  12.194
  459MPD2    H3 6989   4.714   3.522  12.161
  459MPD2     N 6990   4.600   3.432  12.601
  459MPD2    H5 6991   4.503   3.427  12.572
  459MPD2    N1 6992   0.273   3.457  12.433
  459MPD2    H7 6993   0.330   3.456  12.349
  460MPD2     C 6994   1.300   2.402  10.014
  460MPD2    C1 6995   1.302   2.314  10.119
  460MPD2    C2 6996   1.188   2.238  10.144
  460MPD2    C3 6997   1.071   2.253  10.065
  460MPD2    C4 6998   1.076   2.342   9.958
  460MPD2    C5 6999   1.184   2.410   9.941
  460MPD2     H 7000   1.200   2.160  10.218
  460MPD2    H1 7001   0.992   2.348   9.889
  460MPD2    H2 7002   1.382   2.468   9.990
  460MPD2    H3 7003   1.176   2.474   9.854
  460MPD2     N 7004   0.949   2.190  10.088
  460MPD2    H5 7005   0.866   2.233  10.047
  460MPD2    N1 7006   1.415   2.289  10.203
  460MPD2    H7 7007   1.417   2.218  10.275
  461MPD2     C 7008   0.408   1.689  10.519
  461MPD2    C1 7009   0.347   1.816  10.513
  461MPD2    C2 7010   0.220   1.821  10.575
  461MPD2    C3 7011   0.171   1.719  10.650
  461MPD2    C4 7012   0.233   1.604  10.659
  461MPD2    C5 7013   0.353   1.587  10.590
  461MPD2     H 7014   0.174   1.919  10.570
  461MPD2    H1 7015   0.190   1.522  10.715
  461MPD2    H2 7016   0.500   1.663  10.468
  461MPD2    H3 7017   0.404   1.494  10.611
  461MPD2     N 7018   0.058   1.734  10.734
  461MPD2    H5 7019   0.059   1.669  10.811
  461MPD2    N1 7020   0.406   1.920  10.448
  461MPD2    H7 7021   0.357   2.008  10.439
  462MPD2     C 7022   4.536   0.843   9.132
  462MPD2    C1 7023   4.651   0.909   9.100
  462MPD2    C2 7024   4.674   0.954   8.975
  462MPD2    C3 7025   4.585   0.932   8.873
  462MPD2    C4 7026   4.463   0.875   8.908
  462MPD2    C5 7027   4.441   0.825   9.033
  462MPD2     H 7028   4.754   1.021   8.946
  462MPD2    H1 7029   4.388   0.846   8.835
  462MPD2    H2 7030   4.511   0.826   9.236
  462MPD2    H3 7031   4.350   0.768   9.046
  462MPD2     N 7032   4.609   0.958   8.736
  462MPD2    H5 7033   4.707   0.955   8.710
  462MPD2    N1 7034   4.740   0.938   9.201
  462MPD2    H7 7035   4.704   0.917   9.293
  463MPD2     C 7036   1.311   0.947  14.994
  463MPD2    C1 7037   1.231   0.895  14.890
  463MPD2    C2 7038   1.095   0.881  14.918
  463MPD2    C3 7039   1.044   0.912  15.046
  463MPD2    C4 7040   1.129   0.957  15.152
  463MPD2    C5 7041   1.259   0.979  15.116
  463MPD2     H 7042   1.018   0.847  14.849
  463MPD2    H1 7043   1.090   0.996  15.245
  463MPD2    H2 7044   1.419   0.951  14.984
  463MPD2    H3 7045   1.325   1.023  15.191
  463MPD2     N 7046   0.903   0.888  15.068
  463MPD2    H5 7047   0.851   0.843  14.994
  463MPD2    N1 7048   1.278   0.863  14.762
  463MPD2    H7 7049   1.203   0.849  14.695
  464MPD2     C 7050   2.048   1.264  14.369
  464MPD2    C1 7051   1.914   1.308  14.347
  464MPD2    C2 7052   1.808   1.219  14.329
  464MPD2    C3 7053   1.835   1.085  14.350
  464MPD2    C4 7054   1.964   1.040  14.383
  464MPD2    C5 7055   2.065   1.129  14.389
  464MPD2     H 7056   1.706   1.254  14.313
  464MPD2    H1 7057   1.986   0.934  14.393
  464MPD2    H2 7058   2.134   1.327  14.388
  464MPD2    H3 7059   2.167   1.096  14.402
  464MPD2     N 7060   1.735   0.989  14.366
  464MPD2    H5 7061   1.771   0.899  14.395
  464MPD2    N1 7062   1.897   1.446  14.351
  464MPD2    H7 7063   1.978   1.503  14.370
  465MPD2     C 7064   1.530   1.626  12.534
  465MPD2    C1 7065   1.621   1.539  12.587
  465MPD2    C2 7066   1.750   1.574  12.585
  465MPD2    C3 7067   1.782   1.696  12.541
  465MPD2    C4 7068   1.694   1.781  12.488
  465MPD2    C5 7069   1.564   1.750  12.490
  465MPD2     H 7070   1.828   1.506  12.617
  465MPD2    H1 7071   1.714   1.886  12.469
  465MPD2    H2 7072   1.426   1.594  12.527
  465MPD2    H3 7073   1.490   1.826  12.466
  465MPD2     N 7074   1.913   1.734  12.573
  465MPD2    H5 7075   1.983   1.661  12.570
  465MPD2    N1 7076   1.580   1.418  12.645
  465MPD2    H7 7077   1.480   1.407  12.659
  466MPD2     C 7078   3.208   0.317  10.782
  466MPD2    C1 7079   3.164   0.361  10.910
  466MPD2    C2 7080   3.245   0.340  11.016
  466MPD2    C3 7081   3.366   0.267  11.008
  466MPD2    C4 7082   3.395   0.204  10.890
  466MPD2    C5 7083   3.325   0.237  10.778
  466MPD2     H 7084   3.207   0.366  11.114
  466MPD2    H1 7085   3.485   0.146  10.873
  466MPD2    H2 7086   3.145   0.317  10.693
  466MPD2    H3 7087   3.359   0.186  10.688
  466MPD2     N 7088   3.453   0.238  11.118
  466MPD2    H5 7089   3.521   0.164  11.107
  466MPD2    N1 7090   3.033   0.413  10.933
  466MPD2    H7 7091   3.005   0.429  11.029
  467MPD2     C 7092   2.460   4.446  10.616
  467MPD2    C1 7093   2.574   4.517  10.587
  467MPD2    C2 7094   2.604   4.632  10.653
  467MPD2    C3 7095   2.522   4.686  10.745
  467MPD2    C4 7096   2.409   4.614  10.780
  467MPD2    C5 7097   2.382   4.493  10.718
  467MPD2     H 7098   2.706   4.664  10.633
  467MPD2    H1 7099   2.357   4.647  10.869
  467MPD2    H2 7100   2.434   4.354  10.565
  467MPD2    H3 7101   2.295   4.437  10.749
  467MPD2     N 7102   2.552   0.019  10.800
  467MPD2    H5 7103   2.472   0.056  10.852
  467MPD2    N1 7104   2.661   4.483  10.482
  467MPD2    H7 7105   2.752   4.528  10.479
  468MPD2     C 7106   2.219   4.600   8.855
  468MPD2    C1 7107   2.293   4.652   8.747
  468MPD2    C2 7108   2.383   4.574   8.669
  468MPD2    C3 7109   2.391   4.441   8.712
  468MPD2    C4 7110   2.313   4.386   8.814
  468MPD2    C5 7111   2.222   4.464   8.882
  468MPD2     H 7112   2.437   4.602   8.579
  468MPD2    H1 7113   2.319   4.283   8.848
  468MPD2    H2 7114   2.156   4.662   8.917
  468MPD2    H3 7115   2.156   4.417   8.955
  468MPD2     N 7116   2.488   4.362   8.648
  468MPD2    H5 7117   2.539   4.396   8.567
  468MPD2    N1 7118   2.283   4.789   8.720
  468MPD2    H7 7119   2.215   0.050   8.773
  469MPD2     C 7120   3.243   4.511   8.415
  469MPD2    C1 7121   3.210   4.425   8.507
  469MPD2    C2 7122   3.300   4.392   8.600
  469MPD2    C3 7123   3.427   4.439   8.593
  469MPD2    C4 7124   3.453   4.539   8.509
  469MPD2    C5 7125   3.363   4.573   8.418
  469MPD2     H 7126   3.269   4.330   8.683
  469MPD2    H1 7127   3.550   4.585   8.501
  469MPD2    H2 7128   3.174   4.530   8.334
  469MPD2    H3 7129   3.377   4.647   8.340
  469MPD2     N 7130   3.517   4.396   8.694
  469MPD2    H5 7131   3.479   4.320   8.751
  469MPD2    N1 7132   3.079   4.374   8.506
  469MPD2    H7 7133   3.015   4.426   8.445
  470MPD2     C 7134   1.504   1.256  12.371
  470MPD2    C1 7135   1.620   1.292  12.316
  470MPD2    C2 7136   1.712   1.195  12.299
  470MPD2    C3 7137   1.689   1.060  12.339
  470MPD2    C4 7138   1.567   1.031  12.392
  470MPD2    C5 7139   1.479   1.130  12.407
  470MPD2     H 7140   1.804   1.219  12.248
  470MPD2    H1 7141   1.534   0.932  12.422
  470MPD2    H2 7142   1.426   1.330  12.390
  470MPD2    H3 7143   1.392   1.109  12.467
  470MPD2     N 7144   1.787   0.961  12.325
  470MPD2    H5 7145   1.882   0.986  12.297
  470MPD2    N1 7146   1.643   1.425  12.284
  470MPD2    H7 7147   1.561   1.482  12.268
  471MPD2     C 7148   1.263   1.847  11.889
  471MPD2    C1 7149   1.382   1.908  11.864
  471MPD2    C2 7150   1.391   1.971  11.741
  471MPD2    C3 7151   1.293   1.957  11.641
  471MPD2    C4 7152   1.172   1.894  11.662
  471MPD2    C5 7153   1.161   1.845  11.793
  471MPD2     H 7154   1.484   2.026  11.734
  471MPD2    H1 7155   1.090   1.865  11.598
  471MPD2    H2 7156   1.243   1.775  11.967
  471MPD2    H3 7157   1.079   1.777  11.816
  471MPD2     N 7158   1.315   1.993  11.507
  471MPD2    H5 7159   1.248   1.952  11.442
  471MPD2    N1 7160   1.492   1.905  11.948
  471MPD2    H7 7161   1.571   1.950  11.904
  472MPD2     C 7162   2.629   0.555   9.853
  472MPD2    C1 7163   2.748   0.526   9.799
  472MPD2    C2 7164   2.847   0.627   9.789
  472MPD2    C3 7165   2.832   0.743   9.866
  472MPD2    C4 7166   2.713   0.766   9.933
  472MPD2    C5 7167   2.612   0.670   9.926
  472MPD2     H 7168   2.939   0.608   9.735
  472MPD2    H1 7169   2.694   0.863   9.976
  472MPD2    H2 7170   2.552   0.479   9.857
  472MPD2    H3 7171   2.526   0.696   9.986
  472MPD2     N 7172   2.931   0.843   9.880
  472MPD2    H5 7173   2.912   0.910   9.954
  472MPD2    N1 7174   2.791   0.407   9.741
  472MPD2    H7 7175   2.877   0.412   9.687
  473MPD2     C 7176   3.655   0.815   9.787
  473MPD2    C1 7177   3.562   0.922   9.783
  473MPD2    C2 7178   3.538   0.988   9.903
  473MPD2    C3 7179   3.581   0.940  10.022
  473MPD2    C4 7180   3.666   0.828  10.026
  473MPD2    C5 7181   3.706   0.771   9.909
  473MPD2     H 7182   3.503   1.091   9.896
  473MPD2    H1 7183   3.728   0.798  10.110
  473MPD2    H2 7184   3.666   0.765   9.692
  473MPD2    H3 7185   3.784   0.697   9.903
  473MPD2     N 7186   3.554   1.006  10.141
  473MPD2    H5 7187   3.609   0.967  10.217
  473MPD2    N1 7188   3.524   0.974   9.659
  473MPD2    H7 7189   3.584   0.944   9.583
  474MPD2     C 7190   1.110   4.655  14.731
  474MPD2    C1 7191   1.188   4.587  14.641
  474MPD2    C2 7192   1.160   4.600  14.508
  474MPD2    C3 7193   1.063   4.702  14.478
  474MPD2    C4 7194   0.993   4.768  14.577
  474MPD2    C5 7195   1.003   4.736  14.704
  474MPD2     H 7196   1.219   4.552  14.431
  474MPD2    H1 7197   0.917   0.048  14.553
  474MPD2    H2 7198   1.142   4.632  14.832
  474MPD2    H3 7199   0.943   4.783  14.780
  474MPD2     N 7200   1.034   4.745  14.348
  474MPD2    H5 7201   0.967   0.028  14.339
  474MPD2    N1 7202   1.285   4.504  14.689
  474MPD2    H7 7203   1.293   4.499  14.790
  475MPD2     C 7204   2.065   2.527   9.923
  475MPD2    C1 7205   1.949   2.470   9.883
  475MPD2    C2 7206   1.831   2.529   9.918
  475MPD2    C3 7207   1.824   2.646   9.988
  475MPD2    C4 7208   1.937   2.714  10.018
  475MPD2    C5 7209   2.059   2.651   9.985
  475MPD2     H 7210   1.737   2.484   9.890
  475MPD2    H1 7211   1.942   2.802  10.080
  475MPD2    H2 7212   2.168   2.506   9.895
  475MPD2    H3 7213   2.152   2.695  10.020
  475MPD2     N 7214   1.703   2.700  10.022
  475MPD2    H5 7215   1.629   2.631  10.014
  475MPD2    N1 7216   1.968   2.359   9.799
  475MPD2    H7 7217   2.062   2.350   9.763
  476MPD2     C 7218   2.023   1.579   9.848
  476MPD2    C1 7219   2.017   1.716   9.875
  476MPD2    C2 7220   1.963   1.750   9.997
  476MPD2    C3 7221   1.908   1.665  10.079
  476MPD2    C4 7222   1.919   1.530  10.056
  476MPD2    C5 7223   1.981   1.487   9.940
  476MPD2     H 7224   1.952   1.857  10.014
  476MPD2    H1 7225   1.879   1.460  10.129
  476MPD2    H2 7226   2.066   1.544   9.755
  476MPD2    H3 7227   1.995   1.381   9.918
  476MPD2     N 7228   1.861   1.709  10.206
  476MPD2    H5 7229   1.900   1.791  10.251
  476MPD2    N1 7230   2.069   1.805   9.780
  476MPD2    H7 7231   2.123   1.757   9.708
  477MPD2     C 7232   2.114   3.863  12.354
  477MPD2    C1 7233   2.099   3.988  12.303
  477MPD2    C2 7234   2.008   4.074  12.359
  477MPD2    C3 7235   1.929   4.036  12.465
  477MPD2    C4 7236   1.945   3.907  12.517
  477MPD2    C5 7237   2.043   3.826  12.465
  477MPD2     H 7238   1.985   4.172  12.318
  477MPD2    H1 7239   1.886   3.861  12.595
  477MPD2    H2 7240   2.191   3.792  12.327
  477MPD2    H3 7241   2.063   3.734  12.520
  477MPD2     N 7242   1.848   4.139  12.518
  477MPD2    H5 7243   1.824   4.218  12.461
  477MPD2    N1 7244   2.186   4.035  12.201
  477MPD2    H7 7245   2.163   4.126  12.164
  478MPD2     C 7246   1.893   1.852  13.027
  478MPD2    C1 7247   1.949   1.827  13.155
  478MPD2    C2 7248   2.072   1.875  13.186
  478MPD2    C3 7249   2.130   1.978  13.111
  478MPD2    C4 7250   2.075   2.008  12.987
  478MPD2    C5 7251   1.960   1.942  12.948
  478MPD2     H 7252   2.122   1.833  13.273
  478MPD2    H1 7253   2.126   2.077  12.922
  478MPD2    H2 7254   1.800   1.808  12.994
  478MPD2    H3 7255   1.935   1.958  12.844
  478MPD2     N 7256   2.241   2.054  13.147
  478MPD2    H5 7257   2.278   2.124  13.083
  478MPD2    N1 7258   1.891   1.750  13.255
  478MPD2    H7 7259   1.943   1.698  13.324
  479MPD2     C 7260   2.196   2.795  13.165
  479MPD2    C1 7261   2.252   2.755  13.280
  479MPD2    C2 7262   2.319   2.855  13.352
  479MPD2    C3 7263   2.339   2.984  13.308
  479MPD2    C4 7264   2.278   3.023  13.189
  479MPD2    C5 7265   2.214   2.923  13.117
  479MPD2     H 7266   2.369   2.827  13.444
  479MPD2    H1 7267   2.289   3.119  13.140
  479MPD2    H2 7268   2.133   2.733  13.102
  479MPD2    H3 7269   2.172   2.956  13.023
  479MPD2     N 7270   2.414   3.086  13.372
  479MPD2    H5 7271   2.439   3.167  13.316
  479MPD2    N1 7272   2.245   2.620  13.322
  479MPD2    H7 7273   2.264   2.597  13.419
  480MPD2     C 7274   3.343   3.386   8.085
  480MPD2    C1 7275   3.228   3.326   8.043
  480MPD2    C2 7276   3.178   3.214   8.115
  480MPD2    C3 7277   3.243   3.173   8.230
  480MPD2    C4 7278   3.360   3.237   8.276
  480MPD2    C5 7279   3.405   3.345   8.194
  480MPD2     H 7280   3.083   3.164   8.095
  480MPD2    H1 7281   3.419   3.205   8.361
  480MPD2    H2 7282   3.378   3.477   8.038
  480MPD2    H3 7283   3.492   3.401   8.228
  480MPD2     N 7284   3.190   3.070   8.311
  480MPD2    H5 7285   3.247   3.046   8.391
  480MPD2    N1 7286   3.162   3.381   7.934
  480MPD2    H7 7287   3.217   3.446   7.880
  481MPD2     C 7288   2.655   0.077  14.039
  481MPD2    C1 7289   2.778   0.015  14.005
  481MPD2    C2 7290   2.837   4.723  14.102
  481MPD2    C3 7291   2.770   4.694  14.221
  481MPD2    C4 7292   2.651   4.757  14.248
  481MPD2    C5 7293   2.590   0.046  14.157
  481MPD2     H 7294   2.931   4.673  14.081
  481MPD2    H1 7295   2.603   4.733  14.342
  481MPD2    H2 7296   2.608   0.131  13.958
  481MPD2    H3 7297   2.488   0.078  14.174
  481MPD2     N 7298   2.824   4.600  14.316
  481MPD2    H5 7299   2.778   4.596  14.407
  481MPD2    N1 7300   2.832   0.045  13.881
  481MPD2    H7 7301   2.780   0.104  13.817
  482MPD2     C 7302   2.507   4.779  13.499
  482MPD2    C1 7303   2.620   0.063  13.484
  482MPD2    C2 7304   2.631   0.180  13.553
  482MPD2    C3 7305   2.540   0.212  13.658
  482MPD2    C4 7306   2.421   0.132  13.668
  482MPD2    C5 7307   2.408   0.023  13.588
  482MPD2     H 7308   2.716   0.245  13.535
  482MPD2    H1 7309   2.351   0.136  13.752
  482MPD2    H2 7310   2.495   4.684  13.449
  482MPD2    H3 7311   2.327   4.747  13.609
  482MPD2     N 7312   2.559   0.320  13.743
  482MPD2    H5 7313   2.643   0.375  13.725
  482MPD2    N1 7314   2.706   4.793  13.393
  482MPD2    H7 7315   2.662   4.733  13.323
  483MPD2     C 7316   3.544   0.665  13.620
  483MPD2    C1 7317   3.517   0.603  13.501
  483MPD2    C2 7318   3.427   0.496  13.510
  483MPD2    C3 7319   3.376   0.439  13.622
  483MPD2    C4 7320   3.409   0.500  13.746
  483MPD2    C5 7321   3.485   0.614  13.738
  483MPD2     H 7322   3.381   0.465  13.417
  483MPD2    H1 7323   3.377   0.466  13.844
  483MPD2    H2 7324   3.612   0.748  13.626
  483MPD2    H3 7325   3.484   0.684  13.821
  483MPD2     N 7326   3.287   0.329  13.625
  483MPD2    H5 7327   3.238   0.314  13.713
  483MPD2    N1 7328   3.588   0.658  13.383
  483MPD2    H7 7329   3.644   0.740  13.405
  484MPD2     C 7330   1.419   2.277  10.705
  484MPD2    C1 7331   1.334   2.202  10.784
  484MPD2    C2 7332   1.201   2.200  10.753
  484MPD2    C3 7333   1.159   2.246  10.632
  484MPD2    C4 7334   1.245   2.315  10.554
  484MPD2    C5 7335   1.373   2.332  10.589
  484MPD2     H 7336   1.128   2.164  10.826
  484MPD2    H1 7337   1.209   2.363  10.464
  484MPD2    H2 7338   1.524   2.294  10.726
  484MPD2    H3 7339   1.438   2.393  10.528
  484MPD2     N 7340   1.026   2.245  10.583
  484MPD2    H5 7341   1.010   2.288  10.493
  484MPD2    N1 7342   1.393   2.134  10.893
  484MPD2    H7 7343   1.493   2.151  10.897
  485MPD2     C 7344   3.844   2.025  11.651
  485MPD2    C1 7345   3.912   1.937  11.568
  485MPD2    C2 7346   3.847   1.877  11.462
  485MPD2    C3 7347   3.710   1.878  11.460
  485MPD2    C4 7348   3.641   1.962  11.543
  485MPD2    C5 7349   3.710   2.036  11.637
  485MPD2     H 7350   3.892   1.806  11.394
  485MPD2    H1 7351   3.533   1.965  11.536
  485MPD2    H2 7352   3.890   2.083  11.730
  485MPD2    H3 7353   3.651   2.096  11.705
  485MPD2     N 7354   3.635   1.785  11.384
  485MPD2    H5 7355   3.542   1.822  11.365
  485MPD2    N1 7356   4.049   1.921  11.590
  485MPD2    H7 7357   4.093   1.963  11.672
  486MPD2     C 7358   3.802   1.579  12.044
  486MPD2    C1 7359   3.834   1.666  11.943
  486MPD2    C2 7360   3.876   1.798  11.972
  486MPD2    C3 7361   3.869   1.847  12.103
  486MPD2    C4 7362   3.822   1.762  12.200
  486MPD2    C5 7363   3.787   1.630  12.170
  486MPD2     H 7364   3.901   1.860  11.886
  486MPD2    H1 7365   3.822   1.792  12.304
  486MPD2    H2 7366   3.771   1.476  12.029
  486MPD2    H3 7367   3.760   1.562  12.250
  486MPD2     N 7368   3.911   1.978  12.124
  486MPD2    H5 7369   3.963   2.022  12.049
  486MPD2    N1 7370   3.837   1.626  11.812
  486MPD2    H7 7371   3.869   1.691  11.741
  487MPD2     C 7372   1.891   4.422   7.668
  487MPD2    C1 7373   1.922   4.442   7.536
  487MPD2    C2 7374   2.001   4.360   7.460
  487MPD2    C3 7375   2.054   4.253   7.523
  487MPD2    C4 7376   2.030   4.231   7.659
  487MPD2    C5 7377   1.949   4.319   7.736
  487MPD2     H 7378   2.027   4.392   7.360
  487MPD2    H1 7379   2.065   4.148   7.719
  487MPD2    H2 7380   1.828   4.487   7.728
  487MPD2    H3 7381   1.938   4.304   7.843
  487MPD2     N 7382   2.144   4.165   7.453
  487MPD2    H5 7383   2.179   4.199   7.364
  487MPD2    N1 7384   1.859   4.556   7.490
  487MPD2    H7 7385   1.820   4.614   7.563
  488MPD2     C 7386   2.573   3.575   7.825
  488MPD2    C1 7387   2.645   3.668   7.754
  488MPD2    C2 7388   2.765   3.708   7.810
  488MPD2    C3 7389   2.813   3.655   7.923
  488MPD2    C4 7390   2.749   3.549   7.984
  488MPD2    C5 7391   2.624   3.517   7.932
  488MPD2     H 7392   2.807   3.799   7.767
  488MPD2    H1 7393   2.797   3.486   8.057
  488MPD2    H2 7394   2.478   3.540   7.786
  488MPD2    H3 7395   2.568   3.434   7.973
  488MPD2     N 7396   2.932   3.694   7.989
  488MPD2    H5 7397   2.950   3.658   8.082
  488MPD2    N1 7398   2.576   3.727   7.651
  488MPD2    H7 7399   2.479   3.697   7.643
  489MPD2     C 7400   1.006   2.659  11.615
  489MPD2    C1 7401   0.996   2.797  11.586
  489MPD2    C2 7402   0.877   2.863  11.576
  489MPD2    C3 7403   0.763   2.779  11.575
  489MPD2    C4 7404   0.775   2.643  11.597
  489MPD2    C5 7405   0.896   2.582  11.629
  489MPD2     H 7406   0.862   2.967  11.553
  489MPD2    H1 7407   0.689   2.579  11.614
  489MPD2    H2 7408   1.093   2.595  11.631
  489MPD2    H3 7409   0.891   2.474  11.643
  489MPD2     N 7410   0.635   2.832  11.570
  489MPD2    H5 7411   0.628   2.931  11.548
  489MPD2    N1 7412   1.114   2.869  11.573
  489MPD2    H7 7413   1.124   2.959  11.619
  490MPD2     C 7414   3.493   3.042  13.809
  490MPD2    C1 7415   3.571   3.109  13.892
  490MPD2    C2 7416   3.634   3.226  13.846
  490MPD2    C3 7417   3.622   3.262  13.718
  490MPD2    C4 7418   3.528   3.201  13.641
  490MPD2    C5 7419   3.464   3.094  13.689
  490MPD2     H 7420   3.710   3.271  13.909
  490MPD2    H1 7421   3.497   3.231  13.542
  490MPD2    H2 7422   3.441   2.952  13.839
  490MPD2    H3 7423   3.400   3.044  13.616
  490MPD2     N 7424   3.689   3.383  13.689
  490MPD2    H5 7425   3.721   3.441  13.766
  490MPD2    N1 7426   3.594   3.060  14.020
  490MPD2    H7 7427   3.558   2.971  14.054
  491MPD2     C 7428   3.705   3.893  12.826
  491MPD2    C1 7429   3.632   3.917  12.938
  491MPD2    C2 7430   3.605   3.817  13.024
  491MPD2    C3 7431   3.645   3.687  13.008
  491MPD2    C4 7432   3.719   3.662  12.891
  491MPD2    C5 7433   3.754   3.765  12.808
  491MPD2     H 7434   3.545   3.832  13.112
  491MPD2    H1 7435   3.764   3.566  12.868
  491MPD2    H2 7436   3.734   3.969  12.755
  491MPD2    H3 7437   3.823   3.745  12.727
  491MPD2     N 7438   3.611   3.581  13.101
  491MPD2    H5 7439   3.557   3.617  13.179
  491MPD2    N1 7440   3.573   4.044  12.964
  491MPD2    H7 7441   3.527   4.052  13.055
  492MPD2     C 7442   0.592   1.794  12.287
  492MPD2    C1 7443   0.668   1.696  12.222
  492MPD2    C2 7444   0.667   1.694  12.085
  492MPD2    C3 7445   0.587   1.778  12.013
  492MPD2    C4 7446   0.522   1.878  12.078
  492MPD2    C5 7447   0.544   1.891  12.211
  492MPD2     H 7448   0.720   1.617  12.030
  492MPD2    H1 7449   0.459   1.956  12.036
  492MPD2    H2 7450   0.597   1.806  12.394
  492MPD2    H3 7451   0.502   1.977  12.262
  492MPD2     N 7452   0.593   1.778  11.875
  492MPD2    H5 7453   0.660   1.710  11.838
  492MPD2    N1 7454   0.738   1.595  12.282
  492MPD2    H7 7455   0.790   1.524  12.231
  493MPD2     C 7456   1.250   1.738  12.725
  493MPD2    C1 7457   1.198   1.728  12.598
  493MPD2    C2 7458   1.203   1.850  12.525
  493MPD2    C3 7459   1.265   1.968  12.573
  493MPD2    C4 7460   1.308   1.972  12.703
  493MPD2    C5 7461   1.299   1.860  12.775
  493MPD2     H 7462   1.154   1.848  12.429
  493MPD2    H1 7463   1.346   2.056  12.760
  493MPD2    H2 7464   1.229   1.656  12.793
  493MPD2    H3 7465   1.333   1.872  12.877
  493MPD2     N 7466   1.289   2.074  12.482
  493MPD2    H5 7467   1.269   2.058  12.384
  493MPD2    N1 7468   1.130   1.621  12.545
  493MPD2    H7 7469   1.070   1.639  12.465
  494MPD2     C 7470   3.204   2.560  11.015
  494MPD2    C1 7471   3.255   2.455  11.090
  494MPD2    C2 7472   3.388   2.430  11.073
  494MPD2    C3 7473   3.472   2.502  10.991
  494MPD2    C4 7474   3.413   2.588  10.898
  494MPD2    C5 7475   3.280   2.624  10.919
  494MPD2     H 7476   3.427   2.360  11.147
  494MPD2    H1 7477   3.466   2.638  10.817
  494MPD2    H2 7478   3.101   2.594  11.023
  494MPD2    H3 7479   3.232   2.699  10.856
  494MPD2     N 7480   3.611   2.482  11.006
  494MPD2    H5 7481   3.633   2.432  11.092
  494MPD2    N1 7482   3.188   2.391  11.200
  494MPD2    H7 7483   3.238   2.327  11.260
  495MPD2     C 7484   2.618   1.664  11.099
  495MPD2    C1 7485   2.644   1.634  11.231
  495MPD2    C2 7486   2.706   1.731  11.312
  495MPD2    C3 7487   2.737   1.851  11.263
  495MPD2    C4 7488   2.696   1.873  11.134
  495MPD2    C5 7489   2.639   1.784  11.051
  495MPD2     H 7490   2.747   1.708  11.410
  495MPD2    H1 7491   2.714   1.970  11.088
  495MPD2    H2 7492   2.571   1.597  11.028
  495MPD2    H3 7493   2.622   1.809  10.947
  495MPD2     N 7494   2.809   1.943  11.341
  495MPD2    H5 7495   2.821   1.924  11.440
  495MPD2    N1 7496   2.629   1.503  11.286
  495MPD2    H7 7497   2.677   1.499  11.376
  496MPD2     C 7498   2.663   0.976   9.472
  496MPD2    C1 7499   2.561   1.068   9.453
  496MPD2    C2 7500   2.522   1.152   9.555
  496MPD2    C3 7501   2.592   1.165   9.677
  496MPD2    C4 7502   2.710   1.089   9.686
  496MPD2    C5 7503   2.740   0.997   9.589
  496MPD2     H 7504   2.445   1.228   9.542
  496MPD2    H1 7505   2.770   1.103   9.775
  496MPD2    H2 7506   2.699   0.907   9.397
  496MPD2    H3 7507   2.831   0.940   9.600
  496MPD2     N 7508   2.553   1.267   9.768
  496MPD2    H5 7509   2.479   1.333   9.742
  496MPD2    N1 7510   2.488   1.069   9.333
  496MPD2    H7 7511   2.416   1.140   9.331
  497MPD2     C 7512   4.471   1.757   9.226
  497MPD2    C1 7513   4.481   1.668   9.118
  497MPD2    C2 7514   4.378   1.571   9.126
  497MPD2    C3 7515   4.277   1.557   9.226
  497MPD2    C4 7516   4.271   1.643   9.328
  497MPD2    C5 7517   4.371   1.742   9.328
  497MPD2     H 7518   4.371   1.499   9.046
  497MPD2    H1 7519   4.194   1.639   9.405
  497MPD2    H2 7520   4.541   1.839   9.225
  497MPD2    H3 7521   4.356   1.824   9.397
  497MPD2     N 7522   4.208   1.438   9.223
  497MPD2    H5 7523   4.245   1.369   9.158
  497MPD2    N1 7524   4.576   1.699   9.014
  497MPD2    H7 7525   4.641   1.775   9.032
  498MPD2     C 7526   3.640   1.316   9.718
  498MPD2    C1 7527   3.754   1.234   9.725
  498MPD2    C2 7528   3.813   1.213   9.849
  498MPD2    C3 7529   3.778   1.292   9.960
  498MPD2    C4 7530   3.668   1.381   9.950
  498MPD2    C5 7531   3.602   1.380   9.828
  498MPD2     H 7532   3.891   1.140   9.862
  498MPD2    H1 7533   3.615   1.425  10.034
  498MPD2    H2 7534   3.594   1.338   9.623
  498MPD2    H3 7535   3.508   1.432   9.818
  498MPD2     N 7536   3.873   1.311  10.059
  498MPD2    H5 7537   3.951   1.246  10.048
  498MPD2    N1 7538   3.809   1.184   9.604
  498MPD2    H7 7539   3.772   1.218   9.516
  499MPD2     C 7540   4.557   1.457   9.572
  499MPD2    C1 7541   4.450   1.384   9.627
  499MPD2    C2 7542   4.394   1.284   9.556
  499MPD2    C3 7543   4.447   1.252   9.429
  499MPD2    C4 7544   4.551   1.333   9.378
  499MPD2    C5 7545   4.604   1.429   9.452
  499MPD2     H 7546   4.316   1.223   9.600
  499MPD2    H1 7547   4.583   1.329   9.275
  499MPD2    H2 7548   4.603   1.535   9.632
  499MPD2    H3 7549   4.673   1.496   9.401
  499MPD2     N 7550   4.389   1.153   9.341
  499MPD2    H5 7551   4.422   1.163   9.246
  499MPD2    N1 7552   4.403   1.422   9.747
  499MPD2    H7 7553   4.458   1.482   9.808
  500MPD2     C 7554   2.042   3.393  11.736
  500MPD2    C1 7555   1.992   3.285  11.661
  500MPD2    C2 7556   1.925   3.311  11.545
  500MPD2    C3 7557   1.890   3.435  11.504
  500MPD2    C4 7558   1.932   3.544  11.575
  500MPD2    C5 7559   1.998   3.517  11.695
  500MPD2     H 7560   1.897   3.232  11.477
  500MPD2    H1 7561   1.896   3.642  11.543
  500MPD2    H2 7562   2.096   3.377  11.829
  500MPD2    H3 7563   2.002   3.609  11.752
  500MPD2     N 7564   1.810   3.443  11.383
  500MPD2    H5 7565   1.786   3.353  11.344
  500MPD2    N1 7566   2.034   3.155  11.704
  500MPD2    H7 7567   2.124   3.145  11.751
  501MPD2     C 7568   2.688   3.048  11.697
  501MPD2    C1 7569   2.591   3.134  11.640
  501MPD2    C2 7570   2.612   3.271  11.652
  501MPD2    C3 7571   2.732   3.314  11.712
  501MPD2    C4 7572   2.816   3.229  11.769
  501MPD2    C5 7573   2.800   3.091  11.762
  501MPD2     H 7574   2.535   3.344  11.627
  501MPD2    H1 7575   2.902   3.256  11.830
  501MPD2    H2 7576   2.685   2.941  11.683
  501MPD2    H3 7577   2.874   3.018  11.791
  501MPD2     N 7578   2.751   3.453  11.737
  501MPD2    H5 7579   2.835   3.471  11.791
  501MPD2    N1 7580   2.477   3.082  11.580
  501MPD2    H7 7581   2.403   3.144  11.548
  502MPD2     C 7582   1.787   2.475  11.359
  502MPD2    C1 7583   1.921   2.495  11.388
  502MPD2    C2 7584   2.005   2.384  11.405
  502MPD2    C3 7585   1.948   2.257  11.413
  502MPD2    C4 7586   1.815   2.242  11.392
  502MPD2    C5 7587   1.733   2.350  11.378
  502MPD2     H 7588   2.113   2.383  11.417
  502MPD2    H1 7589   1.765   2.146  11.386
  502MPD2    H2 7590   1.731   2.566  11.339
  502MPD2    H3 7591   1.627   2.331  11.367
  502MPD2     N 7592   2.026   2.148  11.445
  502MPD2    H5 7593   2.123   2.162  11.472
  502MPD2    N1 7594   1.974   2.624  11.390
  502MPD2    H7 7595   1.909   2.702  11.388
  503MPD2     C 7596   3.292   3.136  10.797
  503MPD2    C1 7597   3.408   3.144  10.719
  503MPD2    C2 7598   3.526   3.111  10.780
  503MPD2    C3 7599   3.531   3.067  10.910
  503MPD2    C4 7600   3.417   3.058  10.984
  503MPD2    C5 7601   3.294   3.087  10.927
  503MPD2     H 7602   3.618   3.118  10.723
  503MPD2    H1 7603   3.419   3.028  11.088
  503MPD2    H2 7604   3.194   3.162  10.759
  503MPD2    H3 7605   3.205   3.093  10.990
  503MPD2     N 7606   3.655   3.031  10.969
  503MPD2    H5 7607   3.657   3.040  11.070
  503MPD2    N1 7608   3.391   3.193  10.591
  503MPD2    H7 7609   3.297   3.221  10.565
  504MPD2     C 7610   3.291   2.638  10.524
  504MPD2    C1 7611   3.329   2.763  10.551
  504MPD2    C2 7612   3.224   2.860  10.558
  504MPD2    C3 7613   3.090   2.833  10.543
  504MPD2    C4 7614   3.060   2.702  10.515
  504MPD2    C5 7615   3.157   2.607  10.515
  504MPD2     H 7616   3.249   2.964  10.575
  504MPD2    H1 7617   2.956   2.677  10.498
  504MPD2    H2 7618   3.365   2.559  10.519
  504MPD2    H3 7619   3.133   2.501  10.508
  504MPD2     N 7620   2.998   2.945  10.544
  504MPD2    H5 7621   3.050   3.032  10.541
  504MPD2    N1 7622   3.457   2.807  10.576
  504MPD2    H7 7623   3.466   2.905  10.602
  505MPD2     C 7624   4.330   0.977  12.656
  505MPD2    C1 7625   4.374   1.006  12.533
  505MPD2    C2 7626   4.507   1.001  12.509
  505MPD2    C3 7627   4.591   0.931  12.595
  505MPD2    C4 7628   4.540   0.894  12.718
  505MPD2    C5 7629   4.411   0.921  12.750
  505MPD2     H 7630   4.541   1.046  12.417
  505MPD2    H1 7631   4.599   0.844  12.793
  505MPD2    H2 7632   4.226   0.986  12.685
  505MPD2    H3 7633   4.372   0.892  12.847
  505MPD2     N 7634   4.728   0.942  12.567
  505MPD2    H5 7635   4.757   1.000  12.489
  505MPD2    N1 7636   4.273   1.063  12.456
  505MPD2    H7 7637   4.198   1.090  12.518
  506MPD2     C 7638   0.766   2.222  11.441
  506MPD2    C1 7639   0.685   2.181  11.340
  506MPD2    C2 7640   0.741   2.089  11.244
  506MPD2    C3 7641   0.879   2.063  11.235
  506MPD2    C4 7642   0.957   2.128  11.329
  506MPD2    C5 7643   0.899   2.197  11.439
  506MPD2     H 7644   0.677   2.068  11.159
  506MPD2    H1 7645   1.064   2.124  11.318
  506MPD2    H2 7646   0.725   2.284  11.520
  506MPD2    H3 7647   0.962   2.248  11.511
  506MPD2     N 7648   0.935   2.014  11.119
  506MPD2    H5 7649   1.028   2.051  11.105
  506MPD2    N1 7650   0.554   2.224  11.333
  506MPD2    H7 7651   0.486   2.171  11.279
  507MPD2     C 7652   0.149   2.936  11.088
  507MPD2    C1 7653   0.274   2.883  11.103
  507MPD2    C2 7654   0.384   2.968  11.099
  507MPD2    C3 7655   0.370   3.109  11.076
  507MPD2    C4 7656   0.242   3.152  11.040
  507MPD2    C5 7657   0.135   3.066  11.047
  507MPD2     H 7658   0.486   2.931  11.105
  507MPD2    H1 7659   0.220   3.252  11.003
  507MPD2    H2 7660   0.057   2.884  11.113
  507MPD2    H3 7661   0.035   3.105  11.036
  507MPD2     N 7662   0.466   3.207  11.057
  507MPD2    H5 7663   0.438   3.303  11.038
  507MPD2    N1 7664   0.295   2.751  11.143
  507MPD2    H7 7665   0.385   2.731  11.184
  508MPD2     C 7666   1.542   0.191  14.602
  508MPD2    C1 7667   1.516   0.294  14.689
  508MPD2    C2 7668   1.386   0.342  14.709
  508MPD2    C3 7669   1.288   0.291  14.633
  508MPD2    C4 7670   1.313   0.183  14.553
  508MPD2    C5 7671   1.438   0.133  14.533
  508MPD2     H 7672   1.370   0.422  14.780
  508MPD2    H1 7673   1.237   0.153  14.481
  508MPD2    H2 7674   1.648   0.179  14.584
  508MPD2    H3 7675   1.450   0.069  14.446
  508MPD2     N 7676   1.149   0.323  14.650
  508MPD2    H5 7677   1.085   0.245  14.639
  508MPD2    N1 7678   1.629   0.348  14.757
  508MPD2    H7 7679   1.721   0.312  14.736
  509MPD2     C 7680   1.762   1.103  14.735
  509MPD2    C1 7681   1.876   1.039  14.768
  509MPD2    C2 7682   2.000   1.102  14.755
  509MPD2    C3 7683   1.997   1.238  14.732
  509MPD2    C4 7684   1.875   1.305  14.716
  509MPD2    C5 7685   1.758   1.236  14.712
  509MPD2     H 7686   2.094   1.051  14.768
  509MPD2    H1 7687   1.864   1.410  14.693
  509MPD2    H2 7688   1.670   1.050  14.714
  509MPD2    H3 7689   1.664   1.286  14.691
  509MPD2     N 7690   2.119   1.304  14.731
  509MPD2    H5 7691   2.209   1.257  14.733
  509MPD2    N1 7692   1.861   0.902  14.791
  509MPD2    H7 7693   1.763   0.875  14.787
  510MPD2     C 7694   0.416   2.837  14.393
  510MPD2    C1 7695   0.371   2.965  14.407
  510MPD2    C2 7696   0.443   3.067  14.370
  510MPD2    C3 7697   0.573   3.043  14.325
  510MPD2    C4 7698   0.610   2.914  14.294
  510MPD2    C5 7699   0.535   2.812  14.332
  510MPD2     H 7700   0.411   3.168  14.394
  510MPD2    H1 7701   0.707   2.888  14.253
  510MPD2    H2 7702   0.364   2.749  14.430
  510MPD2    H3 7703   0.566   2.708  14.329
  510MPD2     N 7704   0.658   3.146  14.272
  510MPD2    H5 7705   0.723   3.103  14.207
  510MPD2    N1 7706   0.257   2.998  14.475
  510MPD2    H7 7707   0.232   3.094  14.498
  511MPD2     C 7708   0.825   3.074  15.177
  511MPD2    C1 7709   0.905   3.062  15.063
  511MPD2    C2 7710   0.860   3.116  14.943
  511MPD2    C3 7711   0.735   3.162  14.928
  511MPD2    C4 7712   0.657   3.167  15.041
  511MPD2    C5 7713   0.690   3.113  15.159
  511MPD2     H 7714   0.936   3.131  14.868
  511MPD2    H1 7715   0.560   3.214  15.035
  511MPD2    H2 7716   0.861   3.059  15.278
  511MPD2    H3 7717   0.622   3.121  15.243
  511MPD2     N 7718   0.688   3.215  14.802
  511MPD2    H5 7719   0.748   3.192  14.723
  511MPD2    N1 7720   1.036   3.010  15.078
  511MPD2    H7 7721   1.093   3.013  14.994
  512MPD2     C 7722   4.570   1.781  10.294
  512MPD2    C1 7723   4.570   1.646  10.261
  512MPD2    C2 7724   4.691   1.580  10.258
  512MPD2    C3 7725   0.016   1.653  10.275
  512MPD2    C4 7726   0.010   1.787  10.303
  512MPD2    C5 7727   4.686   1.849  10.321
  512MPD2     H 7728   4.688   1.473  10.240
  512MPD2    H1 7729   0.104   1.838  10.323
  512MPD2    H2 7730   4.485   1.847  10.280
  512MPD2    H3 7731   4.687   1.951  10.358
  512MPD2     N 7732   0.151   1.612  10.252
  512MPD2    H5 7733   0.210   1.690  10.277
  512MPD2    N1 7734   4.454   1.572  10.222
  512MPD2    H7 7735   4.468   1.482  10.178
  513MPD2     C 7736   0.293   3.634  11.367
  513MPD2    C1 7737   0.416   3.571  11.355
  513MPD2    C2 7738   0.424   3.436  11.390
  513MPD2    C3 7739   0.316   3.374  11.450
  513MPD2    C4 7740   0.195   3.444  11.470
  513MPD2    C5 7741   0.181   3.569  11.422
  513MPD2     H 7742   0.522   3.390  11.395
  513MPD2    H1 7743   0.107   3.409  11.522
  513MPD2    H2 7744   0.278   3.738  11.341
  513MPD2    H3 7745   0.086   3.619  11.440
  513MPD2     N 7746   0.330   3.246  11.504
  513MPD2    H5 7747   0.411   3.196  11.468
  513MPD2    N1 7748   0.532   3.645  11.315
  513MPD2    H7 7749   0.516   3.745  11.313
  514MPD2     C 7750   1.673   4.399  15.218
  514MPD2    C1 7751   1.694   4.288  15.145
  514MPD2    C2 7752   1.591   4.216  15.091
  514MPD2    C3 7753   1.462   4.271  15.101
  514MPD2    C4 7754   1.433   4.381  15.187
  514MPD2    C5 7755   1.547   4.439  15.246
  514MPD2     H 7756   1.614   4.129  15.030
  514MPD2    H1 7757   1.331   4.407  15.216
  514MPD2    H2 7758   1.758   4.453  15.256
  514MPD2    H3 7759   1.539   4.529  15.307
  514MPD2     N 7760   1.353   4.199  15.043
  514MPD2    H5 7761   1.371   4.102  15.018
  514MPD2    N1 7762   1.833   4.256  15.123
  514MPD2    H7 7763   1.898   4.319  15.168
  515MPD2     C 7764   3.664   0.555   7.757
  515MPD2    C1 7765   3.674   0.684   7.805
  515MPD2    C2 7766   3.575   0.739   7.883
  515MPD2    C3 7767   3.453   0.663   7.905
  515MPD2    C4 7768   3.449   0.528   7.863
  515MPD2    C5 7769   3.552   0.476   7.785
  515MPD2     H 7770   3.578   0.845   7.904
  515MPD2    H1 7771   3.363   0.466   7.886
  515MPD2    H2 7772   3.736   0.501   7.696
  515MPD2    H3 7773   3.543   0.380   7.734
  515MPD2     N 7774   3.350   0.715   7.978
  515MPD2    H5 7775   3.359   0.810   8.015
  515MPD2    N1 7776   3.784   0.763   7.766
  515MPD2    H7 7777   3.857   0.711   7.719
  516MPD2     C 7778   3.235   1.257   8.417
  516MPD2    C1 7779   3.294   1.135   8.389
  516MPD2    C2 7780   3.401   1.092   8.457
  516MPD2    C3 7781   3.452   1.170   8.559
  516MPD2    C4 7782   3.381   1.280   8.602
  516MPD2    C5 7783   3.278   1.331   8.525
  516MPD2     H 7784   3.448   0.997   8.436
  516MPD2    H1 7785   3.421   1.351   8.674
  516MPD2    H2 7786   3.162   1.304   8.352
  516MPD2    H3 7787   3.230   1.426   8.544
  516MPD2     N 7788   3.568   1.128   8.632
  516MPD2    H5 7789   3.583   1.180   8.718
  516MPD2    N1 7790   3.230   1.044   8.299
  516MPD2    H7 7791   3.274   0.952   8.298
  517MPD2     C 7792   2.296   0.995   7.918
  517MPD2    C1 7793   2.347   0.878   7.861
  517MPD2    C2 7794   2.486   0.853   7.886
  517MPD2    C3 7795   2.562   0.948   7.957
  517MPD2    C4 7796   2.502   1.060   8.005
  517MPD2    C5 7797   2.368   1.083   7.989
  517MPD2     H 7798   2.539   0.766   7.852
  517MPD2    H1 7799   2.558   1.140   8.053
  517MPD2    H2 7800   2.189   1.012   7.915
  517MPD2    H3 7801   2.320   1.171   8.028
  517MPD2     N 7802   2.701   0.939   7.992
  517MPD2    H5 7803   2.738   1.010   8.053
  517MPD2    N1 7804   2.270   0.797   7.784
  517MPD2    H7 7805   2.171   0.815   7.794
  518MPD2     C 7806   0.328   2.907  13.403
  518MPD2    C1 7807   0.333   2.908  13.260
  518MPD2    C2 7808   0.378   3.020  13.189
  518MPD2    C3 7809   0.425   3.122  13.265
  518MPD2    C4 7810   0.434   3.118  13.405
  518MPD2    C5 7811   0.388   3.010  13.470
  518MPD2     H 7812   0.378   3.016  13.081
  518MPD2    H1 7813   0.469   3.202  13.464
  518MPD2    H2 7814   0.298   2.819  13.458
  518MPD2    H3 7815   0.406   3.009  13.577
  518MPD2     N 7816   0.481   3.242  13.209
  518MPD2    H5 7817   0.545   3.293  13.269
  518MPD2    N1 7818   0.312   2.781  13.192
  518MPD2    H7 7819   0.317   2.701  13.255
  519MPD2     C 7820   0.303   1.916  13.512
  519MPD2    C1 7821   0.409   1.939  13.435
  519MPD2    C2 7822   0.411   2.042  13.347
  519MPD2    C3 7823   0.295   2.119  13.324
  519MPD2    C4 7824   0.185   2.086  13.394
  519MPD2    C5 7825   0.189   1.986  13.488
  519MPD2     H 7826   0.498   2.055  13.283
  519MPD2    H1 7827   0.094   2.134  13.362
  519MPD2    H2 7828   0.297   1.827  13.573
  519MPD2    H3 7829   0.098   1.950  13.534
  519MPD2     N 7830   0.292   2.221  13.220
  519MPD2    H5 7831   0.381   2.224  13.172
  519MPD2    N1 7832   0.536   1.869  13.453
  519MPD2    H7 7833   0.614   1.899  13.395
  520MPD2     C 7834   1.071   2.207  12.744
  520MPD2    C1 7835   1.118   2.256  12.866
  520MPD2    C2 7836   1.041   2.251  12.985
  520MPD2    C3 7837   0.910   2.205  12.974
  520MPD2    C4 7838   0.864   2.152  12.855
  520MPD2    C5 7839   0.944   2.150  12.740
  520MPD2     H 7840   1.077   2.292  13.079
  520MPD2    H1 7841   0.760   2.121  12.852
  520MPD2    H2 7842   1.117   2.208  12.646
  520MPD2    H3 7843   0.899   2.115  12.648
  520MPD2     N 7844   0.814   2.203  13.076
  520MPD2    H5 7845   0.733   2.147  13.052
  520MPD2    N1 7846   1.251   2.304  12.862
  520MPD2    H7 7847   1.313   2.297  12.783
  521MPD2     C 7848   1.001   3.954   9.075
  521MPD2    C1 7849   1.132   3.905   9.054
  521MPD2    C2 7850   1.157   3.822   8.944
  521MPD2    C3 7851   1.058   3.799   8.854
  521MPD2    C4 7852   0.930   3.856   8.878
  521MPD2    C5 7853   0.898   3.919   8.987
  521MPD2     H 7854   1.259   3.784   8.938
  521MPD2    H1 7855   0.857   3.847   8.799
  521MPD2    H2 7856   0.981   4.021   9.157
  521MPD2    H3 7857   0.796   3.956   8.983
  521MPD2     N 7858   1.100   3.719   8.748
  521MPD2    H5 7859   1.201   3.719   8.738
  521MPD2    N1 7860   1.227   3.931   9.147
  521MPD2    H7 7861   1.194   3.940   9.243
  522MPD2     C 7862   1.984   4.046   9.248
  522MPD2    C1 7863   1.935   3.960   9.343
  522MPD2    C2 7864   2.013   3.940   9.458
  522MPD2    C3 7865   2.118   4.028   9.481
  522MPD2    C4 7866   2.166   4.115   9.390
  522MPD2    C5 7867   2.097   4.123   9.272
  522MPD2     H 7868   1.968   3.871   9.529
  522MPD2    H1 7869   2.247   4.186   9.403
  522MPD2    H2 7870   1.938   4.061   9.151
  522MPD2    H3 7871   2.131   4.193   9.197
  522MPD2     N 7872   2.186   4.002   9.605
  522MPD2    H5 7873   2.163   3.920   9.660
  522MPD2    N1 7874   1.807   3.910   9.313
  522MPD2    H7 7875   1.764   3.956   9.234
  523MPD2     C 7876   1.296   3.508  10.051
  523MPD2    C1 7877   1.357   3.414   9.969
  523MPD2    C2 7878   1.406   3.462   9.846
  523MPD2    C3 7879   1.353   3.580   9.786
  523MPD2    C4 7880   1.256   3.649   9.854
  523MPD2    C5 7881   1.240   3.618   9.988
  523MPD2     H 7882   1.477   3.406   9.787
  523MPD2    H1 7883   1.213   3.742   9.821
  523MPD2    H2 7884   1.260   3.489  10.152
  523MPD2    H3 7885   1.174   3.680  10.047
  523MPD2     N 7886   1.395   3.619   9.653
  523MPD2    H5 7887   1.465   3.556   9.615
  523MPD2    N1 7888   1.380   3.284  10.021
  523MPD2    H7 7889   1.340   3.260  10.111
  524MPD2     C 7890   4.777   1.875   9.852
  524MPD2    C1 7891   0.013   1.900   9.719
  524MPD2    C2 7892   0.075   1.800   9.647
  524MPD2    C3 7893   0.101   1.673   9.698
  524MPD2    C4 7894   0.044   1.645   9.825
  524MPD2    C5 7895   4.782   1.743   9.899
  524MPD2     H 7896   0.100   1.823   9.544
  524MPD2    H1 7897   0.044   1.541   9.855
  524MPD2    H2 7898   4.733   1.956   9.910
  524MPD2    H3 7899   4.742   1.726   9.998
  524MPD2     N 7900   0.166   1.569   9.624
  524MPD2    H5 7901   0.161   1.470   9.644
  524MPD2    N1 7902   4.781   2.033   9.670
  524MPD2    H7 7903   4.756   2.108   9.733
  525MPD2     C 7904   4.778   1.418   8.739
  525MPD2    C1 7905   0.102   1.474   8.741
  525MPD2    C2 7906   0.177   1.457   8.856
  525MPD2    C3 7907   0.133   1.391   8.968
  525MPD2    C4 7908   0.008   1.331   8.962
  525MPD2    C5 7909   4.732   1.339   8.841
  525MPD2     H 7910   0.274   1.504   8.868
  525MPD2    H1 7911   4.748   1.285   9.044
  525MPD2    H2 7912   4.707   1.441   8.660
  525MPD2    H3 7913   4.628   1.309   8.846
  525MPD2     N 7914   0.217   1.375   9.079
  525MPD2    H5 7915   0.309   1.417   9.072
  525MPD2    N1 7916   0.138   1.553   8.627
  525MPD2    H7 7917   0.070   1.567   8.553
  526MPD2     C 7918   0.523   1.927   9.146
  526MPD2    C1 7919   0.470   1.803   9.119
  526MPD2    C2 7920   0.378   1.788   9.023
  526MPD2    C3 7921   0.331   1.901   8.958
  526MPD2    C4 7922   0.373   2.028   8.995
  526MPD2    C5 7923   0.481   2.040   9.083
  526MPD2     H 7924   0.330   1.692   9.005
  526MPD2    H1 7925   0.325   2.120   8.965
  526MPD2    H2 7926   0.586   1.951   9.231
  526MPD2    H3 7927   0.515   2.139   9.112
  526MPD2     N 7928   0.223   1.871   8.873
  526MPD2    H5 7929   0.182   1.779   8.889
  526MPD2    N1 7930   0.507   1.699   9.206
  526MPD2    H7 7931   0.548   1.710   9.298
  527MPD2     C 7932   2.228   4.575   9.893
  527MPD2    C1 7933   2.267   4.463   9.821
  527MPD2    C2 7934   2.402   4.426   9.826
  527MPD2    C3 7935   2.496   4.489   9.914
  527MPD2    C4 7936   2.448   4.585   9.992
  527MPD2    C5 7937   2.318   4.630   9.976
  527MPD2     H 7938   2.432   4.351   9.754
  527MPD2    H1 7939   2.516   4.635  10.060
  527MPD2    H2 7940   2.132   4.623   9.878
  527MPD2    H3 7941   2.284   4.718  10.031
  527MPD2     N 7942   2.631   4.453   9.927
  527MPD2    H5 7943   2.685   4.489  10.005
  527MPD2    N1 7944   2.187   4.394   9.727
  527MPD2    H7 7945   2.227   4.307   9.692
  528MPD2     C 7946   3.552   3.919   9.657
  528MPD2    C1 7947   3.555   4.054   9.632
  528MPD2    C2 7948   3.439   4.127   9.659
  528MPD2    C3 7949   3.328   4.060   9.722
  528MPD2    C4 7950   3.333   3.922   9.735
  528MPD2    C5 7951   3.448   3.850   9.707
  528MPD2     H 7952   3.433   4.234   9.647
  528MPD2    H1 7953   3.249   3.866   9.774
  528MPD2    H2 7954   3.639   3.862   9.627
  528MPD2    H3 7955   3.460   3.746   9.732
  528MPD2     N 7956   3.227   4.146   9.761
  528MPD2    H5 7957   3.245   4.246   9.754
  528MPD2    N1 7958   3.669   4.113   9.576
  528MPD2    H7 7959   3.754   4.059   9.569
  529MPD2     C 7960   0.095   1.220  10.524
  529MPD2    C1 7961   0.037   1.094  10.544
  529MPD2    C2 7962   0.123   0.996  10.593
  529MPD2    C3 7963   0.248   1.028  10.626
  529MPD2    C4 7964   0.304   1.152  10.595
  529MPD2    C5 7965   0.223   1.251  10.555
  529MPD2     H 7966   0.080   0.898  10.610
  529MPD2    H1 7967   0.409   1.175  10.612
  529MPD2    H2 7968   0.043   1.306  10.483
  529MPD2    H3 7969   0.271   1.342  10.521
  529MPD2     N 7970   0.324   0.932  10.685
  529MPD2    H5 7971   0.295   0.836  10.673
  529MPD2    N1 7972   4.699   1.063  10.501
  529MPD2    H7 7973   4.657   0.980  10.541
  530MPD2     C 7974   4.240   1.000   9.961
  530MPD2    C1 7975   4.273   1.087  10.061
  530MPD2    C2 7976   4.387   1.163  10.036
  530MPD2    C3 7977   4.473   1.137   9.927
  530MPD2    C4 7978   4.433   1.052   9.831
  530MPD2    C5 7979   4.318   0.978   9.850
  530MPD2     H 7980   4.401   1.245  10.106
  530MPD2    H1 7981   4.485   1.045   9.736
  530MPD2    H2 7982   4.152   0.937   9.957
  530MPD2    H3 7983   4.275   0.927   9.764
  530MPD2     N 7984   4.604   1.196   9.907
  530MPD2    H5 7985   4.658   1.163   9.827
  530MPD2    N1 7986   4.174   1.105  10.161
  530MPD2    H7 7987   4.088   1.053  10.145
  531MPD2     C 7988   4.357   1.439  10.944
  531MPD2    C1 7989   4.463   1.460  10.858
  531MPD2    C2 7990   4.593   1.478  10.905
  531MPD2    C3 7991   4.613   1.440  11.042
  531MPD2    C4 7992   4.508   1.428  11.126
  531MPD2    C5 7993   4.385   1.431  11.076
  531MPD2     H 7994   4.679   1.480  10.840
  531MPD2    H1 7995   4.523   1.397  11.229
  531MPD2    H2 7996   4.253   1.433  10.912
  531MPD2    H3 7997   4.302   1.408  11.142
  531MPD2     N 7998   4.747   1.406  11.085
  531MPD2    H5 7999   4.753   1.350  11.170
  531MPD2    N1 8000   4.457   1.440  10.720
  531MPD2    H7 8001   4.539   1.450  10.661
  532MPD2     C 8002   1.681   0.505   7.981
  532MPD2    C1 8003   1.673   0.442   7.861
  532MPD2    C2 8004   1.553   0.374   7.829
  532MPD2    C3 8005   1.448   0.368   7.912
  532MPD2    C4 8006   1.459   0.431   8.037
  532MPD2    C5 8007   1.572   0.497   8.066
  532MPD2     H 8008   1.551   0.328   7.731
  532MPD2    H1 8009   1.379   0.429   8.111
  532MPD2    H2 8010   1.770   0.561   8.007
  532MPD2    H3 8011   1.566   0.547   8.162
  532MPD2     N 8012   1.335   0.287   7.881
  532MPD2    H5 8013   1.357   0.205   7.826
  532MPD2    N1 8014   1.782   0.435   7.765
  532MPD2    H7 8015   1.764   0.410   7.668
  533MPD2     C 8016   0.416   0.077  10.994
  533MPD2    C1 8017   0.298   0.062  11.056
  533MPD2    C2 8018   0.177   0.068  10.978
  533MPD2    C3 8019   0.183   0.074  10.842
  533MPD2    C4 8020   0.308   0.072  10.779
  533MPD2    C5 8021   0.422   0.075  10.856
  533MPD2     H 8022   0.080   0.067  11.029
  533MPD2    H1 8023   0.317   0.067  10.672
  533MPD2    H2 8024   0.511   0.075  11.046
  533MPD2    H3 8025   0.520   0.086  10.811
  533MPD2     N 8026   0.073   0.069  10.754
  533MPD2    H5 8027   0.094   0.065  10.655
  533MPD2    N1 8028   0.287   0.031  11.195
  533MPD2    H7 8029   0.197   0.021  11.241
  534MPD2     C 8030   0.872   0.183  11.800
  534MPD2    C1 8031   0.831   0.057  11.774
  534MPD2    C2 8032   0.914   4.743  11.801
  534MPD2    C3 8033   1.046   4.766  11.844
  534MPD2    C4 8034   1.087   0.098  11.865
  534MPD2    C5 8035   1.001   0.204  11.845
  534MPD2     H 8036   0.880   4.641  11.788
  534MPD2    H1 8037   1.188   0.124  11.896
  534MPD2    H2 8038   0.813   0.274  11.785
  534MPD2    H3 8039   1.035   0.305  11.866
  534MPD2     N 8040   1.122   4.652  11.872
  534MPD2    H5 8041   1.088   4.561  11.842
  534MPD2    N1 8042   0.704   0.026  11.719
  534MPD2    H7 8043   0.682   4.721  11.708
  535MPD2     C 8044   4.063   1.554   7.676
  535MPD2    C1 8045   3.976   1.469   7.738
  535MPD2    C2 8046   3.899   1.514   7.846
  535MPD2    C3 8047   3.912   1.639   7.906
  535MPD2    C4 8048   3.984   1.731   7.829
  535MPD2    C5 8049   4.059   1.685   7.721
  535MPD2     H 8050   3.846   1.431   7.892
  535MPD2    H1 8051   4.007   1.835   7.854
  535MPD2    H2 8052   4.131   1.525   7.597
  535MPD2    H3 8053   4.123   1.745   7.657
  535MPD2     N 8054   3.847   1.662   8.028
  535MPD2    H5 8055   3.799   1.586   8.076
  535MPD2    N1 8056   3.971   1.337   7.698
  535MPD2    H7 8057   3.901   1.285   7.749
  536MPD2     C 8058   4.091   0.455   7.077
  536MPD2    C1 8059   3.998   0.547   7.031
  536MPD2    C2 8060   3.960   0.654   7.113
  536MPD2    C3 8061   4.039   0.680   7.225
  536MPD2    C4 8062   4.140   0.592   7.262
  536MPD2    C5 8063   4.163   0.484   7.192
  536MPD2     H 8064   3.884   0.723   7.076
  536MPD2    H1 8065   4.196   0.606   7.354
  536MPD2    H2 8066   4.119   0.366   7.020
  536MPD2    H3 8067   4.239   0.413   7.222
  536MPD2     N 8068   3.997   0.788   7.309
  536MPD2    H5 8069   3.900   0.817   7.299
  536MPD2    N1 8070   3.962   0.522   6.900
  536MPD2    H7 8071   4.014   0.443   6.861
  537MPD2     C 8072   1.494   0.031   7.720
  537MPD2    C1 8073   1.395   4.751   7.784
  537MPD2    C2 8074   1.265   4.778   7.746
  537MPD2    C3 8075   1.232   0.076   7.646
  537MPD2    C4 8076   1.331   0.130   7.570
  537MPD2    C5 8077   1.462   0.107   7.609
  537MPD2     H 8078   1.187   4.723   7.798
  537MPD2    H1 8079   1.307   0.205   7.495
  537MPD2    H2 8080   1.597   0.034   7.753
  537MPD2    H3 8081   1.541   0.159   7.556
  537MPD2     N 8082   1.100   0.112   7.610
  537MPD2    H5 8083   1.087   0.184   7.540
  537MPD2    N1 8084   1.416   4.658   7.889
  537MPD2    H7 8085   1.338   4.615   7.937
  538MPD2     C 8086   4.050   3.914   8.512
  538MPD2    C1 8087   4.035   4.048   8.513
  538MPD2    C2 8088   4.072   4.119   8.400
  538MPD2    C3 8089   4.112   4.052   8.287
  538MPD2    C4 8090   4.117   3.918   8.282
  538MPD2    C5 8091   4.084   3.852   8.393
  538MPD2     H 8092   4.068   4.227   8.404
  538MPD2    H1 8093   4.149   3.859   8.196
  538MPD2    H2 8094   4.004   3.853   8.588
  538MPD2    H3 8095   4.086   3.743   8.397
  538MPD2     N 8096   4.127   4.130   8.175
  538MPD2    H5 8097   4.116   4.229   8.196
  538MPD2    N1 8098   3.981   4.121   8.617
  538MPD2    H7 8099   3.962   4.221   8.610
  539MPD2     C 8100   4.680   4.317   7.432
  539MPD2    C1 8101   4.692   4.242   7.544
  539MPD2    C2 8102   4.579   4.220   7.624
  539MPD2    C3 8103   4.460   4.273   7.577
  539MPD2    C4 8104   4.454   4.340   7.458
  539MPD2    C5 8105   4.568   4.369   7.391
  539MPD2     H 8106   4.591   4.157   7.711
  539MPD2    H1 8107   4.361   4.380   7.417
  539MPD2    H2 8108   4.762   4.334   7.362
  539MPD2    H3 8109   4.580   4.423   7.298
  539MPD2     N 8110   4.342   4.246   7.649
  539MPD2    H5 8111   4.350   4.183   7.729
  539MPD2    N1 8112   0.031   4.186   7.571
  539MPD2    H7 8113   0.103   4.212   7.505
  540MPD2     C 8114   0.324   0.749  12.436
  540MPD2    C1 8115   0.347   0.627  12.367
  540MPD2    C2 8116   0.282   0.610  12.245
  540MPD2    C3 8117   0.208   0.715  12.186
  540MPD2    C4 8118   0.183   0.826  12.258
  540MPD2    C5 8119   0.241   0.844  12.377
  540MPD2     H 8120   0.280   0.514  12.195
  540MPD2    H1 8121   0.127   0.908  12.214
  540MPD2    H2 8122   0.381   0.766  12.527
  540MPD2    H3 8123   0.230   0.940  12.427
  540MPD2     N 8124   0.156   0.710  12.059
  540MPD2    H5 8125   0.095   0.781  12.020
  540MPD2    N1 8126   0.420   0.514  12.422
  540MPD2    H7 8127   0.453   0.448  12.352
  541MPD2     C 8128   0.212   0.024  12.699
  541MPD2    C1 8129   0.289   0.114  12.629
  541MPD2    C2 8130   0.361   0.072  12.515
  541MPD2    C3 8131   0.359   4.737  12.472
  541MPD2    C4 8132   0.294   4.640  12.551
  541MPD2    C5 8133   0.219   4.686  12.656
  541MPD2     H 8134   0.397   0.150  12.450
  541MPD2    H1 8135   0.299   4.534  12.530
  541MPD2    H2 8136   0.144   0.054  12.778
  541MPD2    H3 8137   0.163   4.605  12.700
  541MPD2     N 8138   0.428   4.720  12.355
  541MPD2    H5 8139   0.428   0.013  12.301
  541MPD2    N1 8140   0.298   0.249  12.666
  541MPD2    H7 8141   0.343   0.317  12.606
  542MPD2     C 8142   2.981   1.350  11.843
  542MPD2    C1 8143   3.047   1.421  11.939
  542MPD2    C2 8144   3.106   1.354  12.048
  542MPD2    C3 8145   3.119   1.215  12.052
  542MPD2    C4 8146   3.071   1.149  11.941
  542MPD2    C5 8147   3.000   1.217  11.841
  542MPD2     H 8148   3.168   1.419  12.110
  542MPD2    H1 8149   3.070   1.041  11.956
  542MPD2    H2 8150   2.953   1.395  11.748
  542MPD2    H3 8151   2.954   1.166  11.758
  542MPD2     N 8152   3.185   1.137  12.146
  542MPD2    H5 8153   3.202   1.046  12.105
  542MPD2    N1 8154   3.036   1.563  11.925
  542MPD2    H7 8155   2.980   1.600  11.849
  543MPD2     C 8156   3.373   2.133  12.063
  543MPD2    C1 8157   3.306   2.058  11.974
  543MPD2    C2 8158   3.363   1.953  11.906
  543MPD2    C3 8159   3.495   1.928  11.925
  543MPD2    C4 8160   3.570   2.011  12.015
  543MPD2    C5 8161   3.510   2.116  12.074
  543MPD2     H 8162   3.305   1.900  11.830
  543MPD2    H1 8163   3.677   1.999  12.028
  543MPD2    H2 8164   3.325   2.222  12.103
  543MPD2    H3 8165   3.565   2.188  12.135
  543MPD2     N 8166   3.551   1.803  11.892
  543MPD2    H5 8167   3.631   1.779  11.950
  543MPD2    N1 8168   3.175   2.088  11.947
  543MPD2    H7 8169   3.126   2.023  11.886
  544MPD2     C 8170   2.586   1.690  11.619
  544MPD2    C1 8171   2.634   1.759  11.729
  544MPD2    C2 8172   2.644   1.695  11.852
  544MPD2    C3 8173   2.637   1.559  11.860
  544MPD2    C4 8174   2.578   1.493  11.753
  544MPD2    C5 8175   2.542   1.562  11.640
  544MPD2     H 8176   2.682   1.743  11.942
  544MPD2    H1 8177   2.554   1.388  11.760
  544MPD2    H2 8178   2.542   1.746  11.537
  544MPD2    H3 8179   2.516   1.507  11.550
  544MPD2     N 8180   2.669   1.490  11.982
  544MPD2    H5 8181   2.679   1.541  12.069
  544MPD2    N1 8182   2.688   1.888  11.708
  544MPD2    H7 8183   2.657   1.925  11.618
  545MPD2     C 8184   0.032   3.463   6.382
  545MPD2    C1 8185   4.702   3.486   6.328
  545MPD2    C2 8186   4.661   3.619   6.309
  545MPD2    C3 8187   4.756   3.718   6.331
  545MPD2    C4 8188   0.092   3.688   6.375
  545MPD2    C5 8189   0.129   3.555   6.399
  545MPD2     H 8190   4.558   3.643   6.283
  545MPD2    H1 8191   0.166   3.766   6.393
  545MPD2    H2 8192   0.051   3.360   6.406
  545MPD2    H3 8193   0.229   3.521   6.423
  545MPD2     N 8194   4.727   3.851   6.295
  545MPD2    H5 8195   4.780   3.923   6.344
  545MPD2    N1 8196   4.629   3.373   6.299
  545MPD2    H7 8197   4.675   3.283   6.304
  546MPD2     C 8198   4.426   2.456   6.589
  546MPD2    C1 8199   4.389   2.577   6.634
  546MPD2    C2 8200   4.394   2.687   6.552
  546MPD2    C3 8201   4.450   2.683   6.425
  546MPD2    C4 8202   4.488   2.559   6.379
  546MPD2    C5 8203   4.467   2.452   6.457
  546MPD2     H 8204   4.362   2.782   6.595
  546MPD2    H1 8205   4.524   2.541   6.278
  546MPD2    H2 8206   4.432   2.361   6.640
  546MPD2    H3 8207   4.503   2.356   6.423
  546MPD2     N 8208   4.462   2.796   6.344
  546MPD2    H5 8209   4.500   2.789   6.250
  546MPD2    N1 8210   4.348   2.585   6.767
  546MPD2    H7 8211   4.332   2.499   6.818
  547MPD2     C 8212   0.647   4.210  11.356
  547MPD2    C1 8213   0.538   4.145  11.303
  547MPD2    C2 8214   0.567   4.067  11.188
  547MPD2    C3 8215   0.677   4.087  11.107
  547MPD2    C4 8216   0.779   4.159  11.156
  547MPD2    C5 8217   0.763   4.217  11.282
  547MPD2     H 8218   0.488   4.004  11.148
  547MPD2    H1 8219   0.865   4.177  11.092
  547MPD2    H2 8220   0.647   4.284  11.436
  547MPD2    H3 8221   0.845   4.272  11.327
  547MPD2     N 8222   0.658   4.038  10.975
  547MPD2    H5 8223   0.579   3.975  10.967
  547MPD2    N1 8224   0.409   4.164  11.357
  547MPD2    H7 8225   0.407   4.247  11.415
  548MPD2     C 8226   0.596   4.716  10.493
  548MPD2    C1 8227   0.611   4.588  10.451
  548MPD2    C2 8228   0.668   4.560  10.331
  548MPD2    C3 8229   0.723   4.661  10.257
  548MPD2    C4 8230   0.719   4.789  10.304
  548MPD2    C5 8231   0.647   0.026  10.416
  548MPD2     H 8232   0.678   4.455  10.307
  548MPD2    H1 8233   0.768   0.079  10.256
  548MPD2    H2 8234   0.561   4.731  10.595
  548MPD2    H3 8235   0.650   0.132  10.439
  548MPD2     N 8236   0.787   4.618  10.144
  548MPD2    H5 8237   0.771   4.525  10.106
  548MPD2    N1 8238   0.588   4.483  10.541
  548MPD2    H7 8239   0.528   4.495  10.622
  549MPD2     C 8240   4.563   1.463  13.695
  549MPD2    C1 8241   4.428   1.472  13.722
  549MPD2    C2 8242   4.385   1.417  13.838
  549MPD2    C3 8243   4.466   1.343  13.930
  549MPD2    C4 8244   4.594   1.330  13.893
  549MPD2    C5 8245   4.642   1.389  13.779
  549MPD2     H 8246   4.277   1.410  13.850
  549MPD2    H1 8247   4.666   1.268  13.946
  549MPD2    H2 8248   4.601   1.512  13.606
  549MPD2    H3 8249   4.739   1.367  13.737
  549MPD2     N 8250   4.415   1.266  14.032
  549MPD2    H5 8251   4.482   1.202  14.075
  549MPD2    N1 8252   4.333   1.551  13.643
  549MPD2    H7 8253   4.238   1.556  13.679
  550MPD2     C 8254   3.438   1.321  14.091
  550MPD2    C1 8255   3.462   1.192  14.131
  550MPD2    C2 8256   3.589   1.164  14.182
  550MPD2    C3 8257   3.696   1.257  14.181
  550MPD2    C4 8258   3.662   1.383  14.147
  550MPD2    C5 8259   3.534   1.420  14.105
  550MPD2     H 8260   3.620   1.067  14.218
  550MPD2    H1 8261   3.738   1.461  14.145
  550MPD2    H2 8262   3.340   1.346  14.051
  550MPD2    H3 8263   3.511   1.522  14.076
  550MPD2     N 8264   3.832   1.224  14.198
  550MPD2    H5 8265   3.903   1.290  14.169
  550MPD2    N1 8266   3.356   1.104  14.109
  550MPD2    H7 8267   3.265   1.146  14.097
  551MPD2     C 8268   3.227   4.058   9.388
  551MPD2    C1 8269   3.200   4.165   9.312
  551MPD2    C2 8270   3.296   4.206   9.220
  551MPD2    C3 8271   3.420   4.151   9.208
  551MPD2    C4 8272   3.448   4.053   9.301
  551MPD2    C5 8273   3.349   3.993   9.378
  551MPD2     H 8274   3.265   4.287   9.154
  551MPD2    H1 8275   3.546   4.007   9.296
  551MPD2    H2 8276   3.150   4.003   9.442
  551MPD2    H3 8277   3.359   3.895   9.423
  551MPD2     N 8278   3.510   4.200   9.105
  551MPD2    H5 8279   3.467   4.270   9.046
  551MPD2    N1 8280   3.069   4.227   9.306
  551MPD2    H7 8281   3.053   4.300   9.237
  552MPD2     C 8282   1.079   3.513  15.018
  552MPD2    C1 8283   1.123   3.570  14.899
  552MPD2    C2 8284   1.177   3.491  14.799
  552MPD2    C3 8285   1.179   3.351  14.806
  552MPD2    C4 8286   1.150   3.297  14.926
  552MPD2    C5 8287   1.094   3.373  15.025
  552MPD2     H 8288   1.209   3.541  14.708
  552MPD2    H1 8289   1.151   3.188  14.933
  552MPD2    H2 8290   1.008   3.563  15.083
  552MPD2    H3 8291   1.045   3.324  15.108
  552MPD2     N 8292   1.203   3.274  14.694
  552MPD2    H5 8293   1.229   3.327  14.612
  552MPD2    N1 8294   1.112   3.708  14.877
  552MPD2    H7 8295   1.135   3.740  14.783
  553MPD2     C 8296   1.622   2.846   9.386
  553MPD2    C1 8297   1.649   2.948   9.476
  553MPD2    C2 8298   1.582   2.963   9.593
  553MPD2    C3 8299   1.486   2.873   9.625
  553MPD2    C4 8300   1.455   2.771   9.533
  553MPD2    C5 8301   1.524   2.758   9.414
  553MPD2     H 8302   1.606   3.040   9.666
  553MPD2    H1 8303   1.375   2.700   9.548
  553MPD2    H2 8304   1.679   2.831   9.295
  553MPD2    H3 8305   1.497   2.677   9.347
  553MPD2     N 8306   1.425   2.891   9.750
  553MPD2    H5 8307   1.444   2.982   9.791
  553MPD2    N1 8308   1.762   3.024   9.446
  553MPD2    H7 8309   1.825   2.996   9.371
  554MPD2     C 8310   3.597   2.724  11.326
  554MPD2    C1 8311   3.591   2.702  11.464
  554MPD2    C2 8312   3.471   2.701  11.528
  554MPD2    C3 8313   3.361   2.728  11.447
  554MPD2    C4 8314   3.367   2.726  11.307
  554MPD2    C5 8315   3.487   2.739  11.250
  554MPD2     H 8316   3.461   2.692  11.636
  554MPD2    H1 8317   3.282   2.716  11.241
  554MPD2    H2 8318   3.690   2.731  11.271
  554MPD2    H3 8319   3.502   2.746  11.143
  554MPD2     N 8320   3.237   2.725  11.511
  554MPD2    H5 8321   3.245   2.694  11.607
  554MPD2    N1 8322   3.719   2.677  11.525
  554MPD2    H7 8323   3.793   2.653  11.459
  555MPD2     C 8324   4.276   2.564  12.088
  555MPD2    C1 8325   4.148   2.575  12.123
  555MPD2    C2 8326   4.112   2.627  12.245
  555MPD2    C3 8327   4.205   2.681  12.333
  555MPD2    C4 8328   4.335   2.660  12.295
  555MPD2    C5 8329   4.371   2.604  12.174
  555MPD2     H 8330   4.009   2.632  12.277
  555MPD2    H1 8331   4.418   2.686  12.359
  555MPD2    H2 8332   4.308   2.518  11.995
  555MPD2    H3 8333   4.475   2.581  12.153
  555MPD2     N 8334   4.166   2.727  12.456
  555MPD2    H5 8335   4.066   2.734  12.476
  555MPD2    N1 8336   4.057   2.552  12.021
  555MPD2    H7 8337   4.089   2.546  11.925
  556MPD2     C 8338   3.361   2.990  13.231
  556MPD2    C1 8339   3.248   2.914  13.273
  556MPD2    C2 8340   3.128   2.982  13.292
  556MPD2    C3 8341   3.130   3.122  13.287
  556MPD2    C4 8342   3.246   3.200  13.266
  556MPD2    C5 8343   3.361   3.126  13.236
  556MPD2     H 8344   3.040   2.931  13.329
  556MPD2    H1 8345   3.244   3.308  13.254
  556MPD2    H2 8346   3.454   2.943  13.204
  556MPD2    H3 8347   3.455   3.174  13.213
  556MPD2     N 8348   3.013   3.194  13.324
  556MPD2    H5 8349   3.022   3.289  13.358
  556MPD2    N1 8350   3.248   2.773  13.286
  556MPD2    H7 8351   3.159   2.724  13.289
  557MPD2     C 8352   4.543   2.097  12.463
  557MPD2    C1 8353   4.535   2.095  12.328
  557MPD2    C2 8354   4.618   2.016  12.257
  557MPD2    C3 8355   4.720   1.949  12.318
  557MPD2    C4 8356   4.732   1.968  12.454
  557MPD2    C5 8357   4.642   2.034  12.533
  557MPD2     H 8358   4.612   2.001  12.150
  557MPD2    H1 8359   0.007   1.906  12.511
  557MPD2    H2 8360   4.467   2.146  12.522
  557MPD2    H3 8361   4.650   2.035  12.641
  557MPD2     N 8362   0.008   1.859  12.239
  557MPD2    H5 8363   4.758   1.827  12.153
  557MPD2    N1 8364   4.432   2.153  12.257
  557MPD2    H7 8365   4.411   2.132  12.160
  558MPD2     C 8366   2.320   1.913  14.972
  558MPD2    C1 8367   2.355   1.935  14.841
  558MPD2    C2 8368   2.267   1.922  14.741
  558MPD2    C3 8369   2.135   1.892  14.764
  558MPD2    C4 8370   2.098   1.871  14.894
  558MPD2    C5 8371   2.189   1.873  14.992
  558MPD2     H 8372   2.308   1.936  14.642
  558MPD2    H1 8373   2.006   1.826  14.930
  558MPD2    H2 8374   2.373   1.936  15.064
  558MPD2    H3 8375   2.174   1.839  15.094
  558MPD2     N 8376   2.052   1.865  14.653
  558MPD2    H5 8377   2.099   1.856  14.563
  558MPD2    N1 8378   2.486   1.974  14.812
  558MPD2    H7 8379   2.507   2.015  14.722
  559MPD2     C 8380   1.132   1.964  14.853
  559MPD2    C1 8381   1.255   1.979  14.902
  559MPD2    C2 8382   1.355   1.944  14.812
  559MPD2    C3 8383   1.337   1.907  14.686
  559MPD2    C4 8384   1.213   1.891  14.637
  559MPD2    C5 8385   1.112   1.918  14.726
  559MPD2     H 8386   1.457   1.965  14.841
  559MPD2    H1 8387   1.196   1.852  14.538
  559MPD2    H2 8388   1.048   1.993  14.915
  559MPD2    H3 8389   1.010   1.903  14.693
  559MPD2     N 8390   1.462   1.884  14.615
  559MPD2    H5 8391   1.551   1.893  14.662
  559MPD2    N1 8392   1.274   2.024  15.034
  559MPD2    H7 8393   1.188   2.038  15.087
  560MPD2     C 8394   1.978   1.011  12.004
  560MPD2    C1 8395   2.014   0.878  11.999
  560MPD2    C2 8396   1.921   0.780  11.960
  560MPD2    C3 8397   1.784   0.815  11.955
  560MPD2    C4 8398   1.750   0.946  11.965
  560MPD2    C5 8399   1.845   1.043  11.988
  560MPD2     H 8400   1.942   0.675  11.942
  560MPD2    H1 8401   1.648   0.982  11.958
  560MPD2    H2 8402   2.048   1.090  12.027
  560MPD2    H3 8403   1.829   1.150  11.998
  560MPD2     N 8404   1.694   0.701  11.948
  560MPD2    H5 8405   1.743   0.613  11.942
  560MPD2    N1 8406   2.141   0.833  12.036
  560MPD2    H7 8407   2.215   0.902  12.025
  561MPD2     C 8408   3.205   3.440   8.586
  561MPD2    C1 8409   3.149   3.473   8.460
  561MPD2    C2 8410   3.225   3.556   8.378
  561MPD2    C3 8411   3.353   3.595   8.420
  561MPD2    C4 8412   3.401   3.558   8.540
  561MPD2    C5 8413   3.325   3.491   8.624
  561MPD2     H 8414   3.187   3.581   8.280
  561MPD2    H1 8415   3.503   3.580   8.569
  561MPD2    H2 8416   3.147   3.379   8.655
  561MPD2    H3 8417   3.369   3.467   8.720
  561MPD2     N 8418   3.436   3.673   8.337
  561MPD2    H5 8419   3.535   3.667   8.355
  561MPD2    N1 8420   3.022   3.433   8.427
  561MPD2    H7 8421   2.978   3.388   8.506
  562MPD2     C 8422   2.648   3.932   8.822
  562MPD2    C1 8423   2.759   3.887   8.760
  562MPD2    C2 8424   2.739   3.820   8.638
  562MPD2    C3 8425   2.610   3.791   8.592
  562MPD2    C4 8426   2.503   3.826   8.664
  562MPD2    C5 8427   2.522   3.894   8.780
  562MPD2     H 8428   2.816   3.769   8.582
  562MPD2    H1 8429   2.401   3.795   8.645
  562MPD2    H2 8430   2.646   4.011   8.897
  562MPD2    H3 8431   2.433   3.917   8.837
  562MPD2     N 8432   2.617   3.704   8.485
  562MPD2    H5 8433   2.709   3.665   8.470
  562MPD2    N1 8434   2.896   3.892   8.803
  562MPD2    H7 8435   2.963   3.842   8.744
  563MPD2     C 8436   0.698   1.304  10.607
  563MPD2    C1 8437   0.660   1.369  10.719
  563MPD2    C2 8438   0.730   1.493  10.742
  563MPD2    C3 8439   0.822   1.536  10.647
  563MPD2    C4 8440   0.852   1.467  10.530
  563MPD2    C5 8441   0.786   1.346  10.514
  563MPD2     H 8442   0.716   1.555  10.830
  563MPD2    H1 8443   0.941   1.491  10.472
  563MPD2    H2 8444   0.638   1.221  10.572
  563MPD2    H3 8445   0.812   1.274  10.436
  563MPD2     N 8446   0.883   1.658  10.682
  563MPD2    H5 8447   0.844   1.711  10.759
  563MPD2    N1 8448   0.571   1.315  10.810
  563MPD2    H7 8449   0.536   1.221  10.793
  564MPD2     C 8450   4.705   4.520  13.033
  564MPD2    C1 8451   4.626   4.611  12.965
  564MPD2    C2 8452   4.625   4.621  12.831
  564MPD2    C3 8453   4.716   4.536  12.759
  564MPD2    C4 8454   4.788   4.439  12.826
  564MPD2    C5 8455   4.779   4.429  12.960
  564MPD2     H 8456   4.564   4.699  12.785
  564MPD2    H1 8457   0.047   4.365  12.766
  564MPD2    H2 8458   4.703   4.517  13.141
  564MPD2    H3 8459   0.042   4.360  13.023
  564MPD2     N 8460   4.727   4.543  12.616
  564MPD2    H5 8461   4.772   4.460  12.578
  564MPD2    N1 8462   4.556   4.712  13.038
  564MPD2    H7 8463   4.518   4.788  12.983
  565MPD2     C 8464   4.108   4.718  13.946
  565MPD2    C1 8465   4.038   4.789  13.849
  565MPD2    C2 8466   4.108   0.045  13.749
  565MPD2    C3 8467   4.236   0.001  13.720
  565MPD2    C4 8468   4.313   4.734  13.821
  565MPD2    C5 8469   4.242   4.702  13.933
  565MPD2     H 8470   4.052   0.110  13.682
  565MPD2    H1 8471   4.418   4.709  13.812
  565MPD2    H2 8472   4.068   4.674  14.036
  565MPD2    H3 8473   4.293   4.653  14.016
  565MPD2     N 8474   4.308   0.046  13.602
  565MPD2    H5 8475   4.409   0.041  13.612
  565MPD2    N1 8476   3.909   0.036  13.869
  565MPD2    H7 8477   3.852   0.073  13.794
  566MPD2     C 8478   2.850   3.703  12.203
  566MPD2    C1 8479   2.770   3.602  12.218
  566MPD2    C2 8480   2.663   3.610  12.308
  566MPD2    C3 8481   2.642   3.732  12.383
  566MPD2    C4 8482   2.729   3.839  12.363
  566MPD2    C5 8483   2.830   3.822  12.268
  566MPD2     H 8484   2.605   3.521  12.327
  566MPD2    H1 8485   2.722   3.939  12.403
  566MPD2    H2 8486   2.944   3.685  12.151
  566MPD2    H3 8487   2.894   3.904  12.238
  566MPD2     N 8488   2.532   3.756  12.468
  566MPD2    H5 8489   2.539   3.844  12.519
  566MPD2    N1 8490   2.821   3.485  12.159
  566MPD2    H7 8491   2.904   3.479  12.102
  567MPD2     C 8492   3.369   2.724   8.773
  567MPD2    C1 8493   3.364   2.590   8.745
  567MPD2    C2 8494   3.404   2.535   8.622
  567MPD2    C3 8495   3.422   2.618   8.510
  567MPD2    C4 8496   3.417   2.747   8.542
  567MPD2    C5 8497   3.405   2.799   8.669
  567MPD2     H 8498   3.395   2.428   8.609
  567MPD2    H1 8499   3.445   2.818   8.465
  567MPD2    H2 8500   3.361   2.774   8.869
  567MPD2    H3 8501   3.423   2.906   8.674
  567MPD2     N 8502   3.442   2.580   8.376
  567MPD2    H5 8503   3.448   2.651   8.304
  567MPD2    N1 8504   3.321   2.499   8.845
  567MPD2    H7 8505   3.354   2.403   8.835
  568MPD2     C 8506   3.459   3.013   7.519
  568MPD2    C1 8507   3.338   2.954   7.548
  568MPD2    C2 8508   3.329   2.862   7.648
  568MPD2    C3 8509   3.433   2.809   7.713
  568MPD2    C4 8510   3.556   2.873   7.697
  568MPD2    C5 8511   3.568   2.966   7.595
  568MPD2     H 8512   3.231   2.818   7.659
  568MPD2    H1 8513   3.650   2.831   7.733
  568MPD2    H2 8514   3.474   3.091   7.446
  568MPD2    H3 8515   3.664   3.009   7.569
  568MPD2     N 8516   3.414   2.703   7.808
  568MPD2    H5 8517   3.318   2.668   7.805
  568MPD2    N1 8518   3.224   2.979   7.463
  568MPD2    H7 8519   3.138   2.932   7.489
  569MPD2     C 8520   3.734   1.420  12.668
  569MPD2    C1 8521   3.714   1.311  12.583
  569MPD2    C2 8522   3.623   1.213  12.603
  569MPD2    C3 8523   3.545   1.208  12.713
  569MPD2    C4 8524   3.559   1.313  12.797
  569MPD2    C5 8525   3.646   1.422  12.770
  569MPD2     H 8526   3.614   1.139  12.524
  569MPD2    H1 8527   3.495   1.329  12.883
  569MPD2    H2 8528   3.793   1.509  12.646
  569MPD2    H3 8529   3.647   1.506  12.839
  569MPD2     N 8530   3.449   1.107  12.754
  569MPD2    H5 8531   3.424   1.112  12.852
  569MPD2    N1 8532   3.784   1.313  12.460
  569MPD2    H7 8533   3.743   1.252  12.390
  570MPD2     C 8534   4.574   3.659  13.646
  570MPD2    C1 8535   4.441   3.668  13.610
  570MPD2    C2 8536   4.408   3.627  13.485
  570MPD2    C3 8537   4.495   3.578  13.392
  570MPD2    C4 8538   4.629   3.580  13.428
  570MPD2    C5 8539   4.662   3.623  13.554
  570MPD2     H 8540   4.303   3.624  13.456
  570MPD2    H1 8541   4.703   3.564  13.351
  570MPD2    H2 8542   4.615   3.691  13.741
  570MPD2    H3 8543   4.769   3.631  13.570
  570MPD2     N 8544   4.444   3.527  13.269
  570MPD2    H5 8545   4.344   3.538  13.259
  570MPD2    N1 8546   4.336   3.697  13.701
  570MPD2    H7 8547   4.245   3.689  13.657
  571MPD2     C 8548   2.966   2.309   8.670
  571MPD2    C1 8549   2.926   2.436   8.724
  571MPD2    C2 8550   2.865   2.439   8.848
  571MPD2    C3 8551   2.829   2.321   8.916
  571MPD2    C4 8552   2.854   2.198   8.860
  571MPD2    C5 8553   2.926   2.198   8.744
  571MPD2     H 8554   2.832   2.533   8.893
  571MPD2    H1 8555   2.818   2.105   8.904
  571MPD2    H2 8556   3.050   2.306   8.601
  571MPD2    H3 8557   2.966   2.104   8.709
  571MPD2     N 8558   2.755   2.354   9.030
  571MPD2    H5 8559   2.764   2.451   9.060
  571MPD2    N1 8560   2.946   2.561   8.662
  571MPD2    H7 8561   2.908   2.641   8.712
  572MPD2     C 8562   2.820   3.006   9.236
  572MPD2    C1 8563   2.843   2.872   9.201
  572MPD2    C2 8564   2.912   2.846   9.085
  572MPD2    C3 8565   2.964   2.950   9.007
  572MPD2    C4 8566   2.962   3.079   9.050
  572MPD2    C5 8567   2.873   3.102   9.155
  572MPD2     H 8568   2.926   2.748   9.041
  572MPD2    H1 8569   3.003   3.162   8.995
  572MPD2    H2 8570   2.753   3.020   9.320
  572MPD2    H3 8571   2.852   3.207   9.171
  572MPD2     N 8572   3.010   2.914   8.877
  572MPD2    H5 8573   3.008   2.814   8.856
  572MPD2    N1 8574   2.759   2.776   9.267
  572MPD2    H7 8575   2.720   2.801   9.358
  573MPD2     C 8576   0.356   1.719   6.519
  573MPD2    C1 8577   0.399   1.714   6.644
  573MPD2    C2 8578   0.480   1.615   6.673
  573MPD2    C3 8579   0.549   1.552   6.570
  573MPD2    C4 8580   0.524   1.577   6.441
  573MPD2    C5 8581   0.414   1.655   6.412
  573MPD2     H 8582   0.499   1.587   6.776
  573MPD2    H1 8583   0.581   1.528   6.363
  573MPD2    H2 8584   0.277   1.788   6.490
  573MPD2    H3 8585   0.398   1.667   6.305
  573MPD2     N 8586   0.651   1.458   6.596
  573MPD2    H5 8587   0.707   1.427   6.516
  573MPD2    N1 8588   0.332   1.795   6.736
  573MPD2    H7 8589   0.258   1.852   6.697
  574MPD2     C 8590   0.724   1.240   6.168
  574MPD2    C1 8591   0.806   1.220   6.279
  574MPD2    C2 8592   0.867   1.332   6.330
  574MPD2    C3 8593   0.842   1.465   6.288
  574MPD2    C4 8594   0.768   1.473   6.170
  574MPD2    C5 8595   0.703   1.365   6.113
  574MPD2     H 8596   0.939   1.318   6.410
  574MPD2    H1 8597   0.747   1.574   6.136
  574MPD2    H2 8598   0.682   1.151   6.121
  574MPD2    H3 8599   0.646   1.374   6.022
  574MPD2     N 8600   0.898   1.583   6.339
  574MPD2    H5 8601   0.866   1.663   6.285
  574MPD2    N1 8602   0.826   1.090   6.335
  574MPD2    H7 8603   0.785   1.012   6.285
  575MPD2     C 8604   2.680   2.403   7.513
  575MPD2    C1 8605   2.592   2.497   7.477
  575MPD2    C2 8606   2.646   2.612   7.405
  575MPD2    C3 8607   2.782   2.624   7.378
  575MPD2    C4 8608   2.860   2.523   7.422
  575MPD2    C5 8609   2.812   2.411   7.485
  575MPD2     H 8610   2.583   2.692   7.365
  575MPD2    H1 8611   2.968   2.526   7.408
  575MPD2    H2 8612   2.641   2.319   7.569
  575MPD2    H3 8613   2.872   2.325   7.513
  575MPD2     N 8614   2.842   2.744   7.335
  575MPD2    H5 8615   2.943   2.746   7.346
  575MPD2    N1 8616   2.460   2.481   7.522
  575MPD2    H7 8617   2.441   2.403   7.584
  576MPD2     C 8618   0.793   3.884  12.227
  576MPD2    C1 8619   0.783   4.019  12.220
  576MPD2    C2 8620   0.879   4.086  12.152
  576MPD2    C3 8621   0.988   4.029  12.088
  576MPD2    C4 8622   1.006   3.890  12.108
  576MPD2    C5 8623   0.902   3.824  12.165
  576MPD2     H 8624   0.877   4.194  12.156
  576MPD2    H1 8625   1.096   3.843  12.071
  576MPD2    H2 8626   0.720   3.822  12.277
  576MPD2    H3 8627   0.906   3.716  12.175
  576MPD2     N 8628   1.097   4.095  12.026
  576MPD2    H5 8629   1.177   4.035  12.011
  576MPD2    N1 8630   0.676   4.080  12.290
  576MPD2    H7 8631   0.637   4.021  12.363
  577MPD2     C 8632   1.225   4.115  12.526
  577MPD2    C1 8633   1.183   4.223  12.458
  577MPD2    C2 8634   1.067   4.293  12.488
  577MPD2    C3 8635   0.978   4.238  12.576
  577MPD2    C4 8636   1.016   4.117  12.640
  577MPD2    C5 8637   1.141   4.062  12.623
  577MPD2     H 8638   1.040   4.379  12.426
  577MPD2    H1 8639   0.961   4.055  12.710
  577MPD2    H2 8640   1.318   4.064  12.504
  577MPD2    H3 8641   1.167   3.968  12.670
  577MPD2     N 8642   0.851   4.294  12.610
  577MPD2    H5 8643   0.801   4.228  12.669
  577MPD2    N1 8644   1.265   4.263  12.354
  577MPD2    H7 8645   1.327   4.188  12.323
  578MPD2     C 8646   0.968   1.045  13.043
  578MPD2    C1 8647   1.021   1.101  12.933
  578MPD2    C2 8648   0.943   1.183  12.852
  578MPD2    C3 8649   0.810   1.204  12.891
  578MPD2    C4 8650   0.758   1.144  13.005
  578MPD2    C5 8651   0.837   1.062  13.076
  578MPD2     H 8652   0.970   1.225  12.756
  578MPD2    H1 8653   0.655   1.151  13.037
  578MPD2    H2 8654   1.021   0.971  13.102
  578MPD2    H3 8655   0.793   1.007  13.158
  578MPD2     N 8656   0.735   1.264  12.792
  578MPD2    H5 8657   0.788   1.277  12.707
  578MPD2    N1 8658   1.161   1.085  12.909
  578MPD2    H7 8659   1.211   1.039  12.984
  579MPD2     C 8660   0.632   0.855  12.225
  579MPD2    C1 8661   0.530   0.944  12.199
  579MPD2    C2 8662   0.462   0.942  12.083
  579MPD2    C3 8663   0.485   0.843  11.988
  579MPD2    C4 8664   0.582   0.748  12.015
  579MPD2    C5 8665   0.654   0.755  12.130
  579MPD2     H 8666   0.392   1.018  12.051
  579MPD2    H1 8667   0.599   0.671  11.941
  579MPD2    H2 8668   0.694   0.865  12.314
  579MPD2    H3 8669   0.745   0.696  12.137
  579MPD2     N 8670   0.428   0.852  11.855
  579MPD2    H5 8671   0.479   0.807  11.780
  579MPD2    N1 8672   0.502   1.064  12.276
  579MPD2    H7 8673   0.413   1.111  12.263
  580MPD2     C 8674   3.996   3.361  10.218
  580MPD2    C1 8675   4.072   3.481  10.258
  580MPD2    C2 8676   4.206   3.471  10.254
  580MPD2    C3 8677   4.277   3.353  10.242
  580MPD2    C4 8678   4.202   3.236  10.227
  580MPD2    C5 8679   4.065   3.244  10.216
  580MPD2     H 8680   4.258   3.562  10.278
  580MPD2    H1 8681   4.238   3.135  10.209
  580MPD2    H2 8682   3.887   3.360  10.225
  580MPD2    H3 8683   4.005   3.156  10.198
  580MPD2     N 8684   4.420   3.347  10.253
  580MPD2    H5 8685   4.461   3.254  10.248
  580MPD2    N1 8686   4.022   3.608  10.282
  580MPD2    H7 8687   4.078   3.681  10.325
  581MPD2     C 8688   4.248   4.282  10.224
  581MPD2    C1 8689   4.210   4.162  10.270
  581MPD2    C2 8690   4.260   4.050  10.209
  581MPD2    C3 8691   4.356   4.051  10.105
  581MPD2    C4 8692   4.391   4.178  10.066
  581MPD2    C5 8693   4.341   4.288  10.125
  581MPD2     H 8694   4.226   3.961  10.260
  581MPD2    H1 8695   4.449   4.182   9.975
  581MPD2    H2 8696   4.208   4.367  10.277
  581MPD2    H3 8697   4.367   4.386  10.086
  581MPD2     N 8698   4.400   3.947  10.021
  581MPD2    H5 8699   4.458   3.965   9.940
  581MPD2    N1 8700   4.104   4.163  10.362
  581MPD2    H7 8701   4.033   4.232  10.339
  582MPD2     C 8702   0.036   0.751  10.325
  582MPD2    C1 8703   4.763   0.818  10.223
  582MPD2    C2 8704   4.648   0.758  10.172
  582MPD2    C3 8705   4.607   0.636  10.214
  582MPD2    C4 8706   4.664   0.578  10.332
  582MPD2    C5 8707   4.775   0.640  10.383
  582MPD2     H 8708   4.607   0.812  10.087
  582MPD2    H1 8709   4.620   0.491  10.380
  582MPD2    H2 8710   0.124   0.790  10.375
  582MPD2    H3 8711   0.038   0.602  10.468
  582MPD2     N 8712   4.486   0.580  10.160
  582MPD2    H5 8713   4.448   0.500  10.210
  582MPD2    N1 8714   0.014   0.940  10.164
  582MPD2    H7 8715   4.744   0.978  10.094
  583MPD2     C 8716   0.460   0.906   7.706
  583MPD2    C1 8717   0.411   0.898   7.580
  583MPD2    C2 8718   0.351   1.006   7.524
  583MPD2    C3 8719   0.347   1.127   7.589
  583MPD2    C4 8720   0.401   1.134   7.713
  583MPD2    C5 8721   0.466   1.023   7.767
  583MPD2     H 8722   0.321   0.995   7.421
  583MPD2    H1 8723   0.400   1.230   7.763
  583MPD2    H2 8724   0.501   0.821   7.761
  583MPD2    H3 8725   0.519   1.035   7.861
  583MPD2     N 8726   0.295   1.235   7.506
  583MPD2    H5 8727   0.259   1.216   7.413
  583MPD2    N1 8728   0.402   0.765   7.509
  583MPD2    H7 8729   0.325   0.741   7.447
  584MPD2     C 8730   0.810   4.763   7.098
  584MPD2    C1 8731   0.778   0.100   7.060
  584MPD2    C2 8732   0.718   0.180   7.160
  584MPD2    C3 8733   0.682   0.131   7.280
  584MPD2    C4 8734   0.711   4.793   7.316
  584MPD2    C5 8735   0.776   4.716   7.225
  584MPD2     H 8736   0.689   0.282   7.139
  584MPD2    H1 8737   0.690   4.753   7.415
  584MPD2    H2 8738   0.857   4.694   7.029
  584MPD2    H3 8739   0.797   4.612   7.248
  584MPD2     N 8740   0.606   0.229   7.356
  584MPD2    H5 8741   0.611   0.328   7.333
  584MPD2    N1 8742   0.812   0.147   6.930
  584MPD2    H7 8743   0.882   0.094   6.879
  585MPD2     C 8744   3.466   0.951  11.849
  585MPD2    C1 8745   3.493   1.082  11.824
  585MPD2    C2 8746   3.617   1.140  11.847
  585MPD2    C3 8747   3.707   1.066  11.918
  585MPD2    C4 8748   3.682   0.933  11.945
  585MPD2    C5 8749   3.566   0.876  11.904
  585MPD2     H 8750   3.650   1.241  11.828
  585MPD2    H1 8751   3.746   0.861  11.994
  585MPD2    H2 8752   3.368   0.910  11.828
  585MPD2    H3 8753   3.554   0.768  11.904
  585MPD2     N 8754   3.816   1.136  11.978
  585MPD2    H5 8755   3.811   1.237  11.971
  585MPD2    N1 8756   3.388   1.147  11.751
  585MPD2    H7 8757   3.324   1.082  11.708
  586MPD2     C 8758   2.673   2.856  10.846
  586MPD2    C1 8759   2.665   2.781  10.965
  586MPD2    C2 8760   2.576   2.677  10.968
  586MPD2    C3 8761   2.501   2.647  10.853
  586MPD2    C4 8762   2.509   2.724  10.743
  586MPD2    C5 8763   2.588   2.830  10.744
  586MPD2     H 8764   2.552   2.624  11.059
  586MPD2    H1 8765   2.448   2.710  10.655
  586MPD2    H2 8766   2.747   2.926  10.808
  586MPD2    H3 8767   2.603   2.885  10.651
  586MPD2     N 8768   2.401   2.546  10.858
  586MPD2    H5 8769   2.391   2.508  10.952
  586MPD2    N1 8770   2.764   2.809  11.064
  586MPD2    H7 8771   2.765   2.757  11.152
  587MPD2     C 8772   4.348   1.267  11.485
  587MPD2    C1 8773   4.455   1.353  11.506
  587MPD2    C2 8774   4.583   1.307  11.503
  587MPD2    C3 8775   4.606   1.172  11.485
  587MPD2    C4 8776   4.500   1.083  11.462
  587MPD2    C5 8777   4.371   1.132  11.454
  587MPD2     H 8778   4.667   1.372  11.525
  587MPD2    H1 8779   4.532   0.982  11.439
  587MPD2    H2 8780   4.247   1.306  11.485
  587MPD2    H3 8781   4.286   1.068  11.434
  587MPD2     N 8782   4.735   1.128  11.482
  587MPD2    H5 8783   0.022   1.190  11.480
  587MPD2    N1 8784   4.419   1.486  11.556
  587MPD2    H7 8785   4.321   1.510  11.544
  588MPD2     C 8786   0.079   1.912  11.459
  588MPD2    C1 8787   4.736   1.927  11.431
  588MPD2    C2 8788   4.652   1.962  11.534
  588MPD2    C3 8789   4.700   1.993  11.659
  588MPD2    C4 8790   0.044   2.003  11.675
  588MPD2    C5 8791   0.127   1.956  11.578
  588MPD2     H 8792   4.546   1.961  11.511
  588MPD2    H1 8793   0.088   2.047  11.764
  588MPD2    H2 8794   0.159   1.900  11.386
  588MPD2    H3 8795   0.233   1.959  11.599
  588MPD2     N 8796   4.626   2.033  11.776
  588MPD2    H5 8797   4.676   2.085  11.847
  588MPD2    N1 8798   4.681   1.898  11.306
  588MPD2    H7 8799   4.586   1.933  11.296
  589MPD2     C 8800   3.941   3.915  13.187
  589MPD2    C1 8801   4.048   3.941  13.106
  589MPD2    C2 8802   4.111   3.835  13.043
  589MPD2    C3 8803   4.062   3.706  13.058
  589MPD2    C4 8804   3.954   3.679  13.141
  589MPD2    C5 8805   3.895   3.789  13.197
  589MPD2     H 8806   4.202   3.868  12.995
  589MPD2    H1 8807   3.906   3.582  13.144
  589MPD2    H2 8808   3.882   3.987  13.242
  589MPD2    H3 8809   3.814   3.765  13.265
  589MPD2     N 8810   4.110   3.593  12.985
  589MPD2    H5 8811   4.076   3.501  13.008
  589MPD2    N1 8812   4.124   4.064  13.110
  589MPD2    H7 8813   4.203   4.076  13.048
  590MPD2     C 8814   1.598   2.359   6.307
  590MPD2    C1 8815   1.578   2.336   6.440
  590MPD2    C2 8816   1.505   2.221   6.482
  590MPD2    C3 8817   1.419   2.165   6.393
  590MPD2    C4 8818   1.424   2.198   6.261
  590MPD2    C5 8819   1.513   2.301   6.220
  590MPD2     H 8820   1.499   2.194   6.587
  590MPD2    H1 8821   1.363   2.146   6.189
  590MPD2    H2 8822   1.663   2.439   6.272
  590MPD2    H3 8823   1.518   2.326   6.115
  590MPD2     N 8824   1.325   2.077   6.450
  590MPD2    H5 8825   1.347   2.059   6.547
  590MPD2    N1 8826   1.637   2.418   6.534
  590MPD2    H7 8827   1.713   2.479   6.505
  591MPD2     C 8828   1.228   2.668  13.694
  591MPD2    C1 8829   1.165   2.551  13.687
  591MPD2    C2 8830   1.147   2.485  13.812
  591MPD2    C3 8831   1.226   2.522  13.922
  591MPD2    C4 8832   1.295   2.639  13.926
  591MPD2    C5 8833   1.293   2.714  13.808
  591MPD2     H 8834   1.089   2.394  13.808
  591MPD2    H1 8835   1.350   2.680  14.011
  591MPD2    H2 8836   1.222   2.730  13.605
  591MPD2    H3 8837   1.327   2.817  13.807
  591MPD2     N 8838   1.248   2.445  14.039
  591MPD2    H5 8839   1.302   2.487  14.114
  591MPD2    N1 8840   1.094   2.497  13.578
  591MPD2    H7 8841   1.017   2.435  13.600
  592MPD2     C 8842   2.950   0.482   8.666
  592MPD2    C1 8843   3.039   0.561   8.738
  592MPD2    C2 8844   3.046   0.697   8.721
  592MPD2    C3 8845   2.949   0.752   8.637
  592MPD2    C4 8846   2.851   0.674   8.580
  592MPD2    C5 8847   2.847   0.536   8.589
  592MPD2     H 8848   3.126   0.753   8.768
  592MPD2    H1 8849   2.773   0.717   8.519
  592MPD2    H2 8850   2.958   0.375   8.680
  592MPD2    H3 8851   2.760   0.478   8.558
  592MPD2     N 8852   2.966   0.893   8.607
  592MPD2    H5 8853   3.038   0.941   8.660
  592MPD2    N1 8854   3.136   0.486   8.807
  592MPD2    H7 8855   3.137   0.386   8.788
  593MPD2     C 8856   3.436   0.117   9.705
  593MPD2    C1 8857   3.328   0.133   9.625
  593MPD2    C2 8858   3.340   0.186   9.499
  593MPD2    C3 8859   3.464   0.215   9.446
  593MPD2    C4 8860   3.577   0.193   9.529
  593MPD2    C5 8861   3.559   0.151   9.659
  593MPD2     H 8862   3.248   0.199   9.442
  593MPD2    H1 8863   3.676   0.213   9.490
  593MPD2    H2 8864   3.437   0.096   9.812
  593MPD2    H3 8865   3.645   0.128   9.720
  593MPD2     N 8866   3.484   0.260   9.314
  593MPD2    H5 8867   3.580   0.283   9.291
  593MPD2    N1 8868   3.197   0.120   9.680
  593MPD2    H7 8869   3.123   0.122   9.610
  594MPD2     C 8870   1.163   0.711   7.402
  594MPD2    C1 8871   1.055   0.717   7.489
  594MPD2    C2 8872   1.020   0.834   7.548
  594MPD2    C3 8873   1.085   0.952   7.515
  594MPD2    C4 8874   1.181   0.941   7.415
  594MPD2    C5 8875   1.226   0.823   7.364
  594MPD2     H 8876   0.950   0.839   7.630
  594MPD2    H1 8877   1.219   1.035   7.376
  594MPD2    H2 8878   1.185   0.613   7.360
  594MPD2    H3 8879   1.306   0.818   7.291
  594MPD2     N 8880   1.037   1.069   7.576
  594MPD2    H5 8881   0.957   1.069   7.638
  594MPD2    N1 8882   0.986   0.609   7.549
  594MPD2    H7 8883   0.904   0.641   7.599
  595MPD2     C 8884   3.270   4.633  13.668
  595MPD2    C1 8885   3.372   4.705  13.607
  595MPD2    C2 8886   3.408   4.684  13.479
  595MPD2    C3 8887   3.353   4.578  13.414
  595MPD2    C4 8888   3.255   4.505  13.480
  595MPD2    C5 8889   3.213   4.533  13.605
  595MPD2     H 8890   3.483   4.750  13.437
  595MPD2    H1 8891   3.216   4.418  13.428
  595MPD2    H2 8892   3.214   4.651  13.759
  595MPD2    H3 8893   3.129   4.483  13.651
  595MPD2     N 8894   3.407   4.545  13.286
  595MPD2    H5 8895   3.465   4.610  13.233
  595MPD2    N1 8896   3.445   0.016  13.673
  595MPD2    H7 8897   3.512   0.067  13.617
  596MPD2     C 8898   0.193   4.612  12.006
  596MPD2    C1 8899   0.093   4.658  11.918
  596MPD2    C2 8900   0.066   4.585  11.800
  596MPD2    C3 8901   0.133   4.470  11.771
  596MPD2    C4 8902   0.230   4.425  11.866
  596MPD2    C5 8903   0.259   4.500  11.974
  596MPD2     H 8904   4.777   4.617  11.737
  596MPD2    H1 8905   0.288   4.334  11.863
  596MPD2    H2 8906   0.220   4.638  12.107
  596MPD2    H3 8907   0.321   4.465  12.056
  596MPD2     N 8908   0.114   4.386  11.660
  596MPD2    H5 8909   0.172   4.307  11.634
  596MPD2    N1 8910   0.032   4.779  11.937
  596MPD2    H7 8911   4.760   0.024  11.870
  597MPD2     C 8912   3.570   3.620   9.385
  597MPD2    C1 8913   3.433   3.629   9.377
  597MPD2    C2 8914   3.350   3.582   9.483
  597MPD2    C3 8915   3.411   3.521   9.597
  597MPD2    C4 8916   3.547   3.521   9.602
  597MPD2    C5 8917   3.626   3.567   9.498
  597MPD2     H 8918   3.245   3.576   9.460
  597MPD2    H1 8919   3.601   3.461   9.675
  597MPD2    H2 8920   3.631   3.638   9.297
  597MPD2    H3 8921   3.732   3.575   9.517
  597MPD2     N 8922   3.332   3.452   9.692
  597MPD2    H5 8923   3.391   3.388   9.744
  597MPD2    N1 8924   3.384   3.690   9.257
  597MPD2    H7 8925   3.448   3.722   9.185
  598MPD2     C 8926   3.564   4.095   8.367
  598MPD2    C1 8927   3.614   3.982   8.425
  598MPD2    C2 8928   3.562   3.932   8.543
  598MPD2    C3 8929   3.456   3.992   8.600
  598MPD2    C4 8930   3.396   4.104   8.545
  598MPD2    C5 8931   3.454   4.157   8.425
  598MPD2     H 8932   3.613   3.845   8.583
  598MPD2    H1 8933   3.305   4.149   8.582
  598MPD2    H2 8934   3.609   4.131   8.275
  598MPD2    H3 8935   3.400   4.241   8.384
  598MPD2     N 8936   3.383   3.954   8.710
  598MPD2    H5 8937   3.307   4.016   8.738
  598MPD2    N1 8938   3.699   3.915   8.338
  598MPD2    H7 8939   3.725   3.958   8.250
  599MPD2     C 8940   2.566   2.505  13.405
  599MPD2    C1 8941   2.662   2.516  13.506
  599MPD2    C2 8942   2.791   2.464  13.488
  599MPD2    C3 8943   2.839   2.409  13.368
  599MPD2    C4 8944   2.746   2.397  13.271
  599MPD2    C5 8945   2.613   2.434  13.295
  599MPD2     H 8946   2.858   2.465  13.573
  599MPD2    H1 8947   2.778   2.355  13.177
  599MPD2    H2 8948   2.462   2.529  13.426
  599MPD2    H3 8949   2.540   2.421  13.216
  599MPD2     N 8950   2.975   2.368  13.361
  599MPD2    H5 8951   3.034   2.378  13.443
  599MPD2    N1 8952   2.619   2.569  13.628
  599MPD2    H7 8953   2.519   2.585  13.631
  600MPD2     C 8954   0.048   0.416  14.460
  600MPD2    C1 8955   0.067   0.551  14.455
  600MPD2    C2 8956   0.183   0.607  14.412
  600MPD2    C3 8957   0.263   0.527  14.335
  600MPD2    C4 8958   0.230   0.397  14.321
  600MPD2    C5 8959   0.127   0.339  14.389
  600MPD2     H 8960   0.198   0.713  14.428
  600MPD2    H1 8961   0.292   0.324  14.269
  600MPD2    H2 8962   4.756   0.369  14.507
  600MPD2    H3 8963   0.128   0.231  14.381
  600MPD2     N 8964   0.370   0.573  14.253
  600MPD2    H5 8965   0.417   0.503  14.197
  600MPD2    N1 8966   4.765   0.637  14.514
  600MPD2    H7 8967   4.713   0.591  14.588
  601MPD2     C 8968   0.595   1.083   7.187
  601MPD2    C1 8969   0.574   1.198   7.249
  601MPD2    C2 8970   0.496   1.283   7.191
  601MPD2    C3 8971   0.410   1.245   7.092
  601MPD2    C4 8972   0.429   1.123   7.030
  601MPD2    C5 8973   0.530   1.043   7.076
  601MPD2     H 8974   0.488   1.384   7.230
  601MPD2    H1 8975   0.367   1.074   6.956
  601MPD2    H2 8976   0.679   1.020   7.212
  601MPD2    H3 8977   0.560   0.951   7.027
  601MPD2     N 8978   0.296   1.316   7.040
  601MPD2    H5 8979   0.255   1.275   6.957
  601MPD2    N1 8980   0.650   1.232   7.368
  601MPD2    H7 8981   0.718   1.162   7.396
  602MPD2     C 8982   0.531   0.768  11.182
  602MPD2    C1 8983   0.402   0.822  11.192
  602MPD2    C2 8984   0.315   0.773  11.283
  602MPD2    C3 8985   0.354   0.667  11.367
  602MPD2    C4 8986   0.478   0.607  11.353
  602MPD2    C5 8987   0.563   0.655  11.253
  602MPD2     H 8988   0.220   0.824  11.295
  602MPD2    H1 8989   0.514   0.533  11.423
  602MPD2    H2 8990   0.600   0.797  11.104
  602MPD2    H3 8991   0.662   0.610  11.248
  602MPD2     N 8992   0.276   0.617  11.479
  602MPD2    H5 8993   0.328   0.555  11.540
  602MPD2    N1 8994   0.385   0.943  11.119
  602MPD2    H7 8995   0.465   0.991  11.080
  603MPD2     C 8996   3.096   3.557  10.346
  603MPD2    C1 8997   3.165   3.573  10.462
  603MPD2    C2 8998   3.101   3.533  10.577
  603MPD2    C3 8999   2.976   3.479  10.579
  603MPD2    C4 9000   2.920   3.451  10.453
  603MPD2    C5 9001   2.986   3.484  10.342
  603MPD2     H 9002   3.149   3.566  10.669
  603MPD2    H1 9003   2.820   3.412  10.438
  603MPD2    H2 9004   3.136   3.582  10.248
  603MPD2    H3 9005   2.930   3.459  10.253
  603MPD2     N 9006   2.908   3.458  10.703
  603MPD2    H5 9007   2.931   3.513  10.786
  603MPD2    N1 9008   3.286   3.642  10.464
  603MPD2    H7 9009   3.296   3.715  10.533
  604MPD2     C 9010   3.993   3.298   9.764
  604MPD2    C1 9011   4.015   3.403   9.850
  604MPD2    C2 9012   3.910   3.450   9.923
  604MPD2    C3 9013   3.785   3.388   9.919
  604MPD2    C4 9014   3.768   3.293   9.819
  604MPD2    C5 9015   3.867   3.246   9.750
  604MPD2     H 9016   3.939   3.517  10.004
  604MPD2    H1 9017   3.680   3.230   9.813
  604MPD2    H2 9018   4.065   3.255   9.696
  604MPD2    H3 9019   3.861   3.169   9.673
  604MPD2     N 9020   3.689   3.412  10.023
  604MPD2    H5 9021   3.717   3.478  10.095
  604MPD2    N1 9022   4.145   3.457   9.882
  604MPD2    H7 9023   4.144   3.537   9.945
  605MPD2     C 9024   2.140   2.018   8.493
  605MPD2    C1 9025   2.023   2.057   8.549
  605MPD2    C2 9026   1.906   2.047   8.473
  605MPD2    C3 9027   1.902   2.005   8.344
  605MPD2    C4 9028   2.026   1.955   8.294
  605MPD2    C5 9029   2.141   1.962   8.367
  605MPD2     H 9030   1.811   2.072   8.518
  605MPD2    H1 9031   2.026   1.900   8.201
  605MPD2    H2 9032   2.238   2.020   8.539
  605MPD2    H3 9033   2.233   1.917   8.332
  605MPD2     N 9034   1.783   2.001   8.267
  605MPD2    H5 9035   1.801   1.958   8.177
  605MPD2    N1 9036   2.016   2.128   8.667
  605MPD2    H7 9037   1.925   2.143   8.710
  606MPD2     C 9038   3.051   2.442  14.465
  606MPD2    C1 9039   2.920   2.442  14.496
  606MPD2    C2 9040   2.830   2.510  14.420
  606MPD2    C3 9041   2.867   2.584  14.308
  606MPD2    C4 9042   2.995   2.596  14.293
  606MPD2    C5 9043   3.087   2.532  14.371
  606MPD2     H 9044   2.726   2.511  14.452
  606MPD2    H1 9045   3.036   2.638  14.202
  606MPD2    H2 9046   3.128   2.392  14.524
  606MPD2    H3 9047   3.191   2.559  14.355
  606MPD2     N 9048   2.784   2.649  14.211
  606MPD2    H5 9049   2.832   2.697  14.135
  606MPD2    N1 9050   2.879   2.369  14.609
  606MPD2    H7 9051   2.953   2.327  14.663
  607MPD2     C 9052   0.408   2.538   8.619
  607MPD2    C1 9053   0.479   2.477   8.518
  607MPD2    C2 9054   0.471   2.342   8.495
  607MPD2    C3 9055   0.380   2.266   8.567
  607MPD2    C4 9056   0.311   2.338   8.667
  607MPD2    C5 9057   0.322   2.469   8.698
  607MPD2     H 9058   0.540   2.304   8.420
  607MPD2    H1 9059   0.242   2.294   8.738
  607MPD2    H2 9060   0.432   2.641   8.645
  607MPD2    H3 9061   0.277   2.517   8.784
  607MPD2     N 9062   0.359   2.130   8.542
  607MPD2    H5 9063   0.299   2.096   8.616
  607MPD2    N1 9064   0.575   2.536   8.443
  607MPD2    H7 9065   0.638   2.477   8.389
  608MPD2     C 9066   0.112   1.551  11.538
  608MPD2    C1 9067   0.132   1.439  11.613
  608MPD2    C2 9068   0.234   1.348  11.577
  608MPD2    C3 9069   0.302   1.367  11.460
  608MPD2    C4 9070   0.272   1.479  11.381
  608MPD2    C5 9071   0.189   1.573  11.426
  608MPD2     H 9072   0.254   1.258  11.635
  608MPD2    H1 9073   0.316   1.488  11.283
  608MPD2    H2 9074   0.033   1.621  11.563
  608MPD2    H3 9075   0.163   1.658  11.363
  608MPD2     N 9076   0.405   1.281  11.405
  608MPD2    H5 9077   0.463   1.327  11.336
  608MPD2    N1 9078   0.038   1.416  11.718
  608MPD2    H7 9079   4.750   1.476  11.719
  609MPD2     C 9080   1.939   2.060  12.253
  609MPD2    C1 9081   1.875   2.108  12.142
  609MPD2    C2 9082   1.930   2.075  12.019
  609MPD2    C3 9083   2.045   2.003  12.009
  609MPD2    C4 9084   2.113   1.956  12.122
  609MPD2    C5 9085   2.053   1.984  12.240
  609MPD2     H 9086   1.887   2.113  11.928
  609MPD2    H1 9087   2.193   1.884  12.122
  609MPD2    H2 9088   1.897   2.065  12.353
  609MPD2    H3 9089   2.087   1.936  12.330
  609MPD2     N 9090   2.087   1.967  11.875
  609MPD2    H5 9091   2.027   1.996  11.798
  609MPD2    N1 9092   1.755   2.185  12.158
  609MPD2    H7 9093   1.699   2.208  12.076
  610MPD2     C 9094   3.634   1.001  11.134
  610MPD2    C1 9095   3.549   0.948  11.043
  610MPD2    C2 9096   3.529   1.009  10.927
  610MPD2    C3 9097   3.598   1.116  10.883
  610MPD2    C4 9098   3.671   1.182  10.979
  610MPD2    C5 9099   3.697   1.116  11.098
  610MPD2     H 9100   3.454   0.971  10.857
  610MPD2    H1 9101   3.725   1.270  10.944
  610MPD2    H2 9102   3.643   0.975  11.239
  610MPD2    H3 9103   3.751   1.157  11.183
  610MPD2     N 9104   3.579   1.175  10.761
  610MPD2    H5 9105   3.625   1.263  10.740
  610MPD2    N1 9106   3.481   0.833  11.077
  610MPD2    H7 9107   3.404   0.800  11.019
  611MPD2     C 9108   1.725   0.452  13.372
  611MPD2    C1 9109   1.798   0.358  13.309
  611MPD2    C2 9110   1.941   0.363  13.319
  611MPD2    C3 9111   2.005   0.471  13.384
  611MPD2    C4 9112   1.925   0.576  13.428
  611MPD2    C5 9113   1.791   0.556  13.434
  611MPD2     H 9114   1.997   0.280  13.277
  611MPD2    H1 9115   1.978   0.648  13.490
  611MPD2    H2 9116   1.617   0.445  13.379
  611MPD2    H3 9117   1.729   0.618  13.498
  611MPD2     N 9118   2.145   0.474  13.401
  611MPD2    H5 9119   2.188   0.557  13.440
  611MPD2    N1 9120   1.732   0.250  13.235
  611MPD2    H7 9121   1.645   0.220  13.276
  612MPD2     C 9122   2.385   4.264  11.614
  612MPD2    C1 9123   2.349   4.396  11.612
  612MPD2    C2 9124   2.217   4.434  11.617
  612MPD2    C3 9125   2.117   4.338  11.614
  612MPD2    C4 9126   2.153   4.205  11.632
  612MPD2    C5 9127   2.283   4.169  11.619
  612MPD2     H 9128   2.193   4.540  11.616
  612MPD2    H1 9129   2.075   4.130  11.640
  612MPD2    H2 9130   2.485   4.222  11.617
  612MPD2    H3 9131   2.303   4.062  11.617
  612MPD2     N 9132   1.982   4.363  11.591
  612MPD2    H5 9133   1.924   4.280  11.585
  612MPD2    N1 9134   2.457   4.495  11.604
  612MPD2    H7 9135   2.546   4.462  11.641
  613MPD2     C 9136   1.593   0.117  11.576
  613MPD2    C1 9137   1.691   0.191  11.638
  613MPD2    C2 9138   1.819   0.189  11.585
  613MPD2    C3 9139   1.850   0.107  11.472
  613MPD2    C4 9140   1.753   0.032  11.419
  613MPD2    C5 9141   1.626   0.041  11.466
  613MPD2     H 9142   1.886   0.262  11.630
  613MPD2    H1 9143   1.778   4.775  11.326
  613MPD2    H2 9144   1.488   0.118  11.602
  613MPD2    H3 9145   1.556   4.776  11.407
  613MPD2     N 9146   1.984   0.099  11.421
  613MPD2    H5 9147   1.990   0.032  11.345
  613MPD2    N1 9148   1.670   0.267  11.758
  613MPD2    H7 9149   1.745   0.328  11.788
  614MPD2     C 9150   1.650   2.055   7.545
  614MPD2    C1 9151   1.670   2.148   7.646
  614MPD2    C2 9152   1.746   2.253   7.626
  614MPD2    C3 9153   1.799   2.273   7.499
  614MPD2    C4 9154   1.780   2.184   7.395
  614MPD2    C5 9155   1.696   2.080   7.417
  614MPD2     H 9156   1.760   2.321   7.709
  614MPD2    H1 9157   1.806   2.214   7.294
  614MPD2    H2 9158   1.593   1.963   7.553
  614MPD2    H3 9159   1.680   2.002   7.344
  614MPD2     N 9160   1.889   2.378   7.484
  614MPD2    H5 9161   1.962   2.374   7.413
  614MPD2    N1 9162   1.626   2.137   7.776
  614MPD2    H7 9163   1.636   2.213   7.842
  615MPD2     C 9164   0.461   4.215   9.455
  615MPD2    C1 9165   0.334   4.268   9.486
  615MPD2    C2 9166   0.288   4.359   9.396
  615MPD2    C3 9167   0.323   4.354   9.264
  615MPD2    C4 9168   0.437   4.281   9.225
  615MPD2    C5 9169   0.508   4.215   9.326
  615MPD2     H 9170   0.200   4.412   9.430
  615MPD2    H1 9171   0.464   4.279   9.120
  615MPD2    H2 9172   0.529   4.166   9.524
  615MPD2    H3 9173   0.602   4.172   9.294
  615MPD2     N 9174   0.219   4.398   9.170
  615MPD2    H5 9175   0.149   4.460   9.207
  615MPD2    N1 9176   0.276   4.238   9.613
  615MPD2    H7 9177   0.342   4.202   9.681
  616MPD2     C 9178   4.556   4.597   9.154
  616MPD2    C1 9179   4.511   4.466   9.139
  616MPD2    C2 9180   4.398   4.443   9.064
  616MPD2    C3 9181   4.331   4.547   8.998
  616MPD2    C4 9182   4.380   4.675   9.018
  616MPD2    C5 9183   4.488   4.695   9.095
  616MPD2     H 9184   4.369   4.340   9.043
  616MPD2    H1 9185   4.327   4.764   8.987
  616MPD2    H2 9186   4.643   4.630   9.211
  616MPD2    H3 9187   4.526   0.003   9.104
  616MPD2     N 9188   4.222   4.508   8.919
  616MPD2    H5 9189   4.200   4.409   8.917
  616MPD2    N1 9190   4.571   4.352   9.206
  616MPD2    H7 9191   4.527   4.262   9.186
  617MPD2     C 9192   4.539   1.505  14.430
  617MPD2    C1 9193   4.582   1.385  14.377
  617MPD2    C2 9194   4.672   1.382  14.275
  617MPD2    C3 9195   4.716   1.499  14.219
  617MPD2    C4 9196   4.664   1.622  14.269
  617MPD2    C5 9197   4.577   1.622  14.379
  617MPD2     H 9198   4.726   1.294  14.243
  617MPD2    H1 9199   4.682   1.719  14.224
  617MPD2    H2 9200   4.473   1.514  14.515
  617MPD2    H3 9201   4.553   1.716  14.429
  617MPD2     N 9202   0.029   1.485  14.122
  617MPD2    H5 9203   0.069   1.392  14.116
  617MPD2    N1 9204   4.534   1.270  14.442
  617MPD2    H7 9205   4.497   1.280  14.536
  618MPD2     C 9206   2.037   2.992  13.957
  618MPD2    C1 9207   2.121   2.950  14.056
  618MPD2    C2 9208   2.089   2.985  14.188
  618MPD2    C3 9209   1.965   3.041  14.219
  618MPD2    C4 9210   1.879   3.075  14.122
  618MPD2    C5 9211   1.917   3.054  13.995
  618MPD2     H 9212   2.163   2.955  14.262
  618MPD2    H1 9213   1.787   3.122  14.157
  618MPD2    H2 9214   2.053   2.957  13.855
  618MPD2    H3 9215   1.847   3.080  13.917
  618MPD2     N 9216   1.935   3.073  14.354
  618MPD2    H5 9217   1.842   3.107  14.376
  618MPD2    N1 9218   2.249   2.903  14.030
  618MPD2    H7 9219   2.308   2.902  14.113
  619MPD2     C 9220   3.780   4.653  10.077
  619MPD2    C1 9221   3.909   4.662  10.120
  619MPD2    C2 9222   3.976   4.779  10.100
  619MPD2    C3 9223   3.919   0.095  10.040
  619MPD2    C4 9224   3.787   0.094   9.996
  619MPD2    C5 9225   3.722   4.767  10.015
  619MPD2     H 9226   4.083   4.784  10.119
  619MPD2    H1 9227   3.749   0.186   9.954
  619MPD2    H2 9228   3.718   4.567  10.101
  619MPD2    H3 9229   3.614   4.768  10.010
  619MPD2     N 9230   3.981   0.222  10.033
  619MPD2    H5 9231   3.915   0.292  10.000
  619MPD2    N1 9232   3.971   4.560  10.187
  619MPD2    H7 9233   4.041   4.581  10.258
  620MPD2     C 9234   1.359   2.297  14.863
  620MPD2    C1 9235   1.470   2.340  14.930
  620MPD2    C2 9236   1.460   2.413  15.044
  620MPD2    C3 9237   1.334   2.457  15.083
  620MPD2    C4 9238   1.225   2.424  15.007
  620MPD2    C5 9239   1.233   2.343  14.899
  620MPD2     H 9240   1.548   2.459  15.087
  620MPD2    H1 9241   1.123   2.452  15.033
  620MPD2    H2 9242   1.371   2.229  14.779
  620MPD2    H3 9243   1.145   2.323  14.840
  620MPD2     N 9244   1.300   2.543  15.190
  620MPD2    H5 9245   1.207   2.582  15.183
  620MPD2    N1 9246   1.602   2.310  14.887
  620MPD2    H7 9247   1.671   2.332  14.957
  621MPD2     C 9248   1.699   2.544  14.565
  621MPD2    C1 9249   1.565   2.540  14.585
  621MPD2    C2 9250   1.511   2.616  14.695
  621MPD2    C3 9251   1.600   2.673  14.791
  621MPD2    C4 9252   1.730   2.663  14.770
  621MPD2    C5 9253   1.778   2.602  14.659
  621MPD2     H 9254   1.404   2.617  14.714
  621MPD2    H1 9255   1.812   2.715  14.819
  621MPD2    H2 9256   1.753   2.495  14.485
  621MPD2    H3 9257   1.886   2.602  14.644
  621MPD2     N 9258   1.565   2.755  14.895
  621MPD2    H5 9259   1.632   2.773  14.969
  621MPD2    N1 9260   1.479   2.455  14.519
  621MPD2    H7 9261   1.381   2.448  14.546
  622MPD2     C 9262   1.288   0.881   9.479
  622MPD2    C1 9263   1.177   0.932   9.409
  622MPD2    C2 9264   1.057   0.880   9.423
  622MPD2    C3 9265   1.037   0.768   9.499
  622MPD2    C4 9266   1.142   0.713   9.572
  622MPD2    C5 9267   1.260   0.781   9.567
  622MPD2     H 9268   0.969   0.924   9.379
  622MPD2    H1 9269   1.123   0.628   9.636
  622MPD2    H2 9270   1.384   0.931   9.475
  622MPD2    H3 9271   1.339   0.757   9.638
  622MPD2     N 9272   0.916   0.708   9.499
  622MPD2    H5 9273   0.857   0.742   9.424
  622MPD2    N1 9274   1.200   1.040   9.313
  622MPD2    H7 9275   1.296   1.073   9.304
  623MPD2     C 9276   1.130   0.437   8.984
  623MPD2    C1 9277   1.032   0.523   9.008
  623MPD2    C2 9278   1.062   0.656   8.989
  623MPD2    C3 9279   1.185   0.698   8.948
  623MPD2    C4 9280   1.284   0.605   8.931
  623MPD2    C5 9281   1.253   0.476   8.948
  623MPD2     H 9282   0.993   0.738   9.003
  623MPD2    H1 9283   1.384   0.627   8.894
  623MPD2    H2 9284   1.114   0.331   9.000
  623MPD2    H3 9285   1.335   0.408   8.927
  623MPD2     N 9286   1.215   0.832   8.905
  623MPD2    H5 9287   1.316   0.848   8.903
  623MPD2    N1 9288   0.909   0.499   9.075
  623MPD2    H7 9289   0.862   0.583   9.108
  624MPD2     C 9290   3.224   3.895   6.911
  624MPD2    C1 9291   3.258   4.008   6.835
  624MPD2    C2 9292   3.385   4.059   6.845
  624MPD2    C3 9293   3.482   4.007   6.939
  624MPD2    C4 9294   3.448   3.892   7.012
  624MPD2    C5 9295   3.321   3.841   6.998
  624MPD2     H 9296   3.415   4.130   6.769
  624MPD2    H1 9297   3.516   3.852   7.087
  624MPD2    H2 9298   3.123   3.861   6.895
  624MPD2    H3 9299   3.295   3.751   7.053
  624MPD2     N 9300   3.610   4.073   6.938
  624MPD2    H5 9301   3.624   4.137   6.860
  624MPD2    N1 9302   3.152   4.065   6.755
  624MPD2    H7 9303   3.067   4.014   6.734
  625MPD2     C 9304   3.480   0.141   6.661
  625MPD2    C1 9305   3.438   0.066   6.774
  625MPD2    C2 9306   3.335   4.762   6.762
  625MPD2    C3 9307   3.271   4.735   6.644
  625MPD2    C4 9308   3.308   0.025   6.532
  625MPD2    C5 9309   3.408   0.125   6.547
  625MPD2     H 9310   3.296   4.708   6.847
  625MPD2    H1 9311   3.264   0.018   6.433
  625MPD2    H2 9312   3.569   0.203   6.658
  625MPD2    H3 9313   3.434   0.189   6.463
  625MPD2     N 9314   3.180   4.628   6.640
  625MPD2    H5 9315   3.170   4.568   6.720
  625MPD2    N1 9316   3.502   0.093   6.893
  625MPD2    H7 9317   3.584   0.152   6.890
  626MPD2     C 9318   2.962   4.287   7.767
  626MPD2    C1 9319   2.974   4.353   7.643
  626MPD2    C2 9320   2.951   4.277   7.528
  626MPD2    C3 9321   2.913   4.144   7.538
  626MPD2    C4 9322   2.888   4.085   7.660
  626MPD2    C5 9323   2.914   4.156   7.772
  626MPD2     H 9324   2.962   4.323   7.430
  626MPD2    H1 9325   2.874   3.977   7.660
  626MPD2    H2 9326   2.986   4.333   7.862
  626MPD2    H3 9327   2.919   4.106   7.868
  626MPD2     N 9328   2.919   4.059   7.423
  626MPD2    H5 9329   2.930   3.961   7.445
  626MPD2    N1 9330   3.017   4.484   7.630
  626MPD2    H7 9331   3.020   4.530   7.540
  627MPD2     C 9332   2.815   2.082   9.686
  627MPD2    C1 9333   2.793   2.201   9.623
  627MPD2    C2 9334   2.893   2.249   9.543
  627MPD2    C3 9335   3.007   2.176   9.516
  627MPD2    C4 9336   3.026   2.054   9.581
  627MPD2    C5 9337   2.931   2.014   9.665
  627MPD2     H 9338   2.891   2.346   9.494
  627MPD2    H1 9339   3.104   1.980   9.571
  627MPD2    H2 9340   2.734   2.033   9.738
  627MPD2    H3 9341   2.948   1.925   9.724
  627MPD2     N 9342   3.097   2.207   9.414
  627MPD2    H5 9343   3.186   2.157   9.409
  627MPD2    N1 9344   2.668   2.262   9.641
  627MPD2    H7 9345   2.614   2.235   9.723
  628MPD2     C 9346   3.160   1.822   8.771
  628MPD2    C1 9347   3.241   1.931   8.770
  628MPD2    C2 9348   3.347   1.935   8.680
  628MPD2    C3 9349   3.373   1.839   8.584
  628MPD2    C4 9350   3.285   1.731   8.586
  628MPD2    C5 9351   3.183   1.721   8.676
  628MPD2     H 9352   3.422   2.012   8.697
  628MPD2    H1 9353   3.300   1.650   8.516
  628MPD2    H2 9354   3.089   1.812   8.853
  628MPD2    H3 9355   3.138   1.625   8.698
  628MPD2     N 9356   3.494   1.841   8.511
  628MPD2    H5 9357   3.547   1.928   8.518
  628MPD2    N1 9358   3.234   2.042   8.861
  628MPD2    H7 9359   3.302   2.116   8.849
  629MPD2     C 9360   4.723   1.305  14.989
  629MPD2    C1 9361   4.729   1.172  14.938
  629MPD2    C2 9362   0.038   1.099  14.982
  629MPD2    C3 9363   0.131   1.143  15.081
  629MPD2    C4 9364   0.116   1.264  15.133
  629MPD2    C5 9365   0.015   1.348  15.090
  629MPD2     H 9366   0.059   1.002  14.938
  629MPD2    H1 9367   0.163   1.293  15.226
  629MPD2    H2 9368   4.645   1.375  14.960
  629MPD2    H3 9369   0.011   1.447  15.134
  629MPD2     N 9370   0.229   1.055  15.122
  629MPD2    H5 9371   0.213   0.965  15.078
  629MPD2    N1 9372   4.632   1.126  14.843
  629MPD2    H7 9373   4.582   1.190  14.783
  630MPD2     C 9374   4.151   2.232   8.309
  630MPD2    C1 9375   4.095   2.173   8.423
  630MPD2    C2 9376   4.133   2.219   8.545
  630MPD2    C3 9377   4.224   2.329   8.558
  630MPD2    C4 9378   4.279   2.378   8.448
  630MPD2    C5 9379   4.237   2.334   8.323
  630MPD2     H 9380   4.079   2.186   8.633
  630MPD2    H1 9381   4.351   2.459   8.448
  630MPD2    H2 9382   4.125   2.202   8.209
  630MPD2    H3 9383   4.272   2.369   8.227
  630MPD2     N 9384   4.249   2.382   8.682
  630MPD2    H5 9385   4.209   2.335   8.763
  630MPD2    N1 9386   4.004   2.064   8.401
  630MPD2    H7 9387   3.989   2.038   8.304
  631MPD2     C 9388   1.004   2.578  14.284
  631MPD2    C1 9389   1.006   2.645  14.402
  631MPD2    C2 9390   0.911   2.612  14.496
  631MPD2    C3 9391   0.817   2.508  14.472
  631MPD2    C4 9392   0.829   2.432  14.361
  631MPD2    C5 9393   0.920   2.465  14.269
  631MPD2     H 9394   0.913   2.675  14.585
  631MPD2    H1 9395   0.749   2.360  14.344
  631MPD2    H2 9396   1.086   2.588  14.213
  631MPD2    H3 9397   0.924   2.397  14.185
  631MPD2     N 9398   0.706   2.486  14.555
  631MPD2    H5 9399   0.647   2.404  14.551
  631MPD2    N1 9400   1.096   2.746  14.439
  631MPD2    H7 9401   1.095   2.775  14.536
  632MPD2     C 9402   4.564   2.498  14.630
  632MPD2    C1 9403   4.652   2.388  14.641
  632MPD2    C2 9404   4.779   2.413  14.692
  632MPD2    C3 9405   0.023   2.535  14.739
  632MPD2    C4 9406   4.730   2.639  14.719
  632MPD2    C5 9407   4.605   2.618  14.667
  632MPD2     H 9408   0.056   2.333  14.713
  632MPD2    H1 9409   4.747   2.740  14.753
  632MPD2    H2 9410   4.458   2.492  14.607
  632MPD2    H3 9411   4.539   2.703  14.667
  632MPD2     N 9412   0.157   2.544  14.788
  632MPD2    H5 9413   0.195   2.450  14.797
  632MPD2    N1 9414   4.593   2.263  14.617
  632MPD2    H7 9415   4.492   2.260  14.612
  633MPD2     C 9416   2.174   4.753  10.587
  633MPD2    C1 9417   2.174   4.729  10.448
  633MPD2    C2 9418   2.142   0.036  10.357
  633MPD2    C3 9419   2.112   0.167  10.403
  633MPD2    C4 9420   2.121   0.192  10.542
  633MPD2    C5 9421   2.141   0.085  10.630
  633MPD2     H 9422   2.138   0.014  10.251
  633MPD2    H1 9423   2.099   0.291  10.579
  633MPD2    H2 9424   2.195   4.673  10.657
  633MPD2    H3 9425   2.147   0.111  10.735
  633MPD2     N 9426   2.087   0.269  10.309
  633MPD2    H5 9427   2.099   0.360  10.352
  633MPD2    N1 9428   2.210   4.599  10.403
  633MPD2    H7 9429   2.247   4.538  10.475
  634MPD2     C 9430   3.798   4.527   8.353
  634MPD2    C1 9431   3.692   4.585   8.281
  634MPD2    C2 9432   3.637   4.506   8.179
  634MPD2    C3 9433   3.675   4.373   8.155
  634MPD2    C4 9434   3.777   4.318   8.227
  634MPD2    C5 9435   3.828   4.396   8.325
  634MPD2     H 9436   3.558   4.547   8.117
  634MPD2    H1 9437   3.827   4.222   8.223
  634MPD2    H2 9438   3.849   4.591   8.423
  634MPD2    H3 9439   3.894   4.358   8.402
  634MPD2     N 9440   3.621   4.304   8.043
  634MPD2    H5 9441   3.556   4.363   7.992
  634MPD2    N1 9442   3.655   4.727   8.298
  634MPD2    H7 9443   3.585   4.758   8.231
  635MPD2     C 9444   1.896   3.811  14.774
  635MPD2    C1 9445   1.835   3.889  14.672
  635MPD2    C2 9446   1.859   3.867  14.540
  635MPD2    C3 9447   1.957   3.779  14.501
  635MPD2    C4 9448   2.021   3.700  14.597
  635MPD2    C5 9449   1.993   3.723  14.732
  635MPD2     H 9450   1.814   3.934  14.468
  635MPD2    H1 9451   2.104   3.634  14.577
  635MPD2    H2 9452   1.871   3.826  14.879
  635MPD2    H3 9453   2.050   3.669  14.807
  635MPD2     N 9454   1.985   3.779  14.367
  635MPD2    H5 9455   1.920   3.827  14.305
  635MPD2    N1 9456   1.761   4.000  14.725
  635MPD2    H7 9457   1.776   4.026  14.821
  636MPD2     C 9458   1.266   0.626  10.092
  636MPD2    C1 9459   1.387   0.619  10.027
  636MPD2    C2 9460   1.384   0.564   9.901
  636MPD2    C3 9461   1.274   0.499   9.846
  636MPD2    C4 9462   1.159   0.502   9.922
  636MPD2    C5 9463   1.156   0.566  10.043
  636MPD2     H 9464   1.480   0.541   9.857
  636MPD2    H1 9465   1.071   0.452   9.884
  636MPD2    H2 9466   1.245   0.682  10.182
  636MPD2    H3 9467   1.059   0.567  10.093
  636MPD2     N 9468   1.284   0.411   9.738
  636MPD2    H5 9469   1.200   0.354   9.735
  636MPD2    N1 9470   1.512   0.666  10.080
  636MPD2    H7 9471   1.576   0.691  10.005
  637MPD2     C 9472   1.915   3.662  10.096
  637MPD2    C1 9473   1.875   3.747  10.200
  637MPD2    C2 9474   1.750   3.807  10.191
  637MPD2    C3 9475   1.668   3.783  10.079
  637MPD2    C4 9476   1.703   3.693   9.982
  637MPD2    C5 9477   1.828   3.640   9.994
  637MPD2     H 9478   1.716   3.871  10.271
  637MPD2    H1 9479   1.629   3.662   9.909
  637MPD2    H2 9480   2.019   3.630  10.100
  637MPD2    H3 9481   1.858   3.567   9.919
  637MPD2     N 9482   1.543   3.839  10.071
  637MPD2    H5 9483   1.490   3.779  10.008
  637MPD2    N1 9484   1.957   3.789  10.311
  637MPD2    H7 9485   1.915   3.843  10.386
  638MPD2     C 9486   1.117   0.102  10.389
  638MPD2    C1 9487   1.116   0.194  10.493
  638MPD2    C2 9488   1.044   0.161  10.610
  638MPD2    C3 9489   0.974   0.046  10.608
  638MPD2    C4 9490   0.992   4.742  10.515
  638MPD2    C5 9491   1.061   4.767  10.405
  638MPD2     H 9492   1.039   0.229  10.694
  638MPD2    H1 9493   0.936   4.650  10.521
  638MPD2    H2 9494   1.154   0.128  10.290
  638MPD2    H3 9495   1.067   4.691  10.328
  638MPD2     N 9496   0.887   0.006  10.715
  638MPD2    H5 9497   0.855   4.703  10.715
  638MPD2    N1 9498   1.188   0.313  10.488
  638MPD2    H7 9499   1.197   0.364  10.575
  639MPD2     C 9500   2.126   2.564  15.103
  639MPD2    C1 9501   2.104   2.559  14.964
  639MPD2    C2 9502   2.098   2.678  14.895
  639MPD2    C3 9503   2.097   2.798  14.958
  639MPD2    C4 9504   2.117   2.810  15.095
  639MPD2    C5 9505   2.130   2.689  15.165
  639MPD2     H 9506   2.087   2.679  14.787
  639MPD2    H1 9507   2.136   2.903  15.147
  639MPD2    H2 9508   2.139   2.479  15.170
  639MPD2    H3 9509   2.154   2.690  15.271
  639MPD2     N 9510   2.083   2.913  14.883
  639MPD2    H5 9511   2.087   2.907  14.782
  639MPD2    N1 9512   2.074   2.436  14.899
  639MPD2    H7 9513   2.073   2.441  14.797
  640MPD2     C 9514   4.482   2.863   8.067
  640MPD2    C1 9515   4.351   2.902   8.070
  640MPD2    C2 9516   4.258   2.842   8.157
  640MPD2    C3 9517   4.302   2.758   8.259
  640MPD2    C4 9518   4.431   2.720   8.251
  640MPD2    C5 9519   4.517   2.769   8.153
  640MPD2     H 9520   4.156   2.876   8.153
  640MPD2    H1 9521   4.480   2.670   8.334
  640MPD2    H2 9522   4.551   2.911   7.999
  640MPD2    H3 9523   4.624   2.752   8.156
  640MPD2     N 9524   4.224   2.715   8.361
  640MPD2    H5 9525   4.277   2.666   8.432
  640MPD2    N1 9526   4.293   3.005   7.990
  640MPD2    H7 9527   4.201   3.041   8.014
  641MPD2     C 9528   4.756   4.239   6.957
  641MPD2    C1 9529   0.079   4.196   7.021
  641MPD2    C2 9530   0.067   4.106   7.121
  641MPD2    C3 9531   4.738   4.055   7.155
  641MPD2    C4 9532   4.624   4.102   7.085
  641MPD2    C5 9533   4.634   4.190   6.987
  641MPD2     H 9534   0.151   4.065   7.176
  641MPD2    H1 9535   4.527   4.056   7.101
  641MPD2    H2 9536   4.758   4.310   6.875
  641MPD2    H3 9537   4.545   4.225   6.935
  641MPD2     N 9538   4.716   3.968   7.260
  641MPD2    H5 9539   4.620   3.952   7.290
  641MPD2    N1 9540   0.201   4.251   6.978
  641MPD2    H7 9541   0.210   4.314   6.899
  642MPD2     C 9542   4.085   1.603   7.295
  642MPD2    C1 9543   4.022   1.488   7.309
  642MPD2    C2 9544   4.061   1.370   7.235
  642MPD2    C3 9545   4.184   1.376   7.168
  642MPD2    C4 9546   4.233   1.495   7.144
  642MPD2    C5 9547   4.191   1.607   7.212
  642MPD2     H 9548   4.006   1.279   7.255
  642MPD2    H1 9549   4.317   1.502   7.076
  642MPD2    H2 9550   4.064   1.700   7.340
  642MPD2    H3 9551   4.236   1.705   7.198
  642MPD2     N 9552   4.258   1.262   7.110
  642MPD2    H5 9553   4.342   1.295   7.063
  642MPD2    N1 9554   3.897   1.480   7.371
  642MPD2    H7 9555   3.844   1.393   7.366
  643MPD2     C 9556   0.164   4.615   8.460
  643MPD2    C1 9557   0.119   4.741   8.499
  643MPD2    C2 9558   4.776   4.761   8.520
  643MPD2    C3 9559   4.682   4.668   8.490
  643MPD2    C4 9560   4.724   4.553   8.431
  643MPD2    C5 9561   0.066   4.528   8.420
  643MPD2     H 9562   4.753   0.060   8.572
  643MPD2    H1 9563   4.654   4.473   8.409
  643MPD2    H2 9564   0.269   4.588   8.451
  643MPD2    H3 9565   0.103   4.428   8.405
  643MPD2     N 9566   4.546   4.680   8.531
  643MPD2    H5 9567   4.489   4.596   8.528
  643MPD2    N1 9568   0.205   0.060   8.532
  643MPD2    H7 9569   0.157   0.146   8.554
  644MPD2     C 9570   0.948   4.521   9.556
  644MPD2    C1 9571   1.008   4.609   9.475
  644MPD2    C2 9572   0.970   4.610   9.340
  644MPD2    C3 9573   0.888   4.510   9.286
  644MPD2    C4 9574   0.823   4.429   9.378
  644MPD2    C5 9575   0.856   4.432   9.515
  644MPD2     H 9576   1.008   4.678   9.265
  644MPD2    H1 9577   0.734   4.373   9.355
  644MPD2    H2 9578   0.979   4.519   9.660
  644MPD2    H3 9579   0.797   4.377   9.587
  644MPD2     N 9580   0.859   4.493   9.143
  644MPD2    H5 9581   0.903   4.552   9.072
  644MPD2    N1 9582   1.114   4.682   9.529
  644MPD2    H7 9583   1.137   4.657   9.625
  645MPD2     C 9584   4.046   4.187   6.223
  645MPD2    C1 9585   4.149   4.225   6.307
  645MPD2    C2 9586   4.128   4.223   6.444
  645MPD2    C3 9587   4.008   4.182   6.495
  645MPD2    C4 9588   3.907   4.136   6.410
  645MPD2    C5 9589   3.929   4.139   6.271
  645MPD2     H 9590   4.208   4.261   6.507
  645MPD2    H1 9591   3.822   4.082   6.450
  645MPD2    H2 9592   4.060   4.175   6.116
  645MPD2    H3 9593   3.858   4.092   6.203
  645MPD2     N 9594   3.988   4.170   6.639
  645MPD2    H5 9595   3.900   4.128   6.665
  645MPD2    N1 9596   4.277   4.242   6.243
  645MPD2    H7 9597   4.280   4.213   6.146
  646MPD2     C 9598   2.295   1.753  15.363
  646MPD2    C1 9599   2.221   1.870  15.353
  646MPD2    C2 9600   2.288   1.992  15.337
  646MPD2    C3 9601   2.421   1.997  15.319
  646MPD2    C4 9602   2.494   1.879  15.334
  646MPD2    C5 9603   2.430   1.757  15.355
  646MPD2     H 9604   2.233   2.085  15.330
  646MPD2    H1 9605   2.601   1.865  15.324
  646MPD2    H2 9606   2.244   1.658  15.361
  646MPD2    H3 9607   2.488   1.665  15.355
  646MPD2     N 9608   2.475   2.124  15.279
  646MPD2    H5 9609   2.415   2.204  15.259
  646MPD2    N1 9610   2.081   1.865  15.348
  646MPD2    H7 9611   2.036   1.948  15.311
  647MPD2     C 9612   3.879   1.995  14.176
  647MPD2    C1 9613   3.860   1.990  14.307
  647MPD2    C2 9614   3.975   1.999  14.386
  647MPD2    C3 9615   4.103   1.986  14.333
  647MPD2    C4 9616   4.115   1.997  14.197
  647MPD2    C5 9617   4.002   1.991  14.117
  647MPD2     H 9618   3.960   2.015  14.493
  647MPD2    H1 9619   4.210   1.991  14.146
  647MPD2    H2 9620   3.802   1.983  14.101
  647MPD2    H3 9621   4.014   1.990  14.009
  647MPD2     N 9622   4.221   1.990  14.413
  647MPD2    H5 9623   4.315   2.000  14.376
  647MPD2    N1 9624   3.726   2.004  14.356
  647MPD2    H7 9625   3.656   2.009  14.282
  648MPD2     C 9626   1.066   2.986  11.211
  648MPD2    C1 9627   1.169   2.946  11.124
  648MPD2    C2 9628   1.278   3.037  11.108
  648MPD2    C3 9629   1.295   3.152  11.191
  648MPD2    C4 9630   1.199   3.176  11.293
  648MPD2    C5 9631   1.083   3.102  11.287
  648MPD2     H 9632   1.339   3.024  11.020
  648MPD2    H1 9633   1.207   3.251  11.371
  648MPD2    H2 9634   0.975   2.929  11.223
  648MPD2    H3 9635   1.003   3.111  11.359
  648MPD2     N 9636   1.406   3.239  11.190
  648MPD2    H5 9637   1.395   3.324  11.245
  648MPD2    N1 9638   1.146   2.837  11.044
  648MPD2    H7 9639   1.063   2.785  11.067
  649MPD2     C 9640   3.005   4.586   8.788
  649MPD2    C1 9641   2.891   4.609   8.862
  649MPD2    C2 9642   2.814   4.715   8.822
  649MPD2    C3 9643   2.848   0.006   8.720
  649MPD2    C4 9644   2.954   4.770   8.639
  649MPD2    C5 9645   3.033   4.667   8.681
  649MPD2     H 9646   2.727   4.735   8.883
  649MPD2    H1 9647   2.990   0.037   8.556
  649MPD2    H2 9648   3.074   4.507   8.815
  649MPD2    H3 9649   3.126   4.653   8.628
  649MPD2     N 9650   2.770   0.119   8.688
  649MPD2    H5 9651   2.759   0.117   8.587
  649MPD2    N1 9652   2.849   4.535   8.967
  649MPD2    H7 9653   2.752   4.549   8.991
  650MPD2     C 9654   3.614   2.955   8.145
  650MPD2    C1 9655   3.677   3.013   8.253
  650MPD2    C2 9656   3.714   3.142   8.244
  650MPD2    C3 9657   3.697   3.216   8.124
  650MPD2    C4 9658   3.623   3.160   8.023
  650MPD2    C5 9659   3.577   3.034   8.036
  650MPD2     H 9660   3.738   3.205   8.328
  650MPD2    H1 9661   3.593   3.214   7.934
  650MPD2    H2 9662   3.582   2.852   8.157
  650MPD2    H3 9663   3.520   2.985   7.958
  650MPD2     N 9664   3.752   3.345   8.124
  650MPD2    H5 9665   3.783   3.375   8.216
  650MPD2    N1 9666   3.711   2.926   8.367
  650MPD2    H7 9667   3.699   2.829   8.342
  651TMC3    C1 9668   0.647   2.934   9.904
  651TMC3    C2 9669   0.633   3.052   9.844
  651TMC3    C3 9670   0.697   3.154   9.904
  651TMC3    C4 9671   0.729   2.905  10.012
  651TMC3    C5 9672   0.801   3.009  10.054
  651TMC3    C6 9673   0.775   3.136  10.015
  651TMC3     C 9674   0.563   2.825   9.863
  651TMC3     O 9675   0.532   2.827   9.746
  651TMC3     H 9676   0.563   3.062   9.762
  651TMC3    H1 9677   0.756   2.804  10.039
  651TMC3    H2 9678   0.821   3.214  10.074
  651TMC3    C7 9679   0.895   2.998  10.160
  651TMC3    C8 9680   0.638   3.279   9.878
  651TMC3    O1 9681   0.876   2.900  10.236
  651TMC3    O2 9682   0.533   3.272   9.817
  652TMC3    C1 9683   1.125   3.924   6.850
  652TMC3    C2 9684   1.158   4.044   6.797
  652TMC3    C3 9685   1.196   4.057   6.666
  652TMC3    C4 9686   1.133   3.812   6.774
  652TMC3    C5 9687   1.181   3.826   6.641
  652TMC3    C6 9688   1.205   3.946   6.586
  652TMC3     C 9689   1.078   3.930   6.989
  652TMC3     O 9690   0.989   3.854   7.023
  652TMC3     H 9691   1.146   4.132   6.860
  652TMC3    H1 9692   1.102   3.717   6.817
  652TMC3    H2 9693   1.236   3.961   6.483
  652TMC3    C7 9694   1.174   3.713   6.540
  652TMC3    C8 9695   1.248   4.183   6.623
  652TMC3    O1 9696   1.152   3.745   6.423
  652TMC3    O2 9697   1.251   4.218   6.507
  653TMC3    C1 9698   1.830   2.621  12.397
  653TMC3    C2 9699   1.914   2.724  12.416
  653TMC3    C3 9700   1.940   2.765  12.544
  653TMC3    C4 9701   1.762   2.562  12.495
  653TMC3    C5 9702   1.794   2.598  12.625
  653TMC3    C6 9703   1.886   2.699  12.652
  653TMC3     C 9704   1.791   2.601  12.257
  653TMC3     O 9705   1.670   2.592  12.237
  653TMC3     H 9706   1.954   2.773  12.329
  653TMC3    H1 9707   1.697   2.478  12.470
  653TMC3    H2 9708   1.920   2.729  12.751
  653TMC3    C7 9709   1.766   2.501  12.725
  653TMC3    C8 9710   2.051   2.852  12.574
  653TMC3    O1 9711   1.684   2.417  12.687
  653TMC3    O2 9712   2.120   2.818  12.670
  654TMC3    C1 9713   4.705   1.065   7.889
  654TMC3    C2 9714   4.776   1.123   7.790
  654TMC3    C3 9715   4.729   1.240   7.745
  654TMC3    C4 9716   4.585   1.118   7.940
  654TMC3    C5 9717   4.539   1.238   7.883
  654TMC3    C6 9718   4.614   1.300   7.796
  654TMC3     C 9719   4.728   0.925   7.908
  654TMC3     O 9720   4.634   0.846   7.904
  654TMC3     H 9721   0.071   1.090   7.735
  654TMC3    H1 9722   4.522   1.062   8.008
  654TMC3    H2 9723   4.558   1.378   7.746
  654TMC3    C7 9724   4.449   1.325   7.961
  654TMC3    C8 9725   4.725   1.240   7.596
  654TMC3    O1 9726   4.502   1.424   8.006
  654TMC3    O2 9727   4.751   1.135   7.535
  655TMC3    C1 9728   4.024   2.425  10.156
  655TMC3    C2 9729   4.069   2.324  10.074
  655TMC3    C3 9730   4.058   2.199  10.126
  655TMC3    C4 9731   3.983   2.397  10.286
  655TMC3    C5 9732   3.968   2.267  10.324
  655TMC3    C6 9733   4.002   2.163  10.242
  655TMC3     C 9734   4.051   2.565  10.130
  655TMC3     O 9735   4.020   2.645  10.218
  655TMC3     H 9736   4.105   2.328   9.972
  655TMC3    H1 9737   3.960   2.469  10.364
  655TMC3    H2 9738   3.985   2.060  10.271
  655TMC3    C7 9739   3.953   2.248  10.468
  655TMC3    C8 9740   4.098   2.100  10.032
  655TMC3    O1 9741   3.876   2.320  10.532
  655TMC3    O2 9742   4.193   2.125   9.961
  656TMC3    C1 9743   2.723   3.862  14.211
  656TMC3    C2 9744   2.800   3.916  14.114
  656TMC3    C3 9745   2.925   3.870  14.091
  656TMC3    C4 9746   2.759   3.748  14.275
  656TMC3    C5 9747   2.879   3.690  14.231
  656TMC3    C6 9748   2.974   3.757  14.155
  656TMC3     C 9749   2.594   3.915  14.228
  656TMC3     O 9750   2.540   3.964  14.131
  656TMC3     H 9751   2.760   4.002  14.062
  656TMC3    H1 9752   2.693   3.701  14.347
  656TMC3    H2 9753   3.076   3.725  14.135
  656TMC3    C7 9754   2.880   3.550  14.182
  656TMC3    C8 9755   2.971   3.882  13.955
  656TMC3    O1 9756   2.946   3.549  14.076
  656TMC3    O2 9757   2.935   3.970  13.877
  657TMC3    C1 9758   4.621   2.842   8.539
  657TMC3    C2 9759   4.662   2.883   8.415
  657TMC3    C3 9760   4.632   3.013   8.381
  657TMC3    C4 9761   4.550   2.925   8.624
  657TMC3    C5 9762   4.493   3.042   8.577
  657TMC3    C6 9763   4.543   3.084   8.459
  657TMC3     C 9764   4.666   2.708   8.571
  657TMC3     O 9765   4.685   2.630   8.476
  657TMC3     H 9766   4.741   2.831   8.361
  657TMC3    H1 9767   4.515   2.884   8.718
  657TMC3    H2 9768   4.504   3.175   8.416
  657TMC3    C7 9769   4.485   3.146   8.676
  657TMC3    C8 9770   4.747   3.088   8.335
  657TMC3    O1 9771   4.537   3.129   8.789
  657TMC3    O2 9772   0.055   3.022   8.314
  658TMC3    C1 9773   1.336   2.517   8.486
  658TMC3    C2 9774   1.413   2.478   8.379
  658TMC3    C3 9775   1.468   2.576   8.301
  658TMC3    C4 9776   1.310   2.649   8.516
  658TMC3    C5 9777   1.393   2.740   8.450
  658TMC3    C6 9778   1.472   2.707   8.341
  658TMC3     C 9779   1.255   2.416   8.544
  658TMC3     O 9780   1.215   2.322   8.470
  658TMC3     H 9781   1.425   2.379   8.338
  658TMC3    H1 9782   1.253   2.680   8.603
  658TMC3    H2 9783   1.527   2.777   8.280
  658TMC3    C7 9784   1.370   2.883   8.465
  658TMC3    C8 9785   1.576   2.530   8.218
  658TMC3    O1 9786   1.418   2.958   8.380
  658TMC3    O2 9787   1.587   2.600   8.115
  659TMC3    C1 9788   2.381   2.854  12.068
  659TMC3    C2 9789   2.412   2.880  12.197
  659TMC3    C3 9790   2.424   3.008  12.242
  659TMC3    C4 9791   2.380   2.960  11.981
  659TMC3    C5 9792   2.407   3.082  12.030
  659TMC3    C6 9793   2.422   3.114  12.158
  659TMC3     C 9794   2.401   2.717  12.032
  659TMC3     O 9795   2.383   2.645  12.129
  659TMC3     H 9796   2.422   2.808  12.278
  659TMC3    H1 9797   2.360   2.951  11.875
  659TMC3    H2 9798   2.441   3.217  12.185
  659TMC3    C7 9799   2.398   3.195  11.934
  659TMC3    C8 9800   2.468   3.033  12.381
  659TMC3    O1 9801   2.320   3.177  11.841
  659TMC3    O2 9802   2.407   2.976  12.466
  660TMC3    C1 9803   4.402   4.113  14.690
  660TMC3    C2 9804   4.377   4.197  14.580
  660TMC3    C3 9805   4.478   4.211  14.489
  660TMC3    C4 9806   4.526   4.064  14.713
  660TMC3    C5 9807   4.629   4.090  14.625
  660TMC3    C6 9808   4.607   4.155  14.507
  660TMC3     C 9809   4.298   4.007  14.698
  660TMC3     O 9810   4.325   3.899  14.646
  660TMC3     H 9811   4.278   4.237  14.558
  660TMC3    H1 9812   4.532   3.993  14.795
  660TMC3    H2 9813   4.682   4.170  14.430
  660TMC3    C7 9814   4.760   4.027  14.646
  660TMC3    C8 9815   4.418   4.207  14.352
  660TMC3    O1 9816   4.770   3.923  14.709
  660TMC3    O2 9817   4.298   4.174  14.348
  661TMC3    C1 9818   0.433   2.731  11.965
  661TMC3    C2 9819   0.333   2.655  11.915
  661TMC3    C3 9820   0.351   2.526  11.901
  661TMC3    C4 9821   0.554   2.674  11.997
  661TMC3    C5 9822   0.566   2.540  11.984
  661TMC3    C6 9823   0.461   2.461  11.939
  661TMC3     C 9824   0.417   2.870  11.931
  661TMC3     O 9825   0.306   2.921  11.905
  661TMC3     H 9826   0.245   2.710  11.884
  661TMC3    H1 9827   0.637   2.731  12.039
  661TMC3    H2 9828   0.474   2.353  11.941
  661TMC3    C7 9829   0.702   2.491  11.993
  661TMC3    C8 9830   0.260   2.447  11.813
  661TMC3    O1 9831   0.785   2.554  12.057
  661TMC3    O2 9832   0.311   2.351  11.754
  662TMC3    C1 9833   4.686   2.490  10.820
  662TMC3    C2 9834   4.787   2.406  10.805
  662TMC3    C3 9835   0.010   2.301  10.892
  662TMC3    C4 9836   4.578   2.471  10.905
  662TMC3    C5 9837   4.593   2.363  10.983
  662TMC3    C6 9838   4.701   2.276  10.983
  662TMC3     C 9839   4.673   2.604  10.728
  662TMC3     O 9840   4.770   2.658  10.673
  662TMC3     H 9841   0.072   2.427  10.733
  662TMC3    H1 9842   4.502   2.545  10.929
  662TMC3    H2 9843   4.704   2.192  11.051
  662TMC3    C7 9844   4.552   2.399  11.117
  662TMC3    C8 9845   0.117   2.207  10.868
  662TMC3    O1 9846   4.527   2.307  11.194
  662TMC3    O2 9847   0.177   2.230  10.766
  663TMC3    C1 9848   1.552   1.456   7.955
  663TMC3    C2 9849   1.515   1.495   7.828
  663TMC3    C3 9850   1.427   1.603   7.815
  663TMC3    C4 9851   1.509   1.518   8.070
  663TMC3    C5 9852   1.423   1.624   8.050
  663TMC3    C6 9853   1.375   1.658   7.922
  663TMC3     C 9854   1.662   1.355   7.967
  663TMC3     O 9855   1.741   1.336   7.878
  663TMC3     H 9856   1.551   1.443   7.741
  663TMC3    H1 9857   1.542   1.493   8.170
  663TMC3    H2 9858   1.285   1.719   7.915
  663TMC3    C7 9859   1.326   1.651   8.158
  663TMC3    C8 9860   1.343   1.624   7.699
  663TMC3    O1 9861   1.209   1.664   8.127
  663TMC3    O2 9862   1.266   1.531   7.670
  664TMC3    C1 9863   1.532   3.885  11.420
  664TMC3    C2 9864   1.555   3.841  11.548
  664TMC3    C3 9865   1.675   3.861  11.602
  664TMC3    C4 9866   1.617   3.965  11.350
  664TMC3    C5 9867   1.737   3.990  11.410
  664TMC3    C6 9868   1.771   3.932  11.531
  664TMC3     C 9869   1.430   3.809  11.350
  664TMC3     O 9870   1.335   3.775  11.416
  664TMC3     H 9871   1.477   3.789  11.602
  664TMC3    H1 9872   1.591   4.016  11.258
  664TMC3    H2 9873   1.873   3.941  11.567
  664TMC3    C7 9874   1.831   4.087  11.362
  664TMC3    C8 9875   1.702   3.782  11.719
  664TMC3    O1 9876   1.887   4.147  11.454
  664TMC3    O2 9877   1.788   3.823  11.802
  665TMC3    C1 9878   2.829   2.581  10.302
  665TMC3    C2 9879   2.726   2.665  10.294
  665TMC3    C3 9880   2.603   2.623  10.347
  665TMC3    C4 9881   2.816   2.450  10.330
  665TMC3    C5 9882   2.699   2.414  10.383
  665TMC3    C6 9883   2.590   2.496  10.392
  665TMC3     C 9884   2.942   2.610  10.216
  665TMC3     O 9885   2.954   2.532  10.123
  665TMC3     H 9886   2.739   2.771  10.276
  665TMC3    H1 9887   2.901   2.385  10.348
  665TMC3    H2 9888   2.502   2.454  10.441
  665TMC3    C7 9889   2.679   2.274  10.416
  665TMC3    C8 9890   2.494   2.715  10.337
  665TMC3    O1 9891   2.598   2.249  10.505
  665TMC3    O2 9892   2.514   2.820  10.278
  666TMC3    C1 9893   1.516   2.078  13.883
  666TMC3    C2 9894   1.574   2.199  13.888
  666TMC3    C3 9895   1.519   2.300  13.816
  666TMC3    C4 9896   1.405   2.058  13.813
  666TMC3    C5 9897   1.359   2.156  13.733
  666TMC3    C6 9898   1.419   2.276  13.723
  666TMC3     C 9899   1.608   1.968  13.861
  666TMC3     O 9900   1.570   1.854  13.880
  666TMC3     H 9901   1.632   2.224  13.976
  666TMC3    H1 9902   1.362   1.959  13.806
  666TMC3    H2 9903   1.396   2.351  13.649
  666TMC3    C7 9904   1.228   2.138  13.670
  666TMC3    C8 9905   1.601   2.416  13.817
  666TMC3    O1 9906   1.198   2.214  13.577
  666TMC3    O2 9907   1.673   2.424  13.914
  667TMC3    C1 9908   0.986   2.675  10.475
  667TMC3    C2 9909   1.120   2.711  10.470
  667TMC3    C3 9910   1.187   2.692  10.353
  667TMC3    C4 9911   0.926   2.615  10.363
  667TMC3    C5 9912   1.006   2.591  10.257
  667TMC3    C6 9913   1.140   2.626  10.245
  667TMC3     C 9914   0.910   2.746  10.570
  667TMC3     O 9915   0.928   2.702  10.685
  667TMC3     H 9916   1.169   2.770  10.547
  667TMC3    H1 9917   0.819   2.601  10.368
  667TMC3    H2 9918   1.203   2.607  10.159
  667TMC3    C7 9919   0.938   2.594  10.123
  667TMC3    C8 9920   1.325   2.716  10.350
  667TMC3    O1 9921   1.000   2.650  10.034
  667TMC3    O2 9922   1.390   2.614  10.343
  668TMC3    C1 9923   2.638   4.502  11.164
  668TMC3    C2 9924   2.618   4.633  11.158
  668TMC3    C3 9925   2.663   4.718  11.257
  668TMC3    C4 9926   2.699   4.447  11.275
  668TMC3    C5 9927   2.734   4.529  11.375
  668TMC3    C6 9928   2.722   4.666  11.371
  668TMC3     C 9929   2.700   4.448  11.049
  668TMC3     O 9930   2.752   4.533  10.975
  668TMC3     H 9931   2.567   4.669  11.069
  668TMC3    H1 9932   2.743   4.348  11.265
  668TMC3    H2 9933   2.733   4.726  11.460
  668TMC3    C7 9934   2.767   4.457  11.497
  668TMC3    C8 9935   2.625   0.063  11.249
  668TMC3    O1 9936   2.700   4.356  11.509
  668TMC3    O2 9937   2.529   0.093  11.180
  669TMC3    C1 9938   1.544   3.816   8.736
  669TMC3    C2 9939   1.673   3.825   8.693
  669TMC3    C3 9940   1.715   3.943   8.629
  669TMC3    C4 9941   1.453   3.919   8.724
  669TMC3    C5 9942   1.495   4.029   8.653
  669TMC3    C6 9943   1.621   4.046   8.612
  669TMC3     C 9944   1.500   3.690   8.798
  669TMC3     O 9945   1.384   3.653   8.789
  669TMC3     H 9946   1.750   3.749   8.694
  669TMC3    H1 9947   1.357   3.912   8.774
  669TMC3    H2 9948   1.651   4.142   8.572
  669TMC3    C7 9949   1.404   4.146   8.664
  669TMC3    C8 9950   1.853   3.974   8.604
  669TMC3    O1 9951   1.425   4.223   8.573
  669TMC3    O2 9952   1.922   3.977   8.705
  670TMC3    C1 9953   0.858   1.626  14.830
  670TMC3    C2 9954   0.845   1.550  14.716
  670TMC3    C3 9955   0.950   1.476  14.671
  670TMC3    C4 9956   0.982   1.649  14.876
  670TMC3    C5 9957   1.091   1.582  14.819
  670TMC3    C6 9958   1.082   1.492  14.713
  670TMC3     C 9959   0.764   1.735  14.852
  670TMC3     O 9960   0.828   1.836  14.883
  670TMC3     H 9961   0.751   1.534  14.665
  670TMC3    H1 9962   0.992   1.704  14.969
  670TMC3    H2 9963   1.163   1.422  14.695
  670TMC3    C7 9964   1.211   1.593  14.897
  670TMC3    C8 9965   0.920   1.368  14.573
  670TMC3    O1 9966   1.198   1.614  15.018
  670TMC3    O2 9967   0.803   1.332  14.554
  671TMC3    C1 9968   2.604   1.699  10.650
  671TMC3    C2 9969   2.476   1.746  10.657
  671TMC3    C3 9970   2.464   1.878  10.691
  671TMC3    C4 9971   2.714   1.773  10.669
  671TMC3    C5 9972   2.700   1.910  10.678
  671TMC3    C6 9973   2.571   1.964  10.698
  671TMC3     C 9974   2.601   1.566  10.712
  671TMC3     O 9975   2.498   1.545  10.769
  671TMC3     H 9976   2.385   1.689  10.639
  671TMC3    H1 9977   2.817   1.741  10.681
  671TMC3    H2 9978   2.546   2.070  10.695
  671TMC3    C7 9979   2.812   1.999  10.712
  671TMC3    C8 9980   2.367   1.900  10.793
  671TMC3    O1 9981   2.916   1.949  10.764
  671TMC3    O2 9982   2.358   2.020  10.816
  672TMC3    C1 9983   2.578   1.324  10.424
  672TMC3    C2 9984   2.510   1.410  10.346
  672TMC3    C3 9985   2.376   1.427  10.358
  672TMC3    C4 9986   2.521   1.267  10.529
  672TMC3    C5 9987   2.383   1.289  10.544
  672TMC3    C6 9988   2.318   1.372  10.462
  672TMC3     C 9989   2.718   1.354  10.429
  672TMC3     O 9990   2.741   1.474  10.422
  672TMC3     H 9991   2.563   1.472  10.275
  672TMC3    H1 9992   2.570   1.210  10.607
  672TMC3    H2 9993   2.212   1.386  10.482
  672TMC3    C7 9994   2.306   1.179  10.592
  672TMC3    C8 9995   2.337   1.554  10.299
  672TMC3    O1 9996   2.196   1.161  10.544
  672TMC3    O2 9997   2.383   1.584  10.192
  673TMC3    C1 9998   1.955   0.797  13.967
  673TMC3    C2 9999   1.959   0.702  13.867
  673TMC3    C310000   1.925   0.577  13.910
  673TMC3    C410001   1.920   0.773  14.101
  673TMC3    C510002   1.865   0.650  14.126
  673TMC3    C610003   1.879   0.545  14.038
  673TMC3     C10004   1.936   0.933  13.918
  673TMC3     O10005   1.888   0.960  13.814
  673TMC3     H10006   1.969   0.724  13.761
  673TMC3    H110007   1.902   0.863  14.159
  673TMC3    H210008   1.837   0.448  14.063
  673TMC3    C710009   1.759   0.641  14.223
  673TMC3    C810010   1.901   0.481  13.808
  673TMC3    O110011   1.767   0.703  14.332
  673TMC3    O210012   1.999   0.450  13.741
  674TMC3    C110013   3.776   2.251   9.553
  674TMC3    C210014   3.743   2.387   9.528
  674TMC3    C310015   3.623   2.411   9.468
  674TMC3    C410016   3.691   2.158   9.508
  674TMC3    C510017   3.563   2.194   9.469
  674TMC3    C610018   3.528   2.323   9.453
  674TMC3     C10019   3.910   2.222   9.577
  674TMC3     O10020   3.953   2.285   9.677
  674TMC3     H10021   3.805   2.469   9.561
  674TMC3    H110022   3.717   2.054   9.524
  674TMC3    H210023   3.428   2.343   9.416
  674TMC3    C710024   3.474   2.098   9.408
  674TMC3    C810025   3.625   2.511   9.368
  674TMC3    O110026   3.364   2.116   9.451
  674TMC3    O210027   3.522   2.514   9.299
  675TMC3    C110028   4.030   0.719  14.798
  675TMC3    C210029   4.116   0.825  14.776
  675TMC3    C310030   4.070   0.949  14.756
  675TMC3    C410031   3.899   0.745  14.830
  675TMC3    C510032   3.849   0.869  14.796
  675TMC3    C610033   3.934   0.970  14.755
  675TMC3     C10034   4.083   0.575  14.816
  675TMC3     O10035   4.022   0.499  14.895
  675TMC3     H10036   4.218   0.812  14.742
  675TMC3    H110037   3.829   0.663  14.836
  675TMC3    H210038   3.891   1.067  14.735
  675TMC3    C710039   3.715   0.905  14.782
  675TMC3    C810040   4.137   1.037  14.666
  675TMC3    O110041   3.691   0.971  14.679
  675TMC3    O210042   4.215   0.995  14.583
  676TMC3    C110043   1.433   3.576  12.326
  676TMC3    C210044   1.489   3.688  12.274
  676TMC3    C310045   1.420   3.800  12.266
  676TMC3    C410046   1.298   3.570  12.360
  676TMC3    C510047   1.230   3.683  12.333
  676TMC3    C610048   1.287   3.803  12.285
  676TMC3     C10049   1.519   3.472  12.374
  676TMC3     O10050   1.462   3.368  12.392
  676TMC3     H10051   1.591   3.675  12.240
  676TMC3    H110052   1.259   3.483  12.410
  676TMC3    H210053   1.227   3.893  12.280
  676TMC3    C710054   1.118   3.705  12.425
  676TMC3    C810055   1.491   3.932  12.259
  676TMC3    O110056   1.123   3.788  12.513
  676TMC3    O210057   1.417   4.027  12.269
  677TMC3    C110058   2.201   2.975   7.508
  677TMC3    C210059   2.138   3.001   7.395
  677TMC3    C310060   2.002   2.986   7.389
  677TMC3    C410061   2.140   2.929   7.625
  677TMC3    C510062   2.005   2.911   7.605
  677TMC3    C610063   1.935   2.934   7.490
  677TMC3     C10064   2.341   3.006   7.521
  677TMC3     O10065   2.385   3.114   7.482
  677TMC3     H10066   2.192   3.039   7.309
  677TMC3    H110067   2.201   2.925   7.715
  677TMC3    H210068   1.826   2.932   7.494
  677TMC3    C710069   1.940   2.879   7.728
  677TMC3    C810070   1.952   3.107   7.329
  677TMC3    O110071   1.995   2.800   7.805
  677TMC3    O210072   2.033   3.194   7.303
  678TMC3    C110073   3.882   3.781  14.799
  678TMC3    C210074   3.991   3.729  14.730
  678TMC3    C310075   3.970   3.634  14.634
  678TMC3    C410076   3.755   3.746  14.767
  678TMC3    C510077   3.741   3.642  14.674
  678TMC3    C610078   3.847   3.587  14.609
  678TMC3     C10079   3.904   3.868  14.917
  678TMC3     O10080   3.801   3.922  14.952
  678TMC3     H10081   4.088   3.751  14.772
  678TMC3    H110082   3.668   3.772  14.826
  678TMC3    H210083   3.831   3.498  14.550
  678TMC3    C710084   3.610   3.621  14.616
  678TMC3    C810085   4.085   3.545  14.621
  678TMC3    O110086   3.601   3.554  14.514
  678TMC3    O210087   4.177   3.548  14.700
  679TMC3    C110088   4.648   2.647   7.628
  679TMC3    C210089   4.517   2.633   7.645
  679TMC3    C310090   4.474   2.591   7.767
  679TMC3    C410091   4.741   2.626   7.725
  679TMC3    C510092   4.696   2.592   7.849
  679TMC3    C610093   4.559   2.583   7.876
  679TMC3     C10094   4.687   2.650   7.490
  679TMC3     O10095   4.610   2.598   7.409
  679TMC3     H10096   4.438   2.661   7.576
  679TMC3    H110097   0.052   2.640   7.700
  679TMC3    H210098   4.531   2.557   7.977
  679TMC3    C710099   0.001   2.576   7.959
  679TMC3    C810100   4.337   2.539   7.777
  679TMC3    O110101   0.093   2.648   7.932
  679TMC3    O210102   4.276   2.521   7.672
  680TMC3    C110103   3.208   4.290  10.846
  680TMC3    C210104   3.305   4.194  10.858
  680TMC3    C310105   3.339   4.156  10.984
  680TMC3    C410106   3.137   4.340  10.953
  680TMC3    C510107   3.175   4.287  11.075
  680TMC3    C610108   3.284   4.208  11.095
  680TMC3     C10109   3.147   4.318  10.720
  680TMC3     O10110   3.145   4.223  10.643
  680TMC3     H10111   3.363   4.148  10.779
  680TMC3    H110112   3.046   4.398  10.946
  680TMC3    H210113   3.305   4.171  11.195
  680TMC3    C710114   3.091   4.346  11.173
  680TMC3    C810115   3.413   4.035  10.983
  680TMC3    O110116   2.970   4.326  11.171
  680TMC3    O210117   3.358   3.937  10.940
  681TMC3    C110118   0.036   2.469  14.135
  681TMC3    C210119   4.756   2.383  14.213
  681TMC3    C310120   4.683   2.443  14.312
  681TMC3    C410121   0.057   2.599  14.165
  681TMC3    C510122   4.770   2.657  14.263
  681TMC3    C610123   4.693   2.576  14.340
  681TMC3     C10124   0.080   2.421  14.011
  681TMC3     O10125   4.792   2.340  13.970
  681TMC3     H10126   4.741   2.281  14.180
  681TMC3    H110127   0.113   2.656  14.092
  681TMC3    H210128   4.638   2.620  14.422
  681TMC3    C710129   4.697   2.782  14.243
  681TMC3    C810130   4.548   2.400  14.305
  681TMC3    O110131   4.575   2.770  14.233
  681TMC3    O210132   4.533   2.279  14.281
  682TMC3    C110133   4.519   2.806  13.039
  682TMC3    C210134   4.609   2.706  12.998
  682TMC3    C310135   4.717   2.752  12.940
  682TMC3    C410136   4.548   2.942  13.024
  682TMC3    C510137   4.660   2.983  12.959
  682TMC3    C610138   4.741   2.887  12.919
  682TMC3     C10139   4.415   2.771  13.137
  682TMC3     O10140   4.450   2.673  13.199
  682TMC3     H10141   4.584   2.601  13.011
  682TMC3    H110142   4.467   3.010  13.049
  682TMC3    H210143   0.046   2.918  12.884
  682TMC3    C710144   4.624   3.081  12.864
  682TMC3    C810145   4.773   2.656  12.849
  682TMC3    O110146   4.499   3.090  12.850
  682TMC3    O210147   4.735   2.539  12.858
  683TMC3    C110148   1.291   4.232   9.572
  683TMC3    C210149   1.317   4.117   9.641
  683TMC3    C310150   1.285   4.115   9.770
  683TMC3    C410151   1.232   4.342   9.631
  683TMC3    C510152   1.197   4.333   9.764
  683TMC3    C610153   1.223   4.218   9.834
  683TMC3     C10154   1.292   4.218   9.430
  683TMC3     O10155   1.242   4.115   9.387
  683TMC3     H10156   1.365   4.031   9.596
  683TMC3    H110157   1.216   4.430   9.571
  683TMC3    H210158   1.194   4.203   9.937
  683TMC3    C710159   1.205   4.458   9.840
  683TMC3    C810160   1.339   4.005   9.845
  683TMC3    O110161   1.184   4.570   9.796
  683TMC3    O210162   1.461   3.995   9.842
  684TMC3    C110163   0.855   4.041   7.870
  684TMC3    C210164   0.852   4.012   7.999
  684TMC3    C310165   0.838   4.119   8.080
  684TMC3    C410166   0.862   4.163   7.812
  684TMC3    C510167   0.844   4.260   7.896
  684TMC3    C610168   0.827   4.243   8.028
  684TMC3     C10169   0.922   3.942   7.791
  684TMC3     O10170   1.006   3.873   7.843
  684TMC3     H10171   0.822   3.914   8.032
  684TMC3    H110172   0.876   4.189   7.707
  684TMC3    H210173   0.800   4.327   8.091
  684TMC3    C710174   0.829   4.396   7.849
  684TMC3    C810175   0.781   4.103   8.212
  684TMC3    O110176   0.724   4.447   7.891
  684TMC3    O210177   0.672   4.150   8.237
  685TMC3    C110178   1.515   3.253  13.274
  685TMC3    C210179   1.558   3.153  13.362
  685TMC3    C310180   1.603   3.192  13.492
  685TMC3    C410181   1.520   3.383  13.313
  685TMC3    C510182   1.558   3.417  13.444
  685TMC3    C610183   1.601   3.325  13.537
  685TMC3     C10184   1.439   3.216  13.154
  685TMC3     O10185   1.414   3.309  13.076
  685TMC3     H10186   1.580   3.058  13.315
  685TMC3    H110187   1.496   3.457  13.238
  685TMC3    H210188   1.631   3.345  13.639
  685TMC3    C710189   1.485   3.532  13.500
  685TMC3    C810190   1.685   3.100  13.564
  685TMC3    O110191   1.508   3.552  13.622
  685TMC3    O210192   1.775   3.143  13.632
  686TMC3    C110193   3.176   0.815   9.427
  686TMC3    C210194   3.059   0.741   9.438
  686TMC3    C310195   3.081   0.606   9.448
  686TMC3    C410196   3.297   0.764   9.446
  686TMC3    C510197   3.316   0.627   9.466
  686TMC3    C610198   3.202   0.547   9.460
  686TMC3     C10199   3.162   0.957   9.398
  686TMC3     O10200   3.093   1.025   9.471
  686TMC3     H10201   2.964   0.792   9.439
  686TMC3    H110202   3.387   0.821   9.425
  686TMC3    H210203   3.215   0.439   9.462
  686TMC3    C710204   3.430   0.581   9.395
  686TMC3    C810205   2.959   0.518   9.439
  686TMC3    O110206   3.445   0.615   9.278
  686TMC3    O210207   2.950   0.421   9.514
  687TMC3    C110208   3.158   2.229  12.713
  687TMC3    C210209   3.059   2.306  12.659
  687TMC3    C310210   2.990   2.268  12.554
  687TMC3    C410211   3.183   2.102  12.672
  687TMC3    C510212   3.104   2.064  12.565
  687TMC3    C610213   3.020   2.147  12.499
  687TMC3     C10214   3.252   2.287  12.808
  687TMC3     O10215   3.338   2.213  12.855
  687TMC3     H10216   3.041   2.410  12.681
  687TMC3    H110217   3.255   2.038  12.722
  687TMC3    H210218   2.961   2.112  12.415
  687TMC3    C710219   3.140   1.940  12.494
  687TMC3    C810220   2.939   2.377  12.461
  687TMC3    O110221   3.108   1.930  12.374
  687TMC3    O210222   2.923   2.489  12.510
  688TMC3    C110223   3.881   2.621  12.967
  688TMC3    C210224   3.905   2.547  12.854
  688TMC3    C310225   4.020   2.463  12.848
  688TMC3    C410226   3.966   2.631  13.070
  688TMC3    C510227   4.079   2.552  13.061
  688TMC3    C610228   4.108   2.473  12.948
  688TMC3     C10229   3.750   2.679  12.986
  688TMC3     O10230   3.740   2.780  13.057
  688TMC3     H10231   3.834   2.546  12.772
  688TMC3    H110232   3.939   2.673  13.166
  688TMC3    H210233   4.191   2.403  12.950
  688TMC3    C710234   4.094   2.467  13.187
  688TMC3    C810235   3.994   2.322  12.831
  688TMC3    O110236   3.993   2.472  13.259
  688TMC3    O210237   3.903   2.268  12.890
  689TMC3    C110238   2.819   3.851  10.702
  689TMC3    C210239   2.852   3.806  10.824
  689TMC3    C310240   2.981   3.816  10.866
  689TMC3    C410241   2.906   3.913  10.616
  689TMC3    C510242   3.037   3.933  10.665
  689TMC3    C610243   3.072   3.889  10.793
  689TMC3     C10244   2.704   3.776  10.640
  689TMC3     O10245   2.628   3.703  10.704
  689TMC3     H10246   2.791   3.733  10.876
  689TMC3    H110247   2.875   3.953  10.520
  689TMC3    H210248   3.174   3.889  10.829
  689TMC3    C710249   3.151   3.939  10.567
  689TMC3    C810250   3.025   3.696  10.926
  689TMC3    O110251   3.261   3.905  10.600
  689TMC3    O210252   2.957   3.594  10.935
  690TMC3    C110253   3.586   0.020  10.352
  690TMC3    C210254   3.581   0.131  10.267
  690TMC3    C310255   3.474   0.144  10.188
  690TMC3    C410256   3.481   4.722  10.368
  690TMC3    C510257   3.375   4.741  10.277
  690TMC3    C610258   3.368   0.055  10.196
  690TMC3     C10259   3.719   4.785  10.413
  690TMC3     O10260   3.796   0.084  10.409
  690TMC3     H10261   3.659   0.207  10.266
  690TMC3    H110262   3.482   4.640  10.438
  690TMC3    H210263   3.283   0.078  10.132
  690TMC3    C710264   3.331   4.617  10.223
  690TMC3    C810265   3.466   0.260  10.108
  690TMC3    O110266   3.367   4.522  10.285
  690TMC3    O210267   3.567   0.319  10.073
  691TMC3    C110268   0.596   1.735   7.959
  691TMC3    C210269   0.500   1.825   7.914
  691TMC3    C310270   0.509   1.870   7.780
  691TMC3    C410271   0.676   1.664   7.873
  691TMC3    C510272   0.686   1.715   7.740
  691TMC3    C610273   0.608   1.821   7.698
  691TMC3     C10274   0.624   1.730   8.104
  691TMC3     O10275   0.568   1.639   8.167
  691TMC3     H10276   0.443   1.874   7.992
  691TMC3    H110277   0.755   1.613   7.927
  691TMC3    H210278   0.607   1.858   7.596
  691TMC3    C710279   0.815   1.701   7.687
  691TMC3    C810280   0.454   2.000   7.755
  691TMC3    O110281   0.871   1.611   7.745
  691TMC3    O210282   0.522   2.074   7.688
  692TMC3    C110283   3.204   0.773  13.474
  692TMC3    C210284   3.125   0.775  13.591
  692TMC3    C310285   3.018   0.694  13.601
  692TMC3    C410286   3.177   0.686  13.373
  692TMC3    C510287   3.081   0.582  13.395
  692TMC3    C610288   3.013   0.592  13.518
  692TMC3     C10289   3.278   0.896  13.438
  692TMC3     O10290   3.276   0.927  13.320
  692TMC3     H10291   3.123   0.862  13.655
  692TMC3    H110292   3.222   0.702  13.275
  692TMC3    H210293   2.939   0.516  13.539
  692TMC3    C710294   3.043   0.479  13.297
  692TMC3    C810295   2.946   0.673  13.726
  692TMC3    O110296   2.945   0.411  13.322
  692TMC3    O210297   2.974   0.562  13.769
  693TMC3    C110298   0.564   0.722   6.583
  693TMC3    C210299   0.484   0.607   6.582
  693TMC3    C310300   0.526   0.488   6.531
  693TMC3    C410301   0.695   0.708   6.556
  693TMC3    C510302   0.732   0.580   6.506
  693TMC3    C610303   0.656   0.471   6.495
  693TMC3     C10304   0.507   0.859   6.612
  693TMC3     O10305   0.591   0.947   6.610
  693TMC3     H10306   0.378   0.612   6.601
  693TMC3    H110307   0.759   0.794   6.568
  693TMC3    H210308   0.689   0.384   6.440
  693TMC3    C710309   0.870   0.559   6.464
  693TMC3    C810310   0.427   0.373   6.546
  693TMC3    O110311   0.892   0.466   6.387
  693TMC3    O210312   0.312   0.411   6.570
  694TMC3    C110313   4.275   3.489   9.276
  694TMC3    C210314   4.312   3.590   9.185
  694TMC3    C310315   4.444   3.584   9.144
  694TMC3    C410316   4.361   3.396   9.329
  694TMC3    C510317   4.492   3.423   9.307
  694TMC3    C610318   4.541   3.511   9.213
  694TMC3     C10319   4.191   3.540   9.379
  694TMC3     O10320   4.142   3.466   9.459
  694TMC3     H10321   4.236   3.659   9.148
  694TMC3    H110322   4.334   3.315   9.395
  694TMC3    H210323   4.644   3.533   9.188
  694TMC3    C710324   4.586   3.336   9.376
  694TMC3    C810325   4.494   3.706   9.077
  694TMC3    O110326   4.541   3.240   9.431
  694TMC3    O210327   4.602   3.751   9.109
  695TMC3    C110328   4.569   0.076   8.125
  695TMC3    C210329   4.680   0.119   8.201
  695TMC3    C310330   4.770   0.182   8.121
  695TMC3    C410331   4.538   0.132   8.002
  695TMC3    C510332   4.626   0.211   7.938
  695TMC3    C610333   4.749   0.235   7.995
  695TMC3     C10334   4.464   4.782   8.185
  695TMC3     O10335   4.481   4.662   8.188
  695TMC3     H10336   4.700   0.089   8.303
  695TMC3    H110337   4.449   0.092   7.955
  695TMC3    H210338   0.025   0.297   7.940
  695TMC3    C710339   4.571   0.333   7.879
  695TMC3    C810340   0.089   0.234   8.188
  695TMC3    O110341   4.646   0.422   7.840
  695TMC3    O210342   0.092   0.261   8.306
  696TMC3    C110343   4.098   1.241  13.061
  696TMC3    C210344   3.999   1.191  12.973
  696TMC3    C310345   4.006   1.221  12.842
  696TMC3    C410346   4.166   1.353  13.027
  696TMC3    C510347   4.168   1.380  12.894
  696TMC3    C610348   4.097   1.310  12.797
  696TMC3     C10349   4.190   1.129  13.093
  696TMC3     O10350   4.136   1.016  13.097
  696TMC3     H10351   3.948   1.101  13.007
  696TMC3    H110352   4.250   1.389  13.085
  696TMC3    H210353   4.104   1.329  12.691
  696TMC3    C710354   4.300   1.405  12.841
  696TMC3    C810355   3.973   1.117  12.736
  696TMC3    O110356   4.348   1.335  12.750
  696TMC3    O210357   4.036   1.120  12.633
  697TMC3    C110358   3.949   3.797  12.360
  697TMC3    C210359   3.931   3.917  12.295
  697TMC3    C310360   3.855   3.925  12.177
  697TMC3    C410361   3.874   3.688  12.322
  697TMC3    C510362   3.791   3.698  12.209
  697TMC3    C610363   3.784   3.813  12.131
  697TMC3     C10364   3.982   3.820  12.500
  697TMC3     O10365   3.945   3.923  12.546
  697TMC3     H10366   3.988   4.003  12.328
  697TMC3    H110367   3.878   3.602  12.388
  697TMC3    H210368   3.722   3.819  12.041
  697TMC3    C710369   3.691   3.595  12.192
  697TMC3    C810370   3.859   4.057  12.116
  697TMC3    O110371   3.707   3.494  12.260
  697TMC3    O210372   3.871   4.063  11.998
  698TMC3    C110373   3.317   3.431  14.917
  698TMC3    C210374   3.198   3.444  14.844
  698TMC3    C310375   3.092   3.362  14.854
  698TMC3    C410376   3.306   3.352  15.029
  698TMC3    C510377   3.199   3.261  15.028
  698TMC3    C610378   3.088   3.259  14.948
  698TMC3     C10379   3.424   3.373  14.834
  698TMC3     O10380   3.400   3.355  14.714
  698TMC3     H10381   3.205   3.500  14.751
  698TMC3    H110382   3.390   3.349  15.097
  698TMC3    H210383   3.000   3.199  14.968
  698TMC3    C710384   3.195   3.165  15.136
  698TMC3    C810385   3.024   3.329  14.723
  698TMC3    O110386   3.246   3.191  15.244
  698TMC3    O210387   3.027   3.424  14.643
  699TMC3    C110388   4.449   0.727   7.638
  699TMC3    C210389   4.373   0.614   7.652
  699TMC3    C310390   4.422   0.504   7.587
  699TMC3    C410391   4.576   0.728   7.589
  699TMC3    C510392   4.614   0.621   7.514
  699TMC3    C610393   4.544   0.504   7.517
  699TMC3     C10394   4.395   0.856   7.695
  699TMC3     O10395   4.464   0.952   7.664
  699TMC3     H10396   4.274   0.605   7.695
  699TMC3    H110397   4.633   0.820   7.588
  699TMC3    H210398   4.577   0.419   7.459
  699TMC3    C710399   4.737   0.617   7.434
  699TMC3    C810400   4.322   0.412   7.554
  699TMC3    O110401   4.781   0.505   7.413
  699TMC3    O210402   4.202   0.428   7.573
  700TMC3    C110403   1.873   3.578  13.182
  700TMC3    C210404   2.006   3.592  13.210
  700TMC3    C310405   2.093   3.495  13.181
  700TMC3    C410406   1.826   3.454  13.140
  700TMC3    C510407   1.918   3.353  13.134
  700TMC3    C610408   2.050   3.365  13.152
  700TMC3     C10409   1.766   3.678  13.203
  700TMC3     O10410   1.649   3.642  13.198
  700TMC3     H10411   2.047   3.672  13.270
  700TMC3    H110412   1.719   3.439  13.127
  700TMC3    H210413   2.117   3.283  13.132
  700TMC3    C710414   1.868   3.222  13.124
  700TMC3    C810415   2.233   3.518  13.193
  700TMC3    O110416   1.774   3.211  13.048
  700TMC3    O210417   2.261   3.634  13.216
  701TMC3    C110418   3.383   4.235   7.251
  701TMC3    C210419   3.509   4.277   7.216
  701TMC3    C310420   3.520   4.366   7.119
  701TMC3    C410421   3.268   4.288   7.198
  701TMC3    C510422   3.286   4.378   7.097
  701TMC3    C610423   3.409   4.401   7.048
  701TMC3     C10424   3.357   4.105   7.316
  701TMC3     O10425   3.256   4.096   7.382
  701TMC3     H10426   3.596   4.236   7.268
  701TMC3    H110427   3.171   4.243   7.217
  701TMC3    H210428   3.425   4.489   6.988
  701TMC3    C710429   3.173   4.432   7.023
  701TMC3    C810430   3.654   4.405   7.060
  701TMC3    O110431   3.204   4.512   6.937
  701TMC3    O210432   3.641   4.416   6.939
  702TMC3    C110433   2.561   0.540  10.371
  702TMC3    C210434   2.650   0.527  10.263
  702TMC3    C310435   2.776   0.585  10.263
  702TMC3    C410436   2.598   0.611  10.479
  702TMC3    C510437   2.724   0.664  10.478
  702TMC3    C610438   2.817   0.647  10.377
  702TMC3     C10439   2.450   0.452  10.391
  702TMC3     O10440   2.420   0.429  10.510
  702TMC3     H10441   2.615   0.474  10.175
  702TMC3    H110442   2.527   0.631  10.558
  702TMC3    H210443   2.915   0.694  10.369
  702TMC3    C710444   2.784   0.717  10.600
  702TMC3    C810445   2.881   0.528  10.193
  702TMC3    O110446   2.708   0.769  10.680
  702TMC3    O210447   2.897   0.406  10.195
  703TMC3    C110448   1.730   0.212   8.686
  703TMC3    C210449   1.720   0.132   8.795
  703TMC3    C310450   1.769   0.005   8.781
  703TMC3    C410451   1.787   0.182   8.570
  703TMC3    C510452   1.831   0.057   8.565
  703TMC3    C610453   1.823   4.762   8.664
  703TMC3     C10454   1.657   0.337   8.690
  703TMC3     O10455   1.620   0.377   8.798
  703TMC3     H10456   1.672   0.168   8.885
  703TMC3    H110457   1.787   0.254   8.489
  703TMC3    H210458   1.876   4.668   8.654
  703TMC3    C710459   1.926   0.014   8.469
  703TMC3    C810460   1.790   4.708   8.888
  703TMC3    O110461   2.029   4.756   8.504
  703TMC3    O210462   1.797   4.752   9.002
  704TMC3    C110463   0.652   2.417   7.210
  704TMC3    C210464   0.792   2.415   7.210
  704TMC3    C310465   0.850   2.345   7.111
  704TMC3    C410466   0.570   2.350   7.114
  704TMC3    C510467   0.638   2.285   7.017
  704TMC3    C610468   0.775   2.276   7.018
  704TMC3     C10469   0.596   2.518   7.290
  704TMC3     O10470   0.521   2.494   7.381
  704TMC3     H10471   0.853   2.470   7.281
  704TMC3    H110472   0.462   2.357   7.110
  704TMC3    H210473   0.830   2.232   6.936
  704TMC3    C710474   0.557   2.235   6.912
  704TMC3    C810475   0.998   2.335   7.119
  704TMC3    O110476   0.442   2.268   6.901
  704TMC3    O210477   1.060   2.318   7.011
  705TMC3    C110478   3.706   4.652  15.358
  705TMC3    C210479   3.585   4.594  15.326
  705TMC3    C310480   3.575   4.466  15.294
  705TMC3    C410481   3.810   4.569  15.380
  705TMC3    C510482   3.804   4.442  15.340
  705TMC3    C610483   3.684   4.380  15.298
  705TMC3     C10484   3.725   4.791  15.326
  705TMC3     O10485   3.826   0.053  15.373
  705TMC3     H10486   3.505   4.667  15.319
  705TMC3    H110487   3.909   4.610  15.393
  705TMC3    H210488   3.657   4.279  15.268
  705TMC3    C710489   3.925   4.371  15.334
  705TMC3    C810490   3.455   4.419  15.220
  705TMC3    O110491   4.006   4.388  15.425
  705TMC3    O210492   3.482   4.345  15.124
  706TMC3    C110493   1.163   1.476  10.152
  706TMC3    C210494   1.179   1.457  10.019
  706TMC3    C310495   1.298   1.490   9.965
  706TMC3    C410496   1.246   1.544  10.232
  706TMC3    C510497   1.362   1.587  10.175
  706TMC3    C610498   1.397   1.541  10.045
  706TMC3     C10499   1.095   1.362  10.218
  706TMC3     O10500   0.992   1.331  10.166
  706TMC3     H10501   1.103   1.404   9.962
  706TMC3    H110502   1.220   1.554  10.337
  706TMC3    H210503   1.495   1.564  10.004
  706TMC3    C710504   1.368   1.731  10.177
  706TMC3    C810505   1.287   1.542   9.828
  706TMC3    O110506   1.259   1.788  10.198
  706TMC3    O210507   1.172   1.543   9.782
  707TMC3    C110508   2.346   2.694   9.214
  707TMC3    C210509   2.384   2.756   9.100
  707TMC3    C310510   2.450   2.880   9.102
  707TMC3    C410511   2.359   2.762   9.332
  707TMC3    C510512   2.417   2.888   9.332
  707TMC3    C610513   2.464   2.950   9.218
  707TMC3     C10514   2.224   2.606   9.197
  707TMC3     O10515   2.240   2.524   9.110
  707TMC3     H10516   2.340   2.720   9.007
  707TMC3    H110517   2.326   2.716   9.424
  707TMC3    H210518   2.510   3.048   9.219
  707TMC3    C710519   2.370   2.971   9.442
  707TMC3    C810520   2.511   2.932   8.983
  707TMC3    O110521   2.344   2.903   9.543
  707TMC3    O210522   2.506   3.058   8.968
  708TMC3    C110523   0.810   1.612  14.356
  708TMC3    C210524   0.837   1.511  14.270
  708TMC3    C310525   0.731   1.433  14.237
  708TMC3    C410526   0.682   1.636  14.406
  708TMC3    C510527   0.586   1.542  14.382
  708TMC3    C610528   0.603   1.447  14.295
  708TMC3     C10529   0.910   1.720  14.348
  708TMC3     O10530   1.024   1.676  14.361
  708TMC3     H10531   0.934   1.512  14.222
  708TMC3    H110532   0.669   1.709  14.484
  708TMC3    H210533   0.524   1.382  14.261
  708TMC3    C710534   0.453   1.577  14.423
  708TMC3    C810535   0.754   1.351  14.121
  708TMC3    O110536   0.428   1.692  14.458
  708TMC3    O210537   0.864   1.362  14.065
  709TMC3    C110538   1.735   1.261   8.963
  709TMC3    C210539   1.756   1.135   9.015
  709TMC3    C310540   1.789   1.030   8.932
  709TMC3    C410541   1.749   1.286   8.830
  709TMC3    C510542   1.767   1.178   8.745
  709TMC3    C610543   1.787   1.049   8.796
  709TMC3     C10544   1.660   1.357   9.038
  709TMC3     O10545   1.665   1.378   9.158
  709TMC3     H10546   1.733   1.113   9.119
  709TMC3    H110547   1.725   1.388   8.803
  709TMC3    H210548   1.796   0.970   8.723
  709TMC3    C710549   1.763   1.211   8.602
  709TMC3    C810550   1.820   0.905   9.002
  709TMC3    O110551   1.695   1.310   8.578
  709TMC3    O210552   1.842   0.906   9.122
  710TMC3    C110553   2.898   0.086  12.287
  710TMC3    C210554   2.811   4.789  12.343
  710TMC3    C310555   2.694   0.049  12.387
  710TMC3    C410556   2.870   0.209  12.245
  710TMC3    C510557   2.750   0.257  12.285
  710TMC3    C610558   2.660   0.176  12.352
  710TMC3     C10559   3.040   0.053  12.266
  710TMC3     O10560   3.087   0.076  12.159
  710TMC3     H10561   2.846   4.687  12.358
  710TMC3    H110562   2.946   0.269  12.196
  710TMC3    H210563   2.574   0.220  12.400
  710TMC3    C710564   2.713   0.397  12.263
  710TMC3    C810565   2.612   4.749  12.465
  710TMC3    O110566   2.605   0.426  12.311
  710TMC3    O210567   2.633   4.630  12.453
  711TMC3    C110568   2.213   1.958   7.458
  711TMC3    C210569   2.347   1.925   7.447
  711TMC3    C310570   2.429   2.011   7.375
  711TMC3    C410571   2.163   2.070   7.406
  711TMC3    C510572   2.253   2.157   7.345
  711TMC3    C610573   2.390   2.133   7.333
  711TMC3     C10574   2.122   1.862   7.515
  711TMC3     O10575   2.010   1.863   7.462
  711TMC3     H10576   2.385   1.843   7.506
  711TMC3    H110577   2.056   2.080   7.393
  711TMC3    H210578   2.459   2.205   7.290
  711TMC3    C710579   2.198   2.268   7.273
  711TMC3    C810580   2.540   1.942   7.313
  711TMC3    O110581   2.086   2.304   7.301
  711TMC3    O210582   2.621   1.998   7.242
  712TMC3    C110583   0.608   2.452   7.780
  712TMC3    C210584   0.635   2.377   7.666
  712TMC3    C310585   0.765   2.344   7.641
  712TMC3    C410586   0.715   2.506   7.849
  712TMC3    C510587   0.841   2.486   7.810
  712TMC3    C610588   0.871   2.393   7.708
  712TMC3     C10589   0.503   2.543   7.785
  712TMC3     O10590   0.534   2.658   7.752
  712TMC3     H10591   0.552   2.359   7.599
  712TMC3    H110592   0.684   2.585   7.916
  712TMC3    H210593   0.974   2.364   7.693
  712TMC3    C710594   0.963   2.554   7.861
  712TMC3    C810595   0.791   2.265   7.526
  712TMC3    O110596   1.062   2.559   7.790
  712TMC3    O210597   0.904   2.284   7.480
  713TMC3    C110598   3.217   3.048  11.809
  713TMC3    C210599   3.165   3.114  11.700
  713TMC3    C310600   3.251   3.192  11.628
  713TMC3    C410601   3.348   3.077  11.848
  713TMC3    C510602   3.421   3.164  11.778
  713TMC3    C610603   3.385   3.215  11.656
  713TMC3     C10604   3.171   2.907  11.805
  713TMC3     O10605   3.060   2.901  11.753
  713TMC3     H10606   3.061   3.111  11.671
  713TMC3    H110607   3.391   3.024  11.931
  713TMC3    H210608   3.444   3.287  11.599
  713TMC3    C710609   3.561   3.164  11.807
  713TMC3    C810610   3.182   3.301  11.546
  713TMC3    O110611   3.603   3.067  11.873
  713TMC3    O210612   3.234   3.410  11.539
  714TMC3    C110613   0.062   0.023   9.875
  714TMC3    C210614   4.775   4.712   9.854
  714TMC3    C310615   4.662   4.714   9.927
  714TMC3    C410616   0.042   0.121   9.968
  714TMC3    C510617   4.718   0.126  10.031
  714TMC3    C610618   4.629   0.020  10.020
  714TMC3     C10619   0.167   0.045   9.780
  714TMC3     O10620   0.211   0.160   9.772
  714TMC3     H10621   0.004   4.623   9.796
  714TMC3    H110622   0.110   0.206   9.967
  714TMC3    H210623   4.532   0.014  10.068
  714TMC3    C710624   4.650   0.250   9.996
  714TMC3    C810625   4.556   4.626   9.897
  714TMC3    O110626   4.570   0.245   9.901
  714TMC3    O210627   4.476   4.592   9.979
  715TMC3    C110628   4.060   0.456  12.459
  715TMC3    C210629   4.044   0.371  12.562
  715TMC3    C310630   3.972   0.258  12.537
  715TMC3    C410631   3.990   0.431  12.341
  715TMC3    C510632   3.911   0.315  12.325
  715TMC3    C610633   3.903   0.222  12.427
  715TMC3     C10634   4.178   0.539  12.456
  715TMC3     O10635   4.250   0.516  12.549
  715TMC3     H10636   4.099   0.387  12.655
  715TMC3    H110637   3.999   0.500  12.257
  715TMC3    H210638   3.845   0.131  12.419
  715TMC3    C710639   3.910   0.254  12.194
  715TMC3    C810640   3.975   0.165  12.645
  715TMC3    O110641   3.880   0.319  12.094
  715TMC3    O210642   3.933   0.053  12.626
  716TMC3    C110643   0.328   3.596  11.746
  716TMC3    C210644   0.214   3.583  11.809
  716TMC3    C310645   0.127   3.692  11.796
  716TMC3    C410646   0.356   3.703  11.665
  716TMC3    C510647   0.265   3.806  11.652
  716TMC3    C610648   0.142   3.795  11.710
  716TMC3     C10649   0.441   3.515  11.784
  716TMC3     O10650   0.549   3.575  11.777
  716TMC3     H10651   0.196   3.502  11.879
  716TMC3    H110652   0.452   3.704  11.615
  716TMC3    H210653   0.078   3.882  11.703
  716TMC3    C710654   0.328   3.937  11.650
  716TMC3    C810655   0.025   3.701  11.906
  716TMC3    O110656   0.244   4.023  11.638
  716TMC3    O210657   4.764   3.591  11.932
  717TMC3    C110658   0.082   4.445  10.452
  717TMC3    C210659   4.747   4.434  10.487
  717TMC3    C310660   4.700   4.305  10.514
  717TMC3    C410661   0.161   4.338  10.423
  717TMC3    C510662   0.108   4.214  10.452
  717TMC3    C610663   4.774   4.190  10.496
  717TMC3     C10664   0.126   4.581  10.418
  717TMC3     O10665   0.104   4.665  10.506
  717TMC3     H10666   4.682   4.520  10.501
  717TMC3    H110667   0.266   4.344  10.396
  717TMC3    H210668   4.729   4.092  10.507
  717TMC3    C710669   0.207   4.108  10.452
  717TMC3    C810670   4.575   4.304  10.588
  717TMC3    O110671   0.319   4.136  10.427
  717TMC3    O210672   4.481   4.270  10.525
  718TMC3    C110673   1.210   0.171   7.114
  718TMC3    C210674   1.267   0.159   6.995
  718TMC3    C310675   1.256   0.258   6.897
  718TMC3    C410676   1.109   0.265   7.133
  718TMC3    C510677   1.099   0.365   7.037
  718TMC3    C610678   1.171   0.367   6.916
  718TMC3     C10679   1.166   0.048   7.173
  718TMC3     O10680   1.151   0.045   7.295
  718TMC3     H10681   1.341   0.081   6.979
  718TMC3    H110682   1.044   0.254   7.219
  718TMC3    H210683   1.161   0.438   6.834
  718TMC3    C710684   1.025   0.484   7.071
  718TMC3    C810685   1.377   0.282   6.830
  718TMC3    O110686   1.047   0.523   7.187
  718TMC3    O210687   1.445   0.190   6.794
  719TMC3    C110688   1.016   0.558  12.738
  719TMC3    C210689   1.143   0.536  12.697
  719TMC3    C310690   1.152   0.437  12.598
  719TMC3    C410691   0.907   0.524  12.662
  719TMC3    C510692   0.929   0.483  12.537
  719TMC3    C610693   1.050   0.417  12.510
  719TMC3     C10694   0.985   0.677  12.819
  719TMC3     O10695   0.984   0.787  12.769
  719TMC3     H10696   1.231   0.582  12.740
  719TMC3    H110697   0.811   0.556  12.701
  719TMC3    H210698   1.067   0.373  12.412
  719TMC3    C710699   0.877   0.581  12.447
  719TMC3    C810700   1.286   0.407  12.551
  719TMC3    O110701   0.790   0.652  12.497
  719TMC3    O210702   1.374   0.471  12.606
  720TMC3    C110703   4.441   0.250   9.289
  720TMC3    C210704   4.358   0.314   9.195
  720TMC3    C310705   4.421   0.346   9.082
  720TMC3    C410706   4.573   0.220   9.273
  720TMC3    C510707   4.634   0.265   9.160
  720TMC3    C610708   4.560   0.324   9.061
  720TMC3     C10709   4.376   0.179   9.404
  720TMC3     O10710   4.427   0.078   9.452
  720TMC3     H10711   4.251   0.324   9.208
  720TMC3    H110712   4.632   0.179   9.354
  720TMC3    H210713   4.611   0.376   8.981
  720TMC3    C710714   4.759   0.195   9.129
  720TMC3    C810715   4.342   0.410   8.981
  720TMC3    O110716   4.773   0.084   9.182
  720TMC3    O210717   4.245   0.468   9.033
  721TMC3    C110718   4.386   2.980  12.225
  721TMC3    C210719   4.268   3.038  12.199
  721TMC3    C310720   4.235   3.047  12.065
  721TMC3    C410721   4.470   2.930  12.126
  721TMC3    C510722   4.424   2.931  12.002
  721TMC3    C610723   4.309   2.990  11.968
  721TMC3     C10724   4.450   3.028  12.348
  721TMC3     O10725   4.378   3.070  12.433
  721TMC3     H10726   4.203   3.090  12.268
  721TMC3    H110727   4.566   2.891  12.155
  721TMC3    H210728   4.282   2.988  11.863
  721TMC3    C710729   4.503   2.866  11.897
  721TMC3    C810730   4.181   3.174  12.030
  721TMC3    O110731   4.438   2.778  11.839
  721TMC3    O210732   4.234   3.275  12.085
  722TMC3    C110733   4.093   4.317  12.499
  722TMC3    C210734   4.036   4.311  12.624
  722TMC3    C310735   4.001   4.428  12.683
  722TMC3    C410736   4.128   4.433  12.442
  722TMC3    C510737   4.107   4.549  12.515
  722TMC3    C610738   4.039   4.549  12.634
  722TMC3     C10739   4.143   4.200  12.430
  722TMC3     O10740   4.152   4.191  12.308
  722TMC3     H10741   3.987   4.221  12.658
  722TMC3    H110742   4.174   4.431  12.344
  722TMC3    H210743   4.012   4.641  12.685
  722TMC3    C710744   4.196   4.662  12.489
  722TMC3    C810745   3.922   4.416  12.807
  722TMC3    O110746   4.252   4.651  12.385
  722TMC3    O210747   3.953   4.321  12.875
  723TMC3    C110748   3.092   1.556  13.633
  723TMC3    C210749   3.027   1.518  13.517
  723TMC3    C310750   3.017   1.382  13.500
  723TMC3    C410751   3.144   1.471  13.730
  723TMC3    C510752   3.122   1.335  13.711
  723TMC3    C610753   3.072   1.292  13.587
  723TMC3     C10754   3.130   1.693  13.627
  723TMC3     O10755   3.070   1.770  13.553
  723TMC3     H10756   2.986   1.588  13.445
  723TMC3    H110757   3.180   1.511  13.824
  723TMC3    H210758   3.053   1.185  13.588
  723TMC3    C710759   3.104   1.248  13.826
  723TMC3    C810760   2.984   1.335  13.363
  723TMC3    O110761   3.124   1.128  13.809
  723TMC3    O210762   2.956   1.429  13.291
  724TMC3    C110763   0.987   2.918   9.471
  724TMC3    C210764   0.980   2.791   9.416
  724TMC3    C310765   0.861   2.729   9.412
  724TMC3    C410766   0.887   2.971   9.536
  724TMC3    C510767   0.760   2.910   9.528
  724TMC3    C610768   0.746   2.782   9.471
  724TMC3     C10769   1.117   2.981   9.500
  724TMC3     O10770   1.126   3.021   9.615
  724TMC3     H10771   1.071   2.747   9.377
  724TMC3    H110772   0.888   3.073   9.572
  724TMC3    H210773   0.651   2.735   9.454
  724TMC3    C710774   0.664   3.008   9.484
  724TMC3    C810775   0.839   2.607   9.339
  724TMC3    O110776   0.705   3.104   9.421
  724TMC3    O210777   0.779   2.514   9.392
  725TMC3    C110778   0.859   0.590   8.505
  725TMC3    C210779   0.793   0.689   8.441
  725TMC3    C310780   0.733   0.788   8.510
  725TMC3    C410781   0.868   0.588   8.643
  725TMC3    C510782   0.815   0.695   8.706
  725TMC3    C610783   0.756   0.802   8.645
  725TMC3     C10784   0.869   0.464   8.429
  725TMC3     O10785   0.877   0.476   8.304
  725TMC3     H10786   0.752   0.665   8.344
  725TMC3    H110787   0.921   0.512   8.698
  725TMC3    H210788   0.693   0.878   8.690
  725TMC3    C710789   0.749   0.663   8.833
  725TMC3    C810790   0.605   0.825   8.466
  725TMC3    O110791   0.712   0.544   8.847
  725TMC3    O210792   0.520   0.833   8.552
  726TMC3    C110793   2.724   1.215   7.593
  726TMC3    C210794   2.783   1.335   7.578
  726TMC3    C310795   2.915   1.358   7.615
  726TMC3    C410796   2.794   1.108   7.644
  726TMC3    C510797   2.920   1.129   7.684
  726TMC3    C610798   2.985   1.254   7.670
  726TMC3     C10799   2.616   1.187   7.500
  726TMC3     O10800   2.553   1.281   7.465
  726TMC3     H10801   2.727   1.404   7.515
  726TMC3    H110802   2.744   1.015   7.667
  726TMC3    H210803   3.089   1.267   7.696
  726TMC3    C710804   3.021   1.023   7.685
  726TMC3    C810805   2.990   1.450   7.540
  726TMC3    O110806   3.138   1.040   7.719
  726TMC3    O210807   3.110   1.448   7.541
  727TMC3    C110808   1.869   3.318   8.151
  727TMC3    C210809   1.905   3.192   8.122
  727TMC3    C310810   1.946   3.114   8.226
  727TMC3    C410811   1.856   3.360   8.284
  727TMC3    C510812   1.907   3.280   8.385
  727TMC3    C610813   1.954   3.156   8.357
  727TMC3     C10814   1.890   3.417   8.044
  727TMC3     O10815   1.907   3.385   7.925
  727TMC3     H10816   1.933   3.162   8.022
  727TMC3    H110817   1.834   3.461   8.318
  727TMC3    H210818   1.992   3.085   8.430
  727TMC3    C710819   1.834   3.281   8.507
  727TMC3    C810820   2.016   2.992   8.190
  727TMC3    O110821   1.720   3.324   8.501
  727TMC3    O210822   2.082   2.992   8.086
  728TMC3    C110823   1.698   1.000   7.287
  728TMC3    C210824   1.673   1.003   7.153
  728TMC3    C310825   1.746   0.928   7.070
  728TMC3    C410826   1.796   0.919   7.339
  728TMC3    C510827   1.864   0.843   7.249
  728TMC3    C610828   1.852   0.854   7.114
  728TMC3     C10829   1.609   1.064   7.375
  728TMC3     O10830   1.578   1.178   7.353
  728TMC3     H10831   1.588   1.060   7.116
  728TMC3    H110832   1.805   0.904   7.446
  728TMC3    H210833   1.912   0.793   7.048
  728TMC3    C710834   1.902   0.716   7.292
  728TMC3    C810835   1.660   0.852   6.976
  728TMC3    O110836   1.935   0.709   7.411
  728TMC3    O210837   1.555   0.835   7.034
  729TMC3    C110838   0.785   3.535   7.724
  729TMC3    C210839   0.851   3.439   7.657
  729TMC3    C310840   0.969   3.407   7.708
  729TMC3    C410841   0.830   3.584   7.843
  729TMC3    C510842   0.945   3.534   7.900
  729TMC3    C610843   1.019   3.445   7.828
  729TMC3     C10844   0.642   3.521   7.711
  729TMC3     O10845   0.573   3.620   7.732
  729TMC3     H10846   0.808   3.396   7.568
  729TMC3    H110847   0.779   3.660   7.901
  729TMC3    H210848   1.107   3.396   7.868
  729TMC3    C710849   1.000   3.580   8.026
  729TMC3    C810850   1.050   3.325   7.621
  729TMC3    O110851   1.120   3.587   8.032
  729TMC3    O210852   1.116   3.235   7.673
  730TMC3    C110853   1.889   3.769   7.484
  730TMC3    C210854   2.016   3.761   7.446
  730TMC3    C310855   2.042   3.764   7.309
  730TMC3    C410856   1.788   3.765   7.395
  730TMC3    C510857   1.814   3.774   7.263
  730TMC3    C610858   1.939   3.773   7.220
  730TMC3     C10859   1.858   3.745   7.623
  730TMC3     O10860   1.748   3.712   7.661
  730TMC3     H10861   2.093   3.764   7.522
  730TMC3    H110862   1.686   3.759   7.430
  730TMC3    H210863   1.960   3.785   7.115
  730TMC3    C710864   1.722   3.683   7.196
  730TMC3    C810865   2.179   3.738   7.265
  730TMC3    O110866   1.606   3.710   7.214
  730TMC3    O210867   2.225   3.794   7.165
  731TMC3    C110868   1.139   0.918  11.201
  731TMC3    C210869   1.085   0.807  11.264
  731TMC3    C310870   1.170   0.715  11.322
  731TMC3    C410871   1.269   0.953  11.213
  731TMC3    C510872   1.341   0.859  11.283
  731TMC3    C610873   1.304   0.738  11.323
  731TMC3     C10874   1.065   0.990  11.095
  731TMC3     O10875   1.067   1.112  11.099
  731TMC3     H10876   0.981   0.782  11.247
  731TMC3    H110877   1.322   1.032  11.161
  731TMC3    H210878   1.380   0.675  11.368
  731TMC3    C710879   1.483   0.878  11.277
  731TMC3    C810880   1.129   0.580  11.326
  731TMC3    O110881   1.526   0.992  11.300
  731TMC3    O210882   1.033   0.556  11.255
  732TMC3    C110883   1.306   1.014  13.444
  732TMC3    C210884   1.417   0.986  13.514
  732TMC3    C310885   1.457   0.855  13.531
  732TMC3    C410886   1.232   0.918  13.381
  732TMC3    C510887   1.270   0.789  13.407
  732TMC3    C610888   1.380   0.758  13.487
  732TMC3     C10889   1.296   1.151  13.390
  732TMC3     O10890   1.401   1.215  13.376
  732TMC3     H10891   1.479   1.071  13.541
  732TMC3    H110892   1.159   0.941  13.304
  732TMC3    H210893   1.402   0.658  13.522
  732TMC3    C710894   1.162   0.685  13.421
  732TMC3    C810895   1.580   0.821  13.600
  732TMC3    O110896   1.199   0.570  13.405
  732TMC3    O210897   1.584   0.706  13.648
  733TMC3    C110898   4.120   2.448  13.906
  733TMC3    C210899   4.206   2.342  13.882
  733TMC3    C310900   4.153   2.219  13.856
  733TMC3    C410901   3.987   2.422  13.912
  733TMC3    C510902   3.931   2.305  13.879
  733TMC3    C610903   4.017   2.200  13.849
  733TMC3     C10904   4.155   2.584  13.886
  733TMC3     O10905   4.060   2.656  13.854
  733TMC3     H10906   4.312   2.365  13.871
  733TMC3    H110907   3.915   2.502  13.901
  733TMC3    H210908   3.975   2.109  13.808
  733TMC3    C710909   3.791   2.260  13.908
  733TMC3    C810910   4.237   2.110  13.820
  733TMC3    O110911   3.761   2.142  13.893
  733TMC3    O210912   4.189   2.004  13.783
  734TMC3    C110913   3.327   1.581  13.219
  734TMC3    C210914   3.308   1.475  13.125
  734TMC3    C310915   3.191   1.482  13.052
  734TMC3    C410916   3.242   1.683  13.229
  734TMC3    C510917   3.129   1.679  13.149
  734TMC3    C610918   3.102   1.585  13.054
  734TMC3     C10919   3.382   1.532  13.346
  734TMC3     O10920   3.411   1.615  13.428
  734TMC3     H10921   3.384   1.401  13.104
  734TMC3    H110922   3.246   1.754  13.310
  734TMC3    H210923   3.002   1.565  13.020
  734TMC3    C710924   3.024   1.766  13.191
  734TMC3    C810925   3.159   1.353  13.000
  734TMC3    O110926   3.057   1.884  13.211
  734TMC3    O210927   3.220   1.253  13.043
  735TMC3    C110928   1.328   3.856  13.998
  735TMC3    C210929   1.199   3.877  14.041
  735TMC3    C310930   1.130   3.769  14.090
  735TMC3    C410931   1.384   3.735  13.994
  735TMC3    C510932   1.316   3.631  14.054
  735TMC3    C610933   1.186   3.648  14.095
  735TMC3     C10934   1.395   3.964  13.923
  735TMC3     O10935   1.509   3.944  13.886
  735TMC3     H10936   1.173   3.980  14.066
  735TMC3    H110937   1.488   3.723  13.965
  735TMC3    H210938   1.137   3.563  14.142
  735TMC3    C710939   1.382   3.578  14.167
  735TMC3    C810940   1.026   3.800  14.179
  735TMC3    O110941   1.318   3.568  14.272
  735TMC3    O210942   1.022   3.727  14.275
  736TMC3    C110943   4.538   2.517  10.011
  736TMC3    C210944   4.473   2.470  10.115
  736TMC3    C310945   4.428   2.343  10.116
  736TMC3    C410946   4.570   2.448   9.901
  736TMC3    C510947   4.524   2.322   9.901
  736TMC3    C610948   4.460   2.263  10.010
  736TMC3     C10949   4.617   2.638  10.050
  736TMC3     O10950   4.617   2.686  10.162
  736TMC3     H10951   4.477   2.525  10.209
  736TMC3    H110952   4.590   2.499   9.807
  736TMC3    H210953   4.435   2.158  10.018
  736TMC3    C710954   4.506   2.262   9.772
  736TMC3    C810955   4.424   2.282  10.245
  736TMC3    O110956   4.579   2.305   9.683
  736TMC3    O210957   4.478   2.172  10.242
  737TMC3    C110958   4.273   3.710  11.171
  737TMC3    C210959   4.206   3.813  11.117
  737TMC3    C310960   4.191   3.812  10.977
  737TMC3    C410961   4.342   3.616  11.096
  737TMC3    C510962   4.318   3.618  10.964
  737TMC3    C610963   4.245   3.715  10.896
  737TMC3     C10964   4.302   3.701  11.314
  737TMC3     O10965   4.341   3.805  11.362
  737TMC3     H10966   4.164   3.891  11.179
  737TMC3    H110967   4.419   3.553  11.139
  737TMC3    H210968   4.250   3.716  10.788
  737TMC3    C710969   4.395   3.521  10.889
  737TMC3    C810970   4.066   3.865  10.937
  737TMC3    O110971   4.440   3.545  10.776
  737TMC3    O210972   4.024   3.967  10.993
  738TMC3    C110973   2.639   0.789   6.610
  738TMC3    C210974   2.690   0.844   6.729
  738TMC3    C310975   2.830   0.855   6.738
  738TMC3    C410976   2.724   0.736   6.521
  738TMC3    C510977   2.860   0.754   6.531
  738TMC3    C610978   2.913   0.797   6.649
  738TMC3     C10979   2.506   0.741   6.597
  738TMC3     O10980   2.464   0.722   6.483
  738TMC3     H10981   2.626   0.889   6.803
  738TMC3    H110982   2.685   0.675   6.440
  738TMC3    H210983   3.014   0.835   6.639
  738TMC3    C710984   2.942   0.682   6.432
  738TMC3    C810985   2.891   0.892   6.863
  738TMC3    O110986   2.888   0.648   6.326
  738TMC3    O210987   2.973   0.812   6.902
  739TMC3    C110988   2.414   1.115  12.696
  739TMC3    C210989   2.521   1.125  12.778
  739TMC3    C310990   2.575   1.253  12.793
  739TMC3    C410991   2.376   1.222  12.623
  739TMC3    C510992   2.446   1.341  12.622
  739TMC3    C610993   2.546   1.363  12.716
  739TMC3     C10994   2.314   1.018  12.731
  739TMC3     O10995   2.351   0.920  12.789
  739TMC3     H10996   2.544   1.039  12.840
  739TMC3    H110997   2.289   1.221  12.557
  739TMC3    H210998   2.610   1.450  12.714
  739TMC3    C710999   2.445   1.428  12.508
  739TMC3    C811000   2.692   1.269  12.879
  739TMC3    O111001   2.391   1.388  12.407
  739TMC3    O211002   2.723   1.380  12.923
  740TMC3    C111003   1.625   1.173  11.055
  740TMC3    C211004   1.505   1.137  10.998
  740TMC3    C311005   1.517   1.026  10.913
  740TMC3    C411006   1.738   1.102  11.049
  740TMC3    C511007   1.744   0.993  10.972
  740TMC3    C611008   1.637   0.957  10.894
  740TMC3     C11009   1.633   1.302  11.116
  740TMC3     O11010   1.557   1.387  11.079
  740TMC3     H11011   1.414   1.195  11.008
  740TMC3    H111012   1.827   1.140  11.097
  740TMC3    H211013   1.644   0.870  10.830
  740TMC3    C711014   1.874   0.974  10.908
  740TMC3    C811015   1.392   0.952  10.877
  740TMC3    O111016   1.860   0.965  10.788
  740TMC3    O211017   1.390   0.833  10.903
  741TMC3    C111018   4.206   4.511  11.112
  741TMC3    C211019   4.191   4.434  11.226
  741TMC3    C311020   4.188   4.298  11.212
  741TMC3    C411021   4.219   4.458  10.983
  741TMC3    C511022   4.208   4.319  10.979
  741TMC3    C611023   4.186   4.239  11.088
  741TMC3     C11024   4.161   4.647  11.125
  741TMC3     O11025   4.171   4.723  11.028
  741TMC3     H11026   4.194   4.478  11.325
  741TMC3    H111027   4.243   4.519  10.897
  741TMC3    H211028   4.197   4.133  11.071
  741TMC3    C711029   4.163   4.263  10.860
  741TMC3    C811030   4.222   4.216  11.331
  741TMC3    O111031   4.039   4.260  10.867
  741TMC3    O211032   4.160   4.114  11.344
  742TMC3    C111033   4.695   2.549   6.851
  742TMC3    C211034   0.011   2.535   6.769
  742TMC3    C311035   0.029   2.413   6.710
  742TMC3    C411036   4.616   2.442   6.886
  742TMC3    C511037   4.641   2.321   6.824
  742TMC3    C611038   4.738   2.310   6.724
  742TMC3     C11039   4.702   2.648   6.951
  742TMC3     O11040   4.601   2.670   7.021
  742TMC3     H11041   0.061   2.623   6.730
  742TMC3    H111042   4.541   2.454   6.962
  742TMC3    H211043   4.762   2.215   6.678
  742TMC3    C711044   4.571   2.200   6.869
  742TMC3    C811045   0.131   2.420   6.601
  742TMC3    O111046   4.544   2.122   6.778
  742TMC3    O211047   0.141   2.323   6.527
  743TMC3    C111048   0.783   1.797   8.556
  743TMC3    C211049   0.754   1.757   8.681
  743TMC3    C311050   0.679   1.831   8.768
  743TMC3    C411051   0.746   1.925   8.516
  743TMC3    C511052   0.687   2.008   8.611
  743TMC3    C611053   0.640   1.962   8.730
  743TMC3     C11054   0.897   1.739   8.496
  743TMC3     O11055   0.897   1.710   8.377
  743TMC3     H11056   0.791   1.659   8.709
  743TMC3    H111057   0.788   1.969   8.425
  743TMC3    H211058   0.588   2.022   8.804
  743TMC3    C711059   0.767   2.125   8.616
  743TMC3    C811060   0.736   1.834   8.896
  743TMC3    O111061   0.813   2.174   8.515
  743TMC3    O211062   0.762   1.950   8.927
  744TMC3    C111063   0.271   2.947  13.973
  744TMC3    C211064   0.142   2.933  13.921
  744TMC3    C311065   0.076   3.054  13.886
  744TMC3    C411066   0.325   3.066  14.003
  744TMC3    C511067   0.241   3.177  13.987
  744TMC3    C611068   0.122   3.175  13.922
  744TMC3     C11069   0.356   2.835  13.976
  744TMC3     O11070   0.308   2.724  14.002
  744TMC3     H11071   0.106   2.832  13.903
  744TMC3    H111072   0.412   3.072  14.068
  744TMC3    H211073   0.055   3.260  13.928
  744TMC3    C711074   0.262   3.278  14.095
  744TMC3    C811075   4.729   3.051  13.837
  744TMC3    O111076   0.371   3.333  14.098
  744TMC3    O211077   4.687   3.164  13.811
  745TMC3    C111078   3.542   1.821   9.887
  745TMC3    C211079   3.503   1.790  10.012
  745TMC3    C311080   3.436   1.889  10.086
  745TMC3    C411081   3.517   1.946   9.833
  745TMC3    C511082   3.451   2.037   9.909
  745TMC3    C611083   3.411   2.011  10.037
  745TMC3     C11084   3.505   1.715   9.792
  745TMC3     O11085   3.421   1.639   9.831
  745TMC3     H11086   3.526   1.695  10.061
  745TMC3    H111087   3.519   1.966   9.726
  745TMC3    H211088   3.365   2.089  10.096
  745TMC3    C711089   3.412   2.155   9.847
  745TMC3    C811090   3.324   1.838  10.162
  745TMC3    O111091   3.483   2.207   9.763
  745TMC3    O211092   3.267   1.910  10.240
  746TMC3    C111093   0.374   2.949  10.398
  746TMC3    C211094   0.396   2.816  10.444
  746TMC3    C311095   0.403   2.799  10.578
  746TMC3    C411096   0.381   3.053  10.484
  746TMC3    C511097   0.399   3.028  10.617
  746TMC3    C611098   0.401   2.900  10.669
  746TMC3     C11099   0.321   2.981  10.270
  746TMC3     O11100   0.370   3.078  10.217
  746TMC3     H11101   0.400   2.732  10.376
  746TMC3    H111102   0.365   3.154  10.448
  746TMC3    H211103   0.425   2.884  10.774
  746TMC3    C711104   0.436   3.137  10.692
  746TMC3    C811105   0.502   2.699  10.615
  746TMC3    O111106   0.537   3.134  10.756
  746TMC3    O211107   0.601   2.683  10.543
  747TMC3    C111108   1.873   0.093   9.343
  747TMC3    C211109   1.886   0.216   9.405
  747TMC3    C311110   1.769   0.286   9.429
  747TMC3    C411111   1.759   0.038   9.293
  747TMC3    C511112   1.653   0.123   9.297
  747TMC3    C611113   1.658   0.243   9.371
  747TMC3     C11114   1.996   0.021   9.340
  747TMC3     O11115   2.030   4.770   9.232
  747TMC3     H11116   1.987   0.251   9.423
  747TMC3    H111117   1.762   4.736   9.242
  747TMC3    H211118   1.579   0.317   9.372
  747TMC3    C711119   1.534   0.089   9.223
  747TMC3    C811120   1.788   0.429   9.460
  747TMC3    O111121   1.490   0.188   9.163
  747TMC3    O211122   1.712   0.505   9.398
  748TMC3    C111123   3.067   0.444  14.791
  748TMC3    C211124   3.193   0.450  14.853
  748TMC3    C311125   3.186   0.490  14.987
  748TMC3    C411126   2.946   0.459  14.849
  748TMC3    C511127   2.953   0.463  14.987
  748TMC3    C611128   3.069   0.480  15.054
  748TMC3     C11129   3.075   0.507  14.661
  748TMC3     O11130   2.988   0.589  14.635
  748TMC3     H11131   3.284   0.464  14.796
  748TMC3    H111132   2.855   0.469  14.792
  748TMC3    H211133   3.073   0.478  15.163
  748TMC3    C711134   2.837   0.418  15.063
  748TMC3    C811135   3.308   0.502  15.066
  748TMC3    O111136   2.864   0.366  15.167
  748TMC3    O211137   3.310   0.570  15.167
  749TMC3    C111138   2.794   4.156  13.237
  749TMC3    C211139   2.840   4.140  13.111
  749TMC3    C311140   2.879   4.019  13.066
  749TMC3    C411141   2.788   4.051  13.322
  749TMC3    C511142   2.820   3.925  13.278
  749TMC3    C611143   2.870   3.913  13.153
  749TMC3     C11144   2.709   4.276  13.266
  749TMC3     O11145   2.622   4.259  13.354
  749TMC3     H11146   2.854   4.221  13.040
  749TMC3    H111147   2.740   4.068  13.417
  749TMC3    H211148   2.910   3.813  13.141
  749TMC3    C711149   2.811   3.810  13.362
  749TMC3    C811150   2.921   3.980  12.932
  749TMC3    O111151   2.894   3.722  13.356
  749TMC3    O211152   2.983   3.876  12.928
  750TMC3    C111153   1.195   0.970  11.624
  750TMC3    C211154   1.262   0.853  11.657
  750TMC3    C311155   1.398   0.851  11.648
  750TMC3    C411156   1.265   1.089  11.607
  750TMC3    C511157   1.394   1.079  11.606
  750TMC3    C611158   1.472   0.963  11.619
  750TMC3     C11159   1.057   0.982  11.673
  750TMC3     O11160   1.019   0.881  11.728
  750TMC3     H11161   1.209   0.761  11.677
  750TMC3    H111162   1.213   1.184  11.598
  750TMC3    H211163   1.580   0.966  11.620
  750TMC3    C711164   1.472   1.203  11.613
  750TMC3    C811165   1.455   0.718  11.641
  750TMC3    O111166   1.553   1.208  11.707
  750TMC3    O211167   1.376   0.630  11.618
  751TMC3    C111168   2.297   1.344  13.706
  751TMC3    C211169   2.179   1.384  13.650
  751TMC3    C311170   2.175   1.509  13.597
  751TMC3    C411171   2.415   1.408  13.691
  751TMC3    C511172   2.402   1.535  13.645
  751TMC3    C611173   2.286   1.583  13.598
  751TMC3     C11174   2.315   1.202  13.711
  751TMC3     O11175   2.250   1.141  13.628
  751TMC3     H11176   2.102   1.309  13.647
  751TMC3    H111177   2.509   1.380  13.738
  751TMC3    H211178   2.275   1.680  13.549
  751TMC3    C711179   2.518   1.572  13.566
  751TMC3    C811180   2.110   1.509  13.464
  751TMC3    O111181   2.594   1.479  13.533
  751TMC3    O211182   2.042   1.601  13.421
  752TMC3    C111183   3.683   1.658   8.821
  752TMC3    C211184   3.809   1.701   8.817
  752TMC3    C311185   3.891   1.664   8.926
  752TMC3    C411186   3.650   1.560   8.912
  752TMC3    C511187   3.732   1.519   9.010
  752TMC3    C611188   3.854   1.580   9.028
  752TMC3     C11189   3.602   1.771   8.845
  752TMC3     O11190   3.659   1.880   8.840
  752TMC3     H11191   3.844   1.776   8.746
  752TMC3    H111192   3.556   1.506   8.905
  752TMC3    H211193   3.921   1.554   9.109
  752TMC3    C711194   3.657   1.465   9.118
  752TMC3    C811195   4.018   1.732   8.951
  752TMC3    O111196   3.576   1.375   9.090
  752TMC3    O211197   4.049   1.754   9.068
  753TMC3    C111198   2.206   4.739   7.710
  753TMC3    C211199   2.280   4.734   7.598
  753TMC3    C311200   2.314   4.607   7.553
  753TMC3    C411201   2.171   4.624   7.777
  753TMC3    C511202   2.213   4.500   7.733
  753TMC3    C611203   2.285   4.487   7.617
  753TMC3     C11204   2.186   0.070   7.795
  753TMC3     O11205   2.114   0.069   7.893
  753TMC3     H11206   2.297   0.028   7.537
  753TMC3    H111207   2.118   4.626   7.871
  753TMC3    H211208   2.304   4.393   7.565
  753TMC3    C711209   2.282   4.419   7.839
  753TMC3    C811210   2.302   4.604   7.408
  753TMC3    O111211   2.271   4.456   7.953
  753TMC3    O211212   2.237   4.684   7.349
  754TMC3    C111213   3.762   0.281  11.688
  754TMC3    C211214   3.683   0.386  11.649
  754TMC3    C311215   3.550   0.401  11.688
  754TMC3    C411216   3.714   0.189  11.775
  754TMC3    C511217   3.589   0.214  11.824
  754TMC3    C611218   3.508   0.311  11.777
  754TMC3     C11219   3.902   0.265  11.649
  754TMC3     O11220   3.957   0.162  11.683
  754TMC3     H11221   3.734   0.466  11.597
  754TMC3    H111222   3.780   0.116  11.818
  754TMC3    H211223   3.402   0.288  11.776
  754TMC3    C711224   3.573   0.196  11.966
  754TMC3    C811225   3.483   0.524  11.648
  754TMC3    O111226   3.577   0.085  12.017
  754TMC3    O211227   3.533   0.596  11.564
  755TMC3    C111228   3.562   3.184   9.455
  755TMC3    C211229   3.434   3.220   9.422
  755TMC3    C311230   3.414   3.297   9.314
  755TMC3    C411231   3.672   3.220   9.382
  755TMC3    C511232   3.645   3.303   9.280
  755TMC3    C611233   3.522   3.345   9.243
  755TMC3     C11234   3.576   3.083   9.556
  755TMC3     O11235   3.489   3.087   9.637
  755TMC3     H11236   3.344   3.183   9.469
  755TMC3    H111237   3.771   3.204   9.422
  755TMC3    H211238   3.514   3.421   9.165
  755TMC3    C711239   3.749   3.350   9.185
  755TMC3    C811240   3.289   3.326   9.268
  755TMC3    O111241   3.745   3.460   9.132
  755TMC3    O211242   3.199   3.296   9.347
  756TMC3    C111243   1.254   3.019  12.208
  756TMC3    C211244   1.356   3.065  12.287
  756TMC3    C311245   1.472   3.007  12.252
  756TMC3    C411246   1.265   2.939  12.098
  756TMC3    C511247   1.389   2.874  12.085
  756TMC3    C611248   1.498   2.911  12.161
  756TMC3     C11249   1.120   3.081  12.210
  756TMC3     O11250   1.065   3.091  12.100
  756TMC3     H11251   1.344   3.111  12.384
  756TMC3    H111252   1.187   2.911  12.028
  756TMC3    H211253   1.594   2.867  12.137
  756TMC3    C711254   1.402   2.760  11.998
  756TMC3    C811255   1.580   3.053  12.325
  756TMC3    O111256   1.449   2.793  11.891
  756TMC3    O211257   1.579   3.033  12.446
  757TMC3    C111258   4.186   3.612  11.744
  757TMC3    C211259   4.219   3.727  11.807
  757TMC3    C311260   4.346   3.725  11.864
  757TMC3    C411261   4.251   3.500  11.760
  757TMC3    C511262   4.366   3.501  11.841
  757TMC3    C611263   4.417   3.614  11.893
  757TMC3     C11264   4.104   3.642  11.628
  757TMC3     O11265   4.124   3.757  11.596
  757TMC3     H11266   4.156   3.815  11.801
  757TMC3    H111267   4.214   3.410  11.713
  757TMC3    H211268   4.516   3.621  11.935
  757TMC3    C711269   4.451   3.387  11.837
  757TMC3    C811270   4.415   3.851  11.855
  757TMC3    O111271   4.397   3.301  11.769
  757TMC3    O211272   4.509   3.871  11.929
  758TMC3    C111273   1.985   4.725  12.720
  758TMC3    C211274   2.060   4.697  12.613
  758TMC3    C311275   2.060   4.790  12.509
  758TMC3    C411276   1.911   0.051  12.722
  758TMC3    C511277   1.909   0.135  12.619
  758TMC3    C611278   1.987   0.109  12.512
  758TMC3     C11279   1.940   4.631  12.820
  758TMC3     O11280   1.860   4.662  12.907
  758TMC3     H11281   2.127   4.611  12.611
  758TMC3    H111282   1.856   0.077  12.812
  758TMC3    H211283   1.988   0.180  12.431
  758TMC3    C711284   1.849   0.266  12.615
  758TMC3    C811285   2.098   4.730  12.382
  758TMC3    O111286   1.929   0.353  12.589
  758TMC3    O211287   2.159   4.622  12.389
  759TMC3    C111288   2.888   3.128  12.822
  759TMC3    C211289   2.801   3.079  12.731
  759TMC3    C311290   2.857   3.014  12.621
  759TMC3    C411291   3.027   3.111  12.810
  759TMC3    C511292   3.071   3.021  12.718
  759TMC3    C611293   2.989   2.986  12.618
  759TMC3     C11294   2.851   3.229  12.926
  759TMC3     O11295   2.937   3.317  12.943
  759TMC3     H11296   2.695   3.101  12.730
  759TMC3    H111297   3.093   3.156  12.884
  759TMC3    H211298   3.016   2.926  12.532
  759TMC3    C711299   3.207   2.989  12.713
  759TMC3    C811300   2.771   2.927  12.548
  759TMC3    O111301   3.280   3.048  12.793
  759TMC3    O211302   2.808   2.920  12.432
  760TMC3    C111303   2.516   4.645   8.187
  760TMC3    C211304   2.486   4.683   8.057
  760TMC3    C311305   2.542   0.007   8.010
  760TMC3    C411306   2.602   4.723   8.271
  760TMC3    C511307   2.632   0.056   8.231
  760TMC3    C611308   2.603   0.094   8.099
  760TMC3     C11309   2.456   4.531   8.255
  760TMC3     O11310   2.516   4.489   8.354
  760TMC3     H11311   2.444   4.612   7.987
  760TMC3    H111312   2.619   4.692   8.373
  760TMC3    H211313   2.662   0.173   8.053
  760TMC3    C711314   2.726   0.124   8.312
  760TMC3    C811315   2.578   0.026   7.869
  760TMC3    O111316   2.804   0.054   8.382
  760TMC3    O211317   2.508   4.764   7.784
  761TMC3    C111318   4.767   4.692  13.535
  761TMC3    C211319   4.713   4.609  13.633
  761TMC3    C311320   4.752   4.477  13.628
  761TMC3    C411321   0.060   4.648  13.436
  761TMC3    C511322   0.096   4.512  13.444
  761TMC3    C611323   0.042   4.427  13.536
  761TMC3     C11324   4.712   0.031  13.527
  761TMC3     O11325   4.614   0.051  13.596
  761TMC3     H11326   4.644   4.648  13.707
  761TMC3    H111327   0.082   4.708  13.348
  761TMC3    H211328   0.066   4.322  13.540
  761TMC3    C711329   0.208   4.462  13.382
  761TMC3    C811330   4.661   4.378  13.686
  761TMC3    O111331   0.262   4.369  13.435
  761TMC3    O211332   4.586   4.326  13.602
  762TMC3    C111333   2.089   3.401  10.421
  762TMC3    C211334   1.949   3.401  10.432
  762TMC3    C311335   1.878   3.333  10.339
  762TMC3    C411336   2.147   3.367  10.305
  762TMC3    C511337   2.070   3.309  10.210
  762TMC3    C611338   1.936   3.292  10.224
  762TMC3     C11339   2.161   3.349  10.537
  762TMC3     O11340   2.270   3.398  10.569
  762TMC3     H11341   1.911   3.436  10.527
  762TMC3    H111342   2.256   3.371  10.300
  762TMC3    H211343   1.897   3.207  10.168
  762TMC3    C711344   2.140   3.223  10.111
  762TMC3    C811345   1.776   3.253  10.401
  762TMC3    O111346   2.082   3.116  10.091
  762TMC3    O211347   1.775   3.136  10.359
  763TMC3    C111348   3.329   1.421  15.179
  763TMC3    C211349   3.206   1.369  15.219
  763TMC3    C311350   3.141   1.284  15.133
  763TMC3    C411351   3.394   1.358  15.071
  763TMC3    C511352   3.322   1.273  14.991
  763TMC3    C611353   3.195   1.250  15.016
  763TMC3     C11354   3.315   1.562  15.146
  763TMC3     O11355   3.244   1.627  15.223
  763TMC3     H11356   3.150   1.406  15.304
  763TMC3    H111357   3.501   1.371  15.054
  763TMC3    H211358   3.138   1.181  14.955
  763TMC3    C711359   3.346   1.283  14.847
  763TMC3    C811360   2.990   1.299  15.128
  763TMC3    O111361   3.256   1.272  14.764
  763TMC3    O211362   2.941   1.283  15.015
  764TMC3    C111363   0.244   3.778   9.029
  764TMC3    C211364   0.157   3.687   8.973
  764TMC3    C311365   0.158   3.688   8.834
  764TMC3    C411366   0.327   3.863   8.953
  764TMC3    C511367   0.326   3.846   8.821
  764TMC3    C611368   0.236   3.766   8.756
  764TMC3     C11369   0.216   3.823   9.163
  764TMC3     O11370   0.102   3.867   9.180
  764TMC3     H11371   0.081   3.634   9.029
  764TMC3    H111372   0.393   3.933   9.003
  764TMC3    H211373   0.222   3.761   8.648
  764TMC3    C711374   0.399   3.939   8.734
  764TMC3    C811375   0.029   3.691   8.775
  764TMC3    O111376   0.439   3.902   8.625
  764TMC3    O211377   4.790   3.798   8.722
  765TMC3    C111378   3.244   3.488  12.681
  765TMC3    C211379   3.316   3.588  12.622
  765TMC3    C311380   3.256   3.661  12.532
  765TMC3    C411381   3.116   3.456  12.666
  765TMC3    C511382   3.063   3.526  12.567
  765TMC3    C611383   3.135   3.614  12.486
  765TMC3     C11384   3.329   3.403  12.769
  765TMC3     O11385   3.297   3.412  12.883
  765TMC3     H11386   3.419   3.608  12.647
  765TMC3    H111387   3.061   3.379  12.720
  765TMC3    H211388   3.071   3.671  12.420
  765TMC3    C711389   2.951   3.466  12.505
  765TMC3    C811390   3.241   3.797  12.575
  765TMC3    O111391   2.988   3.375  12.428
  765TMC3    O211392   3.283   3.819  12.690
  766TMC3    C111393   0.668   3.829  12.991
  766TMC3    C211394   0.604   3.946  13.038
  766TMC3    C311395   0.637   3.991  13.161
  766TMC3    C411396   0.768   3.769  13.053
  766TMC3    C511397   0.799   3.820  13.177
  766TMC3    C611398   0.735   3.931  13.234
  766TMC3     C11399   0.653   3.807  12.855
  766TMC3     O11400   0.550   3.833  12.800
  766TMC3     H11401   0.518   3.984  12.984
  766TMC3    H111402   0.810   3.673  13.026
  766TMC3    H211403   0.762   3.976  13.329
  766TMC3    C711404   0.930   3.775  13.224
  766TMC3    C811405   0.581   4.122  13.203
  766TMC3    O111406   0.997   3.696  13.150
  766TMC3    O211407   0.579   4.149  13.321
  767TMC3    C111408   4.404   2.943   9.327
  767TMC3    C211409   4.498   2.897   9.238
  767TMC3    C311410   4.605   2.832   9.301
  767TMC3    C411411   4.398   2.898   9.456
  767TMC3    C511412   4.501   2.826   9.509
  767TMC3    C611413   4.609   2.782   9.435
  767TMC3     C11414   4.289   3.020   9.283
  767TMC3     O11415   4.200   3.031   9.366
  767TMC3     H11416   4.494   2.909   9.131
  767TMC3    H111417   4.318   2.930   9.523
  767TMC3    H211418   4.690   2.731   9.485
  767TMC3    C711419   4.479   2.768   9.643
  767TMC3    C811420   4.714   2.799   9.217
  767TMC3    O111421   4.529   2.660   9.669
  767TMC3    O211422   4.787   2.706   9.246
  768TMC3    C111423   2.514   0.458   7.265
  768TMC3    C211424   2.463   0.377   7.172
  768TMC3    C311425   2.355   0.416   7.106
  768TMC3    C411426   2.465   0.583   7.291
  768TMC3    C511427   2.344   0.620   7.227
  768TMC3    C611428   2.291   0.535   7.142
  768TMC3     C11429   2.634   0.421   7.336
  768TMC3     O11430   2.712   0.514   7.346
  768TMC3     H11431   2.502   0.280   7.144
  768TMC3    H111432   2.518   0.650   7.358
  768TMC3    H211433   2.199   0.554   7.088
  768TMC3    C711434   2.275   0.743   7.258
  768TMC3    C811435   2.280   0.313   7.039
  768TMC3    O111436   2.175   0.761   7.190
  768TMC3    O211437   2.283   0.198   7.087
  769TMC3    C111438   2.588   1.640  14.024
  769TMC3    C211439   2.482   1.585  14.085
  769TMC3    C311440   2.492   1.455  14.111
  769TMC3    C411441   2.696   1.570  13.980
  769TMC3    C511442   2.689   1.436  13.986
  769TMC3    C611443   2.598   1.381  14.062
  769TMC3     C11444   2.599   1.784  14.020
  769TMC3     O11445   2.525   1.842  14.100
  769TMC3     H11446   2.401   1.645  14.125
  769TMC3    H111447   2.779   1.619  13.929
  769TMC3    H211448   2.593   1.273  14.072
  769TMC3    C711449   2.751   1.368  13.872
  769TMC3    C811450   2.371   1.379  14.114
  769TMC3    O111451   2.785   1.438  13.777
  769TMC3    O211452   2.386   1.268  14.165
  770TMC3    C111453   3.001   0.049  15.056
  770TMC3    C211454   2.887   0.022  15.125
  770TMC3    C311455   2.763   0.035  15.056
  770TMC3    C411456   3.008   0.087  14.929
  770TMC3    C511457   2.883   0.085  14.866
  770TMC3    C611458   2.761   0.072  14.926
  770TMC3     C11459   3.115   0.086  15.135
  770TMC3     O11460   3.230   0.083  15.100
  770TMC3     H11461   2.889   4.765  15.221
  770TMC3    H111462   3.106   0.107  14.888
  770TMC3    H211463   2.679   0.073  14.855
  770TMC3    C711464   2.871   0.130  14.727
  770TMC3    C811465   2.640   4.772  15.098
  770TMC3    O111466   2.765   0.164  14.682
  770TMC3    O211467   2.559   4.745  15.010
  771TMC3    C111468   0.278   3.709  12.843
  771TMC3    C211469   0.214   3.813  12.786
  771TMC3    C311470   0.188   3.811  12.652
  771TMC3    C411471   0.319   3.598  12.766
  771TMC3    C511472   0.281   3.592  12.637
  771TMC3    C611473   0.224   3.704  12.581
  771TMC3     C11474   0.304   3.715  12.984
  771TMC3     O11475   0.307   3.827  13.041
  771TMC3     H11476   0.173   3.888  12.853
  771TMC3    H111477   0.372   3.514  12.810
  771TMC3    H211478   0.190   3.709  12.478
  771TMC3    C711479   0.335   3.482  12.555
  771TMC3    C811480   0.122   3.914  12.592
  771TMC3    O111481   0.439   3.433  12.597
  771TMC3    O211482   0.167   3.943  12.484
  772TMC3    C111483   0.783   2.065  10.208
  772TMC3    C211484   0.694   2.122  10.115
  772TMC3    C311485   0.561   2.135  10.148
  772TMC3    C411486   0.726   2.023  10.325
  772TMC3    C511487   0.592   2.032  10.353
  772TMC3    C611488   0.505   2.090  10.264
  772TMC3     C11489   0.924   2.106  10.199
  772TMC3     O11490   0.994   2.071  10.293
  772TMC3     H11491   0.721   2.139  10.012
  772TMC3    H111492   0.792   1.971  10.395
  772TMC3    H211493   0.397   2.080  10.278
  772TMC3    C711494   0.542   1.935  10.448
  772TMC3    C811495   0.458   2.160  10.043
  772TMC3    O111496   0.619   1.858  10.508
  772TMC3    O211497   0.351   2.104  10.065
  773TMC3    C111498   4.448   0.908   8.301
  773TMC3    C211499   4.573   0.932   8.248
  773TMC3    C311500   4.683   0.955   8.331
  773TMC3    C411501   4.431   0.929   8.437
  773TMC3    C511502   4.540   0.959   8.511
  773TMC3    C611503   4.667   0.973   8.463
  773TMC3     C11504   4.345   0.834   8.224
  773TMC3     O11505   4.232   0.828   8.271
  773TMC3     H11506   4.583   0.905   8.143
  773TMC3    H111507   4.332   0.907   8.477
  773TMC3    H211508   4.746   1.023   8.517
  773TMC3    C711509   4.511   0.982   8.649
  773TMC3    C811510   0.003   1.012   8.274
  773TMC3    O111511   4.394   1.004   8.669
  773TMC3    O211512   4.778   1.094   8.181
  774TMC3    C111513   1.286   0.840  14.376
  774TMC3    C211514   1.396   0.892  14.310
  774TMC3    C311515   1.518   0.899  14.375
  774TMC3    C411516   1.295   0.818  14.510
  774TMC3    C511517   1.411   0.846  14.573
  774TMC3    C611518   1.521   0.878  14.508
  774TMC3     C11519   1.180   0.783  14.295
  774TMC3     O11520   1.202   0.756  14.178
  774TMC3     H11521   1.388   0.931  14.209
  774TMC3    H111522   1.213   0.761  14.552
  774TMC3    H211523   1.606   0.911  14.567
  774TMC3    C711524   1.407   0.855  14.717
  774TMC3    C811525   1.602   1.012  14.329
  774TMC3    O111526   1.509   0.863  14.785
  774TMC3    O211527   1.544   1.095  14.258
  775TMC3    C111528   2.249   1.794  12.792
  775TMC3    C211529   2.126   1.770  12.735
  775TMC3    C311530   2.094   1.858  12.635
  775TMC3    C411531   2.328   1.894  12.747
  775TMC3    C511532   2.295   1.975  12.643
  775TMC3    C611533   2.174   1.950  12.587
  775TMC3     C11534   2.311   1.688  12.868
  775TMC3     O11535   2.424   1.659  12.832
  775TMC3     H11536   2.059   1.688  12.758
  775TMC3    H111537   2.431   1.903  12.780
  775TMC3    H211538   2.151   2.006  12.497
  775TMC3    C711539   2.388   2.073  12.585
  775TMC3    C811540   1.964   1.862  12.571
  775TMC3    O111541   2.412   2.180  12.637
  775TMC3    O211542   1.911   1.968  12.551
  776TMC3    C111543   2.673   0.218  10.854
  776TMC3    C211544   2.564   0.299  10.836
  776TMC3    C311545   2.588   0.428  10.853
  776TMC3    C411546   2.793   0.261  10.898
  776TMC3    C511547   2.812   0.395  10.893
  776TMC3    C611548   2.711   0.484  10.875
  776TMC3     C11549   2.670   0.084  10.786
  776TMC3     O11550   2.778   0.053  10.735
  776TMC3     H11551   2.471   0.268  10.791
  776TMC3    H111552   2.875   0.191  10.886
  776TMC3    H211553   2.735   0.589  10.868
  776TMC3    C711554   2.938   0.426  10.835
  776TMC3    C811555   2.474   0.512  10.848
  776TMC3    O111556   2.941   0.417  10.712
  776TMC3    O211557   2.369   0.459  10.881
  777TMC3    C111558   0.856   3.421   7.038
  777TMC3    C211559   0.819   3.548   7.053
  777TMC3    C311560   0.730   3.577   7.154
  777TMC3    C411561   0.786   3.316   7.097
  777TMC3    C511562   0.698   3.351   7.193
  777TMC3    C611563   0.675   3.478   7.233
  777TMC3     C11564   0.976   3.406   6.962
  777TMC3     O11565   0.981   3.472   6.858
  777TMC3     H11566   0.890   3.615   7.006
  777TMC3    H111567   0.815   3.214   7.074
  777TMC3    H211568   0.612   3.502   7.318
  777TMC3    C711569   0.676   3.247   7.298
  777TMC3    C811570   0.666   3.704   7.152
  777TMC3    O111571   0.681   3.292   7.412
  777TMC3    O211572   0.581   3.729   7.065
  778TMC3    C111573   2.890   4.243   8.567
  778TMC3    C211574   2.863   4.237   8.438
  778TMC3    C311575   2.734   4.232   8.401
  778TMC3    C411576   2.796   4.231   8.667
  778TMC3    C511577   2.668   4.231   8.620
  778TMC3    C611578   2.637   4.233   8.486
  778TMC3     C11579   3.026   4.280   8.593
  778TMC3     O11580   3.083   4.208   8.678
  778TMC3     H11581   2.932   4.202   8.361
  778TMC3    H111582   2.809   4.252   8.772
  778TMC3    H211583   2.536   4.216   8.453
  778TMC3    C711584   2.559   4.268   8.711
  778TMC3    C811585   2.706   4.175   8.275
  778TMC3    O111586   2.572   4.263   8.832
  778TMC3    O211587   2.779   4.079   8.245
  779TMC3    C111588   1.801   1.682  11.958
  779TMC3    C211589   1.740   1.804  11.988
  779TMC3    C311590   1.648   1.793  12.087
  779TMC3    C411591   1.831   1.595  12.052
  779TMC3    C511592   1.755   1.597  12.163
  779TMC3    C611593   1.645   1.678  12.170
  779TMC3     C11594   1.753   1.611  11.835
  779TMC3     O11595   1.764   1.490  11.849
  779TMC3     H11596   1.722   1.879  11.913
  779TMC3    H111597   1.897   1.512  12.032
  779TMC3    H211598   1.587   1.669  12.261
  779TMC3    C711599   1.764   1.478  12.247
  779TMC3    C811600   1.506   1.828  12.058
  779TMC3    O111601   1.878   1.432  12.255
  779TMC3    O211602   1.420   1.793  12.136
  780TMC3    C111603   3.303   1.066   9.729
  780TMC3    C211604   3.256   0.949   9.784
  780TMC3    C311605   3.140   0.955   9.849
  780TMC3    C411606   3.242   1.182   9.734
  780TMC3    C511607   3.121   1.182   9.803
  780TMC3    C611608   3.076   1.069   9.870
  780TMC3     C11609   3.422   1.061   9.636
  780TMC3     O11610   3.398   1.129   9.534
  780TMC3     H11611   3.315   0.861   9.760
  780TMC3    H111612   3.280   1.263   9.674
  780TMC3    H211613   2.981   1.079   9.922
  780TMC3    C711614   3.081   1.310   9.852
  780TMC3    C811615   3.050   0.845   9.818
  780TMC3    O111616   3.118   1.402   9.781
  780TMC3    O211617   3.091   0.779   9.729
  781TMC3    C111618   1.151   4.739  13.891
  781TMC3    C211619   1.188   0.080  13.895
  781TMC3    C311620   1.165   0.155  14.013
  781TMC3    C411621   1.088   4.686  14.001
  781TMC3    C511622   1.065   4.761  14.110
  781TMC3    C611623   1.105   0.097  14.121
  781TMC3     C11624   1.239   4.657  13.811
  781TMC3     O11625   1.322   4.713  13.741
  781TMC3     H11626   1.250   0.118  13.815
  781TMC3    H111627   1.069   4.580  14.005
  781TMC3    H211628   1.122   0.132  14.222
  781TMC3    C711629   1.078   4.678  14.234
  781TMC3    C811630   1.237   0.280  14.035
  781TMC3    O111631   1.139   4.574  14.212
  781TMC3    O211632   1.320   0.306  13.944
  782TMC3    C111633   0.513   2.930   9.072
  782TMC3    C211634   0.425   3.040   9.070
  782TMC3    C311635   0.482   3.160   9.077
  782TMC3    C411636   0.651   2.937   9.058
  782TMC3    C511637   0.697   3.063   9.062
  782TMC3    C611638   0.618   3.175   9.076
  782TMC3     C11639   0.448   2.808   9.058
  782TMC3     O11640   0.412   2.769   9.169
  782TMC3     H11641   0.317   3.030   9.072
  782TMC3    H111642   0.711   2.848   9.066
  782TMC3    H211643   0.658   3.275   9.091
  782TMC3    C711644   0.841   3.084   9.080
  782TMC3    C811645   0.390   3.271   9.098
  782TMC3    O111646   0.880   3.186   9.131
  782TMC3    O211647   0.425   3.374   9.043
  783TMC3    C111648   1.920   2.190   9.640
  783TMC3    C211649   1.830   2.117   9.579
  783TMC3    C311650   1.861   1.988   9.553
  783TMC3    C411651   2.042   2.141   9.675
  783TMC3    C511652   2.068   2.009   9.653
  783TMC3    C611653   1.982   1.938   9.571
  783TMC3     C11654   1.869   2.276   9.747
  783TMC3     O11655   1.750   2.278   9.767
  783TMC3     H11656   1.729   2.154   9.589
  783TMC3    H111657   2.119   2.200   9.724
  783TMC3    H211658   1.998   1.834   9.548
  783TMC3    C711659   2.066   1.944   9.784
  783TMC3    C811660   1.755   1.894   9.581
  783TMC3    O111661   2.021   2.014   9.875
  783TMC3    O211662   1.790   1.796   9.642
  784TMC3    C111663   1.659   4.223  12.643
  784TMC3    C211664   1.680   4.339  12.573
  784TMC3    C311665   1.581   4.427  12.565
  784TMC3    C411666   1.553   4.197  12.721
  784TMC3    C511667   1.446   4.283  12.699
  784TMC3    C611668   1.458   4.390  12.611
  784TMC3     C11669   1.752   4.111  12.621
  784TMC3     O11670   1.725   4.005  12.673
  784TMC3     H11671   1.776   4.382  12.547
  784TMC3    H111672   1.547   4.100  12.770
  784TMC3    H211673   1.367   4.447  12.592
  784TMC3    C711674   1.348   4.302  12.799
  784TMC3    C811675   1.613   4.570  12.548
  784TMC3    O111676   1.293   4.408  12.792
  784TMC3    O211677   1.731   4.600  12.545
  785TMC3    C111678   2.217   2.381  13.306
  785TMC3    C211679   2.287   2.280  13.241
  785TMC3    C311680   2.331   2.175  13.319
  785TMC3    C411681   2.187   2.369  13.437
  785TMC3    C511682   2.242   2.272  13.521
  785TMC3    C611683   2.313   2.179  13.452
  785TMC3     C11684   2.228   2.511  13.235
  785TMC3     O11685   2.241   2.512  13.114
  785TMC3     H11686   2.311   2.283  13.135
  785TMC3    H111687   2.119   2.442  13.480
  785TMC3    H211688   2.386   2.131  13.517
  785TMC3    C711689   2.149   2.227  13.625
  785TMC3    C811690   2.301   2.050  13.270
  785TMC3    O111691   2.073   2.304  13.680
  785TMC3    O211692   2.273   1.977  13.366
  786TMC3    C111693   3.004   3.415   7.767
  786TMC3    C211694   2.895   3.366   7.705
  786TMC3    C311695   2.898   3.354   7.572
  786TMC3    C411696   3.105   3.478   7.695
  786TMC3    C511697   3.104   3.458   7.561
  786TMC3    C611698   3.003   3.391   7.496
  786TMC3     C11699   3.032   3.355   7.892
  786TMC3     O11700   2.946   3.290   7.947
  786TMC3     H11701   2.811   3.324   7.759
  786TMC3    H111702   3.208   3.485   7.730
  786TMC3    H211703   3.003   3.375   7.388
  786TMC3    C711704   3.235   3.489   7.498
  786TMC3    C811705   2.827   3.234   7.529
  786TMC3    O111706   3.297   3.398   7.446
  786TMC3    O211707   2.755   3.227   7.431
  787TMC3    C111708   2.917   0.072  13.479
  787TMC3    C211709   2.895   0.029  13.609
  787TMC3    C311710   2.988   0.070  13.704
  787TMC3    C411711   3.034   0.147  13.453
  787TMC3    C511712   3.119   0.184  13.551
  787TMC3    C611713   3.095   0.146  13.679
  787TMC3     C11714   2.831   0.036  13.369
  787TMC3     O11715   2.892   0.022  13.266
  787TMC3     H11716   2.804   4.766  13.623
  787TMC3    H111717   3.048   0.188  13.354
  787TMC3    H211718   3.154   0.158  13.769
  787TMC3    C711719   3.244   0.256  13.518
  787TMC3    C811720   2.962   0.020  13.842
  787TMC3    O111721   3.275   0.257  13.396
  787TMC3    O211722   3.051   4.781  13.920
  788TMC3    C111723   1.619   1.949  11.183
  788TMC3    C211724   1.531   1.976  11.080
  788TMC3    C311725   1.407   2.029  11.108
  788TMC3    C411726   1.583   1.985  11.309
  788TMC3    C511727   1.456   2.039  11.324
  788TMC3    C611728   1.361   2.056  11.231
  788TMC3     C11729   1.684   1.819  11.170
  788TMC3     O11730   1.693   1.761  11.062
  788TMC3     H11731   1.562   1.951  10.979
  788TMC3    H111732   1.653   1.972  11.391
  788TMC3    H211733   1.274   2.117  11.252
  788TMC3    C711734   1.423   2.065  11.459
  788TMC3    C811735   1.324   2.071  10.995
  788TMC3    O111736   1.517   2.109  11.526
  788TMC3    O211737   1.210   2.094  11.036
  789TMC3    C111738   3.764   1.599  11.415
  789TMC3    C211739   3.836   1.506  11.341
  789TMC3    C311740   3.900   1.409  11.408
  789TMC3    C411741   3.758   1.595  11.548
  789TMC3    C511742   3.827   1.499  11.614
  789TMC3    C611743   3.897   1.403  11.547
  789TMC3     C11744   3.659   1.658  11.345
  789TMC3     O11745   3.602   1.583  11.273
  789TMC3     H11746   3.826   1.511  11.234
  789TMC3    H111747   3.693   1.664  11.600
  789TMC3    H211748   3.962   1.330  11.593
  789TMC3    C711749   3.832   1.498  11.754
  789TMC3    C811750   3.950   1.290  11.333
  789TMC3    O111751   3.816   1.393  11.814
  789TMC3    O211752   3.975   1.186  11.390
  790TMC3    C111753   0.865   2.819   6.663
  790TMC3    C211754   0.840   2.787   6.798
  790TMC3    C311755   0.929   2.831   6.893
  790TMC3    C411756   0.964   2.909   6.628
  790TMC3    C511757   1.047   2.959   6.724
  790TMC3    C611758   1.028   2.920   6.856
  790TMC3     C11759   0.779   2.761   6.563
  790TMC3     O11760   0.818   2.758   6.448
  790TMC3     H11761   0.771   2.711   6.835
  790TMC3    H111762   0.970   2.926   6.521
  790TMC3    H211763   1.094   2.958   6.933
  790TMC3    C711764   1.133   3.083   6.700
  790TMC3    C811765   0.934   2.767   7.020
  790TMC3    O111766   1.174   3.143   6.798
  790TMC3    O211767   0.891   2.654   7.032
  791TMC3    C111768   2.321   3.992   7.445
  791TMC3    C211769   2.360   4.048   7.323
  791TMC3    C311770   2.493   4.027   7.289
  791TMC3    C411771   2.403   3.911   7.526
  791TMC3    C511772   2.531   3.890   7.475
  791TMC3    C611773   2.581   3.955   7.371
  791TMC3     C11774   2.199   4.046   7.508
  791TMC3     O11775   2.160   3.978   7.603
  791TMC3     H11776   2.285   4.083   7.252
  791TMC3    H111777   2.364   3.863   7.615
  791TMC3    H211778   2.684   3.942   7.340
  791TMC3    C711779   2.625   3.805   7.550
  791TMC3    C811780   2.528   4.025   7.151
  791TMC3    O111781   2.741   3.839   7.544
  791TMC3    O211782   2.581   3.923   7.117
  792TMC3    C111783   1.579   2.864  11.602
  792TMC3    C211784   1.569   2.981  11.675
  792TMC3    C311785   1.450   3.049  11.671
  792TMC3    C411786   1.466   2.816  11.535
  792TMC3    C511787   1.349   2.882  11.544
  792TMC3    C611788   1.337   3.002  11.613
  792TMC3     C11789   1.684   2.776  11.637
  792TMC3     O11790   1.720   2.693  11.553
  792TMC3     H11791   1.662   3.031  11.699
  792TMC3    H111792   1.466   2.708  11.532
  792TMC3    H211793   1.253   3.070  11.602
  792TMC3    C711794   1.225   2.808  11.517
  792TMC3    C811795   1.451   3.182  11.714
  792TMC3    O111796   1.237   2.701  11.466
  792TMC3    O211797   1.374   3.257  11.656
  793TMC3    C111798   3.652   3.370  13.213
  793TMC3    C211799   3.701   3.246  13.200
  793TMC3    C311800   3.746   3.181  13.310
  793TMC3    C411801   3.646   3.434  13.337
  793TMC3    C511802   3.686   3.369  13.446
  793TMC3    C611803   3.737   3.242  13.438
  793TMC3     C11804   3.660   3.452  13.090
  793TMC3     O11805   3.703   3.396  12.991
  793TMC3     H11806   3.695   3.193  13.105
  793TMC3    H111807   3.602   3.532  13.352
  793TMC3    H211808   3.778   3.194  13.526
  793TMC3    C711809   3.704   3.450  13.563
  793TMC3    C811810   3.868   3.105  13.272
  793TMC3    O111811   3.725   3.569  13.549
  793TMC3    O211812   3.910   3.135  13.161
  794TMC3    C111813   4.154   2.079   7.757
  794TMC3    C211814   4.199   2.043   7.879
  794TMC3    C311815   4.320   1.990   7.892
  794TMC3    C411816   4.217   2.039   7.638
  794TMC3    C511817   4.349   2.002   7.656
  794TMC3    C611818   4.402   1.970   7.783
  794TMC3     C11819   4.010   2.117   7.739
  794TMC3     O11820   3.960   2.062   7.645
  794TMC3     H11821   4.148   2.056   7.974
  794TMC3    H111822   4.182   2.066   7.539
  794TMC3    H211823   4.504   1.939   7.803
  794TMC3    C711824   4.420   1.957   7.535
  794TMC3    C811825   4.383   2.030   8.015
  794TMC3    O111826   4.470   1.844   7.531
  794TMC3    O211827   4.312   2.023   8.116
  795TMC3    C111828   4.315   3.022  11.392
  795TMC3    C211829   4.317   2.956  11.268
  795TMC3    C311830   4.428   2.961  11.194
  795TMC3    C411831   4.421   3.098  11.441
  795TMC3    C511832   4.531   3.111  11.351
  795TMC3    C611833   4.539   3.039  11.235
  795TMC3     C11834   4.185   3.039  11.453
  795TMC3     O11835   4.184   3.050  11.575
  795TMC3     H11836   4.230   2.901  11.234
  795TMC3    H111837   4.425   3.154  11.534
  795TMC3    H211838   4.624   3.040  11.168
  795TMC3    C711839   4.661   3.147  11.411
  795TMC3    C811840   4.428   2.888  11.069
  795TMC3    O111841   4.748   3.074  11.373
  795TMC3    O211842   4.340   2.802  11.060
  796TMC3    C111843   0.972   1.287  12.371
  796TMC3    C211844   1.062   1.313  12.467
  796TMC3    C311845   1.036   1.415  12.555
  796TMC3    C411846   0.869   1.370  12.346
  796TMC3    C511847   0.842   1.472  12.442
  796TMC3    C611848   0.914   1.479  12.555
  796TMC3     C11849   0.992   1.184  12.268
  796TMC3     O11850   0.977   1.214  12.148
  796TMC3     H11851   1.150   1.249  12.471
  796TMC3    H111852   0.810   1.336  12.262
  796TMC3    H211853   0.902   1.556  12.631
  796TMC3    C711854   0.745   1.576  12.420
  796TMC3    C811855   1.153   1.495  12.587
  796TMC3    O111856   0.686   1.627  12.513
  796TMC3    O211857   1.240   1.455  12.663
  797TMC3    C111858   3.037   2.344  11.363
  797TMC3    C211859   2.931   2.405  11.418
  797TMC3    C311860   2.837   2.334  11.486
  797TMC3    C411861   3.042   2.213  11.334
  797TMC3    C511862   2.939   2.139  11.387
  797TMC3    C611863   2.843   2.194  11.473
  797TMC3     C11864   3.057   2.411  11.239
  797TMC3     O11865   2.966   2.478  11.188
  797TMC3     H11866   2.925   2.513  11.413
  797TMC3    H111867   3.096   2.177  11.247
  797TMC3    H211868   2.754   2.139  11.501
  797TMC3    C711869   2.869   2.058  11.291
  797TMC3    C811870   2.742   2.415  11.562
  797TMC3    O111871   2.879   2.088  11.172
  797TMC3    O211872   2.722   2.521  11.508
  798TMC3    C111873   2.483   1.620   9.883
  798TMC3    C211874   2.581   1.687   9.948
  798TMC3    C311875   2.679   1.615  10.012
  798TMC3    C411876   2.464   1.485   9.879
  798TMC3    C511877   2.570   1.411   9.942
  798TMC3    C611878   2.674   1.477   9.998
  798TMC3     C11879   2.431   1.678   9.765
  798TMC3     O11880   2.321   1.648   9.727
  798TMC3     H11881   2.587   1.795   9.950
  798TMC3    H111882   2.388   1.432   9.822
  798TMC3    H211883   2.759   1.424  10.040
  798TMC3    C711884   2.610   1.284   9.889
  798TMC3    C811885   2.799   1.673  10.008
  798TMC3    O111886   2.695   1.216   9.949
  798TMC3    O211887   2.864   1.638   9.914
  799TMC3    C111888   3.977   1.110   9.457
  799TMC3    C211889   3.971   1.234   9.397
  799TMC3    C311890   4.062   1.267   9.295
  799TMC3    C411891   4.080   1.021   9.426
  799TMC3    C511892   4.172   1.068   9.338
  799TMC3    C611893   4.159   1.179   9.255
  799TMC3     C11894   3.920   1.106   9.593
  799TMC3     O11895   3.975   1.037   9.678
  799TMC3     H11896   3.911   1.311   9.444
  799TMC3    H111897   4.099   0.936   9.491
  799TMC3    H211898   4.227   1.199   9.174
  799TMC3    C711899   4.306   1.052   9.386
  799TMC3    C811900   4.094   1.408   9.296
  799TMC3    O111901   4.318   0.998   9.493
  799TMC3    O211902   4.020   1.487   9.350
  800TMC3    C111903   2.304   2.921  11.521
  800TMC3    C211904   2.216   2.981  11.607
  800TMC3    C311905   2.077   2.958  11.592
  800TMC3    C411906   2.275   2.828  11.425
  800TMC3    C511907   2.139   2.802  11.419
  800TMC3    C611908   2.042   2.868  11.499
  800TMC3     C11909   2.446   2.950  11.556
  800TMC3     O11910   2.515   2.851  11.585
  800TMC3     H11911   2.243   3.058  11.679
  800TMC3    H111912   2.339   2.780  11.352
  800TMC3    H211913   1.936   2.853  11.484
  800TMC3    C711914   2.109   2.665  11.373
  800TMC3    C811915   1.983   3.049  11.631
  800TMC3    O111916   2.207   2.600  11.335
  800TMC3    O211917   1.873   3.037  11.583
  801TMC3    C111918   1.868   4.660  13.386
  801TMC3    C211919   1.980   4.714  13.334
  801TMC3    C311920   2.073   4.625  13.291
  801TMC3    C411921   1.842   4.529  13.390
  801TMC3    C511922   1.943   4.442  13.357
  801TMC3    C611923   2.060   4.488  13.298
  801TMC3     C11924   1.761   4.753  13.431
  801TMC3     O11925   1.651   4.703  13.431
  801TMC3     H11926   1.984   0.027  13.313
  801TMC3    H111927   1.758   4.493  13.448
  801TMC3    H211928   2.127   4.420  13.247
  801TMC3    C711929   1.919   4.303  13.343
  801TMC3    C811930   2.195   4.677  13.228
  801TMC3    O111931   2.017   4.231  13.362
  801TMC3    O211932   2.182   4.776  13.162
  802TMC3    C111933   3.777   2.926  10.791
  802TMC3    C211934   3.897   2.911  10.723
  802TMC3    C311935   3.911   2.828  10.613
  802TMC3    C411936   3.668   2.857  10.734
  802TMC3    C511937   3.685   2.781  10.620
  802TMC3    C611938   3.811   2.760  10.560
  802TMC3     C11939   3.777   3.007  10.910
  802TMC3     O11940   3.886   2.999  10.966
  802TMC3     H11941   3.987   2.956  10.764
  802TMC3    H111942   3.574   2.852  10.788
  802TMC3    H211943   3.824   2.694  10.475
  802TMC3    C711944   3.569   2.727  10.554
  802TMC3    C811945   4.047   2.771  10.593
  802TMC3    O111946   3.575   2.617  10.498
  802TMC3    O211947   4.063   2.647  10.608
  803TMC3    C111948   0.196   1.158  12.785
  803TMC3    C211949   0.307   1.103  12.840
  803TMC3    C311950   0.342   0.981  12.809
  803TMC3    C411951   0.124   1.089  12.692
  803TMC3    C511952   0.153   0.963  12.667
  803TMC3    C611953   0.264   0.900  12.732
  803TMC3     C11954   0.145   1.283  12.851
  803TMC3     O11955   0.225   1.363  12.898
  803TMC3     H11956   0.371   1.153  12.913
  803TMC3    H111957   0.031   1.133  12.658
  803TMC3    H211958   0.282   0.795  12.713
  803TMC3    C711959   0.035   0.878  12.644
  803TMC3    C811960   0.407   0.921  12.918
  803TMC3    O111961   0.026   0.773  12.705
  803TMC3    O211962   0.341   0.920  13.026
  804TMC3    C111963   2.066   1.185   7.112
  804TMC3    C211964   2.007   1.143   6.997
  804TMC3    C311965   2.078   1.126   6.882
  804TMC3    C411966   2.189   1.249   7.098
  804TMC3    C511967   2.263   1.241   6.978
  804TMC3    C611968   2.211   1.174   6.867
  804TMC3     C11969   1.978   1.215   7.226
  804TMC3     O11970   1.862   1.239   7.195
  804TMC3     H11971   1.911   1.096   7.011
  804TMC3    H111972   2.235   1.285   7.190
  804TMC3    H211973   2.273   1.164   6.779
  804TMC3    C711974   2.388   1.308   6.978
  804TMC3    C811975   2.010   1.053   6.785
  804TMC3    O111976   2.470   1.279   6.893
  804TMC3    O211977   1.915   0.983   6.812
  805TMC3    C111978   0.242   2.518  11.202
  805TMC3    C211979   0.137   2.433  11.235
  805TMC3    C311980   0.161   2.328  11.322
  805TMC3    C411981   0.366   2.493  11.253
  805TMC3    C511982   0.382   2.384  11.333
  805TMC3    C611983   0.285   2.295  11.364
  805TMC3     C11984   0.192   2.653  11.151
  805TMC3     O11985   0.093   2.644  11.077
  805TMC3     H11986   0.033   2.452  11.210
  805TMC3    H111987   0.452   2.552  11.227
  805TMC3    H211988   0.297   2.206  11.425
  805TMC3    C711989   0.518   2.349  11.368
  805TMC3    C811990   0.049   2.231  11.328
  805TMC3    O111991   0.585   2.446  11.399
  805TMC3    O211992   0.052   2.166  11.227
  806TMC3    C111993   1.995   0.463  14.909
  806TMC3    C211994   2.031   0.592  14.874
  806TMC3    C311995   1.927   0.673  14.837
  806TMC3    C411996   1.862   0.419  14.905
  806TMC3    C511997   1.773   0.508  14.849
  806TMC3    C611998   1.802   0.634  14.818
  806TMC3     C11999   2.097   0.386  14.968
  806TMC3     O12000   2.050   0.310  15.049
  806TMC3     H12001   2.129   0.634  14.889
  806TMC3    H112002   1.833   0.323  14.945
  806TMC3    H212003   1.716   0.697  14.797
  806TMC3    C712004   1.635   0.469  14.824
  806TMC3    C812005   1.966   0.814  14.823
  806TMC3    O112006   1.547   0.553  14.838
  806TMC3    O212007   2.085   0.836  14.831
  807TMC3    C112008   0.506   3.531  14.516
  807TMC3    C212009   0.513   3.467  14.640
  807TMC3    C312010   0.553   3.339  14.644
  807TMC3    C412011   0.546   3.470  14.396
  807TMC3    C512012   0.598   3.341  14.409
  807TMC3    C612013   0.610   3.272  14.531
  807TMC3     C12014   0.515   3.678  14.521
  807TMC3     O12015   0.604   3.738  14.458
  807TMC3     H12016   0.471   3.524  14.723
  807TMC3    H112017   0.533   3.521  14.301
  807TMC3    H212018   0.643   3.171  14.551
  807TMC3    C712019   0.648   3.281  14.282
  807TMC3    C812020   0.583   3.296  14.783
  807TMC3    O112021   0.683   3.363  14.199
  807TMC3    O212022   0.512   3.351  14.873
  808TMC3    C112023   4.229   1.435   9.919
  808TMC3    C212024   4.102   1.395   9.958
  808TMC3    C312025   4.053   1.438  10.076
  808TMC3    C412026   4.308   1.516   9.996
  808TMC3    C512027   4.252   1.555  10.116
  808TMC3    C612028   4.127   1.524  10.158
  808TMC3     C12029   4.265   1.409   9.780
  808TMC3     O12030   4.171   1.372   9.710
  808TMC3     H12031   4.051   1.335   9.884
  808TMC3    H112032   4.409   1.542   9.969
  808TMC3    H212033   4.082   1.572  10.244
  808TMC3    C712034   4.334   1.634  10.206
  808TMC3    C812035   3.909   1.431  10.096
  808TMC3    O112036   4.295   1.740  10.252
  808TMC3    O212037   3.854   1.505  10.182
  809TMC3    C112038   0.672   3.319  11.082
  809TMC3    C212039   0.619   3.419  11.161
  809TMC3    C312040   0.704   3.485  11.248
  809TMC3    C412041   0.805   3.288  11.099
  809TMC3    C512042   0.886   3.363  11.173
  809TMC3    C612043   0.839   3.464  11.251
  809TMC3     C12044   0.602   3.188  11.072
  809TMC3     O12045   0.668   3.086  11.087
  809TMC3     H12046   0.516   3.448  11.148
  809TMC3    H112047   0.850   3.217  11.031
  809TMC3    H212048   0.907   3.529  11.304
  809TMC3    C712049   1.007   3.389  11.097
  809TMC3    C812050   0.664   3.607  11.314
  809TMC3    O112051   0.995   3.365  10.976
  809TMC3    O212052   0.747   3.696  11.315
  810TMC3    C112053   2.245   4.204  15.099
  810TMC3    C212054   2.299   4.106  15.019
  810TMC3    C312055   2.212   4.033  14.941
  810TMC3    C412056   2.106   4.225  15.110
  810TMC3    C512057   2.028   4.158  15.022
  810TMC3    C612058   2.081   4.068  14.940
  810TMC3     C12059   2.336   4.320  15.111
  810TMC3     O12060   2.435   4.334  15.040
  810TMC3     H12061   2.405   4.090  15.010
  810TMC3    H112062   2.064   4.311  15.160
  810TMC3    H212063   2.022   4.022  14.862
  810TMC3    C712064   1.884   4.157  15.041
  810TMC3    C812065   2.274   3.984  14.814
  810TMC3    O112066   1.822   4.068  14.979
  810TMC3    O212067   2.387   3.939  14.825
  811TMC3    C112068   1.558   2.005  13.160
  811TMC3    C212069   1.664   1.933  13.203
  811TMC3    C312070   1.650   1.794  13.195
  811TMC3    C412071   1.437   1.952  13.124
  811TMC3    C512072   1.421   1.818  13.148
  811TMC3    C612073   1.531   1.733  13.168
  811TMC3     C12074   1.588   2.136  13.104
  811TMC3     O12075   1.524   2.166  13.005
  811TMC3     H12076   1.765   1.973  13.213
  811TMC3    H112077   1.351   2.012  13.099
  811TMC3    H212078   1.526   1.625  13.181
  811TMC3    C712079   1.292   1.757  13.156
  811TMC3    C812080   1.757   1.706  13.250
  811TMC3    O112081   1.195   1.810  13.099
  811TMC3    O212082   1.723   1.606  13.321
  812TMC3    C112083   3.062   0.947   8.164
  812TMC3    C212084   3.157   0.858   8.119
  812TMC3    C312085   3.129   0.774   8.011
  812TMC3    C412086   2.942   0.949   8.098
  812TMC3    C512087   2.918   0.854   7.998
  812TMC3    C612088   3.008   0.755   7.956
  812TMC3     C12089   3.108   1.065   8.235
  812TMC3     O12090   3.027   1.157   8.226
  812TMC3     H12091   3.258   0.865   8.158
  812TMC3    H112092   2.870   1.019   8.138
  812TMC3    H212093   2.997   0.696   7.866
  812TMC3    C712094   2.780   0.832   7.956
  812TMC3    C812095   3.220   0.671   7.968
  812TMC3    O112096   2.759   0.730   7.894
  812TMC3    O212097   3.174   0.559   7.950
  813TMC3    C112098   2.305   0.201   8.603
  813TMC3    C212099   2.375   0.270   8.506
  813TMC3    C312100   2.309   0.356   8.427
  813TMC3    C412101   2.178   0.233   8.632
  813TMC3    C512102   2.121   0.336   8.557
  813TMC3    C612103   2.184   0.392   8.450
  813TMC3     C12104   2.357   0.068   8.629
  813TMC3     O12105   2.439   0.025   8.547
  813TMC3     H12106   2.476   0.241   8.480
  813TMC3    H112107   2.120   0.179   8.706
  813TMC3    H212108   2.145   0.478   8.397
  813TMC3    C712109   2.035   0.421   8.631
  813TMC3    C812110   2.372   0.400   8.300
  813TMC3    O112111   2.004   0.522   8.570
  813TMC3    O212112   2.493   0.409   8.303
  814TMC3    C112113   1.163   2.148   9.636
  814TMC3    C212114   1.130   2.038   9.560
  814TMC3    C312115   1.039   2.061   9.456
  814TMC3    C412116   1.124   2.272   9.600
  814TMC3    C512117   1.049   2.300   9.491
  814TMC3    C612118   1.001   2.190   9.428
  814TMC3     C12119   1.299   2.131   9.680
  814TMC3     O12120   1.387   2.193   9.622
  814TMC3     H12121   1.177   1.941   9.568
  814TMC3    H112122   1.176   2.353   9.651
  814TMC3    H212123   0.943   2.203   9.337
  814TMC3    C712124   1.112   2.389   9.398
  814TMC3    C812125   1.043   1.970   9.343
  814TMC3    O112126   1.125   2.509   9.424
  814TMC3    O212127   1.058   2.021   9.237
  815TMC3    C112128   0.776   3.357  12.906
  815TMC3    C212129   0.643   3.334  12.921
  815TMC3    C312130   0.584   3.357  13.043
  815TMC3    C412131   0.855   3.389  13.017
  815TMC3    C512132   0.789   3.417  13.131
  815TMC3    C612133   0.655   3.401  13.150
  815TMC3     C12134   0.843   3.321  12.783
  815TMC3     O12135   0.962   3.309  12.802
  815TMC3     H12136   0.581   3.284  12.847
  815TMC3    H112137   0.963   3.385  13.022
  815TMC3    H212138   0.610   3.435  13.243
  815TMC3    C712139   0.870   3.442  13.249
  815TMC3    C812140   0.476   3.269  13.076
  815TMC3    O112141   0.819   3.513  13.334
  815TMC3    O212142   0.408   3.220  12.985
  816TMC3    C112143   0.289   2.630  13.026
  816TMC3    C212144   0.357   2.582  12.917
  816TMC3    C312145   0.385   2.447  12.915
  816TMC3    C412146   0.234   2.551  13.121
  816TMC3    C512147   0.254   2.417  13.105
  816TMC3    C612148   0.336   2.361  13.008
  816TMC3     C12149   0.293   2.765  13.058
  816TMC3     O12150   0.279   2.851  12.969
  816TMC3     H12151   0.390   2.638  12.830
  816TMC3    H112152   0.162   2.594  13.189
  816TMC3    H212153   0.358   2.256  12.994
  816TMC3    C712154   0.210   2.330  13.211
  816TMC3    C812155   0.461   2.387  12.805
  816TMC3    O112156   0.114   2.361  13.278
  816TMC3    O212157   0.478   2.265  12.814
  817TMC3    C112158   1.528   2.679  12.903
  817TMC3    C212159   1.469   2.570  12.966
  817TMC3    C312160   1.396   2.483  12.881
  817TMC3    C412161   1.507   2.709  12.770
  817TMC3    C512162   1.427   2.626  12.700
  817TMC3    C612163   1.382   2.507  12.751
  817TMC3     C12164   1.631   2.754  12.969
  817TMC3     O12165   1.705   2.819  12.899
  817TMC3     H12166   1.463   2.550  13.072
  817TMC3    H112167   1.542   2.799  12.721
  817TMC3    H212168   1.324   2.445  12.683
  817TMC3    C712169   1.394   2.667  12.559
  817TMC3    C812170   1.289   2.409  12.942
  817TMC3    O112171   1.454   2.756  12.503
  817TMC3    O212172   1.240   2.460  13.039
  818TMC3    C112173   1.615   3.771   9.338
  818TMC3    C212174   1.548   3.712   9.440
  818TMC3    C312175   1.417   3.740   9.452
  818TMC3    C412176   1.556   3.859   9.252
  818TMC3    C512177   1.423   3.879   9.260
  818TMC3    C612178   1.354   3.830   9.364
  818TMC3     C12179   1.755   3.797   9.365
  818TMC3     O12180   1.809   3.717   9.438
  818TMC3     H12181   1.602   3.644   9.505
  818TMC3    H112182   1.610   3.902   9.169
  818TMC3    H212183   1.254   3.865   9.386
  818TMC3    C712184   1.360   3.912   9.136
  818TMC3    C812185   1.348   3.722   9.581
  818TMC3    O112186   1.425   3.918   9.031
  818TMC3    O212187   1.252   3.788   9.605
  819TMC3    C112188   0.288   1.329   9.296
  819TMC3    C212189   0.253   1.394   9.412
  819TMC3    C312190   0.326   1.497   9.468
  819TMC3    C412191   0.408   1.364   9.242
  819TMC3    C512192   0.467   1.476   9.290
  819TMC3    C612193   0.437   1.539   9.407
  819TMC3     C12194   0.176   1.325   9.199
  819TMC3     O12195   0.060   1.291   9.243
  819TMC3     H12196   0.147   1.379   9.430
  819TMC3    H112197   0.440   1.313   9.152
  819TMC3    H212198   0.486   1.629   9.443
  819TMC3    C712199   0.495   1.563   9.178
  819TMC3    C812200   0.257   1.609   9.527
  819TMC3    O112201   0.458   1.515   9.070
  819TMC3    O212202   0.287   1.719   9.484
  820TMC3    C112203   2.831   4.331   9.896
  820TMC3    C212204   2.907   4.250   9.814
  820TMC3    C312205   3.036   4.228   9.848
  820TMC3    C412206   2.882   4.396  10.009
  820TMC3    C512207   3.008   4.357  10.045
  820TMC3    C612208   3.082   4.275   9.967
  820TMC3     C12209   2.697   4.360   9.847
  820TMC3     O12210   2.670   4.317   9.737
  820TMC3     H12211   2.878   4.188   9.730
  820TMC3    H112212   2.818   4.437  10.087
  820TMC3    H212213   3.175   4.241  10.012
  820TMC3    C712214   3.056   4.376  10.182
  820TMC3    C812215   3.097   4.110   9.792
  820TMC3    O112216   3.112   4.282  10.237
  820TMC3    O212217   3.056   3.998   9.808
  821TMC3    C112218   4.370   1.319  10.533
  821TMC3    C212219   4.281   1.321  10.434
  821TMC3    C312220   4.296   1.228  10.333
  821TMC3    C412221   4.461   1.216  10.550
  821TMC3    C512222   4.483   1.125  10.446
  821TMC3    C612223   4.403   1.134  10.337
  821TMC3     C12224   4.348   1.394  10.658
  821TMC3     O12225   4.230   1.428  10.675
  821TMC3     H12226   4.201   1.395  10.438
  821TMC3    H112227   4.545   1.239  10.614
  821TMC3    H212228   4.434   1.071  10.255
  821TMC3    C712229   4.623   1.139  10.419
  821TMC3    C812230   4.173   1.182  10.275
  821TMC3    O112231   4.652   1.226  10.340
  821TMC3    O212232   4.081   1.183  10.352
  822TMC3    C112233   1.110   0.597   8.109
  822TMC3    C212234   1.151   0.688   8.018
  822TMC3    C312235   1.185   0.649   7.893
  822TMC3    C412236   1.106   0.461   8.075
  822TMC3    C512237   1.163   0.427   7.957
  822TMC3    C612238   1.185   0.516   7.857
  822TMC3     C12239   1.155   0.628   8.244
  822TMC3     O12240   1.136   0.745   8.281
  822TMC3     H12241   1.148   0.790   8.054
  822TMC3    H112242   1.095   0.391   8.156
  822TMC3    H212243   1.222   0.477   7.763
  822TMC3    C712244   1.215   0.294   7.947
  822TMC3    C812245   1.265   0.730   7.802
  822TMC3    O112246   1.128   0.209   7.956
  822TMC3    O212247   1.318   0.676   7.708
  823TMC3    C112248   0.371   4.782  11.408
  823TMC3    C212249   0.451   0.073  11.486
  823TMC3    C312250   0.503   0.034  11.605
  823TMC3    C412251   0.370   4.648  11.448
  823TMC3    C512252   0.421   4.611  11.569
  823TMC3    C612253   0.486   4.700  11.654
  823TMC3     C12254   0.397   4.786  11.271
  823TMC3     O12255   0.511   4.761  11.233
  823TMC3     H12256   0.476   0.172  11.450
  823TMC3    H112257   0.305   4.584  11.389
  823TMC3    H212258   0.501   4.676  11.759
  823TMC3    C712259   0.445   4.467  11.587
  823TMC3    C812260   0.611   0.112  11.664
  823TMC3    O112261   0.395   4.395  11.500
  823TMC3    O212262   0.621   0.229  11.636
  824TMC3    C112263   4.043   1.128   7.624
  824TMC3    C212264   4.086   1.056   7.512
  824TMC3    C312265   4.030   0.936   7.488
  824TMC3    C412266   3.950   1.073   7.705
  824TMC3    C512267   3.894   0.951   7.678
  824TMC3    C612268   3.926   0.885   7.562
  824TMC3     C12269   4.057   1.270   7.615
  824TMC3     O12270   4.158   1.291   7.550
  824TMC3     H12271   4.153   1.094   7.436
  824TMC3    H112272   3.940   1.121   7.802
  824TMC3    H212273   3.890   0.784   7.543
  824TMC3    C712274   3.812   0.898   7.788
  824TMC3    C812275   4.085   0.852   7.394
  824TMC3    O112276   3.758   0.974   7.863
  824TMC3    O212277   4.208   0.836   7.405
  825TMC3    C112278   1.736   4.705   7.355
  825TMC3    C212279   1.692   4.730   7.224
  825TMC3    C312280   1.561   4.691   7.196
  825TMC3    C412281   1.644   4.683   7.457
  825TMC3    C512282   1.520   4.641   7.422
  825TMC3    C612283   1.471   4.646   7.296
  825TMC3     C12284   1.833   4.595   7.358
  825TMC3     O12285   1.852   4.540   7.249
  825TMC3     H12286   1.759   4.743   7.140
  825TMC3    H112287   1.665   4.665   7.562
  825TMC3    H212288   1.373   4.609   7.269
  825TMC3    C712289   1.458   4.547   7.508
  825TMC3    C812290   1.526   4.696   7.056
  825TMC3    O112291   1.536   4.485   7.577
  825TMC3    O212292   1.569   0.001   6.994
  826TMC3    C112293   1.524   4.533   8.055
  826TMC3    C212294   1.629   4.529   8.141
  826TMC3    C312295   1.621   4.424   8.233
  826TMC3    C412296   1.424   4.443   8.058
  826TMC3    C512297   1.413   4.356   8.169
  826TMC3    C612298   1.516   4.340   8.252
  826TMC3     C12299   1.538   4.613   7.937
  826TMC3     O12300   1.651   4.648   7.899
  826TMC3     H12301   1.700   4.610   8.143
  826TMC3    H112302   1.360   4.426   7.972
  826TMC3    H212303   1.519   4.262   8.328
  826TMC3    C712304   1.292   4.282   8.169
  826TMC3    C812305   1.739   4.402   8.325
  826TMC3    O112306   1.198   4.313   8.092
  826TMC3    O212307   1.714   4.346   8.432
  827TMC3    C112308   4.119   4.239   7.728
  827TMC3    C212309   4.167   4.164   7.826
  827TMC3    C312310   4.127   4.185   7.956
  827TMC3    C412311   4.033   4.342   7.757
  827TMC3    C512312   3.976   4.348   7.877
  827TMC3    C612313   4.023   4.271   7.980
  827TMC3     C12314   4.209   4.286   7.622
  827TMC3     O12315   4.168   4.348   7.530
  827TMC3     H12316   4.228   4.077   7.804
  827TMC3    H112317   4.006   4.419   7.686
  827TMC3    H212318   3.990   4.295   8.080
  827TMC3    C712319   3.952   4.487   7.918
  827TMC3    C812320   4.153   4.084   8.051
  827TMC3    O112321   3.851   4.547   7.875
  827TMC3    O212322   4.183   3.972   8.004
  828TMC3    C112323   0.437   0.531  12.884
  828TMC3    C212324   0.478   0.583  12.762
  828TMC3    C312325   0.399   0.567  12.652
  828TMC3    C412326   0.309   0.478  12.894
  828TMC3    C512327   0.244   0.446  12.783
  828TMC3    C612328   0.278   0.507  12.659
  828TMC3     C12329   0.533   0.444  12.943
  828TMC3     O12330   0.514   0.414  13.062
  828TMC3     H12331   0.579   0.622  12.758
  828TMC3    H112332   0.281   0.447  12.995
  828TMC3    H212333   0.221   0.480  12.571
  828TMC3    C712334   0.234   0.308  12.777
  828TMC3    C812335   0.480   0.514  12.540
  828TMC3    O112336   0.185   0.263  12.881
  828TMC3    O212337   0.574   0.444  12.575
  829TMC3    C112338   2.999   2.001  12.050
  829TMC3    C212339   2.891   2.016  11.978
  829TMC3    C312340   2.856   1.913  11.894
  829TMC3    C412341   3.066   1.885  12.062
  829TMC3    C512342   3.031   1.792  11.971
  829TMC3    C612343   2.936   1.805  11.881
  829TMC3     C12344   3.079   2.122  12.046
  829TMC3     O12345   3.090   2.176  12.159
  829TMC3     H12346   2.843   2.113  11.977
  829TMC3    H112347   3.154   1.870  12.124
  829TMC3    H212348   2.913   1.732  11.804
  829TMC3    C712349   3.077   1.660  12.009
  829TMC3    C812350   2.784   1.961  11.778
  829TMC3    O112351   3.158   1.656  12.105
  829TMC3    O212352   2.812   2.070  11.738
  830TMC3    C112353   4.453   3.242   6.226
  830TMC3    C212354   4.496   3.143   6.302
  830TMC3    C312355   4.462   3.017   6.268
  830TMC3    C412356   4.360   3.220   6.133
  830TMC3    C512357   4.341   3.094   6.084
  830TMC3    C612358   4.401   2.989   6.146
  830TMC3     C12359   4.500   3.372   6.252
  830TMC3     O12360   4.423   3.460   6.226
  830TMC3     H12361   4.555   3.147   6.393
  830TMC3    H112362   4.320   3.305   6.079
  830TMC3    H212363   4.410   2.891   6.102
  830TMC3    C712364   4.274   3.081   5.954
  830TMC3    C812365   4.449   2.922   6.382
  830TMC3    O112366   4.238   3.187   5.908
  830TMC3    O212367   4.435   2.970   6.491
  831TMC3    C112368   0.423   4.182  10.761
  831TMC3    C212369   0.475   4.282  10.683
  831TMC3    C312370   0.600   4.259  10.633
  831TMC3    C412371   0.495   4.067  10.787
  831TMC3    C512372   0.633   4.066  10.751
  831TMC3    C612373   0.679   4.159  10.664
  831TMC3     C12374   0.289   4.193  10.799
  831TMC3     O12375   0.212   4.103  10.778
  831TMC3     H12376   0.400   4.337  10.629
  831TMC3    H112377   0.451   4.010  10.868
  831TMC3    H212378   0.780   4.154  10.626
  831TMC3    C712379   0.724   4.077  10.862
  831TMC3    C812380   0.646   4.353  10.535
  831TMC3    O112381   0.833   4.132  10.848
  831TMC3    O212382   0.741   4.317  10.466
  832TMC3    C112383   2.533   1.100  12.179
  832TMC3    C212384   2.631   1.084  12.272
  832TMC3    C312385   2.738   1.173  12.291
  832TMC3    C412386   2.535   1.223  12.109
  832TMC3    C512387   2.644   1.305  12.123
  832TMC3    C612388   2.750   1.279  12.207
  832TMC3     C12389   2.451   0.995  12.120
  832TMC3     O12390   2.335   1.030  12.104
  832TMC3     H12391   2.637   0.989  12.324
  832TMC3    H112392   2.459   1.243  12.034
  832TMC3    H212393   2.844   1.331  12.191
  832TMC3    C712394   2.679   1.352  11.992
  832TMC3    C812395   2.852   1.130  12.371
  832TMC3    O112396   2.673   1.261  11.907
  832TMC3    O212397   2.884   1.013  12.351
  833TMC3    C112398   2.285   4.024  11.989
  833TMC3    C212399   2.209   4.141  11.987
  833TMC3    C312400   2.266   4.260  11.962
  833TMC3    C412401   2.418   4.045  11.984
  833TMC3    C512402   2.469   4.168  11.952
  833TMC3    C612403   2.397   4.284  11.951
  833TMC3     C12404   2.263   3.959  12.114
  833TMC3     O12405   2.314   3.849  12.126
  833TMC3     H12406   2.101   4.129  11.989
  833TMC3    H112407   2.483   3.958  11.994
  833TMC3    H212408   2.435   4.381  11.920
  833TMC3    C712409   2.609   4.176  11.921
  833TMC3    C812410   2.188   4.372  12.013
  833TMC3    O112411   2.660   4.099  11.838
  833TMC3    O212412   2.113   4.336  12.102
  834TMC3    C112413   4.022   1.088  14.218
  834TMC3    C212414   4.102   1.202  14.198
  834TMC3    C312415   4.236   1.186  14.162
  834TMC3    C412416   4.069   0.960  14.218
  834TMC3    C512417   4.202   0.948  14.183
  834TMC3    C612418   4.283   1.052  14.150
  834TMC3     C12419   3.882   1.103  14.233
  834TMC3     O12420   3.830   1.003  14.276
  834TMC3     H12421   4.069   1.304  14.219
  834TMC3    H112422   4.001   0.875  14.223
  834TMC3    H212423   4.376   1.032  14.097
  834TMC3    C712424   4.276   0.825  14.225
  834TMC3    C812425   4.297   1.294  14.092
  834TMC3    O112426   4.388   0.807  14.178
  834TMC3    O212427   4.230   1.397  14.071
  835TMC3    C112428   0.802   1.489  13.518
  835TMC3    C212429   0.680   1.556  13.511
  835TMC3    C312430   0.681   1.693  13.506
  835TMC3    C412431   0.920   1.559  13.506
  835TMC3    C512432   0.918   1.699  13.494
  835TMC3    C612433   0.795   1.763  13.487
  835TMC3     C12434   0.801   1.373  13.611
  835TMC3     O12435   0.890   1.386  13.700
  835TMC3     H12436   0.586   1.503  13.517
  835TMC3    H112437   1.017   1.514  13.527
  835TMC3    H212438   0.789   1.863  13.528
  835TMC3    C712439   1.037   1.784  13.472
  835TMC3    C812440   0.552   1.761  13.538
  835TMC3    O112441   1.033   1.893  13.416
  835TMC3    O212442   0.477   1.687  13.598
  836TMC3    C112443   4.309   2.765   7.193
  836TMC3    C212444   4.232   2.658   7.234
  836TMC3    C312445   4.193   2.556   7.146
  836TMC3    C412446   4.335   2.784   7.060
  836TMC3    C512447   4.301   2.680   6.977
  836TMC3    C612448   4.234   2.566   7.017
  836TMC3     C12449   4.370   2.838   7.301
  836TMC3     O12450   4.333   2.825   7.415
  836TMC3     H12451   4.211   2.651   7.340
  836TMC3    H112452   4.391   2.872   7.030
  836TMC3    H212453   4.189   2.503   6.941
  836TMC3    C712454   4.336   2.702   6.838
  836TMC3    C812455   4.143   2.438   7.208
  836TMC3    O112456   4.366   2.816   6.803
  836TMC3    O212457   4.113   2.437   7.325
  837TMC3    C112458   3.690   4.191   8.959
  837TMC3    C212459   3.801   4.122   8.917
  837TMC3    C312460   3.866   4.174   8.806
  837TMC3    C412461   3.646   4.304   8.901
  837TMC3    C512462   3.723   4.359   8.802
  837TMC3    C612463   3.836   4.297   8.758
  837TMC3     C12464   3.637   4.147   9.078
  837TMC3     O12465   3.698   4.060   9.138
  837TMC3     H12466   3.814   4.019   8.950
  837TMC3    H112467   3.564   4.365   8.937
  837TMC3    H212468   3.896   4.342   8.680
  837TMC3    C712469   3.649   4.432   8.704
  837TMC3    C812470   3.950   4.071   8.738
  837TMC3    O112471   3.710   4.524   8.656
  837TMC3    O212472   3.949   3.957   8.784
  838TMC3    C112473   0.960   4.095  14.828
  838TMC3    C212474   1.048   4.186  14.881
  838TMC3    C312475   1.149   4.145  14.960
  838TMC3    C412476   0.974   3.960  14.853
  838TMC3    C512477   1.083   3.924  14.936
  838TMC3    C612478   1.167   4.012  14.994
  838TMC3     C12479   0.883   4.141  14.708
  838TMC3     O12480   0.839   4.255  14.694
  838TMC3     H12481   1.045   4.290  14.849
  838TMC3    H112482   0.909   3.884  14.811
  838TMC3    H212483   1.248   3.976  15.056
  838TMC3    C712484   1.079   3.789  14.986
  838TMC3    C812485   1.226   4.245  15.025
  838TMC3    O112486   1.067   3.779  15.107
  838TMC3    O212487   1.199   4.366  15.025
  839TMC3    C112488   1.993   3.362   9.340
  839TMC3    C212489   2.076   3.284   9.262
  839TMC3    C312490   2.061   3.152   9.284
  839TMC3    C412491   1.930   3.311   9.452
  839TMC3    C512492   1.933   3.178   9.487
  839TMC3    C612493   2.013   3.103   9.401
  839TMC3     C12494   1.916   3.449   9.256
  839TMC3     O12495   1.969   3.511   9.164
  839TMC3     H12496   2.112   3.329   9.170
  839TMC3    H112497   1.870   3.378   9.513
  839TMC3    H212498   2.030   3.001   9.434
  839TMC3    C712499   1.804   3.130   9.523
  839TMC3    C812500   1.991   3.080   9.175
  839TMC3    O112501   1.733   3.217   9.565
  839TMC3    O212502   1.917   2.990   9.206
  840TMC3    C112503   3.829   2.558  11.690
  840TMC3    C212504   3.901   2.578  11.805
  840TMC3    C312505   3.855   2.510  11.917
  840TMC3    C412506   3.753   2.445  11.685
  840TMC3    C512507   3.709   2.380  11.795
  840TMC3    C612508   3.755   2.412  11.913
  840TMC3     C12509   3.743   2.664  11.661
  840TMC3     O12510   3.694   2.725  11.756
  840TMC3     H12511   3.950   2.674  11.818
  840TMC3    H112512   3.693   2.442  11.595
  840TMC3    H212513   3.714   2.375  12.006
  840TMC3    C712514   3.563   2.354  11.784
  840TMC3    C812515   3.923   2.526  12.039
  840TMC3    O112516   3.509   2.302  11.683
  840TMC3    O212517   3.864   2.486  12.143
  841TMC3    C112518   3.583   0.291  13.134
  841TMC3    C212519   3.573   0.391  13.231
  841TMC3    C312520   3.522   0.512  13.196
  841TMC3    C412521   3.565   0.327  13.006
  841TMC3    C512522   3.544   0.457  12.971
  841TMC3    C612523   3.501   0.542  13.062
  841TMC3     C12524   3.593   0.155  13.174
  841TMC3     O12525   3.620   0.135  13.293
  841TMC3     H12526   3.583   0.362  13.335
  841TMC3    H112527   3.598   0.261  12.926
  841TMC3    H212528   3.463   0.640  13.035
  841TMC3    C712529   3.584   0.497  12.838
  841TMC3    C812530   3.601   0.623  13.254
  841TMC3    O112531   3.594   0.421  12.742
  841TMC3    O212532   3.659   0.687  13.164
  842TMC3    C112533   2.776   3.165  13.646
  842TMC3    C212534   2.646   3.125  13.642
  842TMC3    C312535   2.594   3.137  13.514
  842TMC3    C412536   2.854   3.203  13.548
  842TMC3    C512537   2.800   3.204  13.419
  842TMC3    C612538   2.665   3.189  13.403
  842TMC3     C12539   2.820   3.209  13.775
  842TMC3     O12540   2.904   3.295  13.785
  842TMC3     H12541   2.586   3.108  13.731
  842TMC3    H112542   2.961   3.207  13.565
  842TMC3    H212543   2.632   3.183  13.300
  842TMC3    C712544   2.885   3.142  13.321
  842TMC3    C812545   2.475   3.061  13.493
  842TMC3    O112546   2.850   3.049  13.249
  842TMC3    O212547   2.455   2.972  13.575
  843TMC3    C112548   0.215   1.896  12.343
  843TMC3    C212549   0.207   2.029  12.321
  843TMC3    C312550   0.253   2.110  12.415
  843TMC3    C412551   0.271   1.835  12.450
  843TMC3    C512552   0.324   1.917  12.543
  843TMC3    C612553   0.314   2.052  12.526
  843TMC3     C12554   0.135   1.809  12.267
  843TMC3     O12555   0.184   1.710  12.210
  843TMC3     H12556   0.175   2.068  12.225
  843TMC3    H112557   0.271   1.728  12.466
  843TMC3    H212558   0.352   2.127  12.594
  843TMC3    C712559   0.346   1.858  12.675
  843TMC3    C812560   0.247   2.252  12.399
  843TMC3    O112561   0.408   1.755  12.687
  843TMC3    O212562   0.255   2.295  12.284
  844TMC3    C112563   2.791   0.512   7.039
  844TMC3    C212564   2.753   0.387   6.990
  844TMC3    C312565   2.840   0.282   7.016
  844TMC3    C412566   2.910   0.535   7.103
  844TMC3    C512567   2.989   0.429   7.132
  844TMC3    C612568   2.949   0.306   7.094
  844TMC3     C12569   2.696   0.620   7.022
  844TMC3     O12570   2.623   0.618   6.925
  844TMC3     H12571   2.654   0.363   6.953
  844TMC3    H112572   2.937   0.639   7.116
  844TMC3    H212573   3.008   0.221   7.125
  844TMC3    C712574   3.061   0.444   7.248
  844TMC3    C812575   2.785   0.148   7.012
  844TMC3    O112576   3.146   0.364   7.296
  844TMC3    O212577   2.667   0.134   7.037
  845TMC3    C112578   1.622   1.817  14.457
  845TMC3    C212579   1.718   1.875  14.533
  845TMC3    C312580   1.840   1.817  14.539
  845TMC3    C412581   1.667   1.709  14.381
  845TMC3    C512582   1.788   1.651  14.383
  845TMC3    C612583   1.879   1.702  14.471
  845TMC3     C12584   1.477   1.839  14.482
  845TMC3     O12585   1.393   1.796  14.400
  845TMC3     H12586   1.699   1.967  14.588
  845TMC3    H112587   1.600   1.668  14.306
  845TMC3    H212588   1.971   1.664  14.512
  845TMC3    C712589   1.781   1.516  14.333
  845TMC3    C812590   1.908   1.855  14.660
  845TMC3    O112591   1.669   1.470  14.302
  845TMC3    O212592   1.834   1.895  14.748
  846TMC3    C112593   1.950   0.515  12.329
  846TMC3    C212594   2.044   0.548  12.234
  846TMC3    C312595   2.048   0.679  12.188
  846TMC3    C412596   1.877   0.613  12.395
  846TMC3    C512597   1.894   0.746  12.355
  846TMC3    C612598   1.983   0.780  12.264
  846TMC3     C12599   1.875   0.399  12.283
  846TMC3     O12600   1.927   0.316  12.210
  846TMC3     H12601   2.102   0.479  12.175
  846TMC3    H112602   1.804   0.593  12.473
  846TMC3    H212603   1.988   0.882  12.230
  846TMC3    C712604   1.775   0.827  12.361
  846TMC3    C812605   2.164   0.719  12.111
  846TMC3    O112606   1.676   0.772  12.396
  846TMC3    O212607   2.275   0.676  12.134
  847TMC3    C112608   2.641   3.301   8.407
  847TMC3    C212609   2.549   3.402   8.407
  847TMC3    C312610   2.580   3.520   8.345
  847TMC3    C412611   2.774   3.315   8.376
  847TMC3    C512612   2.804   3.440   8.329
  847TMC3    C612613   2.712   3.538   8.306
  847TMC3     C12614   2.605   3.200   8.516
  847TMC3     O12615   2.521   3.230   8.597
  847TMC3     H12616   2.449   3.389   8.447
  847TMC3    H112617   2.844   3.233   8.369
  847TMC3    H212618   2.741   3.630   8.258
  847TMC3    C712619   2.950   3.474   8.321
  847TMC3    C812620   2.517   3.628   8.422
  847TMC3    O112621   2.975   3.560   8.232
  847TMC3    O212622   2.397   3.627   8.449
  848TMC3    C112623   1.014   1.840  10.699
  848TMC3    C212624   0.994   1.957  10.640
  848TMC3    C312625   0.938   2.063  10.708
  848TMC3    C412626   0.981   1.827  10.837
  848TMC3    C512627   0.924   1.933  10.899
  848TMC3    C612628   0.905   2.055  10.835
  848TMC3     C12629   0.978   1.729  10.616
  848TMC3     O12630   1.035   1.700  10.513
  848TMC3     H12631   1.017   1.974  10.535
  848TMC3    H112632   0.997   1.733  10.889
  848TMC3    H212633   0.863   2.141  10.886
  848TMC3    C712634   0.868   1.926  11.031
  848TMC3    C812635   0.917   2.180  10.630
  848TMC3    O112636   0.792   1.834  11.063
  848TMC3    O212637   0.800   2.196  10.592
  849TMC3    C112638   4.455   0.033  13.221
  849TMC3    C212639   4.411   0.023  13.351
  849TMC3    C312640   4.348   0.128  13.394
  849TMC3    C412641   4.450   0.150  13.149
  849TMC3    C512642   4.369   0.246  13.199
  849TMC3    C612643   4.330   0.243  13.324
  849TMC3     C12644   4.523   4.703  13.171
  849TMC3     O12645   4.541   4.614  13.255
  849TMC3     H12646   4.407   4.724  13.407
  849TMC3    H112647   4.483   0.167  13.047
  849TMC3    H212648   4.273   0.321  13.373
  849TMC3    C712649   4.313   0.350  13.112
  849TMC3    C812650   4.254   0.111  13.496
  849TMC3    O112651   4.385   0.371  13.015
  849TMC3    O212652   4.145   0.172  13.488
  850TMC3    C112653   2.819   1.130  11.337
  850TMC3    C212654   2.768   1.256  11.323
  850TMC3    C312655   2.639   1.264  11.286
  850TMC3    C412656   2.738   1.018  11.338
  850TMC3    C512657   2.603   1.035  11.312
  850TMC3    C612658   2.556   1.156  11.277
  850TMC3     C12659   2.957   1.111  11.339
  850TMC3     O12660   2.998   1.004  11.382
  850TMC3     H12661   2.820   1.352  11.318
  850TMC3    H112662   2.783   0.919  11.347
  850TMC3    H212663   2.451   1.177  11.264
  850TMC3    C712664   2.531   0.919  11.271
  850TMC3    C812665   2.581   1.390  11.231
  850TMC3    O112666   2.479   0.918  11.160
  850TMC3    O212667   2.487   1.380  11.149
  851TMC3    C112668   2.342   3.709  12.619
  851TMC3    C212669   2.286   3.607  12.687
  851TMC3    C312670   2.196   3.645  12.785
  851TMC3    C412671   2.322   3.838  12.656
  851TMC3    C512672   2.241   3.868  12.768
  851TMC3    C612673   2.165   3.771  12.832
  851TMC3     C12674   2.431   3.668  12.505
  851TMC3     O12675   2.420   3.555  12.464
  851TMC3     H12676   2.289   3.506  12.650
  851TMC3    H112677   2.369   3.913  12.593
  851TMC3    H212678   2.105   3.783  12.921
  851TMC3    C712679   2.198   4.008  12.769
  851TMC3    C812680   2.098   3.540  12.794
  851TMC3    O112681   2.242   4.083  12.685
  851TMC3    O212682   2.137   3.427  12.821
  852TMC3    C112683   4.259   1.694  13.472
  852TMC3    C212684   4.163   1.743  13.554
  852TMC3    C312685   4.067   1.821  13.485
  852TMC3    C412686   4.263   1.711  13.338
  852TMC3    C512687   4.157   1.769  13.272
  852TMC3    C612688   4.055   1.830  13.343
  852TMC3     C12689   4.369   1.624  13.532
  852TMC3     O12690   4.476   1.636  13.471
  852TMC3     H12691   4.168   1.751  13.662
  852TMC3    H112692   4.345   1.675  13.277
  852TMC3    H212693   3.957   1.857  13.304
  852TMC3    C712694   4.167   1.774  13.132
  852TMC3    C812695   4.009   1.934  13.555
  852TMC3    O112696   4.229   1.687  13.073
  852TMC3    O212697   3.937   1.894  13.647
  853TMC3    C112698   3.350   2.345   8.013
  853TMC3    C212699   3.372   2.333   8.148
  853TMC3    C312700   3.444   2.443   8.192
  853TMC3    C412701   3.384   2.448   7.927
  853TMC3    C512702   3.442   2.556   7.985
  853TMC3    C612703   3.488   2.546   8.114
  853TMC3     C12704   3.292   2.225   7.956
  853TMC3     O12705   3.212   2.151   8.022
  853TMC3     H12706   3.336   2.250   8.207
  853TMC3    H112707   3.351   2.456   7.824
  853TMC3    H212708   3.535   2.634   8.156
  853TMC3    C712709   3.498   2.658   7.901
  853TMC3    C812710   3.463   2.449   8.331
  853TMC3    O112711   3.615   2.694   7.928
  853TMC3    O212712   3.463   2.342   8.388
  854TMC3    C112713   3.418   0.875  12.349
  854TMC3    C212714   3.444   0.893  12.476
  854TMC3    C312715   3.411   1.010  12.537
  854TMC3    C412716   3.348   0.971  12.280
  854TMC3    C512717   3.305   1.082  12.342
  854TMC3    C612718   3.341   1.109  12.471
  854TMC3     C12719   3.442   0.752  12.280
  854TMC3     O12720   3.412   0.745  12.160
  854TMC3     H12721   3.506   0.830  12.539
  854TMC3    H112722   3.339   0.957  12.173
  854TMC3    H212723   3.314   1.199  12.525
  854TMC3    C712724   3.218   1.175  12.273
  854TMC3    C812725   3.414   0.996  12.678
  854TMC3    O112726   3.191   1.279  12.332
  854TMC3    O212727   3.364   0.892  12.727
  855TMC3    C112728   3.992   3.844  13.882
  855TMC3    C212729   3.985   3.842  14.016
  855TMC3    C312730   4.101   3.832  14.086
  855TMC3    C412731   4.107   3.823  13.809
  855TMC3    C512732   4.223   3.814  13.881
  855TMC3    C612733   4.223   3.827  14.017
  855TMC3     C12734   3.867   3.857  13.802
  855TMC3     O12735   3.768   3.808  13.856
  855TMC3     H12736   3.888   3.846  14.063
  855TMC3    H112737   4.100   3.807  13.702
  855TMC3    H212738   4.319   3.833  14.068
  855TMC3    C712739   4.350   3.757  13.825
  855TMC3    C812740   4.111   3.862  14.226
  855TMC3    O112741   4.452   3.782  13.886
  855TMC3    O212742   4.220   3.839  14.276
  856TMC3    C112743   3.038   2.718   8.537
  856TMC3    C212744   3.068   2.783   8.662
  856TMC3    C312745   3.086   2.918   8.663
  856TMC3    C412746   3.030   2.791   8.424
  856TMC3    C512747   3.040   2.925   8.424
  856TMC3    C612748   3.078   2.990   8.541
  856TMC3     C12749   2.998   2.580   8.538
  856TMC3     O12750   3.035   2.505   8.449
  856TMC3     H12751   3.099   2.725   8.748
  856TMC3    H112752   3.015   2.742   8.328
  856TMC3    H212753   3.077   3.098   8.547
  856TMC3    C712754   3.071   2.997   8.302
  856TMC3    C812755   3.050   3.001   8.777
  856TMC3    O112756   2.982   3.003   8.220
  856TMC3    O212757   3.045   3.123   8.769
  857TMC3    C112758   0.790   1.310   6.704
  857TMC3    C212759   0.789   1.235   6.589
  857TMC3    C312760   0.893   1.152   6.564
  857TMC3    C412761   0.895   1.308   6.790
  857TMC3    C512762   1.006   1.233   6.757
  857TMC3    C612763   1.000   1.143   6.657
  857TMC3     C12764   0.698   1.417   6.716
  857TMC3     O12765   0.686   1.478   6.823
  857TMC3     H12766   0.699   1.237   6.528
  857TMC3    H112767   0.905   1.390   6.861
  857TMC3    H212768   1.073   1.069   6.627
  857TMC3    C712769   1.130   1.263   6.824
  857TMC3    C812770   0.887   1.052   6.457
  857TMC3    O112771   1.121   1.327   6.929
  857TMC3    O212772   0.925   0.942   6.494
  858TMC3    C112773   3.188   2.950   9.511
  858TMC3    C212774   3.241   2.872   9.608
  858TMC3    C312775   3.339   2.792   9.570
  858TMC3    C412776   3.221   2.953   9.375
  858TMC3    C512777   3.333   2.882   9.349
  858TMC3    C612778   3.396   2.806   9.448
  858TMC3     C12779   3.052   2.990   9.542
  858TMC3     O12780   2.996   2.927   9.627
  858TMC3     H12781   3.217   2.885   9.713
  858TMC3    H112782   3.172   3.018   9.303
  858TMC3    H212783   3.481   2.743   9.422
  858TMC3    C712784   3.417   2.922   9.236
  858TMC3    C812785   3.348   2.667   9.644
  858TMC3    O112786   3.540   2.902   9.245
  858TMC3    O212787   3.454   2.615   9.671
  859TMC3    C112788   2.860   2.974   7.289
  859TMC3    C212789   2.982   2.974   7.351
  859TMC3    C312790   3.082   3.055   7.294
  859TMC3    C412791   2.825   3.071   7.199
  859TMC3    C512792   2.923   3.159   7.158
  859TMC3    C612793   3.053   3.154   7.205
  859TMC3     C12794   2.780   2.856   7.286
  859TMC3     O12795   2.676   2.847   7.228
  859TMC3     H12796   3.015   2.894   7.416
  859TMC3    H112797   2.732   3.059   7.144
  859TMC3    H212798   3.129   3.219   7.163
  859TMC3    C712799   2.887   3.265   7.080
  859TMC3    C812800   3.222   3.037   7.336
  859TMC3    O112801   2.980   3.329   7.029
  859TMC3    O212802   3.310   3.083   7.265
  860TMC3    C112803   1.333   4.384  12.160
  860TMC3    C212804   1.312   4.268  12.085
  860TMC3    C312805   1.233   4.291  11.972
  860TMC3    C412806   1.339   4.514  12.110
  860TMC3    C512807   1.287   4.522  11.983
  860TMC3    C612808   1.233   4.414  11.918
  860TMC3     C12809   1.264   4.383  12.291
  860TMC3     O12810   1.236   4.489  12.339
  860TMC3     H12811   1.304   4.170  12.131
  860TMC3    H112812   1.345   4.604  12.169
  860TMC3    H212813   1.184   4.417  11.822
  860TMC3    C712814   1.245   4.657  11.940
  860TMC3    C812815   1.100   4.232  11.985
  860TMC3    O112816   1.305   4.748  11.996
  860TMC3    O212817   1.008   4.306  11.947
  861TMC3    C112818   0.530   1.212  12.461
  861TMC3    C212819   0.591   1.222  12.582
  861TMC3    C312820   0.546   1.307  12.670
  861TMC3    C412821   0.416   1.287  12.432
  861TMC3    C512822   0.375   1.380  12.524
  861TMC3    C612823   0.442   1.395  12.644
  861TMC3     C12824   0.588   1.114  12.370
  861TMC3     O12825   0.694   1.060  12.410
  861TMC3     H12826   0.663   1.147  12.614
  861TMC3    H112827   0.371   1.282  12.334
  861TMC3    H212828   0.415   1.463  12.724
  861TMC3    C712829   0.240   1.435  12.505
  861TMC3    C812830   0.608   1.301  12.803
  861TMC3    O112831   0.188   1.412  12.395
  861TMC3    O212832   0.545   1.333  12.902
  862TMC3    C112833   3.752   3.994  10.297
  862TMC3    C212834   3.766   3.865  10.256
  862TMC3    C312835   3.877   3.794  10.297
  862TMC3    C412836   3.844   4.059  10.374
  862TMC3    C512837   3.955   3.984  10.405
  862TMC3    C612838   3.972   3.852  10.380
  862TMC3     C12839   3.617   4.048  10.310
  862TMC3     O12840   3.590   4.125  10.405
  862TMC3     H12841   3.693   3.807  10.201
  862TMC3    H112842   3.826   4.163  10.400
  862TMC3    H212843   4.065   3.807  10.415
  862TMC3    C712844   4.081   4.054  10.439
  862TMC3    C812845   3.893   3.655  10.257
  862TMC3    O112846   4.163   3.988  10.501
  862TMC3    O212847   3.810   3.606  10.180
  863TMC3    C112848   0.131   1.144  10.128
  863TMC3    C212849   0.039   1.154  10.020
  863TMC3    C312850   0.005   1.287   9.994
  863TMC3    C412851   0.186   1.251  10.191
  863TMC3    C512852   0.131   1.380  10.176
  863TMC3    C612853   0.058   1.398  10.061
  863TMC3     C12854   0.130   1.010  10.193
  863TMC3     O12855   0.206   0.996  10.285
  863TMC3     H12856   0.020   1.077   9.946
  863TMC3    H112857   0.258   1.237  10.271
  863TMC3    H212858   0.027   1.501  10.047
  863TMC3    C712859   0.207   1.490  10.219
  863TMC3    C812860   4.657   1.301   9.976
  863TMC3    O112861   0.326   1.464  10.222
  863TMC3    O212862   4.599   1.388  10.031
  864TMC3    C112863   0.432   0.540   7.479
  864TMC3    C212864   0.306   0.516   7.534
  864TMC3    C312865   0.286   0.399   7.603
  864TMC3    C412866   0.520   0.432   7.479
  864TMC3    C512867   0.493   0.310   7.532
  864TMC3    C612868   0.376   0.298   7.602
  864TMC3     C12869   0.487   0.666   7.528
  864TMC3     O12870   0.596   0.660   7.589
  864TMC3     H12871   0.229   0.590   7.550
  864TMC3    H112872   0.623   0.456   7.454
  864TMC3    H212873   0.347   0.199   7.636
  864TMC3    C712874   0.550   0.195   7.476
  864TMC3    C812875   0.152   0.376   7.655
  864TMC3    O112876   0.523   0.085   7.522
  864TMC3    O212877   0.108   0.264   7.642
  865TMC3    C112878   3.986   1.166  12.141
  865TMC3    C212879   4.116   1.130  12.170
  865TMC3    C312880   4.174   1.189  12.276
  865TMC3    C412881   3.924   1.262  12.216
  865TMC3    C512882   3.979   1.307  12.335
  865TMC3    C612883   4.107   1.269  12.368
  865TMC3     C12884   3.915   1.071  12.054
  865TMC3     O12885   3.945   0.951  12.055
  865TMC3     H12886   4.161   1.054  12.108
  865TMC3    H112887   3.816   1.267  12.205
  865TMC3    H212888   4.156   1.316  12.452
  865TMC3    C712889   3.912   1.362  12.448
  865TMC3    C812890   4.288   1.117  12.330
  865TMC3    O112891   3.980   1.425  12.530
  865TMC3    O212892   4.377   1.108  12.245
  866TMC3    C112893   3.870   2.862  14.243
  866TMC3    C212894   3.947   2.928  14.331
  866TMC3    C312895   3.889   3.044  14.369
  866TMC3    C412896   3.757   2.910  14.182
  866TMC3    C512897   3.715   3.035  14.221
  866TMC3    C612898   3.785   3.108  14.318
  866TMC3     C12899   3.900   2.722  14.222
  866TMC3     O12900   3.808   2.639  14.237
  866TMC3     H12901   4.033   2.889  14.383
  866TMC3    H112902   3.698   2.853  14.111
  866TMC3    H212903   3.770   3.213  14.340
  866TMC3    C712904   3.660   3.120  14.116
  866TMC3    C812905   3.915   3.075  14.506
  866TMC3    O112906   3.675   3.241  14.139
  866TMC3    O212907   4.018   3.044  14.565
  867TMC3    C112908   2.944   2.916  11.179
  867TMC3    C212909   2.991   2.813  11.250
  867TMC3    C312910   3.102   2.837  11.340
  867TMC3    C412911   3.008   3.036  11.186
  867TMC3    C512912   3.119   3.051  11.268
  867TMC3    C612913   3.170   2.954  11.348
  867TMC3     C12914   2.865   2.897  11.059
  867TMC3     O12915   2.895   2.977  10.972
  867TMC3     H12916   2.949   2.713  11.249
  867TMC3    H112917   2.971   3.122  11.132
  867TMC3    H212918   3.246   2.972  11.423
  867TMC3    C712919   3.212   3.160  11.261
  867TMC3    C812920   3.111   2.743  11.452
  867TMC3    O112921   3.323   3.138  11.312
  867TMC3    O212922   3.009   2.694  11.499
  868TMC3    C112923   1.375   1.113  12.810
  868TMC3    C212924   1.445   1.205  12.742
  868TMC3    C312925   1.577   1.220  12.778
  868TMC3    C412926   1.434   1.035  12.910
  868TMC3    C512927   1.555   1.068  12.953
  868TMC3    C612928   1.636   1.165  12.894
  868TMC3     C12929   1.233   1.127  12.800
  868TMC3     O12930   1.199   1.155  12.686
  868TMC3     H12931   1.397   1.251  12.655
  868TMC3    H112932   1.363   0.979  12.971
  868TMC3    H212933   1.724   1.216  12.930
  868TMC3    C712934   1.587   1.025  13.090
  868TMC3    C812935   1.656   1.326  12.715
  868TMC3    O112936   1.528   0.929  13.129
  868TMC3    O212937   1.776   1.324  12.739
  869TMC3    C112938   4.446   1.702  11.626
  869TMC3    C212939   4.338   1.727  11.546
  869TMC3    C312940   4.270   1.844  11.566
  869TMC3    C412941   4.494   1.786  11.725
  869TMC3    C512942   4.422   1.899  11.734
  869TMC3    C612943   4.307   1.926  11.668
  869TMC3     C12944   4.508   1.579  11.600
  869TMC3     O12945   4.621   1.575  11.645
  869TMC3     H12946   4.328   1.664  11.458
  869TMC3    H112947   4.590   1.768  11.770
  869TMC3    H212948   4.259   2.019  11.699
  869TMC3    C712949   4.490   2.015  11.793
  869TMC3    C812950   4.133   1.849  11.513
  869TMC3    O112951   4.413   2.089  11.851
  869TMC3    O212952   4.119   1.781  11.412
  870TMC3    C112953   4.203   4.270  13.153
  870TMC3    C212954   4.320   4.215  13.105
  870TMC3    C312955   4.389   4.295  13.017
  870TMC3    C412956   4.166   4.400  13.126
  870TMC3    C512957   4.240   4.470  13.040
  870TMC3    C612958   4.348   4.417  12.972
  870TMC3     C12959   4.099   4.178  13.183
  870TMC3     O12960   4.005   4.210  13.253
  870TMC3     H12961   4.366   4.124  13.143
  870TMC3    H112962   4.072   4.436  13.166
  870TMC3    H212963   4.401   4.488  12.909
  870TMC3    C712964   4.176   4.585  12.975
  870TMC3    C812965   4.454   4.213  12.915
  870TMC3    O112966   4.221   4.625  12.866
  870TMC3    O212967   4.455   4.092  12.935
  871TMC3    C112968   3.493   0.898  14.113
  871TMC3    C212969   3.518   0.798  14.195
  871TMC3    C312970   3.630   0.728  14.173
  871TMC3    C412971   3.569   0.926  14.006
  871TMC3    C512972   3.680   0.851  13.985
  871TMC3    C612973   3.713   0.751  14.067
  871TMC3     C12974   3.362   0.963  14.125
  871TMC3     O12975   3.267   0.886  14.109
  871TMC3     H12976   3.442   0.776  14.270
  871TMC3    H112977   3.529   0.992  13.930
  871TMC3    H212978   3.805   0.695  14.056
  871TMC3    C712979   3.781   0.934  13.913
  871TMC3    C812980   3.688   0.653  14.283
  871TMC3    O112981   3.744   1.046  13.886
  871TMC3    O212982   3.792   0.591  14.259
  872TMC3    C112983   0.495   4.484  12.378
  872TMC3    C212984   0.580   4.496  12.485
  872TMC3    C312985   0.647   4.382  12.531
  872TMC3    C412986   0.486   4.364  12.316
  872TMC3    C512987   0.546   4.252  12.371
  872TMC3    C612988   0.618   4.255  12.489
  872TMC3     C12989   0.461   4.601  12.293
  872TMC3     O12990   0.479   4.586  12.173
  872TMC3     H12991   0.586   4.599  12.520
  872TMC3    H112992   0.426   4.364  12.226
  872TMC3    H212993   0.686   4.174  12.515
  872TMC3    C712994   0.628   4.204  12.265
  872TMC3    C812995   0.795   4.400  12.550
  872TMC3    O112996   0.660   4.278  12.175
  872TMC3    O212997   0.846   4.504  12.502
  873TMC3    C112998   0.266   3.042  11.616
  873TMC3    C212999   0.392   2.985  11.597
  873TMC3    C313000   0.400   2.848  11.578
  873TMC3    C413001   0.156   2.961  11.604
  873TMC3    C513002   0.168   2.831  11.582
  873TMC3    C613003   0.288   2.771  11.567
  873TMC3     C13004   0.235   3.181  11.587
  873TMC3     O13005   0.131   3.225  11.628
  873TMC3     H13006   0.480   3.047  11.612
  873TMC3    H113007   0.061   3.013  11.596
  873TMC3    H213008   0.302   2.669  11.534
  873TMC3    C713009   0.065   2.759  11.514
  873TMC3    C813010   0.517   2.770  11.602
  873TMC3    O113011   0.111   2.666  11.448
  873TMC3    O213012   0.494   2.657  11.648
  874TMC3    C113013   1.711   2.465   6.988
  874TMC3    C213014   1.832   2.397   6.984
  874TMC3    C313015   1.887   2.388   6.860
  874TMC3    C413016   1.637   2.498   6.880
  874TMC3    C513017   1.694   2.484   6.757
  874TMC3    C613018   1.825   2.434   6.748
  874TMC3     C13019   1.649   2.450   7.118
  874TMC3     O13020   1.727   2.445   7.211
  874TMC3     H13021   1.880   2.369   7.077
  874TMC3    H113022   1.546   2.557   6.882
  874TMC3    H213023   1.850   2.409   6.645
  874TMC3    C713024   1.596   2.430   6.669
  874TMC3    C813025   2.014   2.320   6.842
  874TMC3    O113026   1.499   2.383   6.724
  874TMC3    O213027   2.084   2.357   6.750
  875TMC3    C113028   2.420   3.963   9.641
  875TMC3    C213029   2.513   4.025   9.562
  875TMC3    C313030   2.546   3.970   9.441
  875TMC3    C413031   2.370   3.843   9.610
  875TMC3    C513032   2.415   3.788   9.496
  875TMC3    C613033   2.505   3.847   9.406
  875TMC3     C13034   2.308   4.059   9.640
  875TMC3     O13035   2.335   4.178   9.631
  875TMC3     H13036   2.578   4.107   9.591
  875TMC3    H113037   2.301   3.794   9.677
  875TMC3    H213038   2.509   3.797   9.310
  875TMC3    C713039   2.390   3.642   9.473
  875TMC3    C813040   2.552   4.066   9.333
  875TMC3    O113041   2.440   3.597   9.370
  875TMC3    O213042   2.592   4.030   9.222
  876TMC3    C113043   0.980   2.528  13.372
  876TMC3    C213044   0.956   2.632  13.289
  876TMC3    C313045   0.902   2.602  13.165
  876TMC3    C413046   0.948   2.400  13.343
  876TMC3    C513047   0.892   2.376  13.224
  876TMC3    C613048   0.875   2.476  13.128
  876TMC3     C13049   1.097   2.549  13.451
  876TMC3     O13050   1.176   2.629  13.398
  876TMC3     H13051   0.976   2.731  13.330
  876TMC3    H113052   0.982   2.324  13.412
  876TMC3    H213053   0.848   2.450  13.026
  876TMC3    C713054   0.829   2.247  13.203
  876TMC3    C813055   0.962   2.680  13.058
  876TMC3    O113056   0.759   2.220  13.298
  876TMC3    O213057   0.933   2.673  12.939
  877TMC3    C113058   1.965   2.946   6.946
  877TMC3    C213059   1.976   3.072   6.887
  877TMC3    C313060   1.853   3.124   6.852
  877TMC3    C413061   1.846   2.887   6.984
  877TMC3    C513062   1.733   2.947   6.941
  877TMC3    C613063   1.729   3.069   6.877
  877TMC3     C13064   2.088   2.876   6.952
  877TMC3     O13065   2.179   2.935   6.897
  877TMC3     H13066   2.066   3.126   6.860
  877TMC3    H113067   1.845   2.780   7.000
  877TMC3    H213068   1.630   3.106   6.852
  877TMC3    C713069   1.613   2.864   6.959
  877TMC3    C813070   1.863   3.260   6.804
  877TMC3    O113071   1.616   2.791   7.058
  877TMC3    O213072   1.973   3.310   6.790
  878TMC3    C113073   0.521   1.804  11.434
  878TMC3    C213074   0.498   1.865  11.553
  878TMC3    C313075   0.515   1.792  11.664
  878TMC3    C413076   0.562   1.672  11.424
  878TMC3    C513077   0.582   1.604  11.544
  878TMC3    C613078   0.547   1.662  11.662
  878TMC3     C13079   0.452   1.876  11.327
  878TMC3     O13080   0.403   1.980  11.362
  878TMC3     H13081   0.478   1.971  11.566
  878TMC3    H113082   0.585   1.629  11.327
  878TMC3    H213083   0.529   1.602  11.751
  878TMC3    C713084   0.654   1.479  11.554
  878TMC3    C813085   0.502   1.842  11.794
  878TMC3    O113086   0.718   1.454  11.453
  878TMC3    O213087   0.421   1.920  11.819
  879TMC3    C113088   4.682   4.610  12.398
  879TMC3    C213089   4.785   4.524  12.359
  879TMC3    C313090   4.776   4.469  12.233
  879TMC3    C413091   4.584   4.648  12.312
  879TMC3    C513092   4.580   4.591  12.190
  879TMC3    C613093   4.676   4.496  12.150
  879TMC3     C13094   4.672   4.641  12.535
  879TMC3     O13095   4.604   4.738  12.555
  879TMC3     H13096   0.079   4.513  12.423
  879TMC3    H113097   4.515   4.725  12.344
  879TMC3    H213098   4.659   4.453  12.052
  879TMC3    C713099   4.491   4.635  12.089
  879TMC3    C813100   0.072   4.361  12.204
  879TMC3    O113101   4.532   4.625  11.973
  879TMC3    O213102   0.174   4.353  12.269
  880TMC3    C113103   3.342   0.436   8.905
  880TMC3    C213104   3.463   0.499   8.876
  880TMC3    C313105   3.558   0.476   8.965
  880TMC3    C413106   3.325   0.344   9.003
  880TMC3    C513107   3.431   0.318   9.085
  880TMC3    C613108   3.549   0.388   9.068
  880TMC3     C13109   3.240   0.537   8.877
  880TMC3     O13110   3.273   0.649   8.913
  880TMC3     H13111   3.471   0.572   8.797
  880TMC3    H113112   3.228   0.296   9.011
  880TMC3    H213113   3.626   0.386   9.145
  880TMC3    C713114   3.390   0.258   9.213
  880TMC3    C813115   3.649   0.590   8.989
  880TMC3    O113116   3.296   0.180   9.201
  880TMC3    O213117   3.766   0.572   9.018
  881TMC3    C113118   1.537   2.867  10.075
  881TMC3    C213119   1.444   2.787  10.017
  881TMC3    C313120   1.340   2.842   9.953
  881TMC3    C413121   1.519   2.999  10.079
  881TMC3    C513122   1.416   3.057  10.021
  881TMC3    C613123   1.325   2.978   9.956
  881TMC3     C13124   1.678   2.832  10.067
  881TMC3     O13125   1.759   2.925  10.068
  881TMC3     H13126   1.452   2.679  10.006
  881TMC3    H113127   1.586   3.064  10.134
  881TMC3    H213128   1.246   3.026   9.899
  881TMC3    C713129   1.438   3.182   9.950
  881TMC3    C813130   1.346   2.802   9.816
  881TMC3    O113131   1.466   3.175   9.827
  881TMC3    O213132   1.329   2.681   9.791
  882TMC3    C113133   0.794   0.325   7.760
  882TMC3    C213134   0.835   0.425   7.675
  882TMC3    C313135   0.898   0.381   7.562
  882TMC3    C413136   0.812   0.191   7.732
  882TMC3    C513137   0.882   0.153   7.620
  882TMC3    C613138   0.924   0.253   7.533
  882TMC3     C13139   0.747   0.379   7.890
  882TMC3     O13140   0.781   0.493   7.921
  882TMC3     H13141   0.821   0.530   7.694
  882TMC3    H113142   0.822   0.129   7.821
  882TMC3    H213143   0.962   0.221   7.437
  882TMC3    C713144   0.990   0.057   7.656
  882TMC3    C813145   1.004   0.474   7.518
  882TMC3    O113146   0.972   4.752   7.725
  882TMC3    O213147   1.102   0.417   7.467
  883TMC3    C113148   3.454   4.418  13.097
  883TMC3    C213149   3.422   4.529  13.010
  883TMC3    C313150   3.448   4.499  12.876
  883TMC3    C413151   3.495   4.295  13.056
  883TMC3    C513152   3.526   4.278  12.924
  883TMC3    C613153   3.508   4.384  12.832
  883TMC3     C13154   3.394   4.422  13.229
  883TMC3     O13155   3.342   4.324  13.277
  883TMC3     H13156   3.376   4.624  13.034
  883TMC3    H113157   3.508   4.226  13.138
  883TMC3    H213158   3.513   4.367  12.725
  883TMC3    C713159   3.583   4.156  12.877
  883TMC3    C813160   3.370   4.584  12.781
  883TMC3    O113161   3.637   4.161  12.768
  883TMC3    O213162   3.285   4.658  12.823
  884TMC3    C113163   4.751   0.183  12.036
  884TMC3    C213164   4.680   0.202  12.152
  884TMC3    C313165   4.557   0.250  12.136
  884TMC3    C413166   4.710   0.219  11.915
  884TMC3    C513167   4.583   0.266  11.905
  884TMC3    C613168   4.505   0.276  12.013
  884TMC3     C13169   0.052   0.068  12.042
  884TMC3     O13170   0.117   0.059  12.143
  884TMC3     H13171   4.714   0.157  12.244
  884TMC3    H113172   4.777   0.214  11.830
  884TMC3    H213173   4.407   0.322  12.002
  884TMC3    C713174   4.531   0.285  11.773
  884TMC3    C813175   4.457   0.245  12.247
  884TMC3    O113176   4.610   0.276  11.679
  884TMC3    O213177   4.339   0.260  12.214
  885TMC3    C113178   3.627   4.160  11.522
  885TMC3    C213179   3.755   4.188  11.546
  885TMC3    C313180   3.816   4.289  11.461
  885TMC3    C413181   3.554   4.223  11.419
  885TMC3    C513182   3.616   4.319  11.346
  885TMC3    C613183   3.751   4.347  11.362
  885TMC3     C13184   3.600   4.016  11.516
  885TMC3     O13185   3.486   3.973  11.492
  885TMC3     H13186   3.797   4.142  11.635
  885TMC3    H113187   3.448   4.212  11.402
  885TMC3    H213188   3.795   4.422  11.298
  885TMC3    C713189   3.541   4.401  11.251
  885TMC3    C813190   3.944   4.341  11.498
  885TMC3    O113191   3.429   4.432  11.286
  885TMC3    O213192   3.965   4.438  11.434
  886TMC3    C113193   0.178   4.191  11.318
  886TMC3    C213194   0.146   4.241  11.438
  886TMC3    C313195   0.029   4.306  11.457
  886TMC3    C413196   0.090   4.189  11.207
  886TMC3    C513197   4.761   4.250  11.235
  886TMC3    C613198   4.740   4.308  11.355
  886TMC3     C13199   0.295   4.108  11.310
  886TMC3     O13200   0.290   4.006  11.236
  886TMC3     H13201   0.222   4.229  11.514
  886TMC3    H113202   0.126   4.161  11.109
  886TMC3    H213203   4.644   4.358  11.368
  886TMC3    C713204   4.655   4.237  11.140
  886TMC3    C813205   0.018   4.409  11.564
  886TMC3    O113206   4.549   4.294  11.165
  886TMC3    O213207   4.726   4.497  11.544
  887TMC3    C113208   3.230   3.784   9.106
  887TMC3    C213209   3.327   3.780   9.005
  887TMC3    C313210   3.291   3.824   8.880
  887TMC3    C413211   3.108   3.846   9.073
  887TMC3    C513212   3.080   3.888   8.947
  887TMC3    C613213   3.170   3.881   8.848
  887TMC3     C13214   3.252   3.722   9.234
  887TMC3     O13215   3.155   3.712   9.304
  887TMC3     H13216   3.428   3.746   9.022
  887TMC3    H113217   3.029   3.843   9.147
  887TMC3    H213218   3.143   3.921   8.751
  887TMC3    C713219   2.939   3.937   8.922
  887TMC3    C813220   3.402   3.840   8.790
  887TMC3    O113221   2.870   3.977   9.011
  887TMC3    O213222   3.498   3.762   8.792
  888TMC3    C113223   3.350   2.555  13.293
  888TMC3    C213224   3.237   2.508  13.231
  888TMC3    C313225   3.186   2.389  13.265
  888TMC3    C413226   3.415   2.473  13.376
  888TMC3    C513227   3.358   2.348  13.413
  888TMC3    C613228   3.235   2.314  13.364
  888TMC3     C13229   3.365   2.700  13.297
  888TMC3     O13230   3.475   2.733  13.343
  888TMC3     H13231   3.184   2.576  13.165
  888TMC3    H113232   3.504   2.500  13.433
  888TMC3    H213233   3.174   2.230  13.392
  888TMC3    C713234   3.420   2.266  13.513
  888TMC3    C813235   3.044   2.371  13.243
  888TMC3    O113236   3.527   2.304  13.568
  888TMC3    O213237   2.996   2.382  13.128
  889TMC3    C113238   0.564   0.751  13.929
  889TMC3    C213239   0.670   0.828  13.956
  889TMC3    C313240   0.688   0.857  14.084
  889TMC3    C413241   0.480   0.700  14.025
  889TMC3    C513242   0.514   0.725  14.161
  889TMC3    C613243   0.617   0.810  14.190
  889TMC3     C13244   0.569   0.676  13.805
  889TMC3     O13245   0.512   0.568  13.811
  889TMC3     H13246   0.735   0.881  13.888
  889TMC3    H113247   0.398   0.639  13.989
  889TMC3    H213248   0.630   0.844  14.292
  889TMC3    C713249   0.417   0.703  14.258
  889TMC3    C813250   0.822   0.916  14.101
  889TMC3    O113251   0.408   0.782  14.351
  889TMC3    O213252   0.910   0.887  14.016
  890TMC3    C113253   0.239   1.460   7.435
  890TMC3    C213254   0.271   1.593   7.460
  890TMC3    C313255   0.295   1.669   7.350
  890TMC3    C413256   0.236   1.400   7.315
  890TMC3    C513257   0.273   1.484   7.210
  890TMC3    C613258   0.302   1.613   7.228
  890TMC3     C13259   0.285   1.370   7.543
  890TMC3     O13260   0.300   1.419   7.653
  890TMC3     H13261   0.280   1.623   7.563
  890TMC3    H113262   0.209   1.297   7.292
  890TMC3    H213263   0.329   1.668   7.138
  890TMC3    C713264   0.270   1.447   7.069
  890TMC3    C813265   0.387   1.776   7.375
  890TMC3    O113266   0.223   1.534   6.996
  890TMC3    O213267   0.368   1.837   7.479
  891TMC3    C113268   2.117   1.129  11.343
  891TMC3    C213269   2.111   1.261  11.314
  891TMC3    C313270   2.190   1.346  11.392
  891TMC3    C413271   2.201   1.078  11.435
  891TMC3    C513272   2.263   1.169  11.525
  891TMC3    C613273   2.265   1.301  11.497
  891TMC3     C13274   1.999   1.049  11.325
  891TMC3     O13275   1.894   1.107  11.321
  891TMC3     H13276   2.051   1.294  11.230
  891TMC3    H113277   2.195   0.976  11.471
  891TMC3    H213278   2.316   1.375  11.557
  891TMC3    C713279   2.357   1.122  11.624
  891TMC3    C813280   2.196   1.487  11.368
  891TMC3    O113281   2.438   1.205  11.657
  891TMC3    O213282   2.193   1.563  11.466
  892TMC3    C113283   0.286   1.162  11.076
  892TMC3    C213284   0.179   1.247  11.105
  892TMC3    C313285   0.187   1.379  11.068
  892TMC3    C413286   0.388   1.197  10.989
  892TMC3    C513287   0.396   1.334  10.975
  892TMC3    C613288   0.300   1.429  11.020
  892TMC3     C13289   0.266   1.016  11.119
  892TMC3     O13290   0.153   0.972  11.147
  892TMC3     H13291   0.089   1.197  11.138
  892TMC3    H113292   0.474   1.131  10.979
  892TMC3    H213293   0.301   1.536  11.004
  892TMC3    C713294   0.516   1.394  10.914
  892TMC3    C813295   0.067   1.446  11.018
  892TMC3    O113296   0.539   1.506  10.959
  892TMC3    O213297   0.086   1.533  10.935
  893TMC3    C113298   3.519   3.367  10.175
  893TMC3    C213299   3.510   3.256  10.259
  893TMC3    C313300   3.448   3.280  10.381
  893TMC3    C413301   3.457   3.489  10.203
  893TMC3    C513302   3.383   3.499  10.319
  893TMC3    C613303   3.386   3.399  10.409
  893TMC3     C13304   3.573   3.344  10.045
  893TMC3     O13305   3.507   3.274   9.971
  893TMC3     H13306   3.583   3.178  10.240
  893TMC3    H113307   3.469   3.576  10.139
  893TMC3    H213308   3.362   3.407  10.514
  893TMC3    C713309   3.377   3.636  10.363
  893TMC3    C813310   3.486   3.197  10.496
  893TMC3    O113311   3.476   3.704  10.348
  893TMC3    O213312   3.597   3.145  10.493
  894TMC3    C113313   3.019   4.424  14.631
  894TMC3    C213314   3.078   4.299  14.606
  894TMC3    C313315   3.082   4.247  14.480
  894TMC3    C413316   2.954   4.493  14.526
  894TMC3    C513317   2.961   4.429  14.404
  894TMC3    C613318   3.023   4.307  14.379
  894TMC3     C13319   3.004   4.474  14.763
  894TMC3     O13320   2.906   4.548  14.785
  894TMC3     H13321   3.092   4.224  14.682
  894TMC3    H113322   2.897   4.582  14.549
  894TMC3    H213323   3.018   4.259  14.282
  894TMC3    C713324   2.917   4.501  14.282
  894TMC3    C813325   3.083   4.110  14.472
  894TMC3    O113326   2.942   4.455  14.171
  894TMC3    O213327   2.983   4.050  14.424
  895TMC3    C113328   3.236   3.320  13.806
  895TMC3    C213329   3.175   3.229  13.885
  895TMC3    C313330   3.198   3.234  14.022
  895TMC3    C413331   3.326   3.412  13.854
  895TMC3    C513332   3.332   3.418  13.991
  895TMC3    C613333   3.283   3.323  14.077
  895TMC3     C13334   3.193   3.316  13.672
  895TMC3     O13335   3.187   3.202  13.623
  895TMC3     H13336   3.110   3.155  13.839
  895TMC3    H113337   3.380   3.485  13.795
  895TMC3    H213338   3.302   3.323  14.184
  895TMC3    C713339   3.358   3.542  14.057
  895TMC3    C813340   3.123   3.144  14.103
  895TMC3    O113341   3.374   3.532  14.181
  895TMC3    O213342   3.075   3.049  14.046
  896TMC3    C113343   2.085   2.276   8.839
  896TMC3    C213344   2.008   2.208   8.924
  896TMC3    C313345   1.918   2.286   8.991
  896TMC3    C413346   2.076   2.410   8.816
  896TMC3    C513347   1.975   2.483   8.872
  896TMC3    C613348   1.899   2.419   8.964
  896TMC3     C13349   2.123   2.190   8.726
  896TMC3     O13350   2.239   2.201   8.687
  896TMC3     H13351   1.998   2.100   8.929
  896TMC3    H113352   2.139   2.458   8.741
  896TMC3    H213353   1.823   2.469   9.023
  896TMC3    C713354   1.897   2.580   8.791
  896TMC3    C813355   1.837   2.214   9.087
  896TMC3    O113356   1.782   2.587   8.829
  896TMC3    O213357   1.813   2.096   9.069
  897TMC3    C113358   2.698   2.065  14.833
  897TMC3    C213359   2.667   2.185  14.783
  897TMC3    C313360   2.767   2.271  14.766
  897TMC3    C413361   2.819   2.033  14.885
  897TMC3    C513362   2.915   2.130  14.890
  897TMC3    C613363   2.887   2.243  14.820
  897TMC3     C13364   2.596   1.990  14.894
  897TMC3     O13365   2.604   1.963  15.015
  897TMC3     H13366   2.570   2.201  14.737
  897TMC3    H113367   2.819   1.940  14.941
  897TMC3    H213368   2.949   2.330  14.840
  897TMC3    C713369   3.045   2.080  14.847
  897TMC3    C813370   2.752   2.345  14.646
  897TMC3    O113371   3.104   2.158  14.769
  897TMC3    O213372   2.647   2.369  14.593
  898TMC3    C113373   2.816   0.170   9.741
  898TMC3    C213374   2.951   0.191   9.755
  898TMC3    C313375   3.024   0.101   9.833
  898TMC3    C413376   2.768   0.052   9.794
  898TMC3    C513377   2.839   4.767   9.881
  898TMC3    C613378   2.969   4.790   9.899
  898TMC3     C13379   2.728   0.286   9.761
  898TMC3     O13380   2.619   0.257   9.811
  898TMC3     H13381   2.995   0.290   9.750
  898TMC3    H113382   2.660   0.045   9.796
  898TMC3    H213383   3.030   4.732   9.967
  898TMC3    C713384   2.768   4.747  10.013
  898TMC3    C813385   3.166   0.102   9.819
  898TMC3    O113386   2.804   4.668  10.094
  898TMC3    O213387   3.237   0.072   9.915
  899TMC3    C113388   0.867   2.882   8.441
  899TMC3    C213389   0.756   2.821   8.381
  899TMC3    C313390   0.731   2.692   8.404
  899TMC3    C413391   0.956   2.809   8.509
  899TMC3    C513392   0.921   2.682   8.536
  899TMC3    C613393   0.824   2.611   8.472
  899TMC3     C13394   0.919   2.999   8.380
  899TMC3     O13395   0.886   3.100   8.443
  899TMC3     H13396   0.695   2.888   8.322
  899TMC3    H113397   1.038   2.864   8.553
  899TMC3    H213398   0.815   2.505   8.491
  899TMC3    C713399   0.918   2.670   8.678
  899TMC3    C813400   0.596   2.667   8.437
  899TMC3    O113401   0.988   2.742   8.748
  899TMC3    O213402   0.530   2.765   8.465
  900TMC3    C113403   3.460   1.454  12.047
  900TMC3    C213404   3.497   1.571  11.998
  900TMC3    C313405   3.508   1.579  11.861
  900TMC3    C413406   3.429   1.346  11.969
  900TMC3    C513407   3.432   1.363  11.832
  900TMC3    C613408   3.465   1.482  11.782
  900TMC3     C13409   3.434   1.442  12.193
  900TMC3     O13410   3.498   1.345  12.233
  900TMC3     H13411   3.520   1.651  12.067
  900TMC3    H113412   3.393   1.254  12.013
  900TMC3    H213413   3.437   1.501  11.679
  900TMC3    C713414   3.355   1.280  11.742
  900TMC3    C813415   3.491   1.710  11.807
  900TMC3    O113416   3.280   1.335  11.661
  900TMC3    O213417   3.399   1.725  11.732
  901TMC3    C113418   0.328   1.067  11.501
  901TMC3    C213419   0.200   1.061  11.457
  901TMC3    C313420   0.113   0.992  11.533
  901TMC3    C413421   0.374   0.993  11.610
  901TMC3    C513422   0.287   0.912  11.684
  901TMC3    C613423   0.154   0.919  11.644
  901TMC3     C13424   0.436   1.150  11.430
  901TMC3     O13425   0.532   1.085  11.395
  901TMC3     H13426   0.166   1.126  11.377
  901TMC3    H113427   0.476   1.002  11.644
  901TMC3    H213428   0.087   0.870  11.713
  901TMC3    C713429   0.308   0.905  11.824
  901TMC3    C813430   4.761   1.005  11.532
  901TMC3    O113431   0.218   0.949  11.894
  901TMC3    O213432   4.697   0.919  11.594
  902TMC3    C113433   3.719   0.114  13.978
  902TMC3    C213434   3.670   0.184  14.085
  902TMC3    C313435   3.541   0.223  14.078
  902TMC3    C413436   3.647   0.099  13.862
  902TMC3    C513437   3.515   0.138  13.870
  902TMC3    C613438   3.461   0.208  13.970
  902TMC3     C13439   3.850   0.063  13.988
  902TMC3     O13440   3.893   0.057  14.103
  902TMC3     H13441   3.736   0.214  14.166
  902TMC3    H113442   3.675   0.017  13.796
  902TMC3    H213443   3.354   0.226  13.967
  902TMC3    C713444   3.424   0.047  13.810
  902TMC3    C813445   3.478   0.276  14.194
  902TMC3    O113446   3.344   4.792  13.890
  902TMC3    O213447   3.527   0.250  14.302
  903TMC3    C113448   1.590   2.301  12.282
  903TMC3    C213449   1.512   2.301  12.171
  903TMC3    C313450   1.375   2.283  12.177
  903TMC3    C413451   1.528   2.306  12.397
  903TMC3    C513452   1.392   2.279  12.408
  903TMC3    C613453   1.313   2.268  12.295
  903TMC3     C13454   1.721   2.240  12.281
  903TMC3     O13455   1.784   2.244  12.387
  903TMC3     H13456   1.557   2.311  12.073
  903TMC3    H113457   1.592   2.297  12.485
  903TMC3    H213458   1.213   2.228  12.306
  903TMC3    C713459   1.362   2.187  12.516
  903TMC3    C813460   1.308   2.268  12.048
  903TMC3    O113461   1.414   2.227  12.619
  903TMC3    O213462   1.379   2.274  11.947
  904TMC3    C113463   2.854   3.244  12.130
  904TMC3    C213464   2.990   3.252  12.157
  904TMC3    C313465   3.068   3.137  12.137
  904TMC3    C413466   2.789   3.129  12.098
  904TMC3    C513467   2.865   3.013  12.091
  904TMC3    C613468   3.005   3.017  12.105
  904TMC3     C13469   2.765   3.356  12.159
  904TMC3     O13470   2.655   3.325  12.201
  904TMC3     H13471   3.026   3.349  12.191
  904TMC3    H113472   2.683   3.129  12.076
  904TMC3    H213473   3.065   2.928  12.094
  904TMC3    C713474   2.800   2.887  12.064
  904TMC3    C813475   3.202   3.126  12.193
  904TMC3    O113476   2.691   2.878  12.007
  904TMC3    O213477   3.282   3.048  12.146
  905TMC3    C113478   2.196   0.626   7.643
  905TMC3    C213479   2.080   0.606   7.712
  905TMC3    C313480   1.999   0.498   7.685
  905TMC3    C413481   2.245   0.527   7.565
  905TMC3    C513482   2.170   0.414   7.548
  905TMC3    C613483   2.052   0.398   7.614
  905TMC3     C13484   2.310   0.709   7.690
  905TMC3     O13485   2.429   0.691   7.667
  905TMC3     H13486   2.040   0.680   7.781
  905TMC3    H113487   2.347   0.523   7.526
  905TMC3    H213488   1.989   0.315   7.585
  905TMC3    C713489   2.216   0.314   7.464
  905TMC3    C813490   1.918   0.463   7.797
  905TMC3    O113491   2.339   0.289   7.468
  905TMC3    O213492   1.962   0.479   7.913
  906TMC3    C113493   2.798   3.073  10.536
  906TMC3    C213494   2.664   3.073  10.494
  906TMC3    C313495   2.583   3.177  10.513
  906TMC3    C413496   2.852   3.179  10.611
  906TMC3    C513497   2.761   3.279  10.625
  906TMC3    C613498   2.628   3.275  10.588
  906TMC3     C13499   2.862   2.942  10.524
  906TMC3     O13500   2.789   2.844  10.507
  906TMC3     H13501   2.628   2.994  10.429
  906TMC3    H113502   2.946   3.179  10.664
  906TMC3    H213503   2.578   3.365  10.619
  906TMC3    C713504   2.793   3.385  10.719
  906TMC3    C813505   2.575   3.237  10.382
  906TMC3    O113506   2.707   3.391  10.810
  906TMC3    O213507   2.656   3.202  10.298
  907TMC3    C113508   3.248   0.597  11.338
  907TMC3    C213509   3.315   0.681  11.248
  907TMC3    C313510   3.424   0.642  11.183
  907TMC3    C413511   3.302   0.470  11.343
  907TMC3    C513512   3.410   0.433  11.267
  907TMC3    C613513   3.470   0.511  11.173
  907TMC3     C13514   3.101   0.604  11.331
  907TMC3     O13515   3.059   0.695  11.265
  907TMC3     H13516   3.297   0.787  11.259
  907TMC3    H113517   3.264   0.395  11.412
  907TMC3    H213518   3.561   0.481  11.121
  907TMC3    C713519   3.454   0.299  11.248
  907TMC3    C813520   3.524   0.741  11.162
  907TMC3    O113521   3.471   0.254  11.361
  907TMC3    O213522   3.632   0.720  11.220
  908TMC3    C113523   3.119   3.387   9.803
  908TMC3    C213524   3.187   3.324   9.907
  908TMC3    C313525   3.120   3.286  10.018
  908TMC3    C413526   2.982   3.394   9.800
  908TMC3    C513527   2.923   3.319   9.894
  908TMC3    C613528   2.985   3.276  10.008
  908TMC3     C13529   3.193   3.469   9.704
  908TMC3     O13530   3.113   3.548   9.653
  908TMC3     H13531   3.293   3.339   9.925
  908TMC3    H113532   2.913   3.434   9.727
  908TMC3    H213533   2.921   3.244  10.090
  908TMC3    C713534   2.776   3.313   9.895
  908TMC3    C813535   3.177   3.201  10.116
  908TMC3    O113536   2.711   3.410   9.861
  908TMC3    O213537   3.111   3.202  10.220
  909TMC3    C113538   1.915   0.436  12.911
  909TMC3    C213539   2.035   0.378  12.870
  909TMC3    C313540   2.074   0.261  12.920
  909TMC3    C413541   1.831   0.380  12.997
  909TMC3    C513542   1.879   0.258  13.051
  909TMC3    C613543   1.990   0.198  13.011
  909TMC3     C13544   1.867   0.551  12.836
  909TMC3     O13545   1.747   0.563  12.816
  909TMC3     H13546   2.106   0.437  12.815
  909TMC3    H113547   1.742   0.429  13.035
  909TMC3    H213548   2.017   0.104  13.058
  909TMC3    C713549   1.791   0.176  13.131
  909TMC3    C813550   2.202   0.219  12.888
  909TMC3    O113551   1.750   0.072  13.086
  909TMC3    O213552   2.281   0.298  12.834
  910TMC3    C113553   2.338   4.685  11.496
  910TMC3    C213554   2.320   4.615  11.379
  910TMC3    C313555   2.247   4.672  11.281
  910TMC3    C413556   2.294   0.016  11.518
  910TMC3    C513557   2.210   0.065  11.422
  910TMC3    C613558   2.182   4.789  11.308
  910TMC3     C13559   2.439   4.631  11.594
  910TMC3     O13560   2.512   4.709  11.643
  910TMC3     H13561   2.372   4.522  11.361
  910TMC3    H113562   2.289   0.061  11.617
  910TMC3    H213563   2.121   0.047  11.233
  910TMC3    C713564   2.101   0.147  11.477
  910TMC3    C813565   2.181   4.586  11.185
  910TMC3    O113566   2.115   0.192  11.591
  910TMC3    O213567   2.134   4.642  11.089
  911TMC3    C113568   2.008   2.542   7.587
  911TMC3    C213569   2.024   2.528   7.722
  911TMC3    C313570   2.151   2.521   7.778
  911TMC3    C413571   2.114   2.537   7.503
  911TMC3    C513572   2.239   2.527   7.563
  911TMC3    C613573   2.262   2.524   7.695
  911TMC3     C13574   1.876   2.491   7.550
  911TMC3     O13575   1.776   2.539   7.599
  911TMC3     H13576   1.928   2.522   7.773
  911TMC3    H113577   2.104   2.542   7.395
  911TMC3    H213578   2.359   2.538   7.742
  911TMC3    C713579   2.353   2.554   7.484
  911TMC3    C813580   2.170   2.498   7.917
  911TMC3    O113581   2.346   2.649   7.403
  911TMC3    O213582   2.277   2.471   7.961
  912TMC3    C113583   4.692   4.233   9.372
  912TMC3    C213584   0.023   4.218   9.423
  912TMC3    C313585   0.036   4.194   9.560
  912TMC3    C413586   4.579   4.207   9.438
  912TMC3    C513587   4.592   4.177   9.571
  912TMC3    C613588   4.712   4.165   9.629
  912TMC3     C13589   4.680   4.351   9.289
  912TMC3     O13590   4.767   4.435   9.312
  912TMC3     H13591   0.109   4.227   9.358
  912TMC3    H113592   4.484   4.231   9.392
  912TMC3    H213593   4.719   4.127   9.730
  912TMC3    C713594   4.485   4.113   9.645
  912TMC3    C813595   0.151   4.259   9.643
  912TMC3    O113596   4.501   4.096   9.764
  912TMC3    O213597   0.107   4.274   9.756
  913TMC3    C113598   3.929   2.856  12.650
  913TMC3    C213599   4.044   2.779  12.655
  913TMC3    C313600   4.163   2.844  12.655
  913TMC3    C413601   3.929   2.990  12.667
  913TMC3    C513602   4.052   3.052  12.676
  913TMC3    C613603   4.169   2.984  12.662
  913TMC3     C13604   3.817   2.782  12.610
  913TMC3     O13605   3.856   2.684  12.543
  913TMC3     H13606   4.044   2.671  12.650
  913TMC3    H113607   3.836   3.045  12.660
  913TMC3    H213608   4.266   3.030  12.672
  913TMC3    C713609   4.060   3.192  12.657
  913TMC3    C813610   4.249   2.782  12.551
  913TMC3    O113611   3.969   3.255  12.705
  913TMC3    O213612   4.371   2.787  12.560
  914TMC3    C113613   0.413   1.631  13.906
  914TMC3    C213614   0.419   1.515  13.831
  914TMC3    C313615   0.319   1.420  13.836
  914TMC3    C413616   0.307   1.651  13.985
  914TMC3    C513617   0.201   1.562  13.981
  914TMC3    C613618   0.208   1.443  13.909
  914TMC3     C13619   0.536   1.700  13.928
  914TMC3     O13620   0.638   1.634  13.924
  914TMC3     H13621   0.509   1.490  13.777
  914TMC3    H113622   0.300   1.744  14.042
  914TMC3    H213623   0.125   1.373  13.903
  914TMC3    C713624   0.090   1.598  14.059
  914TMC3    C813625   0.282   1.366  13.707
  914TMC3    O113626   0.057   1.718  14.072
  914TMC3    O213627   0.184   1.289  13.707
  915TMC3    C113628   1.892   1.612  10.627
  915TMC3    C213629   1.887   1.654  10.497
  915TMC3    C313630   1.767   1.644  10.432
  915TMC3    C413631   1.778   1.569  10.696
  915TMC3    C513632   1.661   1.550  10.623
  915TMC3    C613633   1.651   1.587  10.491
  915TMC3     C13634   2.013   1.553  10.677
  915TMC3     O13635   2.121   1.592  10.637
  915TMC3     H13636   1.982   1.654  10.445
  915TMC3    H113637   1.783   1.535  10.799
  915TMC3    H213638   1.567   1.559  10.428
  915TMC3    C713639   1.585   1.435  10.666
  915TMC3    C813640   1.775   1.630  10.281
  915TMC3    O113641   1.643   1.347  10.731
  915TMC3    O213642   1.689   1.560  10.233
  916TMC3    C113643   2.435   2.776  13.946
  916TMC3    C213644   2.501   2.718  13.835
  916TMC3    C313645   2.617   2.648  13.856
  916TMC3    C413646   2.475   2.746  14.071
  916TMC3    C513647   2.594   2.682  14.086
  916TMC3    C613648   2.672   2.639  13.979
  916TMC3     C13649   2.311   2.854  13.915
  916TMC3     O13650   2.264   2.841  13.804
  916TMC3     H13651   2.467   2.744  13.736
  916TMC3    H113652   2.410   2.767  14.155
  916TMC3    H213653   2.760   2.576  13.991
  916TMC3    C713654   2.648   2.664  14.215
  916TMC3    C813655   2.697   2.603  13.740
  916TMC3    O113656   2.581   2.650  14.316
  916TMC3    O213657   2.818   2.605  13.758
  917TMC3    C113658   2.746   3.683  11.717
  917TMC3    C213659   2.810   3.677  11.836
  917TMC3    C313660   2.938   3.720  11.842
  917TMC3    C413661   2.793   3.750  11.608
  917TMC3    C513662   2.923   3.804  11.619
  917TMC3    C613663   2.992   3.788  11.733
  917TMC3     C13664   2.683   3.560  11.680
  917TMC3     O13665   2.623   3.553  11.573
  917TMC3     H13666   2.758   3.632  11.920
  917TMC3    H113667   2.724   3.754  11.525
  917TMC3    H213668   3.097   3.765  11.719
  917TMC3    C713669   2.994   3.800  11.487
  917TMC3    C813670   3.026   3.610  11.889
  917TMC3    O113671   3.116   3.804  11.492
  917TMC3    O213672   2.976   3.499  11.910
  918TMC3    C113673   4.145   0.386  10.016
  918TMC3    C213674   4.258   0.437  10.062
  918TMC3    C313675   4.314   0.541   9.990
  918TMC3    C413676   4.075   0.439   9.913
  918TMC3    C513677   4.127   0.545   9.847
  918TMC3    C613678   4.244   0.598   9.887
  918TMC3     C13679   4.109   0.259  10.065
  918TMC3     O13680   4.196   0.188  10.111
  918TMC3     H13681   4.313   0.387  10.141
  918TMC3    H113682   3.996   0.385   9.863
  918TMC3    H213683   4.291   0.675   9.827
  918TMC3    C713684   4.084   0.570   9.710
  918TMC3    C813685   4.443   0.605  10.031
  918TMC3    O113686   4.167   0.605   9.627
  918TMC3    O213687   4.505   0.655   9.939
  919TMC3    C113688   1.223   2.892  15.184
  919TMC3    C213689   1.293   2.918  15.071
  919TMC3    C313690   1.415   2.852  15.055
  919TMC3    C413691   1.268   2.791  15.275
  919TMC3    C513692   1.394   2.735  15.262
  919TMC3    C613693   1.468   2.774  15.153
  919TMC3     C13694   1.082   2.940  15.191
  919TMC3     O13695   1.030   2.911  15.301
  919TMC3     H13696   1.252   2.973  14.988
  919TMC3    H113697   1.206   2.751  15.354
  919TMC3    H213698   1.557   2.713  15.138
  919TMC3    C713699   1.394   2.591  15.276
  919TMC3    C813700   1.436   2.802  14.917
  919TMC3    O113701   1.503   2.539  15.293
  919TMC3    O213702   1.335   2.805  14.845
  920TMC3    C113703   1.145   1.927   6.474
  920TMC3    C213704   1.056   1.834   6.416
  920TMC3    C313705   0.989   1.740   6.496
  920TMC3    C413706   1.156   1.940   6.611
  920TMC3    C513707   1.089   1.843   6.685
  920TMC3    C613708   1.022   1.740   6.630
  920TMC3     C13709   1.228   2.005   6.377
  920TMC3     O13710   1.202   2.004   6.253
  920TMC3     H13711   1.044   1.843   6.309
  920TMC3    H113712   1.201   2.022   6.665
  920TMC3    H213713   0.982   1.659   6.688
  920TMC3    C713714   1.112   1.837   6.827
  920TMC3    C813715   0.980   1.602   6.450
  920TMC3    O113716   1.201   1.915   6.868
  920TMC3    O213717   1.008   1.518   6.536
  921TMC3    C113718   1.167   1.160   9.124
  921TMC3    C213719   1.100   1.266   9.073
  921TMC3    C313720   1.079   1.273   8.940
  921TMC3    C413721   1.205   1.061   9.041
  921TMC3    C513722   1.178   1.066   8.906
  921TMC3    C613723   1.113   1.172   8.856
  921TMC3     C13724   1.105   1.106   9.242
  921TMC3     O13725   0.982   1.106   9.239
  921TMC3     H13726   1.066   1.348   9.136
  921TMC3    H113727   1.251   0.972   9.080
  921TMC3    H213728   1.085   1.167   8.751
  921TMC3    C713729   1.129   0.935   8.872
  921TMC3    C813730   1.043   1.394   8.876
  921TMC3    O113731   1.009   0.926   8.847
  921TMC3    O213732   0.953   1.385   8.794
  922TMC3    C113733   4.488   1.856  10.967
  922TMC3    C213734   4.566   1.868  10.854
  922TMC3    C313735   4.699   1.847  10.862
  922TMC3    C413736   4.548   1.823  11.081
  922TMC3    C513737   4.685   1.811  11.088
  922TMC3    C613738   4.765   1.820  10.979
  922TMC3     C13739   4.348   1.899  10.964
  922TMC3     O13740   4.301   1.940  11.072
  922TMC3     H13741   4.535   1.911  10.760
  922TMC3    H113742   4.481   1.798  11.162
  922TMC3    H213743   0.080   1.806  10.977
  922TMC3    C713744   4.756   1.827  11.212
  922TMC3    C813745   4.780   1.848  10.743
  922TMC3    O113746   0.079   1.797  11.200
  922TMC3    O213747   4.751   1.918  10.651
  923TMC3    C113748   2.296   0.818   9.062
  923TMC3    C213749   2.188   0.844   9.138
  923TMC3    C313750   2.187   0.967   9.206
  923TMC3    C413751   2.401   0.902   9.043
  923TMC3    C513752   2.402   1.015   9.124
  923TMC3    C613753   2.290   1.065   9.191
  923TMC3     C13754   2.324   0.687   9.110
  923TMC3     O13755   2.233   0.602   9.112
  923TMC3     H13756   2.104   0.776   9.146
  923TMC3    H113757   2.492   0.870   8.993
  923TMC3    H213758   2.293   1.153   9.255
  923TMC3    C713759   2.516   1.002   9.220
  923TMC3    C813760   2.121   0.981   9.337
  923TMC3    O113761   2.618   0.945   9.185
  923TMC3    O213762   2.167   1.059   9.418
  924TMC3    C113763   3.010   4.258   6.419
  924TMC3    C213764   3.021   4.393   6.424
  924TMC3    C313765   3.036   4.457   6.547
  924TMC3    C413766   3.014   4.181   6.534
  924TMC3    C513767   3.045   4.248   6.647
  924TMC3    C613768   3.047   4.383   6.660
  924TMC3     C13769   3.013   4.197   6.289
  924TMC3     O13770   2.998   4.272   6.196
  924TMC3     H13771   3.001   4.452   6.335
  924TMC3    H113772   3.026   4.073   6.537
  924TMC3    H213773   3.043   4.426   6.760
  924TMC3    C713774   3.155   4.200   6.727
  924TMC3    C813775   3.101   4.592   6.530
  924TMC3    O113776   3.236   4.290   6.756
  924TMC3    O213777   3.107   4.642   6.417
  925TMC3    C113778   0.118   2.400   9.532
  925TMC3    C213779   0.101   2.437   9.399
  925TMC3    C313780   0.021   2.354   9.321
  925TMC3    C413781   0.072   2.285   9.583
  925TMC3    C513782   4.789   2.206   9.504
  925TMC3    C613783   4.759   2.242   9.377
  925TMC3     C13784   0.212   2.475   9.611
  925TMC3     O13785   0.278   2.572   9.570
  925TMC3     H13786   0.159   2.520   9.361
  925TMC3    H113787   0.116   2.245   9.673
  925TMC3    H213788   4.718   2.161   9.318
  925TMC3    C713789   4.781   2.062   9.531
  925TMC3    C813790   0.055   2.338   9.183
  925TMC3    O113791   4.792   1.991   9.433
  925TMC3    O213792   0.056   2.222   9.151
  926TMC3    C113793   2.896   3.775   7.145
  926TMC3    C213794   2.946   3.861   7.236
  926TMC3    C313795   2.951   3.990   7.198
  926TMC3    C413796   2.853   3.807   7.018
  926TMC3    C513797   2.868   3.938   6.982
  926TMC3    C613798   2.913   4.030   7.071
  926TMC3     C13799   2.832   3.660   7.208
  926TMC3     O13800   2.886   3.622   7.309
  926TMC3     H13801   2.974   3.828   7.336
  926TMC3    H113802   2.804   3.741   6.947
  926TMC3    H213803   2.913   4.134   7.041
  926TMC3    C713804   2.854   3.974   6.838
  926TMC3    C813805   2.940   4.095   7.291
  926TMC3    O113806   2.857   4.093   6.812
  926TMC3    O213807   2.948   4.209   7.242
  927TMC3    C113808   2.208   1.868  11.694
  927TMC3    C213809   2.323   1.923  11.639
  927TMC3    C313810   2.328   1.958  11.507
  927TMC3    C413811   2.090   1.875  11.618
  927TMC3    C513812   2.095   1.935  11.492
  927TMC3    C613813   2.215   1.971  11.433
  927TMC3     C13814   2.203   1.899  11.839
  927TMC3     O13815   2.293   1.865  11.915
  927TMC3     H13816   2.406   1.944  11.706
  927TMC3    H113817   1.995   1.856  11.665
  927TMC3    H213818   2.209   1.997  11.328
  927TMC3    C713819   1.985   2.017  11.449
  927TMC3    C813820   2.444   2.030  11.449
  927TMC3    O113821   1.880   1.966  11.414
  927TMC3    O213822   2.534   2.059  11.524
  928TMC3    C113823   4.522   3.445  12.826
  928TMC3    C213824   4.558   3.408  12.951
  928TMC3    C313825   4.467   3.415  13.053
  928TMC3    C413826   4.395   3.493  12.802
  928TMC3    C513827   4.299   3.496  12.905
  928TMC3    C613828   4.336   3.459  13.030
  928TMC3     C13829   4.629   3.449  12.734
  928TMC3     O13830   4.729   3.498  12.789
  928TMC3     H13831   4.661   3.395  12.980
  928TMC3    H113832   4.370   3.524  12.701
  928TMC3    H213833   4.266   3.460  13.113
  928TMC3    C713834   4.209   3.607  12.894
  928TMC3    C813835   4.526   3.454  13.180
  928TMC3    O113836   4.258   3.707  12.846
  928TMC3    O213837   4.633   3.396  13.205
  929TMC3    C113838   4.658   1.722   8.795
  929TMC3    C213839   4.764   1.788   8.846
  929TMC3    C313840   0.024   1.892   8.772
  929TMC3    C413841   4.598   1.761   8.677
  929TMC3    C513842   4.647   1.877   8.623
  929TMC3    C613843   4.767   1.933   8.659
  929TMC3     C13844   4.569   1.647   8.886
  929TMC3     O13845   4.485   1.571   8.848
  929TMC3     H13846   0.022   1.749   8.934
  929TMC3    H113847   4.521   1.700   8.631
  929TMC3    H213848   0.001   2.026   8.611
  929TMC3    C713849   4.556   1.964   8.547
  929TMC3    C813850   0.144   1.963   8.813
  929TMC3    O113851   4.613   2.033   8.458
  929TMC3    O213852   0.168   2.064   8.749
  930TMC3    C113853   0.653   0.353   9.417
  930TMC3    C213854   0.701   0.329   9.288
  930TMC3    C313855   0.799   0.416   9.245
  930TMC3    C413856   0.712   0.434   9.510
  930TMC3    C513857   0.816   0.504   9.459
  930TMC3    C613858   0.855   0.502   9.328
  930TMC3     C13859   0.546   0.271   9.473
  930TMC3     O13860   0.459   0.317   9.546
  930TMC3     H13861   0.649   0.266   9.217
  930TMC3    H113862   0.683   0.440   9.614
  930TMC3    H213863   0.949   0.551   9.306
  930TMC3    C713864   0.888   0.589   9.556
  930TMC3    C813865   0.879   0.376   9.133
  930TMC3    O113866   0.907   0.546   9.674
  930TMC3    O213867   0.917   0.258   9.115
  931TMC3    C113868   2.644   2.566   9.277
  931TMC3    C213869   2.607   2.469   9.191
  931TMC3    C313870   2.619   2.338   9.221
  931TMC3    C413871   2.664   2.534   9.411
  931TMC3    C513872   2.671   2.400   9.444
  931TMC3    C613873   2.654   2.299   9.350
  931TMC3     C13874   2.725   2.658   9.204
  931TMC3     O13875   2.759   2.621   9.091
  931TMC3     H13876   2.563   2.488   9.094
  931TMC3    H113877   2.712   2.600   9.481
  931TMC3    H213878   2.661   2.192   9.371
  931TMC3    C713879   2.637   2.380   9.586
  931TMC3    C813880   2.690   2.268   9.115
  931TMC3    O113881   2.549   2.463   9.608
  931TMC3    O213882   2.683   2.147   9.108
  932TMC3    C113883   3.193   2.308   9.229
  932TMC3    C213884   3.211   2.422   9.166
  932TMC3    C313885   3.209   2.417   9.029
  932TMC3    C413886   3.177   2.191   9.160
  932TMC3    C513887   3.167   2.190   9.021
  932TMC3    C613888   3.186   2.305   8.951
  932TMC3     C13889   3.097   2.318   9.331
  932TMC3     O13890   3.012   2.403   9.321
  932TMC3     H13891   3.228   2.514   9.220
  932TMC3    H113892   3.141   2.103   9.210
  932TMC3    H213893   3.170   2.311   8.844
  932TMC3    C713894   3.139   2.064   8.958
  932TMC3    C813895   3.252   2.534   8.958
  932TMC3    O113896   3.058   1.999   9.011
  932TMC3    O213897   3.206   2.643   8.996
  933TMC3    C113898   3.523   1.187  10.521
  933TMC3    C213899   3.517   1.123  10.403
  933TMC3    C313900   3.484   1.187  10.285
  933TMC3    C413901   3.505   1.317  10.526
  933TMC3    C513902   3.474   1.388  10.411
  933TMC3    C613903   3.461   1.321  10.287
  933TMC3     C13904   3.529   1.105  10.647
  933TMC3     O13905   3.498   0.985  10.640
  933TMC3     H13906   3.517   1.015  10.398
  933TMC3    H113907   3.496   1.366  10.622
  933TMC3    H213908   3.448   1.369  10.191
  933TMC3    C713909   3.507   1.529  10.393
  933TMC3    C813910   3.474   1.118  10.151
  933TMC3    O113911   3.484   1.583  10.287
  933TMC3    O213912   3.400   1.183  10.072
  934TMC3    C113913   3.839   2.529  10.978
  934TMC3    C213914   3.856   2.552  11.110
  934TMC3    C313915   3.981   2.587  11.147
  934TMC3    C413916   3.947   2.517  10.898
  934TMC3    C513917   4.073   2.549  10.941
  934TMC3    C613918   4.088   2.587  11.072
  934TMC3     C13919   3.705   2.532  10.924
  934TMC3     O13920   3.703   2.589  10.816
  934TMC3     H13921   3.790   2.551  11.196
  934TMC3    H113922   3.930   2.502  10.792
  934TMC3    H213923   4.184   2.625  11.106
  934TMC3    C713924   4.186   2.459  10.904
  934TMC3    C813925   4.005   2.568  11.280
  934TMC3    O113926   4.264   2.420  10.991
  934TMC3    O213927   3.924   2.610  11.362
  935TMC3    C113928   3.304   1.916  10.702
  935TMC3    C213929   3.221   1.825  10.644
  935TMC3    C313930   3.227   1.691  10.688
  935TMC3    C413931   3.409   1.874  10.781
  935TMC3    C513932   3.411   1.745  10.829
  935TMC3    C613933   3.313   1.655  10.787
  935TMC3     C13934   3.315   2.050  10.643
  935TMC3     O13935   3.412   2.121  10.675
  935TMC3     H13936   3.156   1.843  10.559
  935TMC3    H113937   3.484   1.948  10.807
  935TMC3    H213938   3.322   1.551  10.817
  935TMC3    C713939   3.542   1.694  10.879
  935TMC3    C813940   3.139   1.591  10.644
  935TMC3    O113941   3.573   1.580  10.854
  935TMC3    O213942   3.020   1.628  10.635
  936TMC3    C113943   3.380   4.741  11.757
  936TMC3    C213944   3.293   0.032  11.696
  936TMC3    C313945   3.305   0.056  11.560
  936TMC3    C413946   3.485   4.690  11.688
  936TMC3    C513947   3.501   4.715  11.556
  936TMC3    C613948   3.407   0.003  11.491
  936TMC3     C13949   3.334   4.681  11.880
  936TMC3     O13950   3.223   4.725  11.917
  936TMC3     H13951   3.208   0.076  11.749
  936TMC3    H113952   3.561   4.626  11.731
  936TMC3    H213953   3.422   0.017  11.384
  936TMC3    C713954   3.642   4.720  11.505
  936TMC3    C813955   3.213   0.151  11.512
  936TMC3    O113956   3.722   4.639  11.548
  936TMC3    O213957   3.214   0.251  11.581
  937TMC3    C113958   4.560   0.959  14.688
  937TMC3    C213959   4.595   0.835  14.650
  937TMC3    C313960   4.610   0.819  14.510
  937TMC3    C413961   4.516   1.056  14.609
  937TMC3    C513962   4.520   1.035  14.474
  937TMC3    C613963   4.557   0.910  14.421
  937TMC3     C13964   4.617   0.993  14.817
  937TMC3     O13965   4.655   0.903  14.889
  937TMC3     H13966   4.641   0.761  14.714
  937TMC3    H113967   4.480   1.146  14.657
  937TMC3    H213968   4.566   0.899  14.314
  937TMC3    C713969   4.550   1.145  14.385
  937TMC3    C813970   4.728   0.756  14.453
  937TMC3    O113971   4.555   1.119  14.265
  937TMC3    O213972   4.776   0.810  14.355
  938TMC3    C113973   3.881   4.376  10.062
  938TMC3    C213974   3.982   4.357   9.976
  938TMC3    C313975   3.975   4.253   9.884
  938TMC3    C413976   3.769   4.296  10.063
  938TMC3    C513977   3.758   4.212   9.952
  938TMC3    C613978   3.858   4.179   9.867
  938TMC3     C13979   3.917   4.431  10.189
  938TMC3     O13980   3.927   4.335  10.266
  938TMC3     H13981   4.067   4.423   9.993
  938TMC3    H113982   3.689   4.316  10.133
  938TMC3    H213983   3.848   4.093   9.801
  938TMC3    C713984   3.635   4.134   9.946
  938TMC3    C813985   4.073   4.258   9.776
  938TMC3    O113986   3.646   4.011   9.960
  938TMC3    O213987   4.031   4.195   9.683
  939TMC3    C113988   1.573   2.027   8.192
  939TMC3    C213989   1.623   2.046   8.066
  939TMC3    C313990   1.527   2.041   7.965
  939TMC3    C413991   1.441   2.009   8.219
  939TMC3    C513992   1.353   2.015   8.113
  939TMC3    C613993   1.394   2.016   7.983
  939TMC3     C13994   1.654   2.039   8.305
  939TMC3     O13995   1.626   2.126   8.384
  939TMC3     H13996   1.721   2.055   8.023
  939TMC3    H113997   1.399   1.998   8.318
  939TMC3    H213998   1.330   2.007   7.896
  939TMC3    C713999   1.220   1.988   8.143
  939TMC3    C814000   1.563   2.026   7.826
  939TMC3    O114001   1.188   1.957   8.259
  939TMC3    O214002   1.529   1.914   7.779
  940TMC3    C114003   3.840   1.756   8.237
  940TMC3    C214004   3.716   1.725   8.274
  940TMC3    C314005   3.674   1.764   8.396
  940TMC3    C414006   3.917   1.837   8.309
  940TMC3    C514007   3.866   1.886   8.428
  940TMC3    C614008   3.748   1.840   8.480
  940TMC3     C14009   3.874   1.774   8.101
  940TMC3     O14010   3.925   1.882   8.071
  940TMC3     H14011   3.652   1.680   8.198
  940TMC3    H114012   4.019   1.849   8.273
  940TMC3    H214013   3.718   1.868   8.580
  940TMC3    C714014   3.932   1.999   8.494
  940TMC3    C814015   3.542   1.736   8.431
  940TMC3    O114016   3.919   2.013   8.612
  940TMC3    O214017   3.503   1.626   8.392
  941TMC3    C114018   0.361   2.620  14.848
  941TMC3    C214019   0.363   2.501  14.914
  941TMC3    C314020   0.449   2.401  14.879
  941TMC3    C414021   0.452   2.639  14.747
  941TMC3    C514022   0.544   2.542  14.713
  941TMC3    C614023   0.541   2.420  14.777
  941TMC3     C14024   0.225   2.659  14.808
  941TMC3     O14025   0.198   2.775  14.789
  941TMC3     H14026   0.286   2.483  14.988
  941TMC3    H114027   0.442   2.729  14.687
  941TMC3    H214028   0.613   2.346  14.744
  941TMC3    C714029   0.664   2.580  14.645
  941TMC3    C814030   0.383   2.273  14.871
  941TMC3    O114031   0.701   2.698  14.660
  941TMC3    O214032   0.262   2.273  14.858
  942TMC3    C114033   1.444   3.579   8.187
  942TMC3    C214034   1.345   3.532   8.267
  942TMC3    C314035   1.281   3.415   8.228
  942TMC3    C414036   1.483   3.521   8.065
  942TMC3    C514037   1.418   3.409   8.026
  942TMC3    C614038   1.320   3.358   8.106
  942TMC3     C14039   1.522   3.685   8.247
  942TMC3     O14040   1.506   3.705   8.365
  942TMC3     H14041   1.317   3.591   8.354
  942TMC3    H114042   1.582   3.548   8.028
  942TMC3    H214043   1.278   3.266   8.067
  942TMC3    C714044   1.493   3.314   7.955
  942TMC3    C814045   1.203   3.339   8.315
  942TMC3    O114046   1.555   3.355   7.855
  942TMC3    O214047   1.146   3.238   8.269
  943TMC3    C114048   4.750   3.158  13.474
  943TMC3    C214049   4.784   3.023  13.473
  943TMC3    C314050   4.687   2.933  13.459
  943TMC3    C414051   4.624   3.211  13.482
  943TMC3    C514052   4.533   3.107  13.456
  943TMC3    C614053   4.564   2.977  13.436
  943TMC3     C14054   0.070   3.255  13.483
  943TMC3     O14055   0.148   3.231  13.573
  943TMC3     H14056   0.095   3.007  13.495
  943TMC3    H114057   4.613   3.319  13.475
  943TMC3    H214058   4.484   2.912  13.402
  943TMC3    C714059   4.416   3.158  13.397
  943TMC3    C814060   4.712   2.802  13.506
  943TMC3    O114061   4.396   3.123  13.278
  943TMC3    O214062   0.035   2.757  13.511
  944TMC3    C114063   2.296   4.446  10.261
  944TMC3    C214064   2.414   4.464  10.327
  944TMC3    C314065   2.506   4.359  10.329
  944TMC3    C414066   2.265   4.340  10.181
  944TMC3    C514067   2.373   4.260  10.158
  944TMC3    C614068   2.492   4.264  10.228
  944TMC3     C14069   2.202   4.554  10.277
  944TMC3     O14070   2.131   4.577  10.181
  944TMC3     H14071   2.443   4.557  10.375
  944TMC3    H114072   2.173   4.348  10.124
  944TMC3    H214073   2.567   4.188  10.214
  944TMC3    C714074   2.336   4.150  10.077
  944TMC3    C814075   2.641   4.396  10.375
  944TMC3    O114076   2.215   4.135  10.071
  944TMC3    O214077   2.729   4.375  10.295
    1TMC1    C114078   1.601   4.170  10.797
    1TMC1    C214079   1.689   4.176  10.696
    1TMC1    C314080   1.776   4.075  10.686
    1TMC1    C414081   1.588   4.062  10.877
    1TMC1    C514082   1.674   3.959  10.861
    1TMC1    C614083   1.768   3.962  10.763
    1TMC1     C14084   1.502   4.273  10.819
    1TMC1     O14085   1.393   4.233  10.861
    1TMC1     H14086   1.703   4.264  10.634
    1TMC1    H114087   1.522   4.066  10.963
    1TMC1    H214088   1.812   3.868  10.733
    1TMC1    C714089   1.709   3.881  10.971
    1TMC1    C814090   1.874   4.073  10.573
    1TMC1    O114091   1.652   3.901  11.077
    1TMC1    O214092   1.945   3.972  10.557
    1TMC1    O314093   1.847   3.873  10.958
    1TMC1    H314094   1.891   3.837  10.879
    1TMC1    O514095   1.839   4.162  10.484
    1TMC1    H514096   1.907   4.171  10.413
    2TMC2    C114097   1.683   0.234  10.685
    2TMC2    C214098   1.789   0.302  10.743
    2TMC2    C314099   1.848   0.403  10.679
    2TMC2    C414100   1.639   0.266  10.555
    2TMC2    C514101   1.705   0.372  10.495
    2TMC2    C614102   1.806   0.442  10.557
    2TMC2     C14103   1.633   0.117  10.754
    2TMC2     O14104   1.713   0.050  10.824
    2TMC2     H14105   1.825   0.276  10.842
    2TMC2    H114106   1.564   0.204  10.507
    2TMC2    H214107   1.851   0.527  10.509
    2TMC2    C714108   1.723   0.348  10.354
    2TMC2    C814109   1.925   0.489  10.769
    2TMC2    O114110   1.672   0.249  10.302
    2TMC2    O214111   1.983   0.445  10.865
    2TMC2    O514112   1.857   0.601  10.772
    2TMC2    H514113   1.780   0.603  10.711
    3TMC2    C114114   2.002   0.962  10.193
    3TMC2    C214115   2.117   1.000  10.255
    3TMC2    C314116   2.228   0.923  10.236
    3TMC2    C414117   1.988   0.850  10.118
    3TMC2    C514118   2.101   0.772  10.102
    3TMC2    C614119   2.218   0.809  10.168
    3TMC2     C14120   1.921   1.065  10.145
    3TMC2     O14121   1.983   1.164  10.120
    3TMC2     H14122   2.119   1.081  10.326
    3TMC2    H114123   1.902   0.829  10.056
    3TMC2    H214124   2.298   0.735  10.166
    3TMC2    C714125   2.124   0.694   9.979
    3TMC2    C814126   2.355   0.957  10.305
    3TMC2    O114127   2.230   0.708   9.926
    3TMC2    O214128   2.440   0.877  10.346
    3TMC2    O514129   2.380   1.079  10.248
    3TMC2    H514130   2.305   1.115  10.197
    4MPD1     C14131   0.844   1.676  10.231
    4MPD1    C114132   0.879   1.738  10.114
    4MPD1    C214133   0.772   1.783  10.037
    4MPD1    C314134   0.641   1.774  10.079
    4MPD1    C414135   0.615   1.704  10.190
    4MPD1    C514136   0.718   1.659  10.271
    4MPD1     H14137   0.794   1.830   9.942
    4MPD1    H114138   0.517   1.678  10.228
    4MPD1    H214139   0.934   1.649  10.285
    4MPD1    H314140   0.705   1.612  10.367
    4MPD1     N14141   0.537   1.824   9.997
    4MPD1    H514142   0.446   1.800  10.035
    4MPD1    N114143   1.006   1.744  10.061
    4MPD1    H614144   1.008   1.811   9.985
    4MPD1    H714145   1.078   1.775  10.127
    5MPD2     C14146   0.794   1.212   9.518
    5MPD2    C114147   0.899   1.222   9.607
    5MPD2    C214148   0.942   1.339   9.649
    5MPD2    C314149   0.864   1.451   9.618
    5MPD2    C414150   0.767   1.445   9.517
    5MPD2    C514151   0.733   1.319   9.466
    5MPD2     H14152   1.030   1.339   9.714
    5MPD2    H114153   0.706   1.531   9.493
    5MPD2    H214154   0.760   1.116   9.482
    5MPD2    H314155   0.644   1.302   9.407
    5MPD2     N14156   0.895   1.573   9.680
    5MPD2    H514157   0.990   1.583   9.713
    5MPD2    N114158   0.951   1.095   9.656
    5MPD2    H714159   0.894   1.012   9.642
    6MPD2     C14160   0.383   1.159   9.914
    6MPD2    C114161   0.503   1.210   9.951
    6MPD2    C214162   0.599   1.122   9.995
    6MPD2    C314163   0.580   0.983   9.998
    6MPD2    C414164   0.460   0.930   9.942
    6MPD2    C514165   0.374   1.024   9.893
    6MPD2     H14166   0.698   1.165  10.008
    6MPD2    H114167   0.455   0.825   9.917
    6MPD2    H214168   0.295   1.211   9.876
    6MPD2    H314169   0.299   0.986   9.823
    6MPD2     N14170   0.688   0.895  10.016
    6MPD2    H514171   0.689   0.799   9.984
    6MPD2    N114172   0.534   1.340   9.936
    6MPD2    H714173   0.628   1.376   9.940
    7MPD2     C14174   1.478   1.222   9.937
    7MPD2    C114175   1.453   1.118  10.018
    7MPD2    C214176   1.555   1.075  10.092
    7MPD2    C314177   1.687   1.122  10.071
    7MPD2    C414178   1.717   1.232  10.000
    7MPD2    C514179   1.606   1.274   9.931
    7MPD2     H14180   1.537   0.975  10.131
    7MPD2    H114181   1.814   1.279   9.992
    7MPD2    H214182   1.389   1.248   9.881
    7MPD2    H314183   1.617   1.363   9.870
    7MPD2     N14184   1.787   1.038  10.135
    7MPD2    H514185   1.747   0.960  10.186
    7MPD2    N114186   1.330   1.060  10.000
    7MPD2    H714187   1.270   1.092   9.925
    8MPD2     C14188   1.738   0.383  10.059
    8MPD2    C114189   1.802   0.463  10.149
    8MPD2    C214190   1.891   0.558  10.103
    8MPD2    C314191   1.910   0.578   9.967
    8MPD2    C414192   1.830   0.504   9.883
    8MPD2    C514193   1.750   0.406   9.923
    8MPD2     H14194   1.949   0.614  10.176
    8MPD2    H114195   1.840   0.512   9.776
    8MPD2    H214196   1.679   0.297  10.089
    8MPD2    H314197   1.707   0.344   9.845
    8MPD2     N14198   2.014   0.658   9.907
    8MPD2    H514199   2.028   0.666   9.807
    8MPD2    N114200   1.793   0.447  10.289
    8MPD2    H714201   1.825   0.523  10.348
    9MPD2     C14202   1.315   4.737  10.722
    9MPD2    C114203   1.449   4.746  10.736
    9MPD2    C214204   1.526   4.635  10.760
    9MPD2    C314205   1.463   4.517  10.772
    9MPD2    C414206   1.324   4.507  10.749
    9MPD2    C514207   1.251   4.619  10.719
    9MPD2     H14208   1.634   4.641  10.766
    9MPD2    H114209   1.270   4.413  10.756
    9MPD2    H214210   1.273   0.040  10.696
    9MPD2    H314211   1.144   4.616  10.701
    9MPD2     N14212   1.544   4.400  10.788
    9MPD2    H514213   1.645   4.408  10.789
    9MPD2    N114214   1.504   0.083  10.720
    9MPD2    H714215   1.448   0.158  10.680
   10TMC3    C114216   0.919   0.912  10.007
   10TMC3    C214217   1.031   0.913  10.078
   10TMC3    C314218   1.155   0.926  10.012
   10TMC3    C414219   0.917   0.941   9.879
   10TMC3    C514220   1.038   0.952   9.815
   10TMC3    C614221   1.152   0.937   9.879
   10TMC3     C14222   0.798   0.943  10.082
   10TMC3     O14223   0.804   1.020  10.173
   10TMC3     H14224   1.028   0.914  10.186
   10TMC3    H114225   0.824   0.951   9.824
   10TMC3    H214226   1.243   0.938   9.820
   10TMC3    C714227   1.055   1.075   9.740
   10TMC3    C814228   1.283   0.961  10.078
   10TMC3    O114229   1.145   1.150   9.783
   10TMC3    O214230   1.327   0.917  10.181
   11TMC3    C114231   0.492   1.785   9.775
   11TMC3    C214232   0.592   1.775   9.684
   11TMC3    C314233   0.674   1.662   9.702
   11TMC3    C414234   0.432   1.676   9.835
   11TMC3    C514235   0.511   1.565   9.842
   11TMC3    C614236   0.633   1.561   9.787
   11TMC3     C14237   0.546   1.883   9.872
   11TMC3     O14238   0.633   1.954   9.828
   11TMC3     H14239   0.633   1.861   9.632
   11TMC3    H114240   0.352   1.683   9.908
   11TMC3    H214241   0.688   1.470   9.807
   11TMC3    C714242   0.444   1.440   9.887
   11TMC3    C814243   0.819   1.686   9.683
   11TMC3    O114244   0.322   1.446   9.875
   11TMC3    O214245   0.862   1.802   9.662
    1MPD1     C14246   3.611   1.795  13.109
    1MPD1    C114247   3.659   1.805  13.239
    1MPD1    C214248   3.709   1.692  13.290
    1MPD1    C314249   3.724   1.575  13.229
    1MPD1    C414250   3.679   1.569  13.097
    1MPD1    C514251   3.620   1.677  13.045
    1MPD1     H14252   3.759   1.700  13.386
    1MPD1    H114253   3.684   1.481  13.034
    1MPD1    H214254   3.570   1.878  13.053
    1MPD1    H314255   3.584   1.667  12.943
    1MPD1     N14256   3.787   1.472  13.305
    1MPD1    H514257   3.817   1.505  13.396
    1MPD1    N114258   3.675   1.923  13.302
    1MPD1    H614259   3.607   1.996  13.282
    1MPD1    H714260   3.702   1.904  13.399
    2MPD1     C14261   4.740   1.259  13.413
    2MPD1    C114262   4.692   1.159  13.500
    2MPD1    C214263   4.554   1.140  13.511
    2MPD1    C314264   4.466   1.216  13.432
    2MPD1    C414265   4.519   1.319  13.358
    2MPD1    C514266   4.654   1.342  13.344
    2MPD1     H14267   4.509   1.067  13.578
    2MPD1    H114268   4.462   1.395  13.305
    2MPD1    H214269   0.053   1.279  13.403
    2MPD1    H314270   4.688   1.410  13.267
    2MPD1     N14271   4.328   1.196  13.462
    2MPD1    H514272   4.303   1.122  13.527
    2MPD1    N114273   4.791   1.086  13.574
    2MPD1    H614274   4.762   1.022  13.647
    2MPD1    H714275   0.073   1.148  13.604
    3MPD1     C14276   4.013   0.457  13.626
    3MPD1    C114277   3.907   0.532  13.656
    3MPD1    C214278   3.917   0.664  13.619
    3MPD1    C314279   4.025   0.701  13.539
    3MPD1    C414280   4.137   0.624  13.531
    3MPD1    C514281   4.128   0.497  13.576
    3MPD1     H14282   3.843   0.738  13.648
    3MPD1    H114283   4.228   0.648  13.478
    3MPD1    H214284   4.020   0.353  13.656
    3MPD1    H314285   4.208   0.424  13.570
    3MPD1     N14286   4.036   0.834  13.484
    3MPD1    H514287   4.119   0.870  13.440
    3MPD1    N114288   3.807   0.479  13.733
    3MPD1    H614289   3.718   0.527  13.739
    3MPD1    H714290   3.798   0.377  13.731
    4TMC3    C114291   4.098   1.241  13.438
    4TMC3    C214292   3.998   1.322  13.389
    4TMC3    C314293   3.877   1.265  13.364
    4TMC3    C414294   4.075   1.102  13.455
    4TMC3    C514295   3.956   1.049  13.416
    4TMC3    C614296   3.849   1.133  13.383
    4TMC3     C14297   4.231   1.283  13.410
    4TMC3     O14298   4.234   1.375  13.325
    4TMC3     H14299   4.021   1.422  13.355
    4TMC3    H114300   4.151   1.037  13.496
    4TMC3    H214301   3.745   1.103  13.383
    4TMC3    C714302   3.924   0.917  13.467
    4TMC3    C814303   3.785   1.335  13.278
    4TMC3    O114304   3.809   0.880  13.481
    4TMC3    O214305   3.728   1.282  13.183
    1TMC1    C114306   0.496   1.207   8.613
    1TMC1    C214307   0.438   1.287   8.521
    1TMC1    C314308   0.305   1.283   8.514
    1TMC1    C414309   0.428   1.108   8.682
    1TMC1    C514310   0.294   1.093   8.641
    1TMC1    C614311   0.227   1.180   8.571
    1TMC1     C14312   0.634   1.159   8.608
    1TMC1     O14313   0.675   1.108   8.712
    1TMC1     H14314   0.487   1.356   8.453
    1TMC1    H114315   0.466   1.039   8.756
    1TMC1    H214316   0.126   1.162   8.536
    1TMC1    C714317   0.222   0.977   8.704
    1TMC1    C814318   0.251   1.340   8.390
    1TMC1    O114319   0.101   0.958   8.693
    1TMC1    O214320   0.318   1.411   8.318
    1TMC1    O314321   0.308   0.875   8.720
    1TMC1    H314322   0.391   0.898   8.673
    1TMC1    O514323   0.116   1.316   8.386
    1TMC1    H514324   0.064   1.351   8.310
    2MPD1     C14325   1.041   1.048   8.347
    2MPD1    C114326   0.962   1.122   8.267
    2MPD1    C214327   0.842   1.162   8.313
    2MPD1    C314328   0.807   1.139   8.443
    2MPD1    C414329   0.887   1.062   8.527
    2MPD1    C514330   1.001   1.012   8.468
    2MPD1     H14331   0.778   1.227   8.254
    2MPD1    H114332   0.869   1.036   8.631
    2MPD1    H214333   1.138   1.010   8.319
    2MPD1    H314334   1.070   0.951   8.525
    2MPD1     N14335   0.691   1.191   8.486
    2MPD1    H514336   0.645   1.247   8.415
    2MPD1    N114337   0.980   1.136   8.137
    2MPD1    H614338   0.938   1.223   8.104
    2MPD1    H714339   1.080   1.149   8.123
    1TMC1    C114340   3.959   2.311  14.951
    1TMC1    C214341   3.847   2.295  14.863
    1TMC1    C314342   3.879   2.290  14.729
    1TMC1    C414343   4.090   2.330  14.906
    1TMC1    C514344   4.106   2.331  14.772
    1TMC1    C614345   4.010   2.296  14.685
    1TMC1     C14346   3.936   2.318  15.097
    1TMC1     O14347   4.036   2.338  15.162
    1TMC1     H14348   3.742   2.300  14.889
    1TMC1    H114349   4.171   2.351  14.974
    1TMC1    H214350   4.038   2.272  14.583
    1TMC1    C714351   4.247   2.303  14.729
    1TMC1    C814352   3.775   2.336  14.636
    1TMC1    O114353   4.333   2.273  14.809
    1TMC1    O214354   3.661   2.367  14.672
    1TMC1    O314355   4.267   2.314  14.597
    1TMC1    H314356   4.208   2.380  14.557
    1TMC1    O514357   3.807   2.282  14.515
    1TMC1    H514358   3.744   2.305  14.443
    2MPD1     C14359   3.643   2.320  15.511
    2MPD1    C114360   3.561   2.283  15.404
    2MPD1    C214361   3.618   2.272  15.278
    2MPD1    C314362   3.754   2.295  15.265
    2MPD1    C414363   3.833   2.338  15.372
    2MPD1    C514364   3.772   2.359  15.489
    2MPD1     H14365   3.554   2.247  15.194
    2MPD1    H114366   3.940   2.355  15.370
    2MPD1    H214367   3.611   2.318  15.615
    2MPD1    H314368   3.830   2.399  15.571
    2MPD1     N14369   3.808   2.272  15.137
    2MPD1    H514370   3.750   2.235  15.061
    2MPD1    N114371   3.427   2.260  15.417
    2MPD1    H614372   3.383   2.227  15.331
    2MPD1    H714373   3.372   2.336  15.455
    1MPD1     C14374   1.438   1.146   9.623
    1MPD1    C114375   1.402   1.265   9.574
    1MPD1    C214376   1.502   1.349   9.518
    1MPD1    C314377   1.638   1.316   9.534
    1MPD1    C414378   1.673   1.194   9.592
    1MPD1    C514379   1.570   1.109   9.626
    1MPD1     H14380   1.472   1.442   9.469
    1MPD1    H114381   1.770   1.159   9.626
    1MPD1    H214382   1.366   1.075   9.662
    1MPD1    H314383   1.590   1.010   9.668
    1MPD1     N14384   1.727   1.399   9.459
    1MPD1    H514385   1.683   1.475   9.407
    1MPD1    N114386   1.269   1.298   9.551
    1MPD1    H614387   1.259   1.398   9.566
    1MPD1    H714388   1.223   1.251   9.629
    2MPD1     C14389   1.664   1.778   8.850
    2MPD1    C114390   1.610   1.832   8.728
    2MPD1    C214391   1.662   1.784   8.608
    2MPD1    C314392   1.751   1.682   8.610
    2MPD1    C414393   1.787   1.629   8.729
    2MPD1    C514394   1.745   1.670   8.846
    2MPD1     H14395   1.627   1.822   8.513
    2MPD1    H114396   1.850   1.541   8.728
    2MPD1    H214397   1.651   1.820   8.949
    2MPD1    H314398   1.783   1.626   8.938
    2MPD1     N14399   1.809   1.623   8.498
    2MPD1    H514400   1.873   1.546   8.518
    2MPD1    N114401   1.523   1.941   8.730
    2MPD1    H614402   1.455   1.944   8.805
    2MPD1    H714403   1.472   1.954   8.643
    3MPD1     C14404   2.121   2.160   7.790
    3MPD1    C114405   2.195   2.122   7.906
    3MPD1    C214406   2.168   2.007   7.969
    3MPD1    C314407   2.069   1.927   7.916
    3MPD1    C414408   1.994   1.972   7.811
    3MPD1    C514409   2.016   2.092   7.752
    3MPD1     H14410   2.227   1.978   8.055
    3MPD1    H114411   1.915   1.907   7.776
    3MPD1    H214412   2.151   2.243   7.728
    3MPD1    H314413   1.950   2.132   7.676
    3MPD1     N14414   2.056   1.799   7.968
    3MPD1    H514415   2.132   1.769   8.029
    3MPD1    N114416   2.309   2.197   7.935
    3MPD1    H614417   2.288   2.296   7.920
    3MPD1    H714418   2.330   2.185   8.034
    4MPD2     C14419   2.117   2.034   9.184
    4MPD2    C114420   2.139   1.927   9.106
    4MPD2    C214421   2.245   1.915   9.022
    4MPD2    C314422   2.344   2.013   9.011
    4MPD2    C414423   2.321   2.127   9.078
    4MPD2    C514424   2.208   2.138   9.157
    4MPD2     H14425   2.254   1.818   8.975
    4MPD2    H114426   2.391   2.210   9.087
    4MPD2    H214427   2.036   2.030   9.256
    4MPD2    H314428   2.189   2.222   9.222
    4MPD2     N14429   2.465   1.992   8.933
    4MPD2    H514430   2.545   2.052   8.947
    4MPD2    N114431   2.071   1.804   9.112
    4MPD2    H714432   2.104   1.737   9.043
    5MPD2     C14433   2.687   1.566   9.329
    5MPD2    C114434   2.634   1.562   9.200
    5MPD2    C214435   2.509   1.511   9.172
    5MPD2    C314436   2.437   1.465   9.278
    5MPD2    C414437   2.492   1.448   9.397
    5MPD2    C514438   2.618   1.498   9.431
    5MPD2     H14439   2.468   1.511   9.072
    5MPD2    H114440   2.443   1.406   9.484
    5MPD2    H214441   2.791   1.594   9.341
    5MPD2    H314442   2.662   1.475   9.527
    5MPD2     N14443   2.299   1.435   9.263
    5MPD2    H514444   2.254   1.397   9.346
    5MPD2    N114445   2.705   1.623   9.097
    5MPD2    H714446   2.786   1.676   9.129
    6MPD2     C14447   2.501   1.295   8.637
    6MPD2    C114448   2.523   1.402   8.560
    6MPD2    C214449   2.441   1.425   8.454
    6MPD2    C314450   2.330   1.348   8.435
    6MPD2    C414451   2.305   1.240   8.514
    6MPD2    C514452   2.394   1.213   8.616
    6MPD2     H14453   2.453   1.511   8.389
    6MPD2    H114454   2.218   1.179   8.497
    6MPD2    H214455   2.576   1.265   8.709
    6MPD2    H314456   2.375   1.137   8.691
    6MPD2     N14457   2.227   1.384   8.337
    6MPD2    H514458   2.132   1.357   8.362
    6MPD2    N114459   2.619   1.498   8.606
    6MPD2    H714460   2.659   1.483   8.698
    7TMC3    C114461   1.914   1.635   9.181
    7TMC3    C214462   2.000   1.554   9.111
    7TMC3    C314463   2.072   1.461   9.181
    7TMC3    C414464   1.873   1.582   9.308
    7TMC3    C514465   1.932   1.467   9.363
    7TMC3    C614466   2.041   1.405   9.307
    7TMC3     C14467   1.965   1.773   9.194
    7TMC3     O14468   1.918   1.840   9.284
    7TMC3     H14469   2.026   1.596   9.014
    7TMC3    H114470   1.806   1.641   9.370
    7TMC3    H214471   2.093   1.322   9.354
    7TMC3    C714472   1.866   1.385   9.464
    7TMC3    C814473   2.217   1.463   9.157
    7TMC3    O114474   1.931   1.297   9.516
    7TMC3    O214475   2.248   1.500   9.046
    8TMC3    C114476   1.872   1.584   8.273
    8TMC3    C214477   1.851   1.619   8.138
    8TMC3    C314478   1.947   1.613   8.043
    8TMC3    C414479   1.999   1.555   8.314
    8TMC3    C514480   2.095   1.537   8.207
    8TMC3    C614481   2.069   1.567   8.078
    8TMC3     C14482   1.775   1.636   8.369
    8TMC3     O14483   1.665   1.673   8.331
    8TMC3     H14484   1.748   1.639   8.112
    8TMC3    H114485   2.022   1.537   8.419
    8TMC3    H214486   2.154   1.562   8.010
    8TMC3    C714487   2.234   1.479   8.233
    8TMC3    C814488   1.945   1.721   7.949
    8TMC3    O114489   2.325   1.523   8.174
    8TMC3    O214490   1.834   1.751   7.912
    9TMC3    C114491   2.759   1.691   8.883
    9TMC3    C214492   2.764   1.652   8.756
    9TMC3    C314493   2.701   1.709   8.648
    9TMC3    C414494   2.705   1.815   8.905
    9TMC3    C514495   2.619   1.863   8.807
    9TMC3    C614496   2.626   1.821   8.677
    9TMC3     C14497   2.701   1.585   8.966
    9TMC3     O14498   2.639   1.495   8.906
    9TMC3     H14499   2.796   1.550   8.740
    9TMC3    H114500   2.676   1.842   9.006
    9TMC3    H214501   2.554   1.858   8.605
    9TMC3    C714502   2.482   1.885   8.850
    9TMC3    C814503   2.645   1.619   8.547
    9TMC3    O114504   2.405   1.817   8.789
    9TMC3    O214505   2.604   1.674   8.445
    1TMC2    C114506   2.377   0.473  12.522
    1TMC2    C214507   2.312   0.585  12.499
    1TMC2    C314508   2.360   0.699  12.554
    1TMC2    C414509   2.503   0.473  12.578
    1TMC2    C514510   2.553   0.591  12.619
    1TMC2    C614511   2.487   0.705  12.613
    1TMC2     C14512   2.337   0.357  12.449
    1TMC2     O14513   2.380   0.252  12.488
    1TMC2     H14514   2.222   0.592  12.438
    1TMC2    H114515   2.558   0.382  12.557
    1TMC2    H214516   2.533   0.794  12.653
    1TMC2    C714517   2.694   0.599  12.582
    1TMC2    C814518   2.321   0.818  12.486
    1TMC2    O114519   2.729   0.710  12.544
    1TMC2    O214520   2.215   0.825  12.425
    1TMC2    O514521   2.434   0.877  12.443
    1TMC2    H514522   2.511   0.816  12.452
    2MPD1     C14523   2.388   0.139  11.984
    2MPD1    C114524   2.381   0.276  11.971
    2MPD1    C214525   2.352   0.359  12.083
    2MPD1    C314526   2.339   0.303  12.209
    2MPD1    C414527   2.351   0.163  12.218
    2MPD1    C514528   2.377   0.085  12.110
    2MPD1     H14529   2.322   0.463  12.073
    2MPD1    H114530   2.329   0.105  12.306
    2MPD1    H214531   2.409   0.072  11.902
    2MPD1    H314532   2.382   4.770  12.111
    2MPD1     N14533   2.312   0.393  12.318
    2MPD1    H514534   2.321   0.491  12.291
    2MPD1    N114535   2.370   0.322  11.843
    2MPD1    H614536   2.436   0.275  11.781
    2MPD1    H714537   2.414   0.414  11.840
    3MPD1     C14538   3.120   0.359  12.463
    3MPD1    C114539   3.072   0.485  12.432
    3MPD1    C214540   2.951   0.535  12.480
    3MPD1    C314541   2.888   0.457  12.572
    3MPD1    C414542   2.939   0.343  12.623
    3MPD1    C514543   3.047   0.290  12.559
    3MPD1     H14544   2.907   0.621  12.431
    3MPD1    H114545   2.888   0.300  12.709
    3MPD1    H214546   3.201   0.315  12.406
    3MPD1    H314547   3.072   0.190  12.591
    3MPD1     N14548   2.760   0.483  12.613
    3MPD1    H514549   2.703   0.413  12.660
    3MPD1    N114550   3.129   0.550  12.322
    3MPD1    H614551   3.106   0.649  12.329
    3MPD1    H714552   3.231   0.545  12.321
    1TMC1    C114553   0.371   4.093   9.952
    1TMC1    C214554   0.308   4.155  10.049
    1TMC1    C314555   0.168   4.133  10.055
    1TMC1    C414556   0.316   3.991   9.877
    1TMC1    C514557   0.177   3.979   9.889
    1TMC1    C614558   0.104   4.048   9.973
    1TMC1     C14559   0.498   4.149   9.911
    1TMC1     O14560   0.500   4.203   9.800
    1TMC1     H14561   0.354   4.223  10.120
    1TMC1    H114562   0.376   3.957   9.794
    1TMC1    H214563   4.791   4.041   9.990
    1TMC1    C714564   0.116   3.859   9.836
    1TMC1    C814565   0.084   4.243  10.095
    1TMC1    O114566   4.785   3.849   9.842
    1TMC1    O214567   0.142   4.348  10.120
    1TMC1    O314568   0.207   3.758   9.857
    1TMC1    H314569   0.286   3.804   9.892
    1TMC1    O514570   4.792   4.180  10.180
    1TMC1    H514571   4.786   4.085  10.159
    2TMC1    C114572   1.106   4.317  10.447
    2TMC1    C214573   1.166   4.207  10.489
    2TMC1    C314574   1.138   4.165  10.615
    2TMC1    C414575   1.022   4.382  10.527
    2TMC1    C514576   0.995   4.333  10.654
    2TMC1    C614577   1.054   4.224  10.698
    2TMC1     C14578   1.068   4.311  10.302
    2TMC1     O14579   1.155   4.253  10.242
    2TMC1     H14580   1.232   4.155  10.421
    2TMC1    H114581   0.946   4.449  10.488
    2TMC1    H214582   1.061   4.189  10.801
    2TMC1    C714583   0.909   4.412  10.743
    2TMC1    C814584   1.209   4.055  10.671
    2TMC1    O114585   0.890   4.526  10.709
    2TMC1    O214586   1.180   3.997  10.773
    2TMC1    O314587   0.922   4.361  10.870
    2TMC1    H314588   0.917   4.263  10.870
    2TMC1    O514589   1.333   4.049  10.615
    2TMC1    H514590   1.344   4.137  10.572
    3MPD2     C14591   0.765   4.259   9.917
    3MPD2    C114592   0.698   4.214  10.026
    3MPD2    C214593   0.760   4.219  10.148
    3MPD2    C314594   0.880   4.283  10.156
    3MPD2    C414595   0.949   4.331  10.048
    3MPD2    C514596   0.887   4.322   9.931
    3MPD2     H14597   0.708   4.192  10.239
    3MPD2    H114598   1.045   4.381  10.052
    3MPD2    H214599   0.726   4.261   9.816
    3MPD2    H314600   0.936   4.350   9.838
    3MPD2     N14601   0.933   4.297  10.284
    3MPD2    H514602   0.868   4.288  10.362
    3MPD2    N114603   0.571   4.156  10.025
    3MPD2    H714604   0.531   4.129  10.114
    1TMC1    C114605   4.596   0.756  10.793
    1TMC1    C214606   4.547   0.804  10.913
    1TMC1    C314607   4.628   0.812  11.020
    1TMC1    C414608   4.730   0.730  10.780
    1TMC1    C514609   0.015   0.740  10.886
    1TMC1    C614610   4.756   0.778  11.014
    1TMC1     C14611   4.523   0.799  10.668
    1TMC1     O14612   4.593   0.799  10.570
    1TMC1     H14613   4.443   0.834  10.925
    1TMC1    H114614   4.769   0.693  10.685
    1TMC1    H214615   0.028   0.786  11.100
    1TMC1    C714616   0.153   0.696  10.857
    1TMC1    C814617   4.583   0.894  11.128
    1TMC1    O114618   0.198   0.687  10.746
    1TMC1    O214619   4.464   0.914  11.147
    1TMC1    O314620   0.225   0.676  10.969
    1TMC1    H314621   0.174   0.663  11.052
    1TMC1    O514622   4.682   0.983  11.156
    1TMC1    H514623   4.770   0.951  11.128
    2TMC2    C114624   4.375   0.235  10.866
    2TMC2    C214625   4.386   0.157  10.978
    2TMC2    C314626   4.418   0.219  11.098
    2TMC2    C414627   4.399   0.372  10.876
    2TMC2    C514628   4.409   0.432  11.001
    2TMC2    C614629   4.415   0.353  11.118
    2TMC2     C14630   4.274   0.205  10.768
    2TMC2     O14631   4.270   0.287  10.679
    2TMC2     H14632   4.396   0.050  10.967
    2TMC2    H114633   4.384   0.432  10.787
    2TMC2    H214634   4.443   0.387  11.217
    2TMC2    C714635   4.343   0.556  11.010
    2TMC2    C814636   4.485   0.138  11.205
    2TMC2    O114637   4.309   0.607  10.903
    2TMC2    O214638   4.462   0.155  11.322
    2TMC2    O514639   4.615   0.141  11.158
    2TMC2    H514640   4.612   0.133  11.060
    3MPD2     C14641   4.317   0.814  10.438
    3MPD2    C114642   4.292   0.801  10.574
    3MPD2    C214643   4.160   0.785  10.617
    3MPD2    C314644   4.050   0.780  10.524
    3MPD2    C414645   4.081   0.794  10.390
    3MPD2    C514646   4.216   0.809  10.345
    3MPD2     H14647   4.145   0.786  10.724
    3MPD2    H114648   4.003   0.786  10.317
    3MPD2    H214649   4.419   0.830  10.405
    3MPD2    H314650   4.246   0.815  10.241
    3MPD2     N14651   3.925   0.760  10.584
    3MPD2    H514652   3.933   0.758  10.685
    3MPD2    N114653   4.387   0.798  10.677
    3MPD2    H714654   4.341   0.762  10.760
    4MPD2     C14655   3.984   0.834  11.243
    4MPD2    C114656   3.983   0.764  11.123
    4MPD2    C214657   4.098   0.692  11.084
    4MPD2    C314658   4.213   0.690  11.162
    4MPD2    C414659   4.206   0.742  11.289
    4MPD2    C514660   4.089   0.812  11.328
    4MPD2     H14661   4.093   0.628  10.997
    4MPD2    H114662   4.290   0.740  11.357
    4MPD2    H214663   3.895   0.884  11.280
    4MPD2    H314664   4.096   0.855  11.427
    4MPD2     N14665   4.322   0.601  11.135
    4MPD2    H514666   4.384   0.583  11.213
    4MPD2    N114667   3.860   0.766  11.054
    4MPD2    H714668   3.781   0.818  11.090
    5MPD2     C14669   3.976   0.006  10.799
    5MPD2    C114670   4.044   0.128  10.796
    5MPD2    C214671   3.986   0.254  10.769
    5MPD2    C314672   3.855   0.258  10.751
    5MPD2    C414673   3.777   0.139  10.758
    5MPD2    C514674   3.836   0.016  10.780
    5MPD2     H14675   4.053   0.339  10.774
    5MPD2    H114676   3.670   0.138  10.738
    5MPD2    H214677   4.021   4.703  10.821
    5MPD2    H314678   3.771   4.723  10.768
    5MPD2     N14679   3.798   0.386  10.740
    5MPD2    H514680   3.862   0.460  10.767
    5MPD2    N114681   4.179   0.123  10.825
    5MPD2    H714682   4.206   0.042  10.880
    6TMC3    C114683   3.727   0.721  10.864
    6TMC3    C214684   3.679   0.598  10.854
    6TMC3    C314685   3.639   0.545  10.731
    6TMC3    C414686   3.734   0.786  10.743
    6TMC3    C514687   3.698   0.735  10.619
    6TMC3    C614688   3.640   0.616  10.615
    6TMC3     C14689   3.851   0.705  10.935
    6TMC3     O14690   3.921   0.628  10.868
    6TMC3     H14691   3.680   0.541  10.946
    6TMC3    H114692   3.782   0.883  10.737
    6TMC3    H214693   3.614   0.568  10.522
    6TMC3    C714694   3.803   0.751  10.520
    6TMC3    C814695   3.668   0.414  10.715
    6TMC3    O114696   3.776   0.738  10.402
    6TMC3    O214697   3.587   0.351  10.645
  958TMC0    C114698   3.019   1.830  15.367
  958TMC0    C214699   2.920   1.742  15.399
  958TMC0    C314700   2.950   1.638  15.482
  958TMC0    C414701   3.145   1.821  15.421
  958TMC0    C514702   3.169   1.706  15.496
  958TMC0    C614703   3.072   1.608  15.518
  958TMC0     C14704   2.983   1.948  15.291
  958TMC0     O14705   3.061   2.039  15.304
  958TMC0     H14706   2.820   1.762  15.362
  958TMC0    H114707   3.214   1.904  15.415
  958TMC0    H214708   3.091   1.529  15.589
  958TMC0    C714709   3.297   1.651  15.516
  958TMC0    C814710   2.836   1.599  15.566
  958TMC0    O114711   3.320   1.550  15.579
  958TMC0    O214712   2.830   1.496  15.626
  958TMC0    O314713   3.391   1.734  15.463
  958TMC0    H314714   3.367   1.791  15.387
  958TMC0    O414715   2.942   1.898  15.173
  958TMC0    H414716   2.873   1.830  15.189
  958TMC0    O514717   2.756   1.709  15.575
  958TMC0    H514718   2.800   1.790  15.541
  959TMC0    C114719   3.748   0.650   6.111
  959TMC0    C214720   3.727   0.520   6.082
  959TMC0    C314721   3.620   0.499   6.001
  959TMC0    C414722   3.660   0.747   6.087
  959TMC0    C514723   3.544   0.714   6.018
  959TMC0    C614724   3.529   0.595   5.967
  959TMC0     C14725   3.853   0.678   6.207
  959TMC0     O14726   3.961   0.615   6.201
  959TMC0     H14727   3.799   0.446   6.116
  959TMC0    H114728   3.672   0.852   6.111
  959TMC0    H214729   3.449   0.577   5.896
  959TMC0    C714730   3.442   0.812   5.995
  959TMC0    C814731   3.572   0.365   5.983
  959TMC0    O114732   3.323   0.795   5.980
  959TMC0    O214733   3.460   0.331   5.949
  959TMC0    O314734   3.515   0.901   5.927
  959TMC0    H314735   3.608   0.868   5.924
  959TMC0    O414736   3.802   0.758   6.303
  959TMC0    H414737   3.706   0.773   6.297
  959TMC0    O514738   3.684   0.283   5.977
  959TMC0    H514739   3.761   0.337   5.951
  960TMC0    C114740   3.587   4.700   9.072
  960TMC0    C214741   3.609   4.762   8.952
  960TMC0    C314742   3.500   0.012   8.869
  960TMC0    C414743   3.462   4.670   9.116
  960TMC0    C514744   3.365   4.720   9.035
  960TMC0    C614745   3.380   4.783   8.918
  960TMC0     C14746   3.701   4.624   9.125
  960TMC0     O14747   3.816   4.647   9.090
  960TMC0     H14748   3.712   0.001   8.938
  960TMC0    H114749   3.432   4.614   9.204
  960TMC0    H214750   3.295   0.046   8.881
  960TMC0    C714751   3.238   4.658   9.065
  960TMC0    C814752   3.522   0.115   8.763
  960TMC0    O114753   3.233   4.535   9.059
  960TMC0    O214754   3.430   0.173   8.708
  960TMC0    O314755   3.195   4.727   9.174
  960TMC0    H314756   3.230   0.024   9.195
  960TMC0    O414757   3.649   4.496   9.144
  960TMC0    H414758   3.571   4.511   9.203
  960TMC0    O514759   3.647   0.159   8.783
  960TMC0    H514760   3.712   0.089   8.807
  961SOL     OW14761   1.756   0.983   5.148
  961SOL    HW114762   1.706   0.941   5.077
  961SOL    HW214763   1.692   1.039   5.191
  962SOL     OW14764   3.571   2.605  20.256
  962SOL    HW114765   3.557   2.679  20.197
  962SOL    HW214766   3.495   2.605  20.314
  963SOL     OW14767   2.866   1.725   3.629
  963SOL    HW114768   2.863   1.635   3.663
  963SOL    HW214769   2.804   1.773   3.683
  964SOL     OW14770   2.840   2.910   5.569
  964SOL    HW114771   2.823   2.881   5.480
  964SOL    HW214772   2.753   2.921   5.608
  965SOL     OW14773   2.922   2.685  16.027
  965SOL    HW114774   2.900   2.759  16.083
  965SOL    HW214775   3.007   2.654  16.058
  966SOL     OW14776   4.782   1.933  16.422
  966SOL    HW114777   0.072   1.979  16.428
  966SOL    HW214778   4.735   1.979  16.352
  967SOL     OW14779   1.067   0.192   1.650
  967SOL    HW114780   1.067   0.262   1.716
  967SOL    HW214781   0.974   0.177   1.631
  968SOL     OW14782   2.617   3.943  12.661
  968SOL    HW114783   2.550   4.012  12.658
  968SOL    HW214784   2.696   3.989  12.690
  969SOL     OW14785   2.710   0.563   6.156
  969SOL    HW114786   2.765   0.603   6.223
  969SOL    HW214787   2.725   0.469   6.165
  970SOL     OW14788   1.535   1.328  13.578
  970SOL    HW114789   1.520   1.272  13.502
  970SOL    HW214790   1.448   1.337  13.619
  971SOL     OW14791   2.374   1.740  19.804
  971SOL    HW114792   2.346   1.757  19.713
  971SOL    HW214793   2.347   1.818  19.852
  972SOL     OW14794   3.356   2.906   6.908
  972SOL    HW114795   3.440   2.924   6.865
  972SOL    HW214796   3.376   2.913   7.002
  973SOL     OW14797   4.092   3.174   2.462
  973SOL    HW114798   4.152   3.201   2.391
  973SOL    HW214799   4.084   3.252   2.516
  974SOL     OW14800   0.372   0.288   5.467
  974SOL    HW114801   0.344   0.224   5.402
  974SOL    HW214802   0.322   0.367   5.446
  975SOL     OW14803   2.463   3.151   5.101
  975SOL    HW114804   2.438   3.076   5.047
  975SOL    HW214805   2.380   3.181   5.139
  976SOL     OW14806   0.942   1.332   3.103
  976SOL    HW114807   0.966   1.380   3.024
  976SOL    HW214808   0.849   1.312   3.092
  977SOL     OW14809   1.714   0.921   3.360
  977SOL    HW114810   1.806   0.904   3.380
  977SOL    HW214811   1.686   0.844   3.310
  978SOL     OW14812   0.557   3.818  15.886
  978SOL    HW114813   0.639   3.768  15.888
  978SOL    HW214814   0.585   3.910  15.894
  979SOL     OW14815   2.684   3.841   2.655
  979SOL    HW114816   2.716   3.918   2.701
  979SOL    HW214817   2.748   3.825   2.585
  980SOL     OW14818   0.951   4.652  16.679
  980SOL    HW114819   0.904   4.589  16.734
  980SOL    HW214820   1.043   4.628  16.688
  981SOL     OW14821   0.290   4.088  16.998
  981SOL    HW114822   0.378   4.096  17.037
  981SOL    HW214823   0.271   4.176  16.964
  982SOL     OW14824   3.631   0.590  18.820
  982SOL    HW114825   3.588   0.608  18.903
  982SOL    HW214826   3.659   0.498  18.827
  983SOL     OW14827   1.124   1.481  20.189
  983SOL    HW114828   1.042   1.451  20.150
  983SOL    HW214829   1.124   1.443  20.277
  984SOL     OW14830   1.075   3.786  20.118
  984SOL    HW114831   1.001   3.726  20.117
  984SOL    HW214832   1.100   3.795  20.026
  985SOL     OW14833   4.209   0.804   2.645
  985SOL    HW114834   4.169   0.723   2.614
  985SOL    HW214835   4.303   0.792   2.632
  986SOL     OW14836   1.371   0.141  20.609
  986SOL    HW114837   1.312   0.143  20.684
  986SOL    HW214838   1.408   0.053  20.611
  987SOL     OW14839   3.667   3.778  17.923
  987SOL    HW114840   3.718   3.697  17.914
  987SOL    HW214841   3.677   3.802  18.015
  988SOL     OW14842   3.069   2.442  15.812
  988SOL    HW114843   3.006   2.505  15.779
  988SOL    HW214844   3.109   2.484  15.888
  989SOL     OW14845   4.250   3.041  15.765
  989SOL    HW114846   4.261   2.951  15.736
  989SOL    HW214847   4.278   3.094  15.691
  990SOL     OW14848   4.638   0.765  20.913
  990SOL    HW114849   4.651   0.792  21.004
  990SOL    HW214850   4.713   0.707  20.895
  991SOL     OW14851   3.104   0.143   2.486
  991SOL    HW114852   3.156   0.146   2.406
  991SOL    HW214853   3.167   0.120   2.554
  992SOL     OW14854   4.683   3.491  19.653
  992SOL    HW114855   4.745   3.506  19.723
  992SOL    HW214856   4.688   3.569  19.598
  993SOL     OW14857   0.441   2.609  20.842
  993SOL    HW114858   0.384   2.629  20.916
  993SOL    HW214859   0.520   2.572  20.882
  994SOL     OW14860   1.704   2.808  19.487
  994SOL    HW114861   1.630   2.824  19.546
  994SOL    HW214862   1.780   2.809  19.545
  995SOL     OW14863   1.781   0.204   2.225
  995SOL    HW114864   1.708   0.161   2.271
  995SOL    HW214865   1.747   0.290   2.201
  996SOL     OW14866   2.394   0.257  15.788
  996SOL    HW114867   2.393   0.309  15.708
  996SOL    HW214868   2.332   0.186  15.771
  997SOL     OW14869   1.660   4.337  19.084
  997SOL    HW114870   1.689   4.411  19.030
  997SOL    HW214871   1.741   4.291  19.105
  998SOL     OW14872   2.703   4.719  18.818
  998SOL    HW114873   2.722   4.671  18.738
  998SOL    HW214874   2.785   4.715  18.868
  999SOL     OW14875   2.505   2.591  15.401
  999SOL    HW114876   2.581   2.543  15.436
  999SOL    HW214877   2.430   2.551  15.444
 1000SOL     OW14878   4.182   1.099  18.551
 1000SOL    HW114879   4.207   1.025  18.606
 1000SOL    HW214880   4.258   1.157  18.554
 1001SOL     OW14881   2.570   1.189  15.693
 1001SOL    HW114882   2.623   1.250  15.745
 1001SOL    HW214883   2.634   1.137  15.645
 1002SOL     OW14884   2.437   2.236  16.579
 1002SOL    HW114885   2.444   2.198  16.491
 1002SOL    HW214886   2.409   2.164  16.634
 1003SOL     OW14887   1.638   4.125  18.444
 1003SOL    HW114888   1.652   4.030  18.453
 1003SOL    HW214889   1.543   4.133  18.430
 1004SOL     OW14890   0.338   1.281  18.670
 1004SOL    HW114891   0.314   1.259  18.580
 1004SOL    HW214892   0.379   1.202  18.704
 1005SOL     OW14893   0.755   0.273   3.650
 1005SOL    HW114894   0.700   0.237   3.580
 1005SOL    HW214895   0.692   0.307   3.714
 1006SOL     OW14896   3.444   0.982   0.025
 1006SOL    HW114897   3.455   0.919  21.227
 1006SOL    HW214898   3.488   1.061  21.267
 1007SOL     OW14899   0.181   3.019  20.419
 1007SOL    HW114900   0.141   3.084  20.477
 1007SOL    HW214901   0.143   3.037  20.333
 1008SOL     OW14902   4.214   1.203   4.504
 1008SOL    HW114903   4.214   1.299   4.506
 1008SOL    HW214904   4.269   1.181   4.429
 1009SOL     OW14905   2.005   3.354  20.868
 1009SOL    HW114906   1.949   3.362  20.945
 1009SOL    HW214907   2.034   3.262  20.869
 1010SOL     OW14908   0.304   2.614   1.498
 1010SOL    HW114909   0.326   2.639   1.408
 1010SOL    HW214910   0.227   2.557   1.490
 1011SOL     OW14911   0.884   1.727   3.039
 1011SOL    HW114912   0.881   1.670   2.962
 1011SOL    HW214913   0.793   1.740   3.063
 1012SOL     OW14914   2.166   4.185   5.747
 1012SOL    HW114915   2.121   4.110   5.708
 1012SOL    HW214916   2.133   4.261   5.699
 1013SOL     OW14917   2.490   4.639   0.226
 1013SOL    HW114918   2.555   4.591   0.175
 1013SOL    HW214919   2.418   4.577   0.239
 1014SOL     OW14920   4.146   1.861   0.640
 1014SOL    HW114921   4.092   1.815   0.575
 1014SOL    HW214922   4.159   1.948   0.602
 1015SOL     OW14923   1.767   0.361   0.139
 1015SOL    HW114924   1.756   0.347   0.234
 1015SOL    HW214925   1.859   0.342   0.123
 1016SOL     OW14926   0.860   4.713   2.728
 1016SOL    HW114927   0.778   4.687   2.685
 1016SOL    HW214928   0.882   4.640   2.785
 1017SOL     OW14929   3.618   4.571  16.200
 1017SOL    HW114930   3.619   4.486  16.243
 1017SOL    HW214931   3.668   4.628  16.259
 1018SOL     OW14932   4.752   2.604  19.303
 1018SOL    HW114933   4.707   2.671  19.354
 1018SOL    HW214934   4.722   2.617  19.213
 1019SOL     OW14935   1.443   3.803  18.139
 1019SOL    HW114936   1.478   3.738  18.078
 1019SOL    HW214937   1.350   3.807  18.118
 1020SOL     OW14938   3.603   3.911   6.197
 1020SOL    HW114939   3.679   3.900   6.139
 1020SOL    HW214940   3.549   3.976   6.153
 1021SOL     OW14941   4.498   3.501  21.172
 1021SOL    HW114942   4.588   3.473  21.155
 1021SOL    HW214943   4.493   3.590  21.138
 1022SOL     OW14944   1.629   2.830   3.730
 1022SOL    HW114945   1.642   2.737   3.744
 1022SOL    HW214946   1.627   2.868   3.818
 1023SOL     OW14947   1.060   0.730  18.825
 1023SOL    HW114948   1.033   0.707  18.737
 1023SOL    HW214949   1.018   0.665  18.881
 1024SOL     OW14950   2.017   1.029  17.159
 1024SOL    HW114951   2.015   1.123  17.177
 1024SOL    HW214952   1.983   1.021  17.069
 1025SOL     OW14953   3.593   1.167   0.330
 1025SOL    HW114954   3.565   1.255   0.308
 1025SOL    HW214955   3.555   1.151   0.417
 1026SOL     OW14956   2.193   4.201  20.521
 1026SOL    HW114957   2.130   4.268  20.548
 1026SOL    HW214958   2.143   4.142  20.465
 1027SOL     OW14959   2.790   1.359   6.534
 1027SOL    HW114960   2.885   1.373   6.533
 1027SOL    HW214961   2.776   1.290   6.469
 1028SOL     OW14962   0.974   3.420   4.059
 1028SOL    HW114963   0.894   3.469   4.075
 1028SOL    HW214964   1.037   3.456   4.122
 1029SOL     OW14965   4.592   0.528   5.270
 1029SOL    HW114966   4.550   0.456   5.224
 1029SOL    HW214967   4.585   0.506   5.362
 1030SOL     OW14968   1.435   3.942  19.437
 1030SOL    HW114969   1.352   3.903  19.464
 1030SOL    HW214970   1.424   4.036  19.453
 1031SOL     OW14971   1.003   1.509  19.061
 1031SOL    HW114972   0.939   1.564  19.106
 1031SOL    HW214973   0.999   1.424  19.106
 1032SOL     OW14974   0.103   1.035  15.902
 1032SOL    HW114975   0.074   1.125  15.916
 1032SOL    HW214976   0.198   1.039  15.909
 1033SOL     OW14977   0.715   0.146   0.957
 1033SOL    HW114978   0.663   0.151   1.037
 1033SOL    HW214979   0.659   0.186   0.890
 1034SOL     OW14980   3.116   0.814   3.420
 1034SOL    HW114981   3.055   0.871   3.467
 1034SOL    HW214982   3.092   0.726   3.449
 1035SOL     OW14983   1.736   4.356   2.393
 1035SOL    HW114984   1.675   4.381   2.462
 1035SOL    HW214985   1.698   4.278   2.354
 1036SOL     OW14986   4.605   0.551   4.581
 1036SOL    HW114987   4.695   0.529   4.556
 1036SOL    HW214988   4.577   0.478   4.637
 1037SOL     OW14989   4.126   4.410   8.247
 1037SOL    HW114990   4.080   4.491   8.227
 1037SOL    HW214991   4.135   4.411   8.343
 1038SOL     OW14992   2.630   4.560  20.209
 1038SOL    HW114993   2.623   4.646  20.168
 1038SOL    HW214994   2.719   4.557  20.243
 1039SOL     OW14995   0.016   4.012  19.236
 1039SOL    HW114996   0.016   4.024  19.141
 1039SOL    HW214997   4.736   4.066  19.267
 1040SOL     OW14998   4.237   1.435  19.572
 1040SOL    HW114999   4.271   1.379  19.642
 1040SOL    HW215000   4.295   1.511  19.571
 1041SOL     OW15001   4.738   1.861   7.413
 1041SOL    HW115002   4.650   1.843   7.448
 1041SOL    HW215003   0.001   1.863   7.490
 1042SOL     OW15004   1.474   0.055  18.369
 1042SOL    HW115005   1.432   0.122  18.315
 1042SOL    HW215006   1.419   4.771  18.359
 1043SOL     OW15007   4.770   3.590  16.691
 1043SOL    HW115008   4.769   3.510  16.743
 1043SOL    HW215009   4.719   3.569  16.613
 1044SOL     OW15010   1.342   2.043  15.867
 1044SOL    HW115011   1.398   2.028  15.790
 1044SOL    HW215012   1.262   1.995  15.848
 1045SOL     OW15013   0.725   3.022  15.691
 1045SOL    HW115014   0.790   3.061  15.632
 1045SOL    HW215015   0.642   3.060  15.663
 1046SOL     OW15016   3.459   4.246   1.026
 1046SOL    HW115017   3.479   4.192   1.102
 1046SOL    HW215018   3.464   4.187   0.951
 1047SOL     OW15019   4.397   4.277  20.093
 1047SOL    HW115020   4.371   4.190  20.122
 1047SOL    HW215021   4.316   4.321  20.070
 1048SOL     OW15022   2.231   4.359  19.441
 1048SOL    HW115023   2.259   4.272  19.468
 1048SOL    HW215024   2.137   4.360  19.455
 1049SOL     OW15025   2.173   2.611  15.905
 1049SOL    HW115026   2.263   2.633  15.880
 1049SOL    HW215027   2.146   2.544  15.843
 1050SOL     OW15028   1.444   2.071   5.620
 1050SOL    HW115029   1.457   2.037   5.708
 1050SOL    HW215030   1.529   2.108   5.596
 1051SOL     OW15031   4.221   1.768   0.205
 1051SOL    HW115032   4.186   1.847   0.163
 1051SOL    HW215033   4.301   1.796   0.248
 1052SOL     OW15034   0.251   4.421  16.468
 1052SOL    HW115035   0.317   4.471  16.421
 1052SOL    HW215036   0.300   4.349  16.509
 1053SOL     OW15037   4.736   4.221  18.578
 1053SOL    HW115038   4.770   4.146  18.626
 1053SOL    HW215039   4.646   4.230  18.609
 1054SOL     OW15040   3.259   3.577   0.237
 1054SOL    HW115041   3.308   3.496   0.225
 1054SOL    HW215042   3.295   3.636   0.171
 1055SOL     OW15043   0.327   0.089  15.444
 1055SOL    HW115044   0.353   0.179  15.463
 1055SOL    HW215045   0.408   0.046  15.415
 1056SOL     OW15046   2.450   1.232   0.446
 1056SOL    HW115047   2.456   1.286   0.524
 1056SOL    HW215048   2.390   1.162   0.470
 1057SOL     OW15049   2.333   0.378   6.102
 1057SOL    HW115050   2.362   0.398   6.191
 1057SOL    HW215051   2.413   0.353   6.056
 1058SOL     OW15052   1.834   2.041   6.420
 1058SOL    HW115053   1.805   2.038   6.512
 1058SOL    HW215054   1.894   2.115   6.417
 1059SOL     OW15055   2.487   1.392  17.207
 1059SOL    HW115056   2.573   1.354  17.189
 1059SOL    HW215057   2.444   1.394  17.121
 1060SOL     OW15058   2.019   4.387  20.192
 1060SOL    HW115059   1.976   4.340  20.122
 1060SOL    HW215060   2.069   4.456  20.148
 1061SOL     OW15061   4.754   3.860  16.375
 1061SOL    HW115062   4.678   3.919  16.372
 1061SOL    HW215063   0.036   3.917  16.359
 1062SOL     OW15064   0.452   3.387   3.685
 1062SOL    HW115065   0.438   3.400   3.779
 1062SOL    HW215066   0.547   3.384   3.674
 1063SOL     OW15067   4.761   3.381  16.849
 1063SOL    HW115068   0.015   3.303  16.820
 1063SOL    HW215069   4.673   3.350  16.870
 1064SOL     OW15070   3.617   2.068   6.558
 1064SOL    HW115071   3.648   2.021   6.481
 1064SOL    HW215072   3.523   2.079   6.543
 1065SOL     OW15073   1.162   4.055  19.110
 1065SOL    HW115074   1.099   3.989  19.139
 1065SOL    HW215075   1.212   4.076  19.190
 1066SOL     OW15076   4.282   4.355   0.115
 1066SOL    HW115077   4.362   4.303   0.121
 1066SOL    HW215078   4.226   4.322   0.185
 1067SOL     OW15079   4.617   1.811  15.740
 1067SOL    HW115080   4.570   1.879  15.788
 1067SOL    HW215081   4.709   1.832  15.751
 1068SOL     OW15082   3.474   2.539  15.761
 1068SOL    HW115083   3.536   2.590  15.710
 1068SOL    HW215084   3.437   2.600  15.824
 1069SOL     OW15085   2.623   3.218   1.142
 1069SOL    HW115086   2.554   3.279   1.168
 1069SOL    HW215087   2.643   3.242   1.051
 1070SOL     OW15088   1.113   1.948  18.217
 1070SOL    HW115089   1.190   1.953  18.160
 1070SOL    HW215090   1.144   1.908  18.298
 1071SOL     OW15091   1.091   1.588  17.249
 1071SOL    HW115092   1.089   1.657  17.183
 1071SOL    HW215093   1.048   1.513  17.207
 1072SOL     OW15094   2.947   3.068   2.597
 1072SOL    HW115095   2.861   3.095   2.566
 1072SOL    HW215096   3.005   3.086   2.523
 1073SOL     OW15097   2.407   0.346   1.305
 1073SOL    HW115098   2.482   0.391   1.266
 1073SOL    HW215099   2.334   0.366   1.247
 1074SOL     OW15100   0.026   0.643   3.908
 1074SOL    HW115101   4.782   0.621   3.994
 1074SOL    HW215102   4.743   0.657   3.852
 1075SOL     OW15103   2.648   3.112  20.370
 1075SOL    HW115104   2.712   3.173  20.332
 1075SOL    HW215105   2.687   3.084  20.453
 1076SOL     OW15106   1.966   1.627  20.988
 1076SOL    HW115107   1.996   1.606  21.076
 1076SOL    HW215108   1.991   1.718  20.975
 1077SOL     OW15109   0.546   0.094   7.790
 1077SOL    HW115110   0.519   0.034   7.860
 1077SOL    HW215111   0.562   0.037   7.715
 1078SOL     OW15112   4.613   3.830   2.856
 1078SOL    HW115113   4.549   3.894   2.824
 1078SOL    HW215114   4.673   3.881   2.910
 1079SOL     OW15115   2.009   0.635  14.457
 1079SOL    HW115116   1.922   0.668  14.434
 1079SOL    HW215117   1.992   0.555  14.507
 1080SOL     OW15118   3.911   4.509  17.257
 1080SOL    HW115119   3.967   4.508  17.179
 1080SOL    HW215120   3.892   4.601  17.272
 1081SOL     OW15121   1.710   3.230   3.248
 1081SOL    HW115122   1.747   3.167   3.186
 1081SOL    HW215123   1.705   3.182   3.331
 1082SOL     OW15124   2.654   2.710  19.575
 1082SOL    HW115125   2.678   2.803  19.569
 1082SOL    HW215126   2.737   2.665  19.592
 1083SOL     OW15127   0.359   2.608   3.326
 1083SOL    HW115128   0.452   2.586   3.321
 1083SOL    HW215129   0.356   2.688   3.378
 1084SOL     OW15130   4.567   3.320   5.168
 1084SOL    HW115131   4.558   3.232   5.205
 1084SOL    HW215132   4.479   3.357   5.173
 1085SOL     OW15133   3.873   3.274  12.276
 1085SOL    HW115134   3.802   3.330  12.246
 1085SOL    HW215135   3.941   3.284  12.210
 1086SOL     OW15136   1.990   4.498   6.128
 1086SOL    HW115137   1.960   4.433   6.064
 1086SOL    HW215138   1.978   4.582   6.083
 1087SOL     OW15139   1.636   0.942  19.841
 1087SOL    HW115140   1.678   1.025  19.822
 1087SOL    HW215141   1.708   0.880  19.852
 1088SOL     OW15142   2.060   0.097  17.172
 1088SOL    HW115143   2.102   0.032  17.115
 1088SOL    HW215144   2.009   0.151  17.112
 1089SOL     OW15145   4.761   0.860   0.940
 1089SOL    HW115146   0.012   0.861   0.855
 1089SOL    HW215147   4.677   0.903   0.923
 1090SOL     OW15148   0.348   1.330  15.884
 1090SOL    HW115149   0.346   1.353  15.977
 1090SOL    HW215150   0.413   1.389  15.847
 1091SOL     OW15151   1.599   2.645  17.015
 1091SOL    HW115152   1.526   2.703  17.038
 1091SOL    HW215153   1.660   2.701  16.968
 1092SOL     OW15154   0.760   1.369   3.460
 1092SOL    HW115155   0.693   1.436   3.448
 1092SOL    HW215156   0.842   1.418   3.468
 1093SOL     OW15157   3.683   0.445  20.039
 1093SOL    HW115158   3.755   0.441  20.102
 1093SOL    HW215159   3.687   0.534  20.004
 1094SOL     OW15160   1.175   3.732   3.984
 1094SOL    HW115161   1.136   3.688   4.059
 1094SOL    HW215162   1.160   3.825   4.001
 1095SOL     OW15163   1.552   4.027  18.750
 1095SOL    HW115164   1.544   3.982  18.834
 1095SOL    HW215165   1.574   3.959  18.687
 1096SOL     OW15166   4.415   1.390  20.983
 1096SOL    HW115167   4.501   1.359  20.956
 1096SOL    HW215168   4.432   1.447  21.058
 1097SOL     OW15169   0.680   0.331   4.530
 1097SOL    HW115170   0.605   0.325   4.471
 1097SOL    HW215171   0.696   0.241   4.558
 1098SOL     OW15172   0.022   2.797   5.593
 1098SOL    HW115173   4.788   2.762   5.678
 1098SOL    HW215174   4.785   2.888   5.593
 1099SOL     OW15175   4.395   2.811   4.325
 1099SOL    HW115176   4.349   2.728   4.331
 1099SOL    HW215177   4.470   2.793   4.268
 1100SOL     OW15178   1.981   1.899  16.958
 1100SOL    HW115179   2.004   1.900  16.865
 1100SOL    HW215180   1.921   1.826  16.968
 1101SOL     OW15181   2.704   2.124   7.022
 1101SOL    HW115182   2.611   2.113   7.001
 1101SOL    HW215183   2.715   2.083   7.107
 1102SOL     OW15184   4.491   3.614  18.255
 1102SOL    HW115185   4.522   3.702  18.233
 1102SOL    HW215186   4.397   3.616  18.237
 1103SOL     OW15187   4.443   2.555   5.683
 1103SOL    HW115188   4.479   2.477   5.642
 1103SOL    HW215189   4.464   2.626   5.622
 1104SOL     OW15190   3.284   2.382   4.977
 1104SOL    HW115191   3.237   2.464   4.989
 1104SOL    HW215192   3.277   2.364   4.883
 1105SOL     OW15193   4.763   0.284  14.786
 1105SOL    HW115194   4.702   0.211  14.773
 1105SOL    HW215195   4.790   0.276  14.877
 1106SOL     OW15196   3.261   3.844  18.097
 1106SOL    HW115197   3.336   3.896  18.068
 1106SOL    HW215198   3.197   3.853  18.026
 1107SOL     OW15199   3.466   3.961   5.350
 1107SOL    HW115200   3.498   3.980   5.438
 1107SOL    HW215201   3.535   3.908   5.310
 1108SOL     OW15202   0.201   4.129   3.152
 1108SOL    HW115203   0.179   4.061   3.215
 1108SOL    HW215204   0.267   4.183   3.196
 1109SOL     OW15205   0.284   0.823  16.306
 1109SOL    HW115206   0.209   0.865  16.265
 1109SOL    HW215207   0.256   0.733  16.322
 1110SOL     OW15208   4.195   0.925  19.052
 1110SOL    HW115209   4.272   0.959  19.097
 1110SOL    HW215210   4.229   0.862  18.989
 1111SOL     OW15211   2.072   1.245  19.391
 1111SOL    HW115212   2.065   1.258  19.486
 1111SOL    HW215213   2.007   1.177  19.372
 1112SOL     OW15214   4.605   4.517  19.422
 1112SOL    HW115215   4.681   4.467  19.391
 1112SOL    HW215216   4.574   4.470  19.499
 1113SOL     OW15217   3.338   4.784  15.737
 1113SOL    HW115218   3.316   4.765  15.646
 1113SOL    HW215219   3.404   0.059  15.732
 1114SOL     OW15220   2.859   3.317  20.781
 1114SOL    HW115221   2.942   3.278  20.811
 1114SOL    HW215222   2.871   3.329  20.687
 1115SOL     OW15223   0.620   0.837   0.831
 1115SOL    HW115224   0.538   0.881   0.809
 1115SOL    HW215225   0.664   0.896   0.891
 1116SOL     OW15226   0.105   2.240   4.507
 1116SOL    HW115227   0.024   2.290   4.496
 1116SOL    HW215228   0.173   2.307   4.515
 1117SOL     OW15229   3.010   0.081  17.352
 1117SOL    HW115230   2.963   0.086  17.434
 1117SOL    HW215231   3.028   0.172  17.328
 1118SOL     OW15232   2.451   1.179  21.102
 1118SOL    HW115233   2.408   1.232  21.034
 1118SOL    HW215234   2.540   1.166  21.069
 1119SOL     OW15235   1.988   4.509   2.087
 1119SOL    HW115236   2.026   4.429   2.123
 1119SOL    HW215237   1.943   4.550   2.161
 1120SOL     OW15238   4.113   4.114   4.050
 1120SOL    HW115239   4.108   4.086   4.141
 1120SOL    HW215240   4.028   4.155   4.033
 1121SOL     OW15241   0.317   2.471   4.662
 1121SOL    HW115242   0.406   2.487   4.631
 1121SOL    HW215243   0.328   2.454   4.756
 1122SOL     OW15244   3.609   1.038   0.599
 1122SOL    HW115245   3.640   0.952   0.570
 1122SOL    HW215246   3.682   1.073   0.650
 1123SOL     OW15247   1.140   2.883  17.578
 1123SOL    HW115248   1.131   2.802  17.627
 1123SOL    HW215249   1.070   2.879  17.513
 1124SOL     OW15250   1.414   3.053   4.892
 1124SOL    HW115251   1.428   3.000   4.971
 1124SOL    HW215252   1.363   3.128   4.923
 1125SOL     OW15253   0.520   1.787   4.068
 1125SOL    HW115254   0.541   1.703   4.108
 1125SOL    HW215255   0.492   1.766   3.979
 1126SOL     OW15256   1.116   1.453   1.660
 1126SOL    HW115257   1.071   1.492   1.585
 1126SOL    HW215258   1.054   1.388   1.694
 1127SOL     OW15259   0.711   3.079  17.393
 1127SOL    HW115260   0.692   3.157  17.340
 1127SOL    HW215261   0.801   3.092  17.424
 1128SOL     OW15262   4.049   3.479  18.698
 1128SOL    HW115263   3.990   3.544  18.736
 1128SOL    HW215264   3.991   3.414  18.660
 1129SOL     OW15265   3.890   2.043   8.940
 1129SOL    HW115266   3.827   1.973   8.923
 1129SOL    HW215267   3.949   2.041   8.864
 1130SOL     OW15268   3.500   0.840   3.593
 1130SOL    HW115269   3.522   0.847   3.685
 1130SOL    HW215270   3.577   0.801   3.552
 1131SOL     OW15271   2.864   0.163   0.937
 1131SOL    HW115272   2.847   0.138   1.028
 1131SOL    HW215273   2.895   0.254   0.942
 1132SOL     OW15274   0.665   2.748   1.387
 1132SOL    HW115275   0.583   2.799   1.386
 1132SOL    HW215276   0.695   2.753   1.478
 1133SOL     OW15277   4.634   0.214   7.560
 1133SOL    HW115278   4.722   0.224   7.596
 1133SOL    HW215279   4.642   0.142   7.498
 1134SOL     OW15280   3.766   4.111  12.480
 1134SOL    HW115281   3.714   4.101  12.560
 1134SOL    HW215282   3.842   4.054  12.494
 1135SOL     OW15283   1.968   3.508   0.985
 1135SOL    HW115284   1.919   3.428   0.966
 1135SOL    HW215285   1.955   3.563   0.908
 1136SOL     OW15286   3.056   1.113   0.567
 1136SOL    HW115287   3.039   1.189   0.511
 1136SOL    HW215288   3.020   1.138   0.652
 1137SOL     OW15289   1.289   2.196   1.709
 1137SOL    HW115290   1.280   2.274   1.655
 1137SOL    HW215291   1.300   2.125   1.646
 1138SOL     OW15292   1.601   0.153  17.383
 1138SOL    HW115293   1.687   0.166  17.422
 1138SOL    HW215294   1.589   0.058  17.380
 1139SOL     OW15295   3.237   3.893   6.504
 1139SOL    HW115296   3.241   3.802   6.474
 1139SOL    HW215297   3.327   3.914   6.528
 1140SOL     OW15298   0.209   1.075   4.552
 1140SOL    HW115299   0.235   1.038   4.468
 1140SOL    HW215300   0.197   1.169   4.534
 1141SOL     OW15301   4.544   1.126   5.074
 1141SOL    HW115302   4.577   1.036   5.060
 1141SOL    HW215303   4.516   1.127   5.165
 1142SOL     OW15304   1.747   1.608  19.598
 1142SOL    HW115305   1.735   1.556  19.678
 1142SOL    HW215306   1.726   1.697  19.625
 1143SOL     OW15307   4.779   2.466   6.178
 1143SOL    HW115308   4.763   2.523   6.253
 1143SOL    HW215309   4.761   2.378   6.211
 1144SOL     OW15310   3.486   4.485   5.540
 1144SOL    HW115311   3.409   4.510   5.591
 1144SOL    HW215312   3.452   4.463   5.453
 1145SOL     OW15313   0.809   4.425  19.431
 1145SOL    HW115314   0.720   4.399  19.457
 1145SOL    HW215315   0.846   4.465  19.510
 1146SOL     OW15316   2.102   1.284  19.068
 1146SOL    HW115317   2.107   1.244  19.155
 1146SOL    HW215318   2.019   1.251  19.032
 1147SOL     OW15319   2.696   2.061   3.813
 1147SOL    HW115320   2.706   2.020   3.899
 1147SOL    HW215321   2.602   2.065   3.798
 1148SOL     OW15322   3.884   4.404   0.658
 1148SOL    HW115323   3.838   4.387   0.576
 1148SOL    HW215324   3.905   4.316   0.691
 1149SOL     OW15325   4.194   2.795   0.203
 1149SOL    HW115326   4.289   2.806   0.208
 1149SOL    HW215327   4.170   2.831   0.118
 1150SOL     OW15328   2.701   0.245   3.860
 1150SOL    HW115329   2.762   0.174   3.883
 1150SOL    HW215330   2.647   0.256   3.938
 1151SOL     OW15331   4.416   3.712  19.156
 1151SOL    HW115332   4.510   3.724  19.169
 1151SOL    HW215333   4.385   3.797  19.125
 1152SOL     OW15334   2.468   0.964  15.948
 1152SOL    HW115335   2.486   0.964  16.042
 1152SOL    HW215336   2.551   0.942  15.907
 1153SOL     OW15337   0.768   0.465   0.734
 1153SOL    HW115338   0.713   0.393   0.703
 1153SOL    HW215339   0.708   0.523   0.780
 1154SOL     OW15340   0.559   4.694   2.925
 1154SOL    HW115341   0.637   4.647   2.898
 1154SOL    HW215342   0.547   4.673   3.017
 1155SOL     OW15343   2.691   0.984   5.268
 1155SOL    HW115344   2.652   0.988   5.355
 1155SOL    HW215345   2.726   1.072   5.254
 1156SOL     OW15346   4.420   0.123   5.749
 1156SOL    HW115347   4.407   0.042   5.699
 1156SOL    HW215348   4.355   0.183   5.713
 1157SOL     OW15349   0.685   4.654  13.875
 1157SOL    HW115350   0.729   4.692  13.799
 1157SOL    HW215351   0.642   4.576  13.841
 1158SOL     OW15352   0.670   3.527  15.060
 1158SOL    HW115353   0.708   3.480  15.134
 1158SOL    HW215354   0.602   3.469  15.027
 1159SOL     OW15355   0.947   0.655  15.289
 1159SOL    HW115356   0.955   0.704  15.371
 1159SOL    HW215357   1.033   0.663  15.248
 1160SOL     OW15358   4.757   1.708  19.580
 1160SOL    HW115359   4.698   1.687  19.508
 1160SOL    HW215360   4.792   1.623  19.608
 1161SOL     OW15361   1.269   1.349   5.794
 1161SOL    HW115362   1.185   1.303   5.796
 1161SOL    HW215363   1.261   1.413   5.724
 1162SOL     OW15364   3.417   2.469   2.362
 1162SOL    HW115365   3.348   2.445   2.300
 1162SOL    HW215366   3.385   2.547   2.405
 1163SOL     OW15367   2.166   1.743  19.152
 1163SOL    HW115368   2.172   1.713  19.061
 1163SOL    HW215369   2.076   1.724  19.178
 1164SOL     OW15370   0.707   0.109  17.876
 1164SOL    HW115371   0.794   0.073  17.857
 1164SOL    HW215372   0.707   0.195  17.833
 1165SOL     OW15373   3.468   2.166   6.838
 1165SOL    HW115374   3.540   2.196   6.893
 1165SOL    HW215375   3.472   2.222   6.760
 1166SOL     OW15376   1.561   4.455  13.301
 1166SOL    HW115377   1.582   4.545  13.325
 1166SOL    HW215378   1.489   4.463  13.239
 1167SOL     OW15379   3.669   1.801  15.283
 1167SOL    HW115380   3.579   1.831  15.291
 1167SOL    HW215381   3.722   1.872  15.320
 1168SOL     OW15382   1.506   0.316   0.570
 1168SOL    HW115383   1.419   0.317   0.611
 1168SOL    HW215384   1.499   0.253   0.499
 1169SOL     OW15385   4.480   1.360  14.769
 1169SOL    HW115386   4.420   1.347  14.842
 1169SOL    HW215387   4.482   1.455  14.755
 1170SOL     OW15388   1.737   0.020   6.135
 1170SOL    HW115389   1.807   0.080   6.162
 1170SOL    HW215390   1.768   4.776   6.052
 1171SOL     OW15391   0.963   3.417  14.195
 1171SOL    HW115392   0.957   3.438  14.288
 1171SOL    HW215393   0.886   3.458  14.155
 1172SOL     OW15394   0.936   2.665   2.251
 1172SOL    HW115395   0.981   2.645   2.334
 1172SOL    HW215396   0.940   2.583   2.202
 1173SOL     OW15397   4.413   4.668   0.523
 1173SOL    HW115398   4.421   4.636   0.613
 1173SOL    HW215399   4.363   4.599   0.478
 1174SOL     OW15400   4.639   4.049   7.969
 1174SOL    HW115401   4.630   3.955   7.956
 1174SOL    HW215402   4.696   4.079   7.899
 1175SOL     OW15403   1.304   3.659  20.833
 1175SOL    HW115404   1.309   3.735  20.892
 1175SOL    HW215405   1.359   3.683  20.759
 1176SOL     OW15406   2.536   0.056  19.039
 1176SOL    HW115407   2.531   4.789  19.113
 1176SOL    HW215408   2.576   0.005  18.968
 1177SOL     OW15409   4.346   1.444   6.072
 1177SOL    HW115410   4.408   1.373   6.089
 1177SOL    HW215411   4.401   1.523   6.070
 1178SOL     OW15412   0.771   1.346  15.267
 1178SOL    HW115413   0.803   1.431  15.297
 1178SOL    HW215414   0.839   1.284  15.295
 1179SOL     OW15415   3.997   1.972  19.143
 1179SOL    HW115416   3.977   1.891  19.190
 1179SOL    HW215417   3.965   1.958  19.055
 1180SOL     OW15418   4.725   3.729   2.592
 1180SOL    HW115419   4.680   3.758   2.672
 1180SOL    HW215420   4.661   3.674   2.547
 1181SOL     OW15421   3.928   4.251  20.073
 1181SOL    HW115422   3.933   4.168  20.026
 1181SOL    HW215423   4.018   4.285  20.071
 1182SOL     OW15424   2.175   3.048   4.191
 1182SOL    HW115425   2.226   3.119   4.230
 1182SOL    HW215426   2.172   3.070   4.098
 1183SOL     OW15427   2.289   2.256  15.643
 1183SOL    HW115428   2.316   2.188  15.705
 1183SOL    HW215429   2.358   2.322  15.648
 1184SOL     OW15430   3.542   2.077  16.133
 1184SOL    HW115431   3.635   2.057  16.143
 1184SOL    HW215432   3.499   1.991  16.131
 1185SOL     OW15433   1.713   0.277  14.349
 1185SOL    HW115434   1.618   0.263  14.353
 1185SOL    HW215435   1.729   0.294  14.256
 1186SOL     OW15436   2.192   2.852  19.274
 1186SOL    HW115437   2.096   2.856  19.275
 1186SOL    HW215438   2.213   2.771  19.320
 1187SOL     OW15439   3.151   0.160  17.952
 1187SOL    HW115440   3.117   0.214  18.024
 1187SOL    HW215441   3.073   0.139  17.899
 1188SOL     OW15442   3.695   2.630   1.923
 1188SOL    HW115443   3.600   2.635   1.926
 1188SOL    HW215444   3.721   2.624   2.015
 1189SOL     OW15445   0.753   2.101  16.836
 1189SOL    HW115446   0.819   2.032  16.841
 1189SOL    HW215447   0.674   2.061  16.873
 1190SOL     OW15448   1.599   1.475  17.677
 1190SOL    HW115449   1.629   1.387  17.652
 1190SOL    HW215450   1.577   1.467  17.770
 1191SOL     OW15451   1.533   3.107  15.093
 1191SOL    HW115452   1.503   3.185  15.045
 1191SOL    HW215453   1.519   3.129  15.185
 1192SOL     OW15454   3.426   3.579   4.033
 1192SOL    HW115455   3.425   3.533   4.117
 1192SOL    HW215456   3.457   3.513   3.970
 1193SOL     OW15457   4.656   3.580   1.134
 1193SOL    HW115458   4.641   3.623   1.218
 1193SOL    HW215459   4.751   3.570   1.128
 1194SOL     OW15460   1.970   2.428   2.285
 1194SOL    HW115461   1.983   2.523   2.285
 1194SOL    HW215462   1.978   2.403   2.376
 1195SOL     OW15463   3.166   0.193   4.439
 1195SOL    HW115464   3.224   0.269   4.439
 1195SOL    HW215465   3.221   0.120   4.468
 1196SOL     OW15466   4.282   3.671  16.679
 1196SOL    HW115467   4.216   3.603  16.663
 1196SOL    HW215468   4.338   3.634  16.747
 1197SOL     OW15469   3.590   0.026  21.231
 1197SOL    HW115470   3.501   0.056  21.247
 1197SOL    HW215471   3.646   0.090   0.001
 1198SOL     OW15472   2.667   2.717   0.773
 1198SOL    HW115473   2.633   2.753   0.691
 1198SOL    HW215474   2.599   2.658   0.804
 1199SOL     OW15475   1.786   1.773   3.898
 1199SOL    HW115476   1.830   1.848   3.938
 1199SOL    HW215477   1.847   1.700   3.910
 1200SOL     OW15478   0.064   2.697  16.774
 1200SOL    HW115479   0.072   2.764  16.842
 1200SOL    HW215480   0.089   2.616  16.817
 1201SOL     OW15481   0.474   1.527  17.698
 1201SOL    HW115482   0.467   1.445  17.747
 1201SOL    HW215483   0.396   1.528  17.642
 1202SOL     OW15484   4.317   3.747  14.900
 1202SOL    HW115485   4.388   3.794  14.943
 1202SOL    HW215486   4.346   3.737  14.810
 1203SOL     OW15487   0.678   1.618  17.495
 1203SOL    HW115488   0.706   1.529  17.518
 1203SOL    HW215489   0.606   1.636  17.555
 1204SOL     OW15490   0.570   1.800   2.571
 1204SOL    HW115491   0.552   1.716   2.613
 1204SOL    HW215492   0.490   1.822   2.524
 1205SOL     OW15493   4.410   2.159  16.646
 1205SOL    HW115494   4.374   2.186  16.561
 1205SOL    HW215495   4.393   2.233  16.704
 1206SOL     OW15496   4.323   1.570   4.629
 1206SOL    HW115497   4.401   1.515   4.634
 1206SOL    HW215498   4.311   1.601   4.718
 1207SOL     OW15499   0.705   0.860   6.231
 1207SOL    HW115500   0.723   0.766   6.235
 1207SOL    HW215501   0.657   0.872   6.149
 1208SOL     OW15502   0.536   3.710  19.326
 1208SOL    HW115503   0.540   3.620  19.360
 1208SOL    HW215504   0.446   3.719  19.295
 1209SOL     OW15505   1.575   1.002  15.308
 1209SOL    HW115506   1.524   0.930  15.347
 1209SOL    HW215507   1.552   1.079  15.360
 1210SOL     OW15508   0.040   2.516  15.096
 1210SOL    HW115509   0.022   2.432  15.139
 1210SOL    HW215510   4.749   2.560  15.094
 1211SOL     OW15511   2.407   3.340   4.596
 1211SOL    HW115512   2.379   3.415   4.649
 1211SOL    HW215513   2.502   3.351   4.588
 1212SOL     OW15514   1.505   2.409  13.437
 1212SOL    HW115515   1.563   2.333  13.434
 1212SOL    HW215516   1.424   2.379  13.397
 1213SOL     OW15517   3.749   2.235  17.959
 1213SOL    HW115518   3.830   2.214  18.005
 1213SOL    HW215519   3.768   2.217  17.867
 1214SOL     OW15520   4.164   0.206  16.832
 1214SOL    HW115521   4.251   0.212  16.793
 1214SOL    HW215522   4.137   0.298  16.842
 1215SOL     OW15523   4.455   3.017   2.207
 1215SOL    HW115524   4.524   3.078   2.233
 1215SOL    HW215525   4.500   2.952   2.152
 1216SOL     OW15526   0.562   0.954   4.625
 1216SOL    HW115527   0.491   0.892   4.640
 1216SOL    HW215528   0.625   0.935   4.694
 1217SOL     OW15529   2.010   0.065   2.453
 1217SOL    HW115530   1.944   0.127   2.420
 1217SOL    HW215531   2.073   0.119   2.500
 1218SOL     OW15532   2.272   4.076  16.945
 1218SOL    HW115533   2.281   4.007  17.011
 1218SOL    HW215534   2.187   4.116  16.964
 1219SOL     OW15535   3.635   1.630   4.255
 1219SOL    HW115536   3.620   1.620   4.161
 1219SOL    HW215537   3.620   1.543   4.291
 1220SOL     OW15538   1.767   1.072   2.385
 1220SOL    HW115539   1.743   1.047   2.295
 1220SOL    HW215540   1.695   1.127   2.414
 1221SOL     OW15541   3.116   0.845  15.805
 1221SOL    HW115542   3.079   0.762  15.834
 1221SOL    HW215543   3.127   0.896  15.886
 1222SOL     OW15544   4.263   1.505   8.705
 1222SOL    HW115545   4.221   1.424   8.736
 1222SOL    HW215546   4.331   1.523   8.770
 1223SOL     OW15547   1.955   1.160   3.434
 1223SOL    HW115548   2.000   1.114   3.364
 1223SOL    HW215549   1.967   1.253   3.413
 1224SOL     OW15550   3.786   4.043   0.925
 1224SOL    HW115551   3.707   4.045   0.870
 1224SOL    HW215552   3.849   4.098   0.878
 1225SOL     OW15553   0.708   4.706   0.413
 1225SOL    HW115554   0.761   4.677   0.338
 1225SOL    HW215555   0.770   4.715   0.485
 1226SOL     OW15556   0.562   1.493   8.820
 1226SOL    HW115557   0.545   1.480   8.913
 1226SOL    HW215558   0.488   1.546   8.789
 1227SOL     OW15559   2.599   3.433   2.442
 1227SOL    HW115560   2.666   3.484   2.488
 1227SOL    HW215561   2.630   3.430   2.351
 1228SOL     OW15562   1.216   2.438  17.263
 1228SOL    HW115563   1.222   2.346  17.289
 1228SOL    HW215564   1.247   2.486  17.340
 1229SOL     OW15565   3.894   3.715  17.152
 1229SOL    HW115566   3.957   3.783  17.177
 1229SOL    HW215567   3.812   3.742  17.194
 1230SOL     OW15568   0.403   4.593   7.166
 1230SOL    HW115569   0.393   4.630   7.254
 1230SOL    HW215570   0.364   4.659   7.108
 1231SOL     OW15571   4.161   4.403  13.986
 1231SOL    HW115572   4.250   4.376  13.967
 1231SOL    HW215573   4.136   4.349  14.062
 1232SOL     OW15574   1.681   2.037   5.071
 1232SOL    HW115575   1.759   1.988   5.097
 1232SOL    HW215576   1.623   2.034   5.147
 1233SOL     OW15577   2.410   1.531   6.317
 1233SOL    HW115578   2.398   1.496   6.406
 1233SOL    HW215579   2.336   1.496   6.268
 1234SOL     OW15580   1.331   1.651  21.061
 1234SOL    HW115581   1.262   1.652  20.994
 1234SOL    HW215582   1.317   1.732  21.111
 1235SOL     OW15583   4.398   2.430  19.825
 1235SOL    HW115584   4.439   2.390  19.902
 1235SOL    HW215585   4.427   2.521  19.827
 1236SOL     OW15586   2.489   2.642   4.292
 1236SOL    HW115587   2.420   2.690   4.245
 1236SOL    HW215588   2.541   2.602   4.222
 1237SOL     OW15589   0.069   0.637   5.276
 1237SOL    HW115590   4.786   0.593   5.239
 1237SOL    HW215591   0.066   0.726   5.240
 1238SOL     OW15592   0.061   1.814  20.508
 1238SOL    HW115593   0.052   1.765  20.426
 1238SOL    HW215594   0.075   1.905  20.480
 1239SOL     OW15595   4.741   0.252  15.679
 1239SOL    HW115596   4.678   0.187  15.710
 1239SOL    HW215597   4.697   0.296  15.606
 1240SOL     OW15598   1.919   4.231   6.437
 1240SOL    HW115599   1.994   4.241   6.496
 1240SOL    HW215600   1.952   4.258   6.351
 1241SOL     OW15601   1.262   0.404  21.189
 1241SOL    HW115602   1.335   0.365  21.237
 1241SOL    HW215603   1.184   0.384  21.242
 1242SOL     OW15604   2.961   3.386  16.864
 1242SOL    HW115605   2.950   3.338  16.947
 1242SOL    HW215606   2.891   3.452  16.865
 1243SOL     OW15607   0.669   2.346   0.021
 1243SOL    HW115608   0.647   2.259  21.259
 1243SOL    HW215609   0.584   2.389   0.033
 1244SOL     OW15610   2.318   4.478  16.023
 1244SOL    HW115611   2.273   4.433  16.095
 1244SOL    HW215612   2.250   4.493  15.958
 1245SOL     OW15613   2.805   2.258   5.780
 1245SOL    HW115614   2.888   2.305   5.789
 1245SOL    HW215615   2.829   2.170   5.755
 1246SOL     OW15616   3.582   0.417   2.692
 1246SOL    HW115617   3.536   0.334   2.705
 1246SOL    HW215618   3.612   0.413   2.601
 1247SOL     OW15619   0.149   2.914   4.660
 1247SOL    HW115620   0.148   2.824   4.628
 1247SOL    HW215621   0.056   2.936   4.673
 1248SOL     OW15622   1.292   0.831  17.514
 1248SOL    HW115623   1.213   0.803  17.468
 1248SOL    HW215624   1.318   0.912  17.471
 1249SOL     OW15625   1.027   1.573   4.351
 1249SOL    HW115626   1.119   1.549   4.362
 1249SOL    HW215627   1.005   1.621   4.431
 1250SOL     OW15628   3.305   4.665   2.513
 1250SOL    HW115629   3.210   4.658   2.501
 1250SOL    HW215630   3.342   4.615   2.441
 1251SOL     OW15631   2.977   1.594  18.342
 1251SOL    HW115632   2.937   1.597  18.429
 1251SOL    HW215633   2.962   1.681  18.306
 1252SOL     OW15634   1.583   0.560   4.252
 1252SOL    HW115635   1.509   0.533   4.198
 1252SOL    HW215636   1.640   0.608   4.193
 1253SOL     OW15637   3.981   2.280   2.902
 1253SOL    HW115638   3.894   2.317   2.917
 1253SOL    HW215639   3.964   2.188   2.879
 1254SOL     OW15640   3.440   2.386  20.998
 1254SOL    HW115641   3.352   2.410  20.971
 1254SOL    HW215642   3.470   2.323  20.933
 1255SOL     OW15643   4.261   3.698   3.385
 1255SOL    HW115644   4.248   3.689   3.480
 1255SOL    HW215645   4.352   3.671   3.371
 1256SOL     OW15646   2.629   1.392   4.998
 1256SOL    HW115647   2.686   1.360   4.928
 1256SOL    HW215648   2.541   1.374   4.967
 1257SOL     OW15649   1.455   3.737   4.513
 1257SOL    HW115650   1.455   3.824   4.553
 1257SOL    HW215651   1.545   3.726   4.481
 1258SOL     OW15652   4.773   1.781  16.781
 1258SOL    HW115653   4.785   1.814  16.870
 1258SOL    HW215654   4.752   1.859  16.729
 1259SOL     OW15655   0.643   2.306   5.437
 1259SOL    HW115656   0.556   2.267   5.445
 1259SOL    HW215657   0.638   2.388   5.487
 1260SOL     OW15658   1.864   4.504  17.656
 1260SOL    HW115659   1.892   4.580  17.605
 1260SOL    HW215660   1.905   4.516  17.742
 1261SOL     OW15661   3.211   1.422  17.287
 1261SOL    HW115662   3.225   1.423  17.382
 1261SOL    HW215663   3.134   1.477  17.274
 1262SOL     OW15664   0.400   4.698  17.319
 1262SOL    HW115665   0.339   4.651  17.261
 1262SOL    HW215666   0.349   4.714  17.399
 1263SOL     OW15667   4.498   4.095  20.934
 1263SOL    HW115668   4.408   4.094  20.904
 1263SOL    HW215669   4.549   4.062  20.860
 1264SOL     OW15670   1.334   3.791  19.694
 1264SOL    HW115671   1.367   3.705  19.670
 1264SOL    HW215672   1.265   3.809  19.630
 1265SOL     OW15673   1.850   0.755  19.596
 1265SOL    HW115674   1.781   0.734  19.533
 1265SOL    HW215675   1.815   0.728  19.680
 1266SOL     OW15676   3.131   2.052  15.692
 1266SOL    HW115677   3.152   2.033  15.783
 1266SOL    HW215678   3.214   2.082  15.654
 1267SOL     OW15679   3.897   3.241   1.799
 1267SOL    HW115680   3.853   3.254   1.883
 1267SOL    HW215681   3.879   3.321   1.749
 1268SOL     OW15682   4.361   2.502   4.617
 1268SOL    HW115683   4.288   2.549   4.657
 1268SOL    HW215684   4.390   2.441   4.684
 1269SOL     OW15685   4.457   1.904  20.341
 1269SOL    HW115686   4.364   1.903  20.319
 1269SOL    HW215687   4.482   1.812  20.342
 1270SOL     OW15688   0.907   4.133   3.718
 1270SOL    HW115689   0.917   4.175   3.632
 1270SOL    HW215690   0.965   4.057   3.713
 1271SOL     OW15691   1.921   0.326   4.565
 1271SOL    HW115692   2.012   0.294   4.565
 1271SOL    HW215693   1.914   0.378   4.485
 1272SOL     OW15694   0.307   2.704   6.015
 1272SOL    HW115695   0.385   2.730   5.967
 1272SOL    HW215696   0.268   2.786   6.044
 1273SOL     OW15697   3.839   2.958  17.622
 1273SOL    HW115698   3.791   3.024  17.572
 1273SOL    HW215699   3.859   2.890  17.559
 1274SOL     OW15700   2.251   0.010   8.344
 1274SOL    HW115701   2.186   4.759   8.398
 1274SOL    HW215702   2.327   0.019   8.401
 1275SOL     OW15703   3.974   2.235   4.361
 1275SOL    HW115704   3.939   2.198   4.279
 1275SOL    HW215705   3.898   2.245   4.417
 1276SOL     OW15706   2.204   2.006   3.714
 1276SOL    HW115707   2.180   2.027   3.624
 1276SOL    HW215708   2.214   1.911   3.714
 1277SOL     OW15709   1.231   0.107  20.864
 1277SOL    HW115710   1.140   0.079  20.860
 1277SOL    HW215711   1.262   0.077  20.949
 1278SOL     OW15712   2.677   4.630   4.945
 1278SOL    HW115713   2.648   4.664   5.029
 1278SOL    HW215714   2.749   4.571   4.966
 1279SOL     OW15715   2.491   2.147  18.299
 1279SOL    HW115716   2.521   2.063  18.334
 1279SOL    HW215717   2.476   2.201  18.377
 1280SOL     OW15718   3.955   3.140   7.787
 1280SOL    HW115719   4.016   3.168   7.718
 1280SOL    HW215720   3.946   3.045   7.774
 1281SOL     OW15721   3.032   1.746  19.979
 1281SOL    HW115722   2.939   1.742  19.953
 1281SOL    HW215723   3.039   1.828  20.027
 1282SOL     OW15724   0.128   1.684   0.256
 1282SOL    HW115725   0.128   1.601   0.208
 1282SOL    HW215726   0.218   1.715   0.248
 1283SOL     OW15727   3.559   4.394  17.630
 1283SOL    HW115728   3.564   4.438  17.545
 1283SOL    HW215729   3.640   4.418  17.675
 1284SOL     OW15730   1.836   2.267   3.891
 1284SOL    HW115731   1.931   2.267   3.899
 1284SOL    HW215732   1.818   2.215   3.812
 1285SOL     OW15733   1.937   2.620   3.259
 1285SOL    HW115734   2.030   2.634   3.277
 1285SOL    HW215735   1.906   2.568   3.333
 1286SOL     OW15736   0.591   4.086  19.995
 1286SOL    HW115737   0.649   4.025  19.950
 1286SOL    HW215738   0.504   4.044  19.990
 1287SOL     OW15739   4.534   3.237  20.640
 1287SOL    HW115740   4.532   3.330  20.661
 1287SOL    HW215741   4.442   3.214  20.626
 1288SOL     OW15742   0.352   3.005   5.320
 1288SOL    HW115743   0.368   3.085   5.270
 1288SOL    HW215744   0.277   2.964   5.276
 1289SOL     OW15745   1.156   1.845   5.654
 1289SOL    HW115746   1.091   1.843   5.584
 1289SOL    HW215747   1.217   1.774   5.633
 1290SOL     OW15748   4.741   3.271   6.751
 1290SOL    HW115749   4.771   3.361   6.762
 1290SOL    HW215750   0.002   3.237   6.679
 1291SOL     OW15751   3.316   0.888  18.870
 1291SOL    HW115752   3.296   0.816  18.810
 1291SOL    HW215753   3.380   0.942  18.823
 1292SOL     OW15754   4.366   3.288  18.888
 1292SOL    HW115755   4.338   3.379  18.882
 1292SOL    HW215756   4.336   3.259  18.974
 1293SOL     OW15757   4.312   1.849  17.466
 1293SOL    HW115758   4.401   1.823  17.491
 1293SOL    HW215759   4.319   1.943  17.448
 1294SOL     OW15760   4.268   3.244  15.216
 1294SOL    HW115761   4.251   3.337  15.227
 1294SOL    HW215762   4.298   3.235  15.126
 1295SOL     OW15763   4.532   2.177  12.831
 1295SOL    HW115764   4.480   2.226  12.894
 1295SOL    HW215765   4.493   2.089  12.831
 1296SOL     OW15766   2.119   4.486   1.851
 1296SOL    HW115767   2.165   4.404   1.862
 1296SOL    HW215768   2.071   4.499   1.933
 1297SOL     OW15769   4.605   4.001   5.316
 1297SOL    HW115770   4.556   3.919   5.327
 1297SOL    HW215771   4.591   4.024   5.224
 1298SOL     OW15772   2.559   0.335   5.974
 1298SOL    HW115773   2.621   0.406   5.989
 1298SOL    HW215774   2.581   0.302   5.887
 1299SOL     OW15775   3.541   1.962   3.226
 1299SOL    HW115776   3.601   2.001   3.290
 1299SOL    HW215777   3.589   1.887   3.191
 1300SOL     OW15778   1.998   3.355  17.652
 1300SOL    HW115779   2.061   3.293  17.689
 1300SOL    HW215780   1.973   3.316  17.568
 1301SOL     OW15781   4.720   4.107  17.447
 1301SOL    HW115782   4.651   4.172  17.434
 1301SOL    HW215783   0.006   4.149  17.414
 1302SOL     OW15784   2.776   0.480   3.746
 1302SOL    HW115785   2.838   0.521   3.805
 1302SOL    HW215786   2.756   0.395   3.786
 1303SOL     OW15787   3.595   3.511   2.741
 1303SOL    HW115788   3.601   3.567   2.818
 1303SOL    HW215789   3.531   3.444   2.763
 1304SOL     OW15790   4.394   0.456   3.283
 1304SOL    HW115791   4.462   0.392   3.303
 1304SOL    HW215792   4.370   0.440   3.192
 1305SOL     OW15793   1.902   2.872  19.280
 1305SOL    HW115794   1.852   2.944  19.317
 1305SOL    HW215795   1.868   2.794  19.325
 1306SOL     OW15796   3.640   4.160  18.551
 1306SOL    HW115797   3.615   4.068  18.562
 1306SOL    HW215798   3.686   4.182  18.632
 1307SOL     OW15799   2.552   1.186   4.555
 1307SOL    HW115800   2.553   1.237   4.636
 1307SOL    HW215801   2.568   1.096   4.583
 1308SOL     OW15802   3.438   4.469   2.341
 1308SOL    HW115803   3.516   4.447   2.289
 1308SOL    HW215804   3.449   4.421   2.423
 1309SOL     OW15805   3.507   1.151  16.192
 1309SOL    HW115806   3.577   1.160  16.257
 1309SOL    HW215807   3.502   1.237  16.150
 1310SOL     OW15808   2.244   1.297  19.850
 1310SOL    HW115809   2.339   1.290  19.841
 1310SOL    HW215810   2.214   1.334  19.767
 1311SOL     OW15811   2.070   1.822  20.033
 1311SOL    HW115812   2.031   1.899  19.991
 1311SOL    HW215813   2.130   1.859  20.098
 1312SOL     OW15814   0.836   0.179   3.058
 1312SOL    HW115815   0.750   0.184   3.098
 1312SOL    HW215816   0.865   0.089   3.073
 1313SOL     OW15817   2.367   1.078   1.796
 1313SOL    HW115818   2.299   1.127   1.750
 1313SOL    HW215819   2.341   0.986   1.787
 1314SOL     OW15820   2.839   3.928   9.672
 1314SOL    HW115821   2.886   3.875   9.608
 1314SOL    HW215822   2.905   3.987   9.708
 1315SOL     OW15823   1.543   3.785   3.564
 1315SOL    HW115824   1.505   3.754   3.483
 1315SOL    HW215825   1.540   3.710   3.623
 1316SOL     OW15826   0.126   0.296   0.490
 1316SOL    HW115827   0.061   0.345   0.440
 1316SOL    HW215828   0.079   0.222   0.526
 1317SOL     OW15829   0.582   1.583   7.057
 1317SOL    HW115830   0.565   1.672   7.025
 1317SOL    HW215831   0.627   1.540   6.985
 1318SOL     OW15832   3.142   3.343  18.399
 1318SOL    HW115833   3.143   3.413  18.464
 1318SOL    HW215834   3.127   3.388  18.316
 1319SOL     OW15835   2.294   4.460  20.883
 1319SOL    HW115836   2.286   4.400  20.957
 1319SOL    HW215837   2.355   4.527  20.913
 1320SOL     OW15838   2.982   2.447  13.994
 1320SOL    HW115839   3.035   2.369  13.977
 1320SOL    HW215840   2.982   2.495  13.910
 1321SOL     OW15841   0.748   1.645  13.023
 1321SOL    HW115842   0.834   1.684  13.007
 1321SOL    HW215843   0.713   1.629  12.936
 1322SOL     OW15844   4.420   3.232  19.425
 1322SOL    HW115845   4.376   3.269  19.501
 1322SOL    HW215846   4.404   3.137  19.432
 1323SOL     OW15847   1.149   2.358   8.162
 1323SOL    HW115848   1.084   2.287   8.156
 1323SOL    HW215849   1.127   2.404   8.243
 1324SOL     OW15850   0.183   2.009   6.624
 1324SOL    HW115851   0.242   2.048   6.560
 1324SOL    HW215852   0.114   1.968   6.571
 1325SOL     OW15853   1.931   3.049   9.871
 1325SOL    HW115854   1.991   3.068   9.943
 1325SOL    HW215855   1.847   3.033   9.913
 1326SOL     OW15856   1.596   2.708  19.848
 1326SOL    HW115857   1.654   2.637  19.821
 1326SOL    HW215858   1.547   2.730  19.768
 1327SOL     OW15859   4.513   0.015   0.180
 1327SOL    HW115860   4.423   4.776   0.184
 1327SOL    HW215861   4.565   4.738   0.217
 1328SOL     OW15862   4.025   3.839  16.631
 1328SOL    HW115863   3.954   3.853  16.694
 1328SOL    HW215864   4.101   3.816  16.684
 1329SOL     OW15865   3.976   4.618   1.873
 1329SOL    HW115866   4.028   4.588   1.947
 1329SOL    HW215867   3.895   4.650   1.912
 1330SOL     OW15868   2.015   1.991   2.279
 1330SOL    HW115869   2.055   2.070   2.242
 1330SOL    HW215870   2.038   1.993   2.372
 1331SOL     OW15871   0.575   2.186   5.942
 1331SOL    HW115872   0.528   2.128   6.001
 1331SOL    HW215873   0.511   2.253   5.918
 1332SOL     OW15874   1.491   1.310  14.429
 1332SOL    HW115875   1.488   1.393  14.382
 1332SOL    HW215876   1.504   1.244  14.360
 1333SOL     OW15877   2.510   3.281  18.826
 1333SOL    HW115878   2.552   3.197  18.805
 1333SOL    HW215879   2.417   3.264  18.813
 1334SOL     OW15880   1.844   3.102  17.557
 1334SOL    HW115881   1.786   3.149  17.617
 1334SOL    HW215882   1.799   3.104  17.473
 1335SOL     OW15883   4.624   4.562   0.247
 1335SOL    HW115884   4.718   4.582   0.244
 1335SOL    HW215885   4.611   4.526   0.335
 1336SOL     OW15886   4.765   1.312  19.326
 1336SOL    HW115887   0.014   1.332  19.242
 1336SOL    HW215888   0.000   1.223  19.346
 1337SOL     OW15889   3.614   1.131   1.286
 1337SOL    HW115890   3.587   1.136   1.194
 1337SOL    HW215891   3.657   1.215   1.303
 1338SOL     OW15892   2.402   1.678  20.856
 1338SOL    HW115893   2.485   1.706  20.817
 1338SOL    HW215894   2.371   1.608  20.798
 1339SOL     OW15895   1.207   3.011  20.638
 1339SOL    HW115896   1.114   3.025  20.622
 1339SOL    HW215897   1.213   2.922  20.671
 1340SOL     OW15898   0.295   0.018   4.313
 1340SOL    HW115899   0.250   4.733   4.281
 1340SOL    HW215900   0.360   0.038   4.246
 1341SOL     OW15901   3.983   3.276  19.581
 1341SOL    HW115902   4.048   3.345  19.579
 1341SOL    HW215903   3.899   3.320  19.566
 1342SOL     OW15904   2.624   4.611   1.473
 1342SOL    HW115905   2.539   4.642   1.441
 1342SOL    HW215906   2.602   4.549   1.543
 1343SOL     OW15907   0.665   2.908   3.313
 1343SOL    HW115908   0.743   2.869   3.352
 1343SOL    HW215909   0.631   2.967   3.381
 1344SOL     OW15910   4.331   2.687   1.917
 1344SOL    HW115911   4.309   2.730   2.000
 1344SOL    HW215912   4.420   2.655   1.929
 1345SOL     OW15913   0.538   3.237  15.594
 1345SOL    HW115914   0.571   3.284  15.517
 1345SOL    HW215915   0.481   3.169  15.558
 1346SOL     OW15916   3.222   1.218  20.625
 1346SOL    HW115917   3.224   1.130  20.589
 1346SOL    HW215918   3.301   1.225  20.678
 1347SOL     OW15919   0.170   4.257   5.350
 1347SOL    HW115920   0.155   4.324   5.416
 1347SOL    HW215921   0.264   4.239   5.356
 1348SOL     OW15922   3.944   3.460   5.052
 1348SOL    HW115923   3.850   3.477   5.056
 1348SOL    HW215924   3.975   3.481   5.140
 1349SOL     OW15925   3.128   0.167   0.590
 1349SOL    HW115926   3.175   0.239   0.548
 1349SOL    HW215927   3.049   0.207   0.625
 1350SOL     OW15928   3.861   2.785   6.812
 1350SOL    HW115929   3.877   2.838   6.890
 1350SOL    HW215930   3.943   2.790   6.763
 1351SOL     OW15931   4.235   4.353   0.677
 1351SOL    HW115932   4.195   4.424   0.626
 1351SOL    HW215933   4.317   4.391   0.709
 1352SOL     OW15934   2.825   0.774   0.803
 1352SOL    HW115935   2.877   0.848   0.833
 1352SOL    HW215936   2.735   0.807   0.802
 1353SOL     OW15937   3.104   2.209   0.303
 1353SOL    HW115938   3.134   2.179   0.389
 1353SOL    HW215939   3.023   2.258   0.321
 1354SOL     OW15940   0.096   1.067  19.307
 1354SOL    HW115941   0.049   0.984  19.305
 1354SOL    HW215942   0.188   1.042  19.302
 1355SOL     OW15943   1.369   0.223   2.415
 1355SOL    HW115944   1.422   0.273   2.477
 1355SOL    HW215945   1.390   0.261   2.329
 1356SOL     OW15946   0.817   3.350   1.687
 1356SOL    HW115947   0.818   3.304   1.771
 1356SOL    HW215948   0.853   3.437   1.706
 1357SOL     OW15949   1.472   2.955   1.439
 1357SOL    HW115950   1.483   2.883   1.501
 1357SOL    HW215951   1.497   2.918   1.355
 1358SOL     OW15952   0.915   1.427  10.981
 1358SOL    HW115953   0.835   1.415  10.930
 1358SOL    HW215954   0.913   1.356  11.045
 1359SOL     OW15955   4.500   3.729  21.025
 1359SOL    HW115956   4.593   3.751  21.030
 1359SOL    HW215957   4.472   3.765  20.940
 1360SOL     OW15958   1.947   3.627  15.443
 1360SOL    HW115959   1.918   3.566  15.511
 1360SOL    HW215960   1.938   3.578  15.362
 1361SOL     OW15961   4.692   2.181  14.985
 1361SOL    HW115962   4.636   2.258  14.990
 1361SOL    HW215963   4.694   2.159  14.891
 1362SOL     OW15964   2.803   4.384   4.988
 1362SOL    HW115965   2.884   4.374   4.939
 1362SOL    HW215966   2.734   4.362   4.925
 1363SOL     OW15967   3.897   2.822   7.297
 1363SOL    HW115968   3.912   2.821   7.392
 1363SOL    HW215969   3.881   2.730   7.275
 1364SOL     OW15970   1.502   2.007   1.107
 1364SOL    HW115971   1.508   2.059   1.186
 1364SOL    HW215972   1.458   2.064   1.044
 1365SOL     OW15973   2.224   2.619  20.805
 1365SOL    HW115974   2.153   2.568  20.766
 1365SOL    HW215975   2.211   2.708  20.772
 1366SOL     OW15976   0.345   1.330   4.167
 1366SOL    HW115977   0.391   1.319   4.084
 1366SOL    HW215978   0.384   1.264   4.225
 1367SOL     OW15979   3.273   0.963   6.395
 1367SOL    HW115980   3.243   0.966   6.485
 1367SOL    HW215981   3.198   0.929   6.346
 1368SOL     OW15982   1.652   2.141  18.113
 1368SOL    HW115983   1.688   2.224  18.146
 1368SOL    HW215984   1.707   2.074  18.152
 1369SOL     OW15985   3.004   4.573   5.601
 1369SOL    HW115986   2.965   4.643   5.653
 1369SOL    HW215987   2.963   4.493   5.634
 1370SOL     OW15988   0.074   4.218  20.459
 1370SOL    HW115989   4.777   4.190  20.473
 1370SOL    HW215990   0.074   4.311  20.481
 1371SOL     OW15991   3.644   3.607   1.492
 1371SOL    HW115992   3.697   3.585   1.416
 1371SOL    HW215993   3.635   3.524   1.540
 1372SOL     OW15994   2.117   0.710   5.315
 1372SOL    HW115995   2.073   0.678   5.236
 1372SOL    HW215996   2.110   0.806   5.308
 1373SOL     OW15997   0.971   1.833  19.459
 1373SOL    HW115998   0.890   1.815  19.507
 1373SOL    HW215999   1.017   1.897  19.513
 1374SOL     OW16000   1.706   2.450   0.903
 1374SOL    HW116001   1.748   2.521   0.951
 1374SOL    HW216002   1.743   2.456   0.815
 1375SOL     OW16003   3.398   3.017  14.758
 1375SOL    HW116004   3.398   3.105  14.720
 1375SOL    HW216005   3.480   2.978  14.729
 1376SOL     OW16006   0.445   3.727  12.099
 1376SOL    HW116007   0.404   3.777  12.170
 1376SOL    HW216008   0.514   3.785  12.066
 1377SOL     OW16009   2.474   3.695   3.349
 1377SOL    HW116010   2.496   3.619   3.403
 1377SOL    HW216011   2.526   3.683   3.269
 1378SOL     OW16012   0.680   4.627   1.131
 1378SOL    HW116013   0.595   4.634   1.086
 1378SOL    HW216014   0.657   4.616   1.223
 1379SOL     OW16015   2.045   0.471  20.630
 1379SOL    HW116016   2.090   0.545  20.671
 1379SOL    HW216017   1.975   0.449  20.691
 1380SOL     OW16018   2.462   4.198   2.563
 1380SOL    HW116019   2.400   4.270   2.561
 1380SOL    HW216020   2.530   4.226   2.624
 1381SOL     OW16021   2.112   3.348   5.257
 1381SOL    HW116022   2.056   3.298   5.198
 1381SOL    HW216023   2.056   3.364   5.334
 1382SOL     OW16024   3.590   3.898   5.888
 1382SOL    HW116025   3.674   3.887   5.932
 1382SOL    HW216026   3.577   3.993   5.885
 1383SOL     OW16027   4.014   4.267  18.612
 1383SOL    HW116028   4.066   4.207  18.558
 1383SOL    HW216029   4.015   4.349  18.563
 1384SOL     OW16030   4.732   0.409   0.321
 1384SOL    HW116031   4.734   0.333   0.263
 1384SOL    HW216032   4.761   0.482   0.267
 1385SOL     OW16033   2.909   0.752  18.936
 1385SOL    HW116034   2.851   0.727  19.008
 1385SOL    HW216035   2.929   0.844  18.951
 1386SOL     OW16036   2.154   1.043   3.244
 1386SOL    HW116037   2.115   1.025   3.159
 1386SOL    HW216038   2.230   1.099   3.225
 1387SOL     OW16039   4.570   0.597  11.318
 1387SOL    HW116040   4.634   0.649  11.366
 1387SOL    HW216041   4.613   0.513  11.302
 1388SOL     OW16042   0.568   2.824   0.986
 1388SOL    HW116043   0.636   2.833   0.920
 1388SOL    HW216044   0.528   2.911   0.992
 1389SOL     OW16045   3.056   1.676   0.097
 1389SOL    HW116046   3.016   1.589   0.090
 1389SOL    HW216047   2.982   1.737   0.099
 1390SOL     OW16048   1.470   4.564  18.705
 1390SOL    HW116049   1.450   4.545  18.613
 1390SOL    HW216050   1.524   4.490  18.733
 1391SOL     OW16051   4.489   3.368   0.332
 1391SOL    HW116052   4.530   3.445   0.373
 1391SOL    HW216053   4.500   3.298   0.396
 1392SOL     OW16054   4.746   1.579  18.031
 1392SOL    HW116055   0.010   1.636  17.979
 1392SOL    HW216056   4.780   1.490  18.015
 1393SOL     OW16057   4.342   0.342  14.910
 1393SOL    HW116058   4.290   0.319  14.987
 1393SOL    HW216059   4.428   0.366  14.945
 1394SOL     OW16060   0.055   4.589  21.022
 1394SOL    HW116061   0.077   4.601  20.930
 1394SOL    HW216062   4.767   4.638  21.034
 1395SOL     OW16063   3.303   0.732   3.943
 1395SOL    HW116064   3.281   0.651   3.987
 1395SOL    HW216065   3.219   0.775   3.926
 1396SOL     OW16066   1.637   1.919   6.077
 1396SOL    HW116067   1.687   1.840   6.058
 1396SOL    HW216068   1.583   1.897   6.153
 1397SOL     OW16069   0.153   4.518  19.721
 1397SOL    HW116070   0.219   4.526  19.789
 1397SOL    HW216071   0.185   4.447  19.665
 1398SOL     OW16072   1.065   4.700  17.291
 1398SOL    HW116073   1.116   4.626  17.325
 1398SOL    HW216074   1.010   4.728  17.364
 1399SOL     OW16075   3.816   0.864   5.137
 1399SOL    HW116076   3.896   0.912   5.160
 1399SOL    HW216077   3.811   0.793   5.201
 1400SOL     OW16078   1.238   4.624   5.970
 1400SOL    HW116079   1.222   4.704   6.020
 1400SOL    HW216080   1.317   4.587   6.008
 1401SOL     OW16081   2.602   4.126   0.475
 1401SOL    HW116082   2.553   4.142   0.395
 1401SOL    HW216083   2.679   4.182   0.469
 1402SOL     OW16084   3.260   4.668  20.500
 1402SOL    HW116085   3.170   4.690  20.476
 1402SOL    HW216086   3.251   4.610  20.575
 1403SOL     OW16087   3.827   4.539  19.352
 1403SOL    HW116088   3.768   4.580  19.414
 1403SOL    HW216089   3.780   4.539  19.269
 1404SOL     OW16090   0.514   4.559  16.638
 1404SOL    HW116091   0.436   4.603  16.671
 1404SOL    HW216092   0.566   4.629  16.599
 1405SOL     OW16093   4.710   3.703   0.884
 1405SOL    HW116094   4.728   3.658   0.967
 1405SOL    HW216095   4.744   3.644   0.817
 1406SOL     OW16096   3.977   4.578   3.882
 1406SOL    HW116097   4.023   4.591   3.965
 1406SOL    HW216098   3.962   4.667   3.848
 1407SOL     OW16099   3.724   1.332   5.292
 1407SOL    HW116100   3.672   1.269   5.342
 1407SOL    HW216101   3.659   1.386   5.247
 1408SOL     OW16102   1.391   2.351   3.985
 1408SOL    HW116103   1.478   2.317   4.004
 1408SOL    HW216104   1.339   2.274   3.963
 1409SOL     OW16105   3.533   2.688   5.480
 1409SOL    HW116106   3.536   2.770   5.431
 1409SOL    HW216107   3.563   2.711   5.567
 1410SOL     OW16108   4.068   2.816   3.643
 1410SOL    HW116109   4.082   2.819   3.549
 1410SOL    HW216110   4.108   2.896   3.677
 1411SOL     OW16111   4.354   3.126   0.245
 1411SOL    HW116112   4.406   3.206   0.241
 1411SOL    HW216113   4.288   3.144   0.312
 1412SOL     OW16114   1.405   4.590   4.886
 1412SOL    HW116115   1.320   4.626   4.909
 1412SOL    HW216116   1.468   4.655   4.919
 1413SOL     OW16117   4.371   2.105   3.060
 1413SOL    HW116118   4.447   2.085   3.116
 1413SOL    HW216119   4.408   2.155   2.987
 1414SOL     OW16120   2.026   1.555  20.172
 1414SOL    HW116121   2.049   1.647  20.158
 1414SOL    HW216122   2.111   1.509  20.171
 1415SOL     OW16123   1.550   2.352  19.438
 1415SOL    HW116124   1.487   2.369  19.368
 1415SOL    HW216125   1.510   2.391  19.516
 1416SOL     OW16126   1.316   3.680  19.954
 1416SOL    HW116127   1.329   3.685  19.859
 1416SOL    HW216128   1.268   3.599  19.967
 1417SOL     OW16129   1.478   3.783   6.976
 1417SOL    HW116130   1.558   3.749   7.016
 1417SOL    HW216131   1.486   3.760   6.883
 1418SOL     OW16132   1.518   2.809  20.805
 1418SOL    HW116133   1.506   2.781  20.714
 1418SOL    HW216134   1.537   2.728  20.852
 1419SOL     OW16135   1.331   4.782  19.716
 1419SOL    HW116136   1.425   4.763  19.728
 1419SOL    HW216137   1.309   0.048  19.787
 1420SOL     OW16138   3.099   3.877   5.333
 1420SOL    HW116139   3.135   3.966   5.326
 1420SOL    HW216140   3.128   3.847   5.419
 1421SOL     OW16141   3.879   4.416   6.151
 1421SOL    HW116142   3.879   4.342   6.211
 1421SOL    HW216143   3.793   4.456   6.161
 1422SOL     OW16144   1.692   3.312   1.986
 1422SOL    HW116145   1.621   3.325   2.048
 1422SOL    HW216146   1.772   3.329   2.036
 1423SOL     OW16147   4.196   1.101   2.345
 1423SOL    HW116148   4.273   1.153   2.370
 1423SOL    HW216149   4.188   1.115   2.250
 1424SOL     OW16150   0.235   3.733   4.234
 1424SOL    HW116151   0.331   3.741   4.229
 1424SOL    HW216152   0.220   3.653   4.285
 1425SOL     OW16153   4.161   3.433   1.710
 1425SOL    HW116154   4.067   3.428   1.691
 1425SOL    HW216155   4.179   3.526   1.722
 1426SOL     OW16156   1.951   1.239   1.119
 1426SOL    HW116157   1.943   1.320   1.170
 1426SOL    HW216158   1.997   1.266   1.039
 1427SOL     OW16159   2.264   3.357  15.232
 1427SOL    HW116160   2.250   3.430  15.292
 1427SOL    HW216161   2.357   3.337  15.240
 1428SOL     OW16162   0.834   4.381   1.107
 1428SOL    HW116163   0.776   4.315   1.068
 1428SOL    HW216164   0.784   4.463   1.100
 1429SOL     OW16165   2.125   0.485  14.262
 1429SOL    HW116166   2.050   0.520  14.309
 1429SOL    HW216167   2.180   0.562  14.245
 1430SOL     OW16168   4.046   0.558   4.971
 1430SOL    HW116169   4.032   0.642   4.927
 1430SOL    HW216170   4.031   0.577   5.064
 1431SOL     OW16171   4.164   2.467  19.066
 1431SOL    HW116172   4.141   2.374  19.066
 1431SOL    HW216173   4.255   2.468  19.096
 1432SOL     OW16174   1.247   0.595  19.968
 1432SOL    HW116175   1.275   0.542  20.043
 1432SOL    HW216176   1.266   0.541  19.892
 1433SOL     OW16177   2.475   4.202  12.647
 1433SOL    HW116178   2.477   4.261  12.572
 1433SOL    HW216179   2.382   4.180  12.658
 1434SOL     OW16180   3.279   2.675   1.057
 1434SOL    HW116181   3.312   2.764   1.051
 1434SOL    HW216182   3.295   2.650   1.149
 1435SOL     OW16183   2.333   0.852   5.642
 1435SOL    HW116184   2.409   0.795   5.640
 1435SOL    HW216185   2.258   0.794   5.629
 1436SOL     OW16186   1.679   3.516  15.809
 1436SOL    HW116187   1.705   3.608  15.819
 1436SOL    HW216188   1.760   3.467  15.812
 1437SOL     OW16189   2.667   4.232   3.020
 1437SOL    HW116190   2.663   4.308   3.079
 1437SOL    HW216191   2.624   4.162   3.069
 1438SOL     OW16192   1.766   0.064  19.930
 1438SOL    HW116193   1.815   0.146  19.924
 1438SOL    HW216194   1.818   0.009  19.989
 1439SOL     OW16195   3.848   3.010  18.334
 1439SOL    HW116196   3.901   3.002  18.412
 1439SOL    HW216197   3.910   3.025  18.263
 1440SOL     OW16198   2.711   2.777  21.173
 1440SOL    HW116199   2.720   2.778  21.269
 1440SOL    HW216200   2.700   2.869  21.149
 1441SOL     OW16201   0.523   2.423   3.608
 1441SOL    HW116202   0.618   2.418   3.616
 1441SOL    HW216203   0.490   2.387   3.690
 1442SOL     OW16204   4.610   1.440   5.633
 1442SOL    HW116205   4.518   1.465   5.644
 1442SOL    HW216206   4.645   1.438   5.722
 1443SOL     OW16207   0.014   0.482  16.242
 1443SOL    HW116208   0.002   0.387  16.247
 1443SOL    HW216209   4.762   0.516  16.319
 1444SOL     OW16210   1.680   3.190   0.330
 1444SOL    HW116211   1.651   3.132   0.400
 1444SOL    HW216212   1.634   3.158   0.252
 1445SOL     OW16213   4.314   2.857  21.031
 1445SOL    HW116214   4.356   2.899  21.106
 1445SOL    HW216215   4.358   2.773  21.023
 1446SOL     OW16216   3.250   4.704  17.280
 1446SOL    HW116217   3.194   4.777  17.253
 1446SOL    HW216218   3.339   4.737  17.271
 1447SOL     OW16219   3.744   3.041   3.626
 1447SOL    HW116220   3.772   2.990   3.702
 1447SOL    HW216221   3.818   3.099   3.607
 1448SOL     OW16222   0.016   1.804   0.483
 1448SOL    HW116223   0.066   1.777   0.406
 1448SOL    HW216224   4.761   1.726   0.509
 1449SOL     OW16225   0.046   3.941  19.558
 1449SOL    HW116226   0.028   3.980  19.643
 1449SOL    HW216227   0.087   4.010  19.507
 1450SOL     OW16228   2.015   1.469   2.644
 1450SOL    HW116229   1.938   1.488   2.697
 1450SOL    HW216230   1.982   1.411   2.575
 1451SOL     OW16231   2.251   4.181  13.508
 1451SOL    HW116232   2.281   4.272  13.513
 1451SOL    HW216233   2.170   4.186  13.456
 1452SOL     OW16234   3.417   3.299  16.648
 1452SOL    HW116235   3.333   3.342  16.660
 1452SOL    HW216236   3.432   3.252  16.730
 1453SOL     OW16237   1.057   1.236  15.014
 1453SOL    HW116238   0.968   1.269  15.032
 1453SOL    HW216239   1.078   1.182  15.090
 1454SOL     OW16240   2.767   1.854   1.839
 1454SOL    HW116241   2.688   1.810   1.871
 1454SOL    HW216242   2.734   1.927   1.787
 1455SOL     OW16243   0.991   0.644  16.147
 1455SOL    HW116244   1.049   0.629  16.221
 1455SOL    HW216245   0.902   0.634  16.182
 1456SOL     OW16246   4.609   3.318   5.901
 1456SOL    HW116247   4.665   3.393   5.919
 1456SOL    HW216248   4.551   3.348   5.830
 1457SOL     OW16249   0.942   1.566   1.484
 1457SOL    HW116250   0.959   1.570   1.390
 1457SOL    HW216251   0.856   1.526   1.493
 1458SOL     OW16252   2.646   0.002   0.860
 1458SOL    HW116253   2.646   4.737   0.936
 1458SOL    HW216254   2.719   0.062   0.876
 1459SOL     OW16255   2.015   0.063  20.419
 1459SOL    HW116256   2.017   0.158  20.430
 1459SOL    HW216257   1.995   0.029  20.506
 1460SOL     OW16258   2.866   3.450  20.507
 1460SOL    HW116259   2.786   3.502  20.496
 1460SOL    HW216260   2.876   3.404  20.424
 1461SOL     OW16261   3.393   4.041   4.868
 1461SOL    HW116262   3.319   3.995   4.910
 1461SOL    HW216263   3.352   4.112   4.819
 1462SOL     OW16264   4.308   2.976  18.457
 1462SOL    HW116265   4.288   2.951  18.548
 1462SOL    HW216266   4.403   2.982  18.454
 1463SOL     OW16267   1.346   2.119   5.115
 1463SOL    HW116268   1.426   2.067   5.126
 1463SOL    HW216269   1.306   2.121   5.202
 1464SOL     OW16270   2.927   3.345  15.845
 1464SOL    HW116271   2.856   3.393  15.889
 1464SOL    HW216272   2.926   3.378  15.755
 1465SOL     OW16273   3.256   1.844   0.685
 1465SOL    HW116274   3.281   1.844   0.592
 1465SOL    HW216275   3.334   1.872   0.731
 1466SOL     OW16276   2.761   0.072  15.437
 1466SOL    HW116277   2.743   0.034  15.523
 1466SOL    HW216278   2.790   0.161  15.455
 1467SOL     OW16279   2.408   2.930  14.360
 1467SOL    HW116280   2.462   2.891  14.429
 1467SOL    HW216281   2.338   2.974  14.407
 1468SOL     OW16282   2.644   4.499  14.518
 1468SOL    HW116283   2.590   4.428  14.483
 1468SOL    HW216284   2.611   4.512  14.607
 1469SOL     OW16285   4.301   2.945  18.724
 1469SOL    HW116286   4.380   2.997  18.735
 1469SOL    HW216287   4.231   2.998  18.762
 1470SOL     OW16288   4.183   4.558  14.248
 1470SOL    HW116289   4.247   4.530  14.313
 1470SOL    HW216290   4.150   4.476  14.210
 1471SOL     OW16291   0.357   2.211   5.039
 1471SOL    HW116292   0.449   2.186   5.040
 1471SOL    HW216293   0.333   2.222   5.131
 1472SOL     OW16294   2.392   0.264   4.887
 1472SOL    HW116295   2.465   0.299   4.835
 1472SOL    HW216296   2.315   0.310   4.854
 1473SOL     OW16297   2.182   3.859   2.387
 1473SOL    HW116298   2.182   3.926   2.319
 1473SOL    HW216299   2.099   3.871   2.433
 1474SOL     OW16300   1.656   3.507   0.996
 1474SOL    HW116301   1.686   3.567   1.064
 1474SOL    HW216302   1.677   3.552   0.914
 1475SOL     OW16303   4.441   0.937  16.362
 1475SOL    HW116304   4.426   1.032  16.356
 1475SOL    HW216305   4.481   0.925  16.448
 1476SOL     OW16306   0.074   3.592  19.839
 1476SOL    HW116307   0.057   3.648  19.915
 1476SOL    HW216308   0.156   3.626  19.803
 1477SOL     OW16309   0.087   2.061  20.405
 1477SOL    HW116310   0.167   2.100  20.441
 1477SOL    HW216311   0.087   2.088  20.313
 1478SOL     OW16312   2.927   1.994  17.283
 1478SOL    HW116313   2.837   2.021  17.265
 1478SOL    HW216314   2.922   1.900  17.296
 1479SOL     OW16315   3.944   2.692  18.257
 1479SOL    HW116316   3.990   2.608  18.260
 1479SOL    HW216317   3.982   2.743  18.329
 1480SOL     OW16318   3.943   3.505   2.118
 1480SOL    HW116319   3.872   3.516   2.056
 1480SOL    HW216320   3.983   3.421   2.094
 1481SOL     OW16321   2.760   4.669  17.476
 1481SOL    HW116322   2.738   4.748  17.525
 1481SOL    HW216323   2.693   4.664  17.407
 1482SOL     OW16324   3.585   0.935  17.846
 1482SOL    HW116325   3.603   1.029  17.853
 1482SOL    HW216326   3.548   0.912  17.931
 1483SOL     OW16327   0.092   2.998  17.187
 1483SOL    HW116328   0.172   3.030  17.229
 1483SOL    HW216329   0.037   2.967  17.259
 1484SOL     OW16330   0.379   3.989  14.093
 1484SOL    HW116331   0.304   3.951  14.139
 1484SOL    HW216332   0.341   4.056  14.037
 1485SOL     OW16333   3.565   2.518  17.518
 1485SOL    HW116334   3.516   2.442  17.549
 1485SOL    HW216335   3.587   2.567  17.597
 1486SOL     OW16336   1.485   3.851   2.616
 1486SOL    HW116337   1.446   3.866   2.703
 1486SOL    HW216338   1.461   3.928   2.565
 1487SOL     OW16339   0.739   1.949   5.474
 1487SOL    HW116340   0.788   1.941   5.392
 1487SOL    HW216341   0.661   1.895   5.460
 1488SOL     OW16342   0.148   2.711  15.702
 1488SOL    HW116343   0.235   2.717  15.662
 1488SOL    HW216344   0.100   2.652  15.645
 1489SOL     OW16345   4.269   1.302   5.135
 1489SOL    HW116346   4.255   1.392   5.163
 1489SOL    HW216347   4.319   1.262   5.206
 1490SOL     OW16348   3.697   0.041  19.752
 1490SOL    HW116349   3.753   0.069  19.679
 1490SOL    HW216350   3.713   0.106  19.821
 1491SOL     OW16351   0.310   3.775  21.134
 1491SOL    HW116352   0.260   3.751  21.055
 1491SOL    HW216353   0.374   3.839  21.102
 1492SOL     OW16354   1.459   0.384   5.165
 1492SOL    HW116355   1.478   0.477   5.167
 1492SOL    HW216356   1.538   0.343   5.202
 1493SOL     OW16357   4.744   4.349   4.319
 1493SOL    HW116358   0.036   4.382   4.290
 1493SOL    HW216359   4.764   4.270   4.368
 1494SOL     OW16360   4.565   1.727   5.596
 1494SOL    HW116361   4.621   1.650   5.590
 1494SOL    HW216362   4.553   1.741   5.690
 1495SOL     OW16363   1.733   3.834   0.926
 1495SOL    HW116364   1.678   3.908   0.950
 1495SOL    HW216365   1.798   3.828   0.995
 1496SOL     OW16366   3.771   2.248  12.473
 1496SOL    HW116367   3.707   2.303  12.428
 1496SOL    HW216368   3.772   2.166  12.422
 1497SOL     OW16369   0.655   4.032  14.885
 1497SOL    HW116370   0.570   4.060  14.849
 1497SOL    HW216371   0.664   3.942  14.855
 1498SOL     OW16372   1.072   2.999  16.400
 1498SOL    HW116373   1.073   3.093  16.415
 1498SOL    HW216374   1.018   2.964  16.471
 1499SOL     OW16375   1.837   0.175   2.988
 1499SOL    HW116376   1.892   0.252   3.000
 1499SOL    HW216377   1.809   0.180   2.896
 1500SOL     OW16378   0.053   0.159  20.433
 1500SOL    HW116379   0.136   0.115  20.411
 1500SOL    HW216380   0.031   0.210  20.355
 1501SOL     OW16381   0.931   3.049  20.371
 1501SOL    HW116382   0.971   2.976  20.323
 1501SOL    HW216383   0.845   3.060  20.330
 1502SOL     OW16384   0.241   0.214  21.108
 1502SOL    HW116385   0.219   0.249  21.194
 1502SOL    HW216386   0.285   0.130  21.126
 1503SOL     OW16387   2.529   0.602   1.891
 1503SOL    HW116388   2.596   0.649   1.841
 1503SOL    HW216389   2.447   0.643   1.865
 1504SOL     OW16390   4.655   3.517  16.413
 1504SOL    HW116391   4.711   3.520  16.336
 1504SOL    HW216392   4.566   3.525  16.378
 1505SOL     OW16393   3.777   0.429  18.434
 1505SOL    HW116394   3.708   0.489  18.406
 1505SOL    HW216395   3.730   0.350  18.460
 1506SOL     OW16396   0.842   0.827   5.059
 1506SOL    HW116397   0.863   0.894   5.125
 1506SOL    HW216398   0.880   0.747   5.094
 1507SOL     OW16399   2.950   1.545   6.226
 1507SOL    HW116400   3.042   1.561   6.207
 1507SOL    HW216401   2.951   1.479   6.296
 1508SOL     OW16402   4.111   3.630  19.636
 1508SOL    HW116403   4.129   3.644  19.543
 1508SOL    HW216404   4.117   3.717  19.675
 1509SOL     OW16405   0.000   4.368  14.383
 1509SOL    HW116406   0.034   4.443  14.432
 1509SOL    HW216407   0.043   4.373  14.298
 1510SOL     OW16408   0.931   3.109  15.828
 1510SOL    HW116409   0.846   3.078  15.798
 1510SOL    HW216410   0.978   3.029  15.853
 1511SOL     OW16411   2.166   2.421   3.991
 1511SOL    HW116412   2.228   2.418   3.918
 1511SOL    HW216413   2.125   2.335   3.990
 1512SOL     OW16414   0.152   0.053   7.463
 1512SOL    HW116415   0.150   0.127   7.524
 1512SOL    HW216416   0.067   0.056   7.420
 1513SOL     OW16417   0.982   3.068  15.488
 1513SOL    HW116418   1.043   3.137  15.462
 1513SOL    HW216419   0.997   2.998  15.425
 1514SOL     OW16420   2.397   2.508   8.900
 1514SOL    HW116421   2.356   2.556   8.828
 1514SOL    HW216422   2.328   2.499   8.966
 1515SOL     OW16423   3.037   2.288   5.555
 1515SOL    HW116424   3.026   2.383   5.561
 1515SOL    HW216425   3.107   2.269   5.618
 1516SOL     OW16426   1.750   0.084   3.685
 1516SOL    HW116427   1.839   0.059   3.659
 1516SOL    HW216428   1.726   0.154   3.625
 1517SOL     OW16429   1.674   1.535   4.529
 1517SOL    HW116430   1.642   1.499   4.446
 1517SOL    HW216431   1.753   1.584   4.503
 1518SOL     OW16432   4.725   3.617   4.771
 1518SOL    HW116433   4.782   3.560   4.823
 1518SOL    HW216434   4.709   3.568   4.691
 1519SOL     OW16435   2.718   0.080  20.967
 1519SOL    HW116436   2.771   0.159  20.972
 1519SOL    HW216437   2.762   0.026  20.900
 1520SOL     OW16438   2.672   2.336   2.450
 1520SOL    HW116439   2.658   2.242   2.456
 1520SOL    HW216440   2.617   2.373   2.519
 1521SOL     OW16441   3.864   2.401   8.592
 1521SOL    HW116442   3.881   2.450   8.672
 1521SOL    HW216443   3.936   2.427   8.533
 1522SOL     OW16444   1.830   0.059  16.607
 1522SOL    HW116445   1.741   0.087  16.627
 1522SOL    HW216446   1.825   0.023  16.518
 1523SOL     OW16447   1.980   0.152  15.724
 1523SOL    HW116448   2.021   0.237  15.710
 1523SOL    HW216449   1.895   0.171  15.761
 1524SOL     OW16450   3.749   2.277  17.341
 1524SOL    HW116451   3.698   2.350  17.306
 1524SOL    HW216452   3.817   2.262  17.275
 1525SOL     OW16453   0.700   1.213   1.182
 1525SOL    HW116454   0.755   1.207   1.260
 1525SOL    HW216455   0.664   1.301   1.185
 1526SOL     OW16456   3.126   3.803   0.786
 1526SOL    HW116457   3.169   3.745   0.849
 1526SOL    HW216458   3.176   3.792   0.705
 1527SOL     OW16459   2.102   0.612   4.503
 1527SOL    HW116460   2.055   0.568   4.433
 1527SOL    HW216461   2.055   0.694   4.516
 1528SOL     OW16462   3.671   1.885   1.401
 1528SOL    HW116463   3.756   1.872   1.442
 1528SOL    HW216464   3.652   1.978   1.413
 1529SOL     OW16465   0.653   2.280   4.319
 1529SOL    HW116466   0.672   2.371   4.295
 1529SOL    HW216467   0.733   2.233   4.295
 1530SOL     OW16468   1.011   3.148   4.050
 1530SOL    HW116469   0.999   3.131   3.956
 1530SOL    HW216470   1.003   3.243   4.058
 1531SOL     OW16471   0.613   4.257  13.966
 1531SOL    HW116472   0.628   4.321  14.036
 1531SOL    HW216473   0.602   4.310  13.887
 1532SOL     OW16474   3.830   4.333  17.806
 1532SOL    HW116475   3.817   4.240  17.825
 1532SOL    HW216476   3.812   4.377  17.889
 1533SOL     OW16477   1.999   3.904  18.474
 1533SOL    HW116478   1.972   3.825  18.428
 1533SOL    HW216479   1.990   3.974  18.410
 1534SOL     OW16480   3.130   3.552   7.025
 1534SOL    HW116481   3.210   3.547   7.078
 1534SOL    HW216482   3.072   3.487   7.063
 1535SOL     OW16483   1.970   1.520  15.663
 1535SOL    HW116484   2.044   1.466  15.690
 1535SOL    HW216485   2.010   1.603  15.636
 1536SOL     OW16486   2.432   3.697  20.823
 1536SOL    HW116487   2.360   3.664  20.771
 1536SOL    HW216488   2.449   3.785  20.788
 1537SOL     OW16489   0.153   2.825   6.597
 1537SOL    HW116490   0.232   2.800   6.551
 1537SOL    HW216491   0.085   2.828   6.530
 1538SOL     OW16492   1.843   4.698  15.631
 1538SOL    HW116493   1.864   4.786  15.663
 1538SOL    HW216494   1.848   4.706  15.536
 1539SOL     OW16495   3.981   4.202   0.784
 1539SOL    HW116496   4.021   4.116   0.769
 1539SOL    HW216497   4.052   4.264   0.773
 1540SOL     OW16498   2.678   2.636   7.042
 1540SOL    HW116499   2.619   2.635   7.118
 1540SOL    HW216500   2.733   2.713   7.055
 1541SOL     OW16501   3.492   0.090   2.896
 1541SOL    HW116502   3.433   0.165   2.910
 1541SOL    HW216503   3.579   0.124   2.917
 1542SOL     OW16504   0.408   3.901   5.908
 1542SOL    HW116505   0.430   3.981   5.861
 1542SOL    HW216506   0.493   3.861   5.929
 1543SOL     OW16507   1.799   2.205  16.526
 1543SOL    HW116508   1.798   2.212  16.431
 1543SOL    HW216509   1.734   2.137  16.545
 1544SOL     OW16510   1.310   2.763   4.505
 1544SOL    HW116511   1.338   2.839   4.556
 1544SOL    HW216512   1.273   2.703   4.570
 1545SOL     OW16513   3.954   3.017  15.024
 1545SOL    HW116514   3.939   3.087  15.088
 1545SOL    HW216515   3.987   3.062  14.946
 1546SOL     OW16516   4.090   2.913  19.318
 1546SOL    HW116517   4.170   2.877  19.355
 1546SOL    HW216518   4.103   2.908  19.223
 1547SOL     OW16519   3.936   0.777  14.420
 1547SOL    HW116520   3.881   0.721  14.365
 1547SOL    HW216521   3.874   0.841  14.458
 1548SOL     OW16522   2.376   3.498  16.068
 1548SOL    HW116523   2.455   3.460  16.030
 1548SOL    HW216524   2.305   3.448  16.029
 1549SOL     OW16525   1.967   4.048  13.901
 1549SOL    HW116526   2.011   4.129  13.928
 1549SOL    HW216527   2.008   4.025  13.818
 1550SOL     OW16528   2.867   3.991   4.024
 1550SOL    HW116529   2.781   4.030   4.040
 1550SOL    HW216530   2.856   3.899   4.046
 1551SOL     OW16531   4.193   1.574  17.163
 1551SOL    HW116532   4.145   1.633  17.221
 1551SOL    HW216533   4.141   1.494  17.161
 1552SOL     OW16534   3.175   0.297   4.898
 1552SOL    HW116535   3.198   0.359   4.828
 1552SOL    HW216536   3.190   0.346   4.979
 1553SOL     OW16537   1.180   1.044   5.731
 1553SOL    HW116538   1.198   1.069   5.822
 1553SOL    HW216539   1.107   0.982   5.737
 1554SOL     OW16540   1.482   3.940  16.564
 1554SOL    HW116541   1.428   3.932  16.486
 1554SOL    HW216542   1.570   3.959  16.531
 1555SOL     OW16543   4.670   4.716  20.561
 1555SOL    HW116544   4.689   4.700  20.468
 1555SOL    HW216545   4.755   4.732  20.600
 1556SOL     OW16546   4.674   0.338  18.120
 1556SOL    HW116547   4.625   0.409  18.081
 1556SOL    HW216548   4.630   0.321  18.203
 1557SOL     OW16549   2.469   2.329  17.791
 1557SOL    HW116550   2.415   2.361  17.864
 1557SOL    HW216551   2.536   2.396  17.779
 1558SOL     OW16552   3.632   1.099   6.936
 1558SOL    HW116553   3.641   1.188   6.970
 1558SOL    HW216554   3.719   1.061   6.943
 1559SOL     OW16555   2.698   4.471   0.147
 1559SOL    HW116556   2.782   4.453   0.106
 1559SOL    HW216557   2.691   4.408   0.218
 1560SOL     OW16558   3.300   0.743  18.187
 1560SOL    HW116559   3.255   0.811  18.138
 1560SOL    HW216560   3.259   0.744  18.273
 1561SOL     OW16561   1.599   4.434  15.934
 1561SOL    HW116562   1.569   4.391  16.014
 1561SOL    HW216563   1.523   4.431  15.876
 1562SOL     OW16564   2.689   1.822  19.901
 1562SOL    HW116565   2.768   1.862  19.864
 1562SOL    HW216566   2.668   1.751  19.841
 1563SOL     OW16567   1.522   1.324   6.207
 1563SOL    HW116568   1.436   1.327   6.250
 1563SOL    HW216569   1.521   1.398   6.147
 1564SOL     OW16570   1.318   0.564  13.800
 1564SOL    HW116571   1.298   0.641  13.853
 1564SOL    HW216572   1.411   0.574  13.779
 1565SOL     OW16573   3.085   0.090  16.321
 1565SOL    HW116574   3.164   0.088  16.266
 1565SOL    HW216575   3.027   0.151  16.276
 1566SOL     OW16576   0.034   0.641  12.917
 1566SOL    HW116577   0.001   0.699  12.848
 1566SOL    HW216578   4.757   0.576  12.929
 1567SOL     OW16579   1.308   1.244  19.553
 1567SOL    HW116580   1.364   1.168  19.538
 1567SOL    HW216581   1.358   1.318  19.518
 1568SOL     OW16582   0.670   0.313   1.822
 1568SOL    HW116583   0.587   0.303   1.868
 1568SOL    HW216584   0.667   0.248   1.751
 1569SOL     OW16585   0.942   1.471   5.520
 1569SOL    HW116586   1.014   1.449   5.578
 1569SOL    HW216587   0.864   1.438   5.565
 1570SOL     OW16588   4.510   2.807   3.240
 1570SOL    HW116589   4.486   2.817   3.148
 1570SOL    HW216590   4.445   2.858   3.287
 1571SOL     OW16591   3.463   3.717   1.701
 1571SOL    HW116592   3.501   3.693   1.617
 1571SOL    HW216593   3.486   3.644   1.760
 1572SOL     OW16594   0.349   0.662  20.285
 1572SOL    HW116595   0.439   0.629  20.278
 1572SOL    HW216596   0.346   0.707  20.369
 1573SOL     OW16597   2.191   2.635   3.324
 1573SOL    HW116598   2.236   2.565   3.371
 1573SOL    HW216599   2.241   2.646   3.243
 1574SOL     OW16600   4.496   0.201   3.609
 1574SOL    HW116601   4.515   0.157   3.692
 1574SOL    HW216602   4.404   0.224   3.615
 1575SOL     OW16603   1.543   0.492  18.542
 1575SOL    HW116604   1.599   0.414  18.536
 1575SOL    HW216605   1.532   0.521  18.451
 1576SOL     OW16606   1.604   1.371   0.538
 1576SOL    HW116607   1.606   1.466   0.544
 1576SOL    HW216608   1.679   1.342   0.589
 1577SOL     OW16609   3.873   2.927  20.415
 1577SOL    HW116610   3.803   2.982  20.380
 1577SOL    HW216611   3.875   2.946  20.508
 1578SOL     OW16612   4.058   1.128  15.742
 1578SOL    HW116613   3.992   1.097  15.804
 1578SOL    HW216614   4.136   1.078  15.764
 1579SOL     OW16615   1.011   2.507   2.474
 1579SOL    HW116616   1.008   2.411   2.467
 1579SOL    HW216617   1.035   2.524   2.565
 1580SOL     OW16618   4.532   3.748   5.402
 1580SOL    HW116619   4.566   3.738   5.491
 1580SOL    HW216620   4.437   3.747   5.411
 1581SOL     OW16621   3.736   1.477  15.906
 1581SOL    HW116622   3.704   1.497  15.994
 1581SOL    HW216623   3.663   1.431  15.864
 1582SOL     OW16624   2.054   4.621   2.858
 1582SOL    HW116625   2.122   4.682   2.886
 1582SOL    HW216626   2.080   4.537   2.897
 1583SOL     OW16627   0.884   2.179   2.102
 1583SOL    HW116628   0.967   2.153   2.062
 1583SOL    HW216629   0.834   2.097   2.107
 1584SOL     OW16630   1.166   0.378  17.921
 1584SOL    HW116631   1.192   0.319  17.851
 1584SOL    HW216632   1.239   0.439  17.930
 1585SOL     OW16633   0.304   3.999   3.642
 1585SOL    HW116634   0.226   3.963   3.599
 1585SOL    HW216635   0.320   4.082   3.599
 1586SOL     OW16636   2.520   3.652  19.387
 1586SOL    HW116637   2.520   3.594  19.463
 1586SOL    HW216638   2.489   3.596  19.315
 1587SOL     OW16639   2.641   2.460  12.749
 1587SOL    HW116640   2.650   2.529  12.684
 1587SOL    HW216641   2.658   2.503  12.833
 1588SOL     OW16642   1.425   1.235   2.780
 1588SOL    HW116643   1.451   1.171   2.846
 1588SOL    HW216644   1.386   1.307   2.830
 1589SOL     OW16645   1.887   0.394  18.620
 1589SOL    HW116646   1.979   0.407  18.643
 1589SOL    HW216647   1.881   0.301  18.598
 1590SOL     OW16648   4.579   0.188  16.552
 1590SOL    HW116649   4.519   0.152  16.618
 1590SOL    HW216650   4.592   0.117  16.490
 1591SOL     OW16651   0.134   3.223  15.836
 1591SOL    HW116652   0.125   3.315  15.812
 1591SOL    HW216653   0.143   3.177  15.752
 1592SOL     OW16654   4.719   4.356   6.623
 1592SOL    HW116655   4.675   4.438   6.645
 1592SOL    HW216656   4.647   4.295   6.606
 1593SOL     OW16657   4.345   0.368  20.044
 1593SOL    HW116658   4.406   0.295  20.050
 1593SOL    HW216659   4.400   0.443  20.020
 1594SOL     OW16660   0.962   1.921  13.166
 1594SOL    HW116661   1.028   1.877  13.112
 1594SOL    HW216662   0.981   1.892  13.255
 1595SOL     OW16663   3.579   0.294   0.585
 1595SOL    HW116664   3.637   0.333   0.651
 1595SOL    HW216665   3.493   0.290   0.627
 1596SOL     OW16666   3.027   2.245   1.084
 1596SOL    HW116667   3.012   2.202   1.169
 1596SOL    HW216668   2.941   2.273   1.056
 1597SOL     OW16669   0.824   3.897   1.958
 1597SOL    HW116670   0.731   3.913   1.944
 1597SOL    HW216671   0.828   3.856   2.045
 1598SOL     OW16672   0.809   0.796  15.756
 1598SOL    HW116673   0.832   0.708  15.785
 1598SOL    HW216674   0.714   0.800  15.764
 1599SOL     OW16675   0.619   1.209   4.281
 1599SOL    HW116676   0.703   1.239   4.315
 1599SOL    HW216677   0.619   1.114   4.297
 1600SOL     OW16678   3.985   1.429   4.310
 1600SOL    HW116679   3.964   1.352   4.257
 1600SOL    HW216680   4.065   1.464   4.271
 1601SOL     OW16681   3.107   4.037  21.104
 1601SOL    HW116682   3.147   4.055  21.189
 1601SOL    HW216683   3.103   3.942  21.099
 1602SOL     OW16684   1.575   2.269   5.907
 1602SOL    HW116685   1.633   2.239   5.977
 1602SOL    HW216686   1.593   2.211   5.833
 1603SOL     OW16687   3.264   2.263   5.730
 1603SOL    HW116688   3.334   2.318   5.765
 1603SOL    HW216689   3.288   2.174   5.754
 1604SOL     OW16690   2.856   4.661  15.614
 1604SOL    HW116691   2.796   4.638  15.543
 1604SOL    HW216692   2.828   4.608  15.688
 1605SOL     OW16693   0.512   4.581  16.972
 1605SOL    HW116694   0.464   4.615  16.896
 1605SOL    HW216695   0.543   4.659  17.017
 1606SOL     OW16696   3.571   4.604   4.649
 1606SOL    HW116697   3.590   4.571   4.561
 1606SOL    HW216698   3.656   4.631   4.684
 1607SOL     OW16699   1.785   3.323  18.406
 1607SOL    HW116700   1.788   3.379  18.484
 1607SOL    HW216701   1.840   3.369  18.341
 1608SOL     OW16702   4.035   2.047   6.678
 1608SOL    HW116703   4.113   2.001   6.648
 1608SOL    HW216704   4.052   2.139   6.659
 1609SOL     OW16705   1.166   1.553   1.906
 1609SOL    HW116706   1.254   1.589   1.907
 1609SOL    HW216707   1.159   1.508   1.821
 1610SOL     OW16708   4.115   3.836   6.164
 1610SOL    HW116709   4.180   3.843   6.093
 1610SOL    HW216710   4.050   3.903   6.143
 1611SOL     OW16711   1.623   2.315   5.414
 1611SOL    HW116712   1.700   2.327   5.470
 1611SOL    HW216713   1.571   2.395   5.429
 1612SOL     OW16714   1.776   1.262  19.425
 1612SOL    HW116715   1.820   1.341  19.392
 1612SOL    HW216716   1.721   1.293  19.497
 1613SOL     OW16717   2.359   0.958   4.282
 1613SOL    HW116718   2.351   1.051   4.260
 1613SOL    HW216719   2.436   0.928   4.233
 1614SOL     OW16720   3.770   0.186   3.334
 1614SOL    HW116721   3.677   0.179   3.313
 1614SOL    HW216722   3.793   0.275   3.309
 1615SOL     OW16723   3.955   4.699  17.614
 1615SOL    HW116724   4.028   4.638  17.603
 1615SOL    HW216725   3.910   4.669  17.693
 1616SOL     OW16726   0.606   2.539   5.540
 1616SOL    HW116727   0.671   2.545   5.611
 1616SOL    HW216728   0.610   2.624   5.496
 1617SOL     OW16729   0.749   3.380   3.658
 1617SOL    HW116730   0.792   3.295   3.644
 1617SOL    HW216731   0.808   3.443   3.617
 1618SOL     OW16732   4.409   3.784   3.860
 1618SOL    HW116733   4.372   3.840   3.929
 1618SOL    HW216734   4.504   3.793   3.872
 1619SOL     OW16735   0.137   2.663   4.585
 1619SOL    HW116736   0.206   2.606   4.620
 1619SOL    HW216737   0.056   2.626   4.619
 1620SOL     OW16738   4.293   1.832  15.110
 1620SOL    HW116739   4.274   1.769  15.040
 1620SOL    HW216740   4.252   1.913  15.080
 1621SOL     OW16741   2.884   3.238  21.079
 1621SOL    HW116742   2.892   3.333  21.066
 1621SOL    HW216743   2.795   3.218  21.050
 1622SOL     OW16744   2.575   4.682  19.250
 1622SOL    HW116745   2.620   4.614  19.201
 1622SOL    HW216746   2.485   4.651  19.258
 1623SOL     OW16747   0.508   4.488  18.156
 1623SOL    HW116748   0.434   4.547  18.142
 1623SOL    HW216749   0.584   4.545  18.165
 1624SOL     OW16750   1.267   1.021   1.311
 1624SOL    HW116751   1.222   1.093   1.355
 1624SOL    HW216752   1.276   1.051   1.220
 1625SOL     OW16753   2.362   0.549   4.121
 1625SOL    HW116754   2.411   0.549   4.038
 1625SOL    HW216755   2.271   0.531   4.095
 1626SOL     OW16756   3.660   3.159   4.318
 1626SOL    HW116757   3.646   3.245   4.277
 1626SOL    HW216758   3.641   3.096   4.248
 1627SOL     OW16759   4.495   0.433   2.382
 1627SOL    HW116760   4.422   0.435   2.444
 1627SOL    HW216761   4.497   0.521   2.345
 1628SOL     OW16762   1.537   0.101  13.948
 1628SOL    HW116763   1.552   0.051  13.868
 1628SOL    HW216764   1.464   0.159  13.927
 1629SOL     OW16765   4.039   3.194   0.239
 1629SOL    HW116766   4.073   3.166   0.324
 1629SOL    HW216767   4.098   3.154   0.175
 1630SOL     OW16768   2.870   3.840  20.413
 1630SOL    HW116769   2.782   3.872  20.392
 1630SOL    HW216770   2.884   3.767  20.353
 1631SOL     OW16771   1.563   3.386   5.746
 1631SOL    HW116772   1.541   3.293   5.741
 1631SOL    HW216773   1.642   3.389   5.801
 1632SOL     OW16774   3.811   0.196  19.556
 1632SOL    HW116775   3.831   0.252  19.482
 1632SOL    HW216776   3.890   0.145  19.571
 1633SOL     OW16777   3.836   4.129  19.470
 1633SOL    HW116778   3.844   4.178  19.388
 1633SOL    HW216779   3.826   4.038  19.443
 1634SOL     OW16780   2.066   0.107   6.597
 1634SOL    HW116781   2.072   0.146   6.510
 1634SOL    HW216782   2.105   0.020   6.588
 1635SOL     OW16783   2.487   2.869   1.535
 1635SOL    HW116784   2.444   2.917   1.465
 1635SOL    HW216785   2.431   2.792   1.549
 1636SOL     OW16786   4.776   2.063  15.552
 1636SOL    HW116787   4.782   2.125  15.625
 1636SOL    HW216788   0.066   2.015  15.556
 1637SOL     OW16789   1.093   2.609   1.796
 1637SOL    HW116790   1.188   2.603   1.793
 1637SOL    HW216791   1.075   2.673   1.865
 1638SOL     OW16792   4.274   0.060  14.943
 1638SOL    HW116793   4.274   4.762  14.914
 1638SOL    HW216794   4.187   0.074  14.979
 1639SOL     OW16795   4.396   3.265  18.079
 1639SOL    HW116796   4.304   3.266  18.053
 1639SOL    HW216797   4.437   3.203  18.018
 1640SOL     OW16798   4.532   2.462  18.371
 1640SOL    HW116799   4.521   2.382  18.319
 1640SOL    HW216800   4.539   2.532  18.306
 1641SOL     OW16801   0.896   1.875   3.991
 1641SOL    HW116802   0.851   1.790   3.994
 1641SOL    HW216803   0.981   1.856   3.951
 1642SOL     OW16804   3.743   3.601   5.305
 1642SOL    HW116805   3.724   3.590   5.212
 1642SOL    HW216806   3.827   3.557   5.318
 1643SOL     OW16807   0.843   4.304   5.066
 1643SOL    HW116808   0.798   4.235   5.115
 1643SOL    HW216809   0.927   4.264   5.042
 1644SOL     OW16810   0.094   1.781  18.250
 1644SOL    HW116811   0.172   1.835  18.253
 1644SOL    HW216812   0.085   1.758  18.157
 1645SOL     OW16813   2.066   1.272   6.052
 1645SOL    HW116814   2.103   1.347   6.099
 1645SOL    HW216815   1.972   1.279   6.065
 1646SOL     OW16816   4.781   0.719  15.384
 1646SOL    HW116817   0.040   0.782  15.433
 1646SOL    HW216818   4.690   0.739  15.407
 1647SOL     OW16819   1.782   4.285   7.231
 1647SOL    HW116820   1.812   4.375   7.222
 1647SOL    HW216821   1.753   4.278   7.322
 1648SOL     OW16822   0.381   3.528   5.667
 1648SOL    HW116823   0.390   3.471   5.591
 1648SOL    HW216824   0.299   3.501   5.708
 1649SOL     OW16825   2.642   2.740  16.252
 1649SOL    HW116826   2.610   2.767  16.166
 1649SOL    HW216827   2.649   2.645  16.245
 1650SOL     OW16828   1.835   2.378  13.572
 1650SOL    HW116829   1.793   2.457  13.607
 1650SOL    HW216830   1.927   2.387  13.597
 1651SOL     OW16831   1.152   2.890   2.740
 1651SOL    HW116832   1.152   2.956   2.671
 1651SOL    HW216833   1.118   2.936   2.817
 1652SOL     OW16834   3.306   4.352  17.725
 1652SOL    HW116835   3.387   4.376  17.681
 1652SOL    HW216836   3.275   4.274  17.679
 1653SOL     OW16837   2.369   1.648  16.705
 1653SOL    HW116838   2.359   1.741  16.722
 1653SOL    HW216839   2.448   1.641  16.652
 1654SOL     OW16840   3.884   1.987  20.979
 1654SOL    HW116841   3.933   1.905  20.974
 1654SOL    HW216842   3.808   1.966  21.032
 1655SOL     OW16843   3.048   1.949   6.701
 1655SOL    HW116844   2.988   1.899   6.646
 1655SOL    HW216845   2.997   1.971   6.779
 1656SOL     OW16846   1.430   4.342  18.215
 1656SOL    HW116847   1.446   4.379  18.128
 1656SOL    HW216848   1.458   4.251  18.208
 1657SOL     OW16849   1.011   0.365   2.072
 1657SOL    HW116850   0.939   0.427   2.080
 1657SOL    HW216851   1.069   0.405   2.007
 1658SOL     OW16852   3.491   0.319   2.410
 1658SOL    HW116853   3.473   0.250   2.474
 1658SOL    HW216854   3.545   0.276   2.344
 1659SOL     OW16855   2.965   1.813  14.604
 1659SOL    HW116856   2.961   1.764  14.686
 1659SOL    HW216857   3.015   1.756  14.545
 1660SOL     OW16858   3.059   1.769  16.206
 1660SOL    HW116859   3.035   1.762  16.113
 1660SOL    HW216860   3.106   1.687  16.224
 1661SOL     OW16861   4.565   1.712   7.915
 1661SOL    HW116862   4.640   1.771   7.918
 1661SOL    HW216863   4.569   1.674   7.827
 1662SOL     OW16864   2.176   3.344   2.179
 1662SOL    HW116865   2.167   3.272   2.241
 1662SOL    HW216866   2.205   3.418   2.232
 1663SOL     OW16867   2.927   2.423  21.109
 1663SOL    HW116868   2.967   2.336  21.102
 1663SOL    HW216869   2.976   2.466  21.179
 1664SOL     OW16870   2.105   0.742  16.936
 1664SOL    HW116871   2.036   0.676  16.930
 1664SOL    HW216872   2.136   0.735  17.026
 1665SOL     OW16873   4.539   0.077  17.510
 1665SOL    HW116874   4.524   0.117  17.424
 1665SOL    HW216875   4.452   0.057  17.543
 1666SOL     OW16876   0.686   4.614  15.801
 1666SOL    HW116877   0.664   4.522  15.784
 1666SOL    HW216878   0.601   4.659  15.799
 1667SOL     OW16879   3.113   2.963  14.830
 1667SOL    HW116880   3.146   2.874  14.842
 1667SOL    HW216881   3.181   3.007  14.779
 1668SOL     OW16882   1.601   0.230   6.288
 1668SOL    HW116883   1.649   0.157   6.249
 1668SOL    HW216884   1.666   0.299   6.297
 1669SOL     OW16885   0.228   4.066   3.929
 1669SOL    HW116886   0.146   4.024   3.956
 1669SOL    HW216887   0.210   4.100   3.841
 1670SOL     OW16888   1.669   4.111   7.060
 1670SOL    HW116889   1.709   4.168   7.127
 1670SOL    HW216890   1.741   4.056   7.031
 1671SOL     OW16891   1.412   0.504   4.063
 1671SOL    HW116892   1.416   0.421   4.015
 1671SOL    HW216893   1.360   0.562   4.007
 1672SOL     OW16894   3.108   0.292   6.517
 1672SOL    HW116895   3.180   0.333   6.470
 1672SOL    HW216896   3.140   0.280   6.606
 1673SOL     OW16897   0.324   0.356   5.110
 1673SOL    HW116898   0.357   0.359   5.020
 1673SOL    HW216899   0.319   0.447   5.137
 1674SOL     OW16900   1.059   0.843  15.868
 1674SOL    HW116901   0.974   0.852  15.825
 1674SOL    HW216902   1.052   0.761  15.918
 1675SOL     OW16903   0.057   0.023  16.691
 1675SOL    HW116904   4.783   0.020  16.759
 1675SOL    HW216905   0.084   0.115  16.688
 1676SOL     OW16906   2.474   3.096  18.514
 1676SOL    HW116907   2.555   3.132  18.548
 1676SOL    HW216908   2.451   3.025  18.575
 1677SOL     OW16909   3.860   1.374   2.596
 1677SOL    HW116910   3.914   1.319   2.653
 1677SOL    HW216911   3.919   1.400   2.525
 1678SOL     OW16912   4.035   3.405  15.726
 1678SOL    HW116913   4.027   3.445  15.812
 1678SOL    HW216914   4.029   3.478  15.665
 1679SOL     OW16915   1.290   0.485   9.260
 1679SOL    HW116916   1.323   0.512   9.174
 1679SOL    HW216917   1.348   0.528   9.323
 1680SOL     OW16918   2.808   1.787  15.965
 1680SOL    HW116919   2.825   1.870  16.012
 1680SOL    HW216920   2.726   1.803  15.918
 1681SOL     OW16921   2.334   4.262   3.079
 1681SOL    HW116922   2.398   4.209   3.126
 1681SOL    HW216923   2.350   4.243   2.986
 1682SOL     OW16924   0.240   2.258  20.768
 1682SOL    HW116925   0.166   2.208  20.802
 1682SOL    HW216926   0.222   2.348  20.795
 1683SOL     OW16927   0.012   1.728  19.161
 1683SOL    HW116928   4.742   1.766  19.099
 1683SOL    HW216929   0.097   1.754  19.126
 1684SOL     OW16930   1.531   3.224   8.338
 1684SOL    HW116931   1.486   3.154   8.386
 1684SOL    HW216932   1.597   3.256   8.399
 1685SOL     OW16933   4.130   3.475  13.909
 1685SOL    HW116934   4.110   3.385  13.934
 1685SOL    HW216935   4.218   3.491  13.943
 1686SOL     OW16936   1.089   2.397  16.188
 1686SOL    HW116937   1.006   2.428  16.151
 1686SOL    HW216938   1.076   2.404  16.283
 1687SOL     OW16939   2.170   1.977  20.233
 1687SOL    HW116940   2.211   2.064  20.229
 1687SOL    HW216941   2.079   1.995  20.257
 1688SOL     OW16942   2.207   1.173  15.338
 1688SOL    HW116943   2.276   1.133  15.390
 1688SOL    HW216944   2.127   1.157  15.388
 1689SOL     OW16945   4.151   2.568  14.557
 1689SOL    HW116946   4.060   2.597  14.569
 1689SOL    HW216947   4.200   2.650  14.545
 1690SOL     OW16948   2.795   4.224  21.054
 1690SOL    HW116949   2.854   4.249  20.983
 1690SOL    HW216950   2.769   4.134  21.033
 1691SOL     OW16951   2.780   3.418   3.105
 1691SOL    HW116952   2.730   3.339   3.083
 1691SOL    HW216953   2.860   3.385   3.146
 1692SOL     OW16954   2.813   1.575   1.082
 1692SOL    HW116955   2.845   1.605   0.997
 1692SOL    HW216956   2.816   1.480   1.077
 1693SOL     OW16957   3.987   3.317   6.146
 1693SOL    HW116958   3.926   3.267   6.092
 1693SOL    HW216959   4.036   3.370   6.083
 1694SOL     OW16960   0.806   4.714  20.183
 1694SOL    HW116961   0.771   0.005  20.153
 1694SOL    HW216962   0.885   4.738  20.231
 1695SOL     OW16963   4.300   0.762   1.595
 1695SOL    HW116964   4.379   0.739   1.643
 1695SOL    HW216965   4.256   0.679   1.580
 1696SOL     OW16966   0.480   3.001  14.769
 1696SOL    HW116967   0.523   2.969  14.690
 1696SOL    HW216968   0.549   3.004  14.835
 1697SOL     OW16969   1.954   1.208   1.969
 1697SOL    HW116970   1.871   1.176   2.005
 1697SOL    HW216971   2.021   1.167   2.023
 1698SOL     OW16972   4.547   1.364  20.426
 1698SOL    HW116973   4.633   1.340  20.393
 1698SOL    HW216974   4.508   1.282  20.456
 1699SOL     OW16975   4.676   3.805   3.863
 1699SOL    HW116976   4.736   3.808   3.788
 1699SOL    HW216977   4.726   3.840   3.936
 1700SOL     OW16978   0.957   2.437   3.497
 1700SOL    HW116979   0.879   2.404   3.542
 1700SOL    HW216980   0.922   2.499   3.432
 1701SOL     OW16981   1.572   4.132  15.774
 1701SOL    HW116982   1.487   4.125  15.731
 1701SOL    HW216983   1.562   4.083  15.855
 1702SOL     OW16984   2.126   0.767   0.506
 1702SOL    HW116985   2.151   0.763   0.414
 1702SOL    HW216986   2.107   0.676   0.529
 1703SOL     OW16987   3.430   2.141   4.583
 1703SOL    HW116988   3.486   2.144   4.505
 1703SOL    HW216989   3.474   2.078   4.641
 1704SOL     OW16990   1.891   4.160  16.684
 1704SOL    HW116991   1.850   4.229  16.736
 1704SOL    HW216992   1.975   4.196  16.658
 1705SOL     OW16993   3.868   2.820   7.940
 1705SOL    HW116994   3.893   2.808   7.849
 1705SOL    HW216995   3.773   2.815   7.940
 1706SOL     OW16996   4.523   0.631   1.672
 1706SOL    HW116997   4.528   0.613   1.578
 1706SOL    HW216998   4.609   0.604   1.706
 1707SOL     OW16999   0.257   4.663   5.162
 1707SOL    HW117000   0.286   4.689   5.250
 1707SOL    HW217001   0.337   4.636   5.117
 1708SOL     OW17002   3.835   0.372  16.723
 1708SOL    HW117003   3.764   0.391  16.785
 1708SOL    HW217004   3.907   0.427  16.752
 1709SOL     OW17005   1.738   4.090   3.698
 1709SOL    HW117006   1.722   4.181   3.670
 1709SOL    HW217007   1.829   4.089   3.725
 1710SOL     OW17008   0.373   3.941   4.937
 1710SOL    HW117009   0.323   3.873   4.981
 1710SOL    HW217010   0.425   3.895   4.871
 1711SOL     OW17011   2.710   3.344   5.042
 1711SOL    HW117012   2.639   3.400   5.074
 1711SOL    HW217013   2.675   3.305   4.962
 1712SOL     OW17014   0.976   0.474   0.300
 1712SOL    HW117015   0.984   0.434   0.213
 1712SOL    HW217016   0.949   0.402   0.357
 1713SOL     OW17017   4.599   0.919   0.453
 1713SOL    HW117018   4.564   0.840   0.494
 1713SOL    HW217019   4.557   0.923   0.367
 1714SOL     OW17020   0.644   1.420   8.295
 1714SOL    HW117021   0.737   1.425   8.272
 1714SOL    HW217022   0.607   1.502   8.263
 1715SOL     OW17023   4.712   1.762  17.332
 1715SOL    HW117024   4.680   1.822  17.264
 1715SOL    HW217025   4.665   1.788  17.411
 1716SOL     OW17026   1.069   2.641   3.721
 1716SOL    HW117027   0.980   2.660   3.751
 1716SOL    HW217028   1.060   2.625   3.627
 1717SOL     OW17029   1.218   3.388   4.353
 1717SOL    HW117030   1.263   3.380   4.438
 1717SOL    HW217031   1.277   3.346   4.291
 1718SOL     OW17032   3.335   0.008  18.596
 1718SOL    HW117033   3.317   4.761  18.510
 1718SOL    HW217034   3.250   0.043  18.624
 1719SOL     OW17035   0.390   1.604   4.617
 1719SOL    HW117036   0.457   1.552   4.660
 1719SOL    HW217037   0.386   1.570   4.528
 1720SOL     OW17038   0.844   0.004  16.020
 1720SOL    HW117039   0.790   0.081  16.039
 1720SOL    HW217040   0.836   4.786  15.925
 1721SOL     OW17041   1.155   0.672  16.583
 1721SOL    HW117042   1.134   0.763  16.604
 1721SOL    HW217043   1.164   0.629  16.668
 1722SOL     OW17044   0.036   0.326  18.636
 1722SOL    HW117045   4.736   0.333  18.612
 1722SOL    HW217046   0.080   0.387  18.578
 1723SOL     OW17047   0.699   3.254  17.139
 1723SOL    HW117048   0.703   3.346  17.165
 1723SOL    HW217049   0.787   3.233  17.108
 1724SOL     OW17050   1.618   0.986   1.285
 1724SOL    HW117051   1.545   0.928   1.263
 1724SOL    HW217052   1.689   0.961   1.226
 1725SOL     OW17053   0.939   0.282  21.001
 1725SOL    HW117054   0.968   0.191  20.994
 1725SOL    HW217055   1.014   0.333  20.971
 1726SOL     OW17056   4.281   3.790  17.956
 1726SOL    HW117057   4.295   3.709  17.907
 1726SOL    HW217058   4.268   3.761  18.046
 1727SOL     OW17059   3.446   1.516  19.168
 1727SOL    HW117060   3.506   1.451  19.133
 1727SOL    HW217061   3.430   1.489  19.258
 1728SOL     OW17062   3.514   0.509   1.940
 1728SOL    HW117063   3.573   0.497   1.866
 1728SOL    HW217064   3.455   0.580   1.913
 1729SOL     OW17065   3.977   4.352   3.694
 1729SOL    HW117066   3.895   4.379   3.655
 1729SOL    HW217067   3.989   4.410   3.769
 1730SOL     OW17068   0.301   0.786  15.667
 1730SOL    HW117069   0.244   0.715  15.696
 1730SOL    HW217070   0.292   0.853  15.735
 1731SOL     OW17071   2.875   2.542  19.640
 1731SOL    HW117072   2.940   2.523  19.707
 1731SOL    HW217073   2.808   2.475  19.651
 1732SOL     OW17074   3.263   4.075  17.554
 1732SOL    HW117075   3.194   4.104  17.494
 1732SOL    HW217076   3.231   3.991  17.588
 1733SOL     OW17077   2.708   2.188   2.023
 1733SOL    HW117078   2.784   2.131   2.014
 1733SOL    HW217079   2.654   2.146   2.090
 1734SOL     OW17080   4.131   4.265  14.907
 1734SOL    HW117081   4.081   4.249  14.988
 1734SOL    HW217082   4.077   4.326  14.857
 1735SOL     OW17083   0.632   4.683  14.422
 1735SOL    HW117084   0.711   4.695  14.475
 1735SOL    HW217085   0.567   4.740  14.464
 1736SOL     OW17086   0.899   2.645  17.113
 1736SOL    HW117087   0.875   2.585  17.185
 1736SOL    HW217088   0.987   2.674  17.135
 1737SOL     OW17089   0.301   0.018   2.827
 1737SOL    HW117090   0.262   4.749   2.765
 1737SOL    HW217091   0.386   4.773   2.849
 1738SOL     OW17092   2.913   1.593   1.797
 1738SOL    HW117093   2.839   1.654   1.788
 1738SOL    HW217094   2.948   1.611   1.885
 1739SOL     OW17095   4.601   1.335   6.374
 1739SOL    HW117096   4.508   1.334   6.397
 1739SOL    HW217097   4.614   1.418   6.329
 1740SOL     OW17098   3.256   3.318   0.630
 1740SOL    HW117099   3.198   3.386   0.596
 1740SOL    HW217100   3.238   3.241   0.576
 1741SOL     OW17101   0.818   2.174   5.626
 1741SOL    HW117102   0.776   2.094   5.595
 1741SOL    HW217103   0.800   2.239   5.558
 1742SOL     OW17104   1.922   1.316  13.062
 1742SOL    HW117105   1.879   1.401  13.073
 1742SOL    HW217106   1.973   1.325  12.982
 1743SOL     OW17107   2.249   4.641   0.943
 1743SOL    HW117108   2.240   4.631   0.848
 1743SOL    HW217109   2.211   4.561   0.979
 1744SOL     OW17110   0.850   0.099  17.239
 1744SOL    HW117111   0.877   0.191  17.235
 1744SOL    HW217112   0.931   0.050  17.230
 1745SOL     OW17113   0.190   2.799  15.141
 1745SOL    HW117114   0.148   2.830  15.221
 1745SOL    HW217115   0.141   2.720  15.116
 1746SOL     OW17116   2.391   2.379  14.616
 1746SOL    HW117117   2.377   2.390  14.710
 1746SOL    HW217118   2.487   2.377  14.607
 1747SOL     OW17119   3.464   2.813  14.063
 1747SOL    HW117120   3.497   2.766  14.139
 1747SOL    HW217121   3.370   2.796  14.063
 1748SOL     OW17122   3.993   4.692   4.467
 1748SOL    HW117123   4.002   4.697   4.563
 1748SOL    HW217124   3.975   4.783   4.440
 1749SOL     OW17125   3.394   2.538  17.845
 1749SOL    HW117126   3.471   2.589  17.871
 1749SOL    HW217127   3.349   2.520  17.927
 1750SOL     OW17128   4.517   0.113  18.306
 1750SOL    HW117129   4.444   0.081  18.253
 1750SOL    HW217130   4.535   0.041  18.367
 1751SOL     OW17131   2.582   2.269   6.635
 1751SOL    HW117132   2.658   2.239   6.585
 1751SOL    HW217133   2.620   2.323   6.705
 1752SOL     OW17134   2.656   3.270   6.210
 1752SOL    HW117135   2.589   3.324   6.168
 1752SOL    HW217136   2.631   3.180   6.189
 1753SOL     OW17137   1.937   4.681  20.043
 1753SOL    HW117138   1.897   4.696  20.128
 1753SOL    HW217139   2.028   4.657  20.063
 1754SOL     OW17140   4.003   1.939   5.194
 1754SOL    HW117141   4.083   1.892   5.172
 1754SOL    HW217142   4.021   1.980   5.278
 1755SOL     OW17143   4.517   0.575   3.526
 1755SOL    HW117144   4.525   0.659   3.481
 1755SOL    HW217145   4.467   0.520   3.466
 1756SOL     OW17146   3.287   0.919   2.095
 1756SOL    HW117147   3.239   0.993   2.134
 1756SOL    HW217148   3.297   0.857   2.166
 1757SOL     OW17149   3.092   4.185  19.782
 1757SOL    HW117150   3.020   4.168  19.842
 1757SOL    HW217151   3.053   4.236  19.711
 1758SOL     OW17152   3.438   3.817   0.359
 1758SOL    HW117153   3.501   3.867   0.306
 1758SOL    HW217154   3.459   3.725   0.339
 1759SOL     OW17155   2.384   3.630  14.572
 1759SOL    HW117156   2.350   3.690  14.506
 1759SOL    HW217157   2.396   3.547  14.525
 1760SOL     OW17158   2.656   0.334  19.039
 1760SOL    HW117159   2.597   0.267  19.073
 1760SOL    HW217160   2.652   0.323  18.944
 1761SOL     OW17161   2.408   0.162   0.822
 1761SOL    HW117162   2.489   0.117   0.797
 1761SOL    HW217163   2.395   0.139   0.914
 1762SOL     OW17164   4.090   2.837  21.227
 1762SOL    HW117165   4.084   2.930  21.247
 1762SOL    HW217166   4.170   2.828  21.175
 1763SOL     OW17167   1.535   2.540   8.726
 1763SOL    HW117168   1.618   2.550   8.773
 1763SOL    HW217169   1.553   2.472   8.660
 1764SOL     OW17170   2.047   4.747   8.105
 1764SOL    HW117171   2.066   0.010   8.030
 1764SOL    HW217172   2.112   4.773   8.171
 1765SOL     OW17173   1.001   0.441  18.460
 1765SOL    HW117174   1.080   0.479  18.499
 1765SOL    HW217175   1.008   0.347  18.477
 1766SOL     OW17176   2.659   2.449  15.909
 1766SOL    HW117177   2.693   2.486  15.990
 1766SOL    HW217178   2.730   2.460  15.845
 1767SOL     OW17179   1.163   3.329  17.672
 1767SOL    HW117180   1.258   3.342  17.675
 1767SOL    HW217181   1.141   3.328  17.579
 1768SOL     OW17182   4.510   3.597  16.822
 1768SOL    HW117183   4.566   3.528  16.786
 1768SOL    HW217184   4.570   3.652  16.873
 1769SOL     OW17185   4.438   4.595  17.165
 1769SOL    HW117186   4.457   4.544  17.086
 1769SOL    HW217187   4.498   4.559  17.231
 1770SOL     OW17188   0.806   3.782  19.371
 1770SOL    HW117189   0.731   3.775  19.312
 1770SOL    HW217190   0.767   3.797  19.457
 1771SOL     OW17191   0.080   3.522  21.041
 1771SOL    HW117192   0.067   3.501  21.133
 1771SOL    HW217193   0.053   3.613  21.032
 1772SOL     OW17194   2.364   1.877   4.886
 1772SOL    HW117195   2.269   1.871   4.873
 1772SOL    HW217196   2.401   1.809   4.830
 1773SOL     OW17197   2.443   2.659  15.864
 1773SOL    HW117198   2.490   2.577  15.847
 1773SOL    HW217199   2.443   2.705  15.780
 1774SOL     OW17200   3.333   3.487   3.678
 1774SOL    HW117201   3.407   3.544   3.699
 1774SOL    HW217202   3.324   3.430   3.754
 1775SOL     OW17203   0.991   3.387  15.862
 1775SOL    HW117204   0.975   3.294  15.842
 1775SOL    HW217205   1.086   3.395  15.865
 1776SOL     OW17206   1.891   1.228   3.115
 1776SOL    HW117207   1.913   1.203   3.025
 1776SOL    HW217208   1.903   1.323   3.117
 1777SOL     OW17209   4.063   4.458   4.712
 1777SOL    HW117210   4.075   4.385   4.651
 1777SOL    HW217211   4.050   4.417   4.797
 1778SOL     OW17212   2.216   3.126  18.039
 1778SOL    HW117213   2.171   3.121  18.123
 1778SOL    HW217214   2.294   3.071  18.050
 1779SOL     OW17215   0.590   0.445   2.139
 1779SOL    HW117216   0.681   0.445   2.111
 1779SOL    HW217217   0.579   0.528   2.186
 1780SOL     OW17218   1.304   4.540  21.158
 1780SOL    HW117219   1.377   4.533  21.219
 1780SOL    HW217220   1.226   4.535  21.213
 1781SOL     OW17221   2.264   0.057  20.021
 1781SOL    HW117222   2.215   0.078  19.941
 1781SOL    HW217223   2.240   4.760  20.041
 1782SOL     OW17224   2.042   0.975   1.616
 1782SOL    HW117225   2.081   0.926   1.544
 1782SOL    HW217226   2.075   0.933   1.695
 1783SOL     OW17227   4.518   4.503   3.045
 1783SOL    HW117228   4.497   4.563   2.973
 1783SOL    HW217229   4.453   4.522   3.112
 1784SOL     OW17230   0.036   1.333  20.410
 1784SOL    HW117231   0.023   1.420  20.449
 1784SOL    HW217232   0.088   1.350  20.331
 1785SOL     OW17233   2.679   4.507  16.817
 1785SOL    HW117234   2.728   4.493  16.898
 1785SOL    HW217235   2.747   4.520  16.750
 1786SOL     OW17236   0.754   2.407   8.216
 1786SOL    HW117237   0.826   2.346   8.232
 1786SOL    HW217238   0.684   2.353   8.178
 1787SOL     OW17239   4.638   2.227  18.655
 1787SOL    HW117240   4.635   2.315  18.692
 1787SOL    HW217241   4.548   2.209  18.628
 1788SOL     OW17242   3.957   1.768   9.313
 1788SOL    HW117243   3.972   1.689   9.365
 1788SOL    HW217244   3.997   1.749   9.229
 1789SOL     OW17245   1.518   0.267   7.324
 1789SOL    HW117246   1.445   0.324   7.298
 1789SOL    HW217247   1.551   0.232   7.241
 1790SOL     OW17248   0.177   4.377  14.148
 1790SOL    HW117249   0.209   4.295  14.112
 1790SOL    HW217250   0.231   4.393  14.225
 1791SOL     OW17251   0.330   2.515   6.901
 1791SOL    HW117252   0.383   2.435   6.900
 1791SOL    HW217253   0.270   2.502   6.975
 1792SOL     OW17254   0.016   1.902   9.151
 1792SOL    HW117255   4.790   1.936   9.238
 1792SOL    HW217256   0.046   1.978   9.101
 1793SOL     OW17257   1.715   3.083   4.286
 1793SOL    HW117258   1.768   3.006   4.270
 1793SOL    HW217259   1.663   3.094   4.207
 1794SOL     OW17260   2.577   0.647   4.742
 1794SOL    HW117261   2.504   0.652   4.681
 1794SOL    HW217262   2.541   0.675   4.826
 1795SOL     OW17263   2.971   0.362   7.962
 1795SOL    HW117264   3.040   0.428   7.958
 1795SOL    HW217265   2.900   0.405   8.011
 1796SOL     OW17266   0.556   2.290  10.557
 1796SOL    HW117267   0.644   2.265  10.585
 1796SOL    HW217268   0.549   2.382  10.583
 1797SOL     OW17269   3.195   2.281   8.405
 1797SOL    HW117270   3.170   2.367   8.438
 1797SOL    HW217271   3.290   2.279   8.413
 1798SOL     OW17272   0.120   4.073  16.319
 1798SOL    HW117273   0.131   4.025  16.237
 1798SOL    HW217274   0.209   4.089  16.350
 1799SOL     OW17275   0.415   0.987   9.089
 1799SOL    HW117276   0.466   1.042   9.030
 1799SOL    HW217277   0.324   0.999   9.060
 1800SOL     OW17278   4.775   3.286   9.099
 1800SOL    HW117279   0.035   3.317   9.026
 1800SOL    HW217280   4.788   3.350   9.168
 1801SOL     OW17281   0.582   2.288   9.452
 1801SOL    HW117282   0.667   2.321   9.425
 1801SOL    HW217283   0.519   2.351   9.416
 1802SOL     OW17284   0.279   2.546   7.549
 1802SOL    HW117285   0.213   2.477   7.553
 1802SOL    HW217286   0.339   2.517   7.480
 1803SOL     OW17287   0.413   2.524   9.320
 1803SOL    HW117288   0.363   2.529   9.402
 1803SOL    HW217289   0.418   2.614   9.289
 1804SOL     OW17290   2.428   2.266   8.448
 1804SOL    HW117291   2.515   2.239   8.477
 1804SOL    HW217292   2.372   2.255   8.524
 1805SOL     OW17293   0.017   3.235  16.338
 1805SOL    HW117294   0.059   3.286  16.408
 1805SOL    HW217295   0.074   3.248  16.262
 1806SOL     OW17296   0.369   4.694   8.888
 1806SOL    HW117297   0.440   4.718   8.828
 1806SOL    HW217298   0.410   4.630   8.947
 1807SOL     OW17299   3.012   0.725   9.091
 1807SOL    HW117300   3.100   0.757   9.074
 1807SOL    HW217301   2.954   0.789   9.049
 1808SOL     OW17302   4.133   0.827   6.349
 1808SOL    HW117303   4.058   0.771   6.329
 1808SOL    HW217304   4.167   0.853   6.264
 1809SOL     OW17305   3.650   3.513  14.117
 1809SOL    HW117306   3.595   3.550  14.186
 1809SOL    HW217307   3.637   3.418  14.125
 1810SOL     OW17308   4.696   3.295   9.986
 1810SOL    HW117309   4.635   3.268   9.918
 1810SOL    HW217310   4.740   3.372   9.950
 1811SOL     OW17311   4.580   0.942   9.503
 1811SOL    HW117312   4.559   0.854   9.534
 1811SOL    HW217313   4.496   0.989   9.507
 1812SOL     OW17314   3.646   0.749   1.723
 1812SOL    HW117315   3.609   0.663   1.746
 1812SOL    HW217316   3.704   0.731   1.650
 1813SOL     OW17317   2.891   3.868   9.966
 1813SOL    HW117318   2.967   3.877   9.909
 1813SOL    HW217319   2.827   3.819   9.915
 1814SOL     OW17320   3.508   3.530   8.957
 1814SOL    HW117321   3.504   3.580   8.875
 1814SOL    HW217322   3.595   3.550   8.993
 1815SOL     OW17323   1.739   4.211   5.771
 1815SOL    HW117324   1.703   4.131   5.732
 1815SOL    HW217325   1.704   4.212   5.860
 1816SOL     OW17326   0.725   2.359  10.332
 1816SOL    HW117327   0.630   2.352  10.338
 1816SOL    HW217328   0.758   2.300  10.400
 1817SOL     OW17329   3.644   2.369  10.400
 1817SOL    HW117330   3.714   2.336  10.456
 1817SOL    HW217331   3.632   2.460  10.428
 1818SOL     OW17332   4.237   2.009  10.317
 1818SOL    HW117333   4.320   2.055  10.307
 1818SOL    HW217334   4.259   1.917  10.305
 1819SOL     OW17335   2.676   3.961  11.324
 1819SOL    HW117336   2.668   4.004  11.409
 1819SOL    HW217337   2.739   4.015  11.276
 1820SOL     OW17338   3.934   2.889  10.286
 1820SOL    HW117339   3.852   2.856  10.250
 1820SOL    HW217340   3.996   2.818  10.273
 1821SOL     OW17341   4.216   1.155  11.792
 1821SOL    HW117342   4.243   1.067  11.818
 1821SOL    HW217343   4.160   1.142  11.716
 1822SOL     OW17344   3.569   2.188  10.900
 1822SOL    HW117345   3.517   2.169  10.821
 1822SOL    HW217346   3.588   2.282  10.894
 1823SOL     OW17347   3.146   1.770  11.228
 1823SOL    HW117348   3.092   1.794  11.153
 1823SOL    HW217349   3.083   1.736  11.292
 1824SOL     OW17350   3.752   2.252   9.973
 1824SOL    HW117351   3.708   2.335   9.958
 1824SOL    HW217352   3.779   2.223   9.886
 1825SOL     OW17353   4.747   2.198  10.202
 1825SOL    HW117354   4.653   2.181  10.210
 1825SOL    HW217355   4.780   2.192  10.292
 1826SOL     OW17356   3.957   0.403   9.073
 1826SOL    HW117357   4.043   0.433   9.042
 1826SOL    HW217358   3.897   0.473   9.047
 1827SOL     OW17359   4.075   1.741  10.549
 1827SOL    HW117360   4.073   1.835  10.569
 1827SOL    HW217361   4.010   1.730  10.480
 1828SOL     OW17362   4.510   4.019  11.334
 1828SOL    HW117363   4.435   3.960  11.324
 1828SOL    HW217364   4.471   4.106  11.339
 1829SOL     OW17365   3.046   1.970  10.027
 1829SOL    HW117366   3.093   1.931  10.100
 1829SOL    HW217367   3.077   1.922   9.950
 1830SOL     OW17368   3.339   1.335  10.902
 1830SOL    HW117369   3.342   1.397  10.975
 1830SOL    HW217370   3.372   1.253  10.939
 1831SOL     OW17371   0.100   1.635  13.520
 1831SOL    HW117372   0.078   1.545  13.498
 1831SOL    HW217373   0.057   1.688  13.453
 1832SOL     OW17374   3.367   1.040  13.042
 1832SOL    HW117375   3.316   1.122  13.044
 1832SOL    HW217376   3.334   0.990  13.117
 1833SOL     OW17377   2.069   0.967  11.691
 1833SOL    HW117378   1.985   0.969  11.646
 1833SOL    HW217379   2.050   0.997  11.780
 1834SOL     OW17380   3.572   2.452   9.849
 1834SOL    HW117381   3.534   2.510   9.783
 1834SOL    HW217382   3.545   2.364   9.823
 1835SOL     OW17383   3.370   1.909  11.310
 1835SOL    HW117384   3.311   1.850  11.264
 1835SOL    HW217385   3.411   1.961  11.241
 1836SOL     OW17386   0.580   1.366  12.132
 1836SOL    HW117387   0.643   1.375  12.061
 1836SOL    HW217388   0.506   1.420  12.105
 1837SOL     OW17389   0.041   1.125  12.375
 1837SOL    HW117390   4.761   1.176  12.340
 1837SOL    HW217391   0.110   1.133  12.309
 1838SOL     OW17392   0.197   1.698  11.931
 1838SOL    HW117393   0.212   1.605  11.916
 1838SOL    HW217394   0.232   1.714  12.018
 1839SOL     OW17395   3.019   1.821  11.529
 1839SOL    HW117396   3.112   1.814  11.504
 1839SOL    HW217397   2.990   1.731  11.538
 1840SOL     OW17398   4.784   2.653  12.020
 1840SOL    HW117399   4.763   2.701  12.100
 1840SOL    HW217400   0.003   2.563  12.049
 1841SOL     OW17401   3.900   1.806  12.579
 1841SOL    HW117402   3.816   1.765  12.600
 1841SOL    HW217403   3.878   1.873  12.515
 1842SOL     OW17404   3.926   1.005  10.071
 1842SOL    HW117405   3.874   1.015  10.150
 1842SOL    HW217406   3.863   0.977  10.004
 1843SOL     OW17407   4.145   0.398  12.052
 1843SOL    HW117408   4.063   0.349  12.040
 1843SOL    HW217409   4.188   0.354  12.125
 1844SOL     OW17410   3.892   1.691  10.367
 1844SOL    HW117411   3.861   1.623  10.307
 1844SOL    HW217412   3.833   1.764  10.353
 1845SOL     OW17413   3.019   1.514  12.372
 1845SOL    HW117414   3.091   1.545  12.318
 1845SOL    HW217415   3.060   1.453  12.433
 1846SOL     OW17416   2.783   1.515  12.496
 1846SOL    HW117417   2.869   1.552  12.475
 1846SOL    HW217418   2.721   1.581  12.466
 1847SOL     OW17419   4.010   3.285  11.609
 1847SOL    HW117420   3.933   3.252  11.656
 1847SOL    HW217421   4.064   3.208  11.595
 1848SOL     OW17422   4.650   2.366  12.646
 1848SOL    HW117423   4.624   2.294  12.703
 1848SOL    HW217424   4.655   2.442  12.703
 1849SOL     OW17425   3.625   2.363  11.297
 1849SOL    HW117426   3.545   2.338  11.343
 1849SOL    HW217427   3.695   2.339  11.357
 1850SOL     OW17428   3.837   1.098  10.562
 1850SOL    HW117429   3.834   1.187  10.526
 1850SOL    HW217430   3.910   1.100  10.623
 1851SOL     OW17431   4.397   2.053  11.286
 1851SOL    HW117432   4.379   2.145  11.268
 1851SOL    HW217433   4.345   2.006  11.222
 1852SOL     OW17434   4.165   1.486  11.689
 1852SOL    HW117435   4.172   1.560  11.750
 1852SOL    HW217436   4.153   1.409  11.746
 1853SOL     OW17437   4.066   1.752  16.969
 1853SOL    HW117438   4.104   1.704  17.043
 1853SOL    HW217439   3.975   1.725  16.966
 1854SOL     OW17440   0.019   3.889   2.362
 1854SOL    HW117441   0.022   3.977   2.400
 1854SOL    HW217442   0.018   3.830   2.437
 1855SOL     OW17443   4.237   1.909  12.053
 1855SOL    HW117444   4.203   1.878  12.137
 1855SOL    HW217445   4.321   1.864  12.043
 1856SOL     OW17446   0.004   3.158   0.484
 1856SOL    HW117447   0.040   3.100   0.417
 1856SOL    HW217448   0.040   3.244   0.462
 1857SOL     OW17449   0.503   3.577  16.774
 1857SOL    HW117450   0.419   3.578  16.728
 1857SOL    HW217451   0.490   3.636  16.849
 1858SOL     OW17452   3.464   1.703  21.230
 1858SOL    HW117453   3.511   1.762   0.015
 1858SOL    HW217454   3.410   1.649   0.015
 1859SOL     OW17455   1.525   3.957   6.477
 1859SOL    HW117456   1.507   4.051   6.468
 1859SOL    HW217457   1.618   3.949   6.457
 1860SOL     OW17458   1.233   3.209   3.643
 1860SOL    HW117459   1.163   3.272   3.622
 1860SOL    HW217460   1.246   3.160   3.562
 1861SOL     OW17461   0.973   4.736  17.568
 1861SOL    HW117462   0.933   0.025  17.596
 1861SOL    HW217463   1.055   4.731  17.618
 1862SOL     OW17464   0.545   2.088  19.573
 1862SOL    HW117465   0.534   2.178  19.543
 1862SOL    HW217466   0.465   2.068  19.621
 1863SOL     OW17467   1.554   1.513  16.249
 1863SOL    HW117468   1.466   1.530  16.216
 1863SOL    HW217469   1.609   1.578  16.206
 1864SOL     OW17470   1.038   3.885   6.024
 1864SOL    HW117471   0.969   3.889   6.090
 1864SOL    HW217472   1.118   3.865   6.073
 1865SOL     OW17473   2.925   3.356   5.943
 1865SOL    HW117474   2.879   3.282   5.983
 1865SOL    HW217475   2.869   3.381   5.869
 1866SOL     OW17476   4.148   0.232   3.918
 1866SOL    HW117477   4.151   0.255   4.010
 1866SOL    HW217478   4.235   0.195   3.899
 1867SOL     OW17479   3.755   4.170  18.110
 1867SOL    HW117480   3.837   4.173  18.159
 1867SOL    HW217481   3.771   4.106  18.041
 1868SOL     OW17482   3.684   2.269  13.036
 1868SOL    HW117483   3.764   2.242  12.992
 1868SOL    HW217484   3.713   2.318  13.112
 1869SOL     OW17485   3.369   4.533  15.542
 1869SOL    HW117486   3.285   4.569  15.571
 1869SOL    HW217487   3.391   4.467  15.608
 1870SOL     OW17488   2.207   4.765   4.441
 1870SOL    HW117489   2.269   4.780   4.513
 1870SOL    HW217490   2.147   0.045   4.445
 1871SOL     OW17491   3.251   2.301   1.664
 1871SOL    HW117492   3.232   2.215   1.704
 1871SOL    HW217493   3.205   2.364   1.720
 1872SOL     OW17494   1.231   0.819  12.510
 1872SOL    HW117495   1.152   0.773  12.538
 1872SOL    HW217496   1.216   0.910  12.534
 1873SOL     OW17497   2.918   0.288  18.709
 1873SOL    HW117498   2.969   0.207  18.701
 1873SOL    HW217499   2.981   0.353  18.738
 1874SOL     OW17500   0.607   2.107  19.034
 1874SOL    HW117501   0.679   2.113  18.971
 1874SOL    HW217502   0.599   2.196  19.069
 1875SOL     OW17503   4.712   1.780  13.391
 1875SOL    HW117504   4.671   1.787  13.304
 1875SOL    HW217505   4.648   1.732  13.444
 1876SOL     OW17506   1.429   0.503  19.309
 1876SOL    HW117507   1.360   0.521  19.372
 1876SOL    HW217508   1.391   0.526  19.224
 1877SOL     OW17509   3.973   0.236   4.772
 1877SOL    HW117510   4.054   0.266   4.732
 1877SOL    HW217511   3.979   0.141   4.771
 1878SOL     OW17512   2.447   4.070   4.255
 1878SOL    HW117513   2.487   3.998   4.304
 1878SOL    HW217514   2.435   4.140   4.319
 1879SOL     OW17515   1.541   1.137   1.927
 1879SOL    HW117516   1.605   1.114   1.859
 1879SOL    HW217517   1.466   1.171   1.878
 1880SOL     OW17518   4.783   2.659  13.804
 1880SOL    HW117519   0.039   2.577  13.796
 1880SOL    HW217520   4.752   2.676  13.715
 1881SOL     OW17521   0.365   1.452  11.906
 1881SOL    HW117522   0.291   1.397  11.879
 1881SOL    HW217523   0.340   1.485  11.992
 1882SOL     OW17524   1.167   0.504   4.584
 1882SOL    HW117525   1.144   0.595   4.565
 1882SOL    HW217526   1.180   0.464   4.498
 1883SOL     OW17527   2.053   3.081   4.901
 1883SOL    HW117528   1.998   3.072   4.979
 1883SOL    HW217529   2.019   3.015   4.841
 1884SOL     OW17530   3.073   0.476   5.299
 1884SOL    HW117531   2.992   0.492   5.250
 1884SOL    HW217532   3.064   0.387   5.331
 1885SOL     OW17533   0.230   3.653  18.922
 1885SOL    HW117534   0.159   3.602  18.962
 1885SOL    HW217535   0.307   3.598  18.934
 1886SOL     OW17536   1.266   3.988   2.065
 1886SOL    HW117537   1.300   3.975   1.976
 1886SOL    HW217538   1.278   4.081   2.083
 1887SOL     OW17539   4.533   2.555   4.926
 1887SOL    HW117540   4.477   2.622   4.964
 1887SOL    HW217541   4.615   2.562   4.975
 1888SOL     OW17542   3.668   4.309  17.049
 1888SOL    HW117543   3.742   4.259  17.083
 1888SOL    HW217544   3.659   4.278  16.958
 1889SOL     OW17545   0.610   1.689   2.876
 1889SOL    HW117546   0.684   1.745   2.851
 1889SOL    HW217547   0.634   1.602   2.843
 1890SOL     OW17548   4.189   3.801  16.412
 1890SOL    HW117549   4.276   3.795  16.452
 1890SOL    HW217550   4.129   3.803  16.486
 1891SOL     OW17551   4.388   1.761  14.080
 1891SOL    HW117552   4.471   1.721  14.054
 1891SOL    HW217553   4.413   1.842  14.124
 1892SOL     OW17554   4.648   4.690   6.697
 1892SOL    HW117555   4.645   4.785   6.684
 1892SOL    HW217556   4.618   4.654   6.614
 1893SOL     OW17557   2.725   3.848  14.578
 1893SOL    HW117558   2.797   3.791  14.604
 1893SOL    HW217559   2.701   3.894  14.658
 1894SOL     OW17560   2.242   1.399  18.344
 1894SOL    HW117561   2.296   1.414  18.421
 1894SOL    HW217562   2.261   1.474  18.287
 1895SOL     OW17563   4.389   1.163  19.364
 1895SOL    HW117564   4.390   1.072  19.335
 1895SOL    HW217565   4.376   1.214  19.285
 1896SOL     OW17566   0.419   2.286  21.172
 1896SOL    HW117567   0.347   2.228  21.197
 1896SOL    HW217568   0.457   2.244  21.094
 1897SOL     OW17569   1.720   4.218   4.756
 1897SOL    HW117570   1.794   4.189   4.809
 1897SOL    HW217571   1.659   4.144   4.756
 1898SOL     OW17572   0.614   4.350   1.867
 1898SOL    HW117573   0.674   4.282   1.897
 1898SOL    HW217574   0.538   4.301   1.834
 1899SOL     OW17575   4.423   0.313  15.820
 1899SOL    HW117576   4.427   0.278  15.731
 1899SOL    HW217577   4.501   0.278  15.864
 1900SOL     OW17578   1.456   3.999   4.587
 1900SOL    HW117579   1.434   4.070   4.647
 1900SOL    HW217580   1.480   4.043   4.506
 1901SOL     OW17581   3.776   4.558   1.477
 1901SOL    HW117582   3.790   4.635   1.532
 1901SOL    HW217583   3.755   4.593   1.391
 1902SOL     OW17584   1.692   2.549  19.640
 1902SOL    HW117585   1.760   2.502  19.591
 1902SOL    HW217586   1.644   2.597  19.572
 1903SOL     OW17587   0.071   0.300   6.747
 1903SOL    HW117588   0.096   0.370   6.687
 1903SOL    HW217589   4.777   0.274   6.718
 1904SOL     OW17590   1.672   3.903  15.573
 1904SOL    HW117591   1.672   3.932  15.482
 1904SOL    HW217592   1.649   3.981  15.623
 1905SOL     OW17593   2.312   3.977  19.216
 1905SOL    HW117594   2.376   3.958  19.148
 1905SOL    HW217595   2.335   4.065  19.247
 1906SOL     OW17596   1.763   4.081  17.865
 1906SOL    HW117597   1.740   3.993  17.836
 1906SOL    HW217598   1.714   4.092  17.947
 1907SOL     OW17599   1.033   1.999   5.374
 1907SOL    HW117600   1.029   1.908   5.403
 1907SOL    HW217601   0.995   1.999   5.287
 1908SOL     OW17602   3.080   0.660  16.205
 1908SOL    HW117603   3.031   0.724  16.257
 1908SOL    HW217604   3.047   0.575  16.233
 1909SOL     OW17605   4.594   3.187  20.122
 1909SOL    HW117606   4.550   3.272  20.120
 1909SOL    HW217607   4.542   3.132  20.063
 1910SOL     OW17608   3.560   1.027  16.687
 1910SOL    HW117609   3.547   0.940  16.648
 1910SOL    HW217610   3.484   1.077  16.658
 1911SOL     OW17611   0.500   4.677  13.478
 1911SOL    HW117612   0.555   4.612  13.435
 1911SOL    HW217613   0.440   4.707  13.410
 1912SOL     OW17614   3.642   3.312   0.109
 1912SOL    HW117615   3.679   3.224   0.115
 1912SOL    HW217616   3.569   3.312   0.171
 1913SOL     OW17617   1.312   3.695  15.875
 1913SOL    HW117618   1.296   3.618  15.821
 1913SOL    HW217619   1.251   3.761  15.841
 1914SOL     OW17620   4.619   4.194  19.949
 1914SOL    HW117621   4.673   4.269  19.974
 1914SOL    HW217622   4.542   4.199  20.006
 1915SOL     OW17623   0.864   4.430  14.885
 1915SOL    HW117624   0.872   4.371  14.810
 1915SOL    HW217625   0.826   4.376  14.954
 1916SOL     OW17626   3.537   4.000  19.339
 1916SOL    HW117627   3.566   3.918  19.378
 1916SOL    HW217628   3.597   4.015  19.266
 1917SOL     OW17629   2.407   2.723   5.404
 1917SOL    HW117630   2.363   2.747   5.323
 1917SOL    HW217631   2.435   2.807   5.442
 1918SOL     OW17632   1.040   4.017  20.540
 1918SOL    HW117633   1.107   4.006  20.607
 1918SOL    HW217634   1.005   3.929  20.526
 1919SOL     OW17635   2.089   0.143  16.179
 1919SOL    HW117636   2.044   0.162  16.261
 1919SOL    HW217637   2.094   0.228  16.134
 1920SOL     OW17638   4.768   4.540   7.105
 1920SOL    HW117639   0.022   4.527   7.023
 1920SOL    HW217640   4.676   4.547   7.079
 1921SOL     OW17641   0.638   4.638   3.832
 1921SOL    HW117642   0.711   4.668   3.778
 1921SOL    HW217643   0.679   4.601   3.910
 1922SOL     OW17644   2.436   3.437   6.113
 1922SOL    HW117645   2.457   3.517   6.162
 1922SOL    HW217646   2.446   3.463   6.021
 1923SOL     OW17647   2.181   2.106  17.302
 1923SOL    HW117648   2.151   2.193  17.275
 1923SOL    HW217649   2.211   2.118  17.392
 1924SOL     OW17650   2.950   0.000  16.880
 1924SOL    HW117651   3.036   4.781  16.920
 1924SOL    HW217652   2.910   0.071  16.931
 1925SOL     OW17653   4.241   0.704   5.272
 1925SOL    HW117654   4.253   0.768   5.202
 1925SOL    HW217655   4.276   0.747   5.350
 1926SOL     OW17656   2.480   4.127  13.042
 1926SOL    HW117657   2.413   4.181  13.000
 1926SOL    HW217658   2.452   4.122  13.134
 1927SOL     OW17659   0.555   2.510   1.942
 1927SOL    HW117660   0.594   2.586   1.986
 1927SOL    HW217661   0.520   2.546   1.861
 1928SOL     OW17662   1.759   0.009  15.103
 1928SOL    HW117663   1.829   0.029  15.040
 1928SOL    HW217664   1.746   4.708  15.095
 1929SOL     OW17665   1.654   0.557   1.477
 1929SOL    HW117666   1.681   0.585   1.389
 1929SOL    HW217667   1.566   0.592   1.487
 1930SOL     OW17668   3.168   0.294  15.772
 1930SOL    HW117669   3.136   0.205  15.756
 1930SOL    HW217670   3.095   0.350  15.747
 1931SOL     OW17671   2.896   0.200  16.025
 1931SOL    HW117672   2.832   0.214  16.096
 1931SOL    HW217673   2.912   0.106  16.026
 1932SOL     OW17674   1.987   0.006   0.532
 1932SOL    HW117675   2.030   0.016   0.617
 1932SOL    HW217676   2.031   4.724   0.491
 1933SOL     OW17677   3.627   3.411  15.438
 1933SOL    HW117678   3.589   3.327  15.411
 1933SOL    HW217679   3.718   3.391  15.458
 1934SOL     OW17680   3.293   1.520   0.086
 1934SOL    HW117681   3.224   1.587   0.088
 1934SOL    HW217682   3.255   1.450   0.032
 1935SOL     OW17683   4.601   2.762   0.758
 1935SOL    HW117684   4.675   2.711   0.793
 1935SOL    HW217685   4.546   2.779   0.834
 1936SOL     OW17686   3.668   1.733   3.185
 1936SOL    HW117687   3.747   1.700   3.228
 1936SOL    HW217688   3.596   1.683   3.225
 1937SOL     OW17689   1.163   4.052  18.540
 1937SOL    HW117690   1.145   3.958  18.544
 1937SOL    HW217691   1.181   4.077  18.630
 1938SOL     OW17692   3.994   1.441  16.234
 1938SOL    HW117693   3.961   1.434  16.324
 1938SOL    HW217694   3.954   1.522  16.201
 1939SOL     OW17695   0.109   2.735   6.324
 1939SOL    HW117696   0.050   2.750   6.250
 1939SOL    HW217697   0.192   2.773   6.297
 1940SOL     OW17698   3.588   4.058  20.134
 1940SOL    HW117699   3.525   3.989  20.157
 1940SOL    HW217700   3.656   4.052  20.201
 1941SOL     OW17701   4.147   3.113  21.262
 1941SOL    HW117702   4.214   3.181  21.255
 1941SOL    HW217703   4.105   3.112  21.177
 1942SOL     OW17704   2.511   1.815   0.854
 1942SOL    HW117705   2.585   1.871   0.877
 1942SOL    HW217706   2.443   1.840   0.916
 1943SOL     OW17707   4.304   4.785   1.533
 1943SOL    HW117708   4.285   0.030   1.447
 1943SOL    HW217709   4.255   0.046   1.595
 1944SOL     OW17710   4.012   2.361   3.553
 1944SOL    HW117711   4.015   2.282   3.500
 1944SOL    HW217712   3.960   2.423   3.502
 1945SOL     OW17713   4.514   0.218   4.121
 1945SOL    HW117714   4.545   0.307   4.111
 1945SOL    HW217715   4.556   0.186   4.201
 1946SOL     OW17716   3.448   0.956   3.983
 1946SOL    HW117717   3.415   0.868   3.964
 1946SOL    HW217718   3.539   0.954   3.953
 1947SOL     OW17719   2.231   3.086   0.011
 1947SOL    HW117720   2.225   3.134   0.094
 1947SOL    HW217721   2.140   3.072  21.258
 1948SOL     OW17722   2.199   4.049   8.698
 1948SOL    HW117723   2.263   3.979   8.707
 1948SOL    HW217724   2.114   4.005   8.699
 1949SOL     OW17725   1.707   1.713   0.018
 1949SOL    HW117726   1.666   1.641   0.066
 1949SOL    HW217727   1.787   1.675  21.254
 1950SOL     OW17728   4.522   3.319  16.030
 1950SOL    HW117729   4.562   3.396  15.989
 1950SOL    HW217730   4.428   3.333  16.021
 1951SOL     OW17731   4.693   4.116  15.117
 1951SOL    HW117732   4.755   4.063  15.169
 1951SOL    HW217733   4.748   4.182  15.075
 1952SOL     OW17734   3.996   3.723   4.907
 1952SOL    HW117735   3.965   3.707   4.817
 1952SOL    HW217736   4.015   3.636   4.941
 1953SOL     OW17737   4.256   2.516  15.164
 1953SOL    HW117738   4.213   2.434  15.137
 1953SOL    HW217739   4.288   2.555  15.083
 1954SOL     OW17740   1.095   4.357  19.290
 1954SOL    HW117741   1.011   4.331  19.252
 1954SOL    HW217742   1.075   4.435  19.342
 1955SOL     OW17743   4.443   3.955   2.175
 1955SOL    HW117744   4.399   3.885   2.224
 1955SOL    HW217745   4.376   4.024   2.168
 1956SOL     OW17746   0.664   0.808   5.717
 1956SOL    HW117747   0.648   0.755   5.639
 1956SOL    HW217748   0.745   0.773   5.754
 1957SOL     OW17749   1.364   2.900  18.383
 1957SOL    HW117750   1.317   2.983  18.385
 1957SOL    HW217751   1.339   2.856  18.464
 1958SOL     OW17752   2.739   2.645  20.742
 1958SOL    HW117753   2.729   2.631  20.836
 1958SOL    HW217754   2.692   2.573  20.701
 1959SOL     OW17755   3.534   0.727   3.281
 1959SOL    HW117756   3.557   0.703   3.191
 1959SOL    HW217757   3.619   0.742   3.323
 1960SOL     OW17758   1.611   2.806   3.451
 1960SOL    HW117759   1.629   2.852   3.533
 1960SOL    HW217760   1.668   2.730   3.453
 1961SOL     OW17761   3.234   4.777  14.716
 1961SOL    HW117762   3.264   4.740  14.799
 1961SOL    HW217763   3.256   4.711  14.650
 1962SOL     OW17764   0.377   0.928   6.182
 1962SOL    HW117765   0.392   1.017   6.213
 1962SOL    HW217766   0.314   0.937   6.110
 1963SOL     OW17767   3.815   3.572   3.915
 1963SOL    HW117768   3.859   3.503   3.963
 1963SOL    HW217769   3.818   3.648   3.972
 1964SOL     OW17770   2.041   2.926  17.618
 1964SOL    HW117771   1.998   2.868  17.680
 1964SOL    HW217772   1.969   2.978  17.581
 1965SOL     OW17773   0.868   1.408   0.099
 1965SOL    HW117774   0.775   1.414   0.119
 1965SOL    HW217775   0.912   1.428   0.181
 1966SOL     OW17776   0.648   3.732  14.848
 1966SOL    HW117777   0.675   3.679  14.923
 1966SOL    HW217778   0.552   3.732  14.853
 1967SOL     OW17779   2.004   2.072   2.545
 1967SOL    HW117780   2.088   2.079   2.590
 1967SOL    HW217781   1.976   2.162   2.532
 1968SOL     OW17782   0.049   1.943  16.981
 1968SOL    HW117783   4.760   1.989  16.964
 1968SOL    HW217784   0.096   2.000  17.041
 1969SOL     OW17785   2.464   3.984  20.761
 1969SOL    HW117786   2.555   3.965  20.736
 1969SOL    HW217787   2.463   3.974  20.856
 1970SOL     OW17788   0.362   3.960  19.947
 1970SOL    HW117789   0.286   4.018  19.938
 1970SOL    HW217790   0.350   3.893  19.880
 1971SOL     OW17791   0.492   2.837  20.657
 1971SOL    HW117792   0.460   2.771  20.719
 1971SOL    HW217793   0.582   2.853  20.685
 1972SOL     OW17794   1.327   2.767   3.425
 1972SOL    HW117795   1.319   2.678   3.392
 1972SOL    HW217796   1.420   2.788   3.413
 1973SOL     OW17797   2.692   0.186  17.226
 1973SOL    HW117798   2.638   0.131  17.170
 1973SOL    HW217799   2.636   0.261  17.247
 1974SOL     OW17800   3.519   1.413  16.098
 1974SOL    HW117801   3.470   1.445  16.022
 1974SOL    HW217802   3.498   1.476  16.168
 1975SOL     OW17803   1.471   2.983   5.377
 1975SOL    HW117804   1.514   2.903   5.407
 1975SOL    HW217805   1.432   3.020   5.456
 1976SOL     OW17806   0.193   2.089  18.875
 1976SOL    HW117807   0.111   2.055  18.840
 1976SOL    HW217808   0.258   2.068  18.808
 1977SOL     OW17809   4.102   0.810  17.260
 1977SOL    HW117810   4.071   0.837  17.174
 1977SOL    HW217811   4.033   0.838  17.320
 1978SOL     OW17812   2.791   1.999   4.847
 1978SOL    HW117813   2.775   1.904   4.843
 1978SOL    HW217814   2.886   2.007   4.850
 1979SOL     OW17815   3.235   1.053  19.440
 1979SOL    HW117816   3.147   1.072  19.473
 1979SOL    HW217817   3.290   1.051  19.518
 1980SOL     OW17818   4.266   0.043  17.498
 1980SOL    HW117819   4.265   0.002  17.412
 1980SOL    HW217820   4.174   0.054  17.522
 1981SOL     OW17821   4.160   4.422  20.092
 1981SOL    HW117822   4.178   4.484  20.163
 1981SOL    HW217823   4.152   4.476  20.014
 1982SOL     OW17824   2.021   3.100  20.938
 1982SOL    HW117825   1.934   3.075  20.907
 1982SOL    HW217826   2.025   3.065  21.027
 1983SOL     OW17827   3.822   2.693   1.716
 1983SOL    HW117828   3.797   2.785   1.706
 1983SOL    HW217829   3.781   2.667   1.799
 1984SOL     OW17830   0.325   2.869  18.352
 1984SOL    HW117831   0.308   2.962  18.368
 1984SOL    HW217832   0.247   2.825  18.386
 1985SOL     OW17833   0.035   4.005   1.040
 1985SOL    HW117834   0.070   3.967   0.959
 1985SOL    HW217835   0.068   3.948   1.109
 1986SOL     OW17836   0.976   3.235  17.059
 1986SOL    HW117837   1.029   3.303  17.100
 1986SOL    HW217838   0.986   3.251  16.965
 1987SOL     OW17839   3.733   2.688  13.343
 1987SOL    HW117840   3.648   2.727  13.325
 1987SOL    HW217841   3.796   2.748  13.303
 1988SOL     OW17842   3.203   2.796   6.691
 1988SOL    HW117843   3.118   2.768   6.724
 1988SOL    HW217844   3.244   2.842   6.765
 1989SOL     OW17845   2.817   1.079  14.906
 1989SOL    HW117846   2.859   1.055  14.824
 1989SOL    HW217847   2.873   1.147  14.943
 1990SOL     OW17848   2.951   0.455  20.401
 1990SOL    HW117849   3.036   0.472  20.360
 1990SOL    HW217850   2.887   0.474  20.333
 1991SOL     OW17851   4.465   0.240  16.831
 1991SOL    HW117852   4.524   0.174  16.869
 1991SOL    HW217853   4.460   0.308  16.897
 1992SOL     OW17854   1.917   4.060   5.539
 1992SOL    HW117855   2.004   4.026   5.518
 1992SOL    HW217856   1.920   4.152   5.512
 1993SOL     OW17857   1.176   4.754   5.056
 1993SOL    HW117858   1.125   4.784   4.980
 1993SOL    HW217859   1.118   4.765   5.130
 1994SOL     OW17860   2.691   3.706   5.804
 1994SOL    HW117861   2.651   3.710   5.891
 1994SOL    HW217862   2.624   3.739   5.745
 1995SOL     OW17863   2.161   1.706   2.502
 1995SOL    HW117864   2.121   1.625   2.469
 1995SOL    HW217865   2.129   1.714   2.592
 1996SOL     OW17866   4.785   0.134  12.519
 1996SOL    HW117867   4.717   0.068  12.515
 1996SOL    HW217868   0.066   0.090  12.561
 1997SOL     OW17869   0.981   2.743   0.314
 1997SOL    HW117870   0.893   2.723   0.283
 1997SOL    HW217871   0.971   2.759   0.408
 1998SOL     OW17872   1.875   4.753   1.517
 1998SOL    HW117873   1.881   0.003   1.602
 1998SOL    HW217874   1.954   4.782   1.470
 1999SOL     OW17875   3.505   0.634  16.214
 1999SOL    HW117876   3.431   0.585  16.179
 1999SOL    HW217877   3.469   0.721  16.233
 2000SOL     OW17878   4.613   1.188  18.153
 2000SOL    HW117879   4.613   1.101  18.113
 2000SOL    HW217880   4.549   1.238  18.103
 2001SOL     OW17881   2.437   3.145  20.699
 2001SOL    HW117882   2.437   3.126  20.793
 2001SOL    HW217883   2.451   3.059  20.658
 2002SOL     OW17884   2.975   1.124   6.515
 2002SOL    HW117885   2.980   1.195   6.451
 2002SOL    HW217886   2.904   1.069   6.485
 2003SOL     OW17887   3.329   4.300  16.729
 2003SOL    HW117888   3.374   4.223  16.694
 2003SOL    HW217889   3.236   4.276  16.729
 2004SOL     OW17890   0.321   2.831   2.754
 2004SOL    HW117891   0.239   2.790   2.727
 2004SOL    HW217892   0.369   2.846   2.672
 2005SOL     OW17893   2.538   2.942   4.681
 2005SOL    HW117894   2.482   2.948   4.604
 2005SOL    HW217895   2.507   2.864   4.727
 2006SOL     OW17896   4.325   2.313   3.360
 2006SOL    HW117897   4.365   2.364   3.290
 2006SOL    HW217898   4.276   2.244   3.314
 2007SOL     OW17899   4.431   3.417  18.557
 2007SOL    HW117900   4.508   3.361  18.543
 2007SOL    HW217901   4.357   3.361  18.534
 2008SOL     OW17902   3.563   1.713   4.874
 2008SOL    HW117903   3.620   1.639   4.852
 2008SOL    HW217904   3.499   1.675   4.935
 2009SOL     OW17905   0.707   4.024  13.845
 2009SOL    HW117906   0.644   3.961  13.882
 2009SOL    HW217907   0.683   4.107  13.886
 2010SOL     OW17908   4.221   0.340  20.866
 2010SOL    HW117909   4.152   0.349  20.932
 2010SOL    HW217910   4.176   0.309  20.788
 2011SOL     OW17911   0.178   4.380   1.785
 2011SOL    HW117912   0.177   4.473   1.761
 2011SOL    HW217913   0.101   4.343   1.742
 2012SOL     OW17914   0.544   4.625  20.393
 2012SOL    HW117915   0.462   4.575  20.390
 2012SOL    HW217916   0.612   4.558  20.387
 2013SOL     OW17917   4.301   4.198  16.330
 2013SOL    HW117918   4.243   4.239  16.394
 2013SOL    HW217919   4.246   4.134  16.285
 2014SOL     OW17920   0.293   4.567   0.496
 2014SOL    HW117921   0.301   4.478   0.531
 2014SOL    HW217922   0.342   4.622   0.557
 2015SOL     OW17923   3.116   4.299   3.249
 2015SOL    HW117924   3.037   4.251   3.276
 2015SOL    HW217925   3.152   4.247   3.178
 2016SOL     OW17926   0.132   2.856  16.564
 2016SOL    HW117927   0.219   2.835  16.530
 2016SOL    HW217928   0.118   2.793  16.634
 2017SOL     OW17929   1.467   1.076   1.547
 2017SOL    HW117930   1.444   1.071   1.455
 2017SOL    HW217931   1.416   1.005   1.588
 2018SOL     OW17932   3.625   3.521   4.781
 2018SOL    HW117933   3.533   3.513   4.807
 2018SOL    HW217934   3.626   3.501   4.688
 2019SOL     OW17935   4.659   2.426  13.209
 2019SOL    HW117936   4.741   2.398  13.250
 2019SOL    HW217937   4.607   2.460  13.282
 2020SOL     OW17938   4.624   2.798  12.517
 2020SOL    HW117939   4.629   2.894  12.510
 2020SOL    HW217940   4.532   2.781  12.539
 2021SOL     OW17941   2.063   3.210  19.259
 2021SOL    HW117942   2.110   3.135  19.222
 2021SOL    HW217943   2.098   3.220  19.347
 2022SOL     OW17944   4.091   2.356   4.863
 2022SOL    HW117945   4.080   2.436   4.810
 2022SOL    HW217946   4.116   2.289   4.800
 2023SOL     OW17947   2.133   0.895   2.948
 2023SOL    HW117948   2.041   0.900   2.922
 2023SOL    HW217949   2.177   0.961   2.895
 2024SOL     OW17950   1.384   4.068  18.340
 2024SOL    HW117951   1.396   3.973  18.334
 2024SOL    HW217952   1.321   4.080  18.410
 2025SOL     OW17953   0.380   1.860   4.733
 2025SOL    HW117954   0.377   1.767   4.711
 2025SOL    HW217955   0.394   1.904   4.649
 2026SOL     OW17956   2.788   3.487   3.631
 2026SOL    HW117957   2.773   3.557   3.567
 2026SOL    HW217958   2.881   3.466   3.623
 2027SOL     OW17959   1.017   2.346  20.800
 2027SOL    HW117960   1.056   2.377  20.718
 2027SOL    HW217961   1.029   2.251  20.799
 2028SOL     OW17962   2.308   2.830  21.193
 2028SOL    HW117963   2.311   2.852  21.099
 2028SOL    HW217964   2.298   2.915  21.237
 2029SOL     OW17965   1.280   2.053   3.558
 2029SOL    HW117966   1.212   2.120   3.556
 2029SOL    HW217967   1.236   1.973   3.528
 2030SOL     OW17968   1.756   0.599   5.515
 2030SOL    HW117969   1.829   0.661   5.517
 2030SOL    HW217970   1.746   0.576   5.423
 2031SOL     OW17971   0.658   2.478  18.562
 2031SOL    HW117972   0.593   2.541  18.531
 2031SOL    HW217973   0.620   2.392  18.543
 2032SOL     OW17974   4.067   1.176   8.485
 2032SOL    HW117975   4.152   1.210   8.457
 2032SOL    HW217976   4.084   1.085   8.508
 2033SOL     OW17977   2.016   4.136   2.575
 2033SOL    HW117978   2.009   4.225   2.610
 2033SOL    HW217979   2.002   4.145   2.481
 2034SOL     OW17980   4.211   2.603  19.386
 2034SOL    HW117981   4.120   2.575  19.386
 2034SOL    HW217982   4.257   2.534  19.433
 2035SOL     OW17983   4.089   3.688   1.254
 2035SOL    HW117984   4.123   3.645   1.175
 2035SOL    HW217985   4.144   3.766   1.263
 2036SOL     OW17986   1.762   0.372  18.332
 2036SOL    HW117987   1.757   0.462  18.363
 2036SOL    HW217988   1.758   0.319  18.412
 2037SOL     OW17989   0.326   1.321   0.604
 2037SOL    HW117990   0.347   1.410   0.576
 2037SOL    HW217991   0.411   1.279   0.617
 2038SOL     OW17992   0.096   3.617   7.041
 2038SOL    HW117993   0.181   3.574   7.032
 2038SOL    HW217994   0.118   3.709   7.055
 2039SOL     OW17995   4.514   2.882  14.965
 2039SOL    HW117996   4.579   2.943  14.999
 2039SOL    HW217997   4.433   2.933  14.962
 2040SOL     OW17998   0.736   2.721  21.211
 2040SOL    HW117999   0.648   2.749  21.236
 2040SOL    HW218000   0.724   2.673  21.129
 2041SOL     OW18001   2.583   2.327  20.891
 2041SOL    HW118002   2.655   2.385  20.914
 2041SOL    HW218003   2.546   2.363  20.811
 2042SOL     OW18004   4.646   3.198  18.509
 2042SOL    HW118005   4.727   3.238  18.540
 2042SOL    HW218006   4.625   3.244  18.428
 2043SOL     OW18007   3.066   2.040   4.861
 2043SOL    HW118008   3.128   2.019   4.931
 2043SOL    HW218009   3.097   2.123   4.825
 2044SOL     OW18010   4.309   1.176  20.457
 2044SOL    HW118011   4.339   1.089  20.481
 2044SOL    HW218012   4.256   1.163  20.379
 2045SOL     OW18013   2.703   2.155  15.736
 2045SOL    HW118014   2.789   2.187  15.764
 2045SOL    HW218015   2.665   2.115  15.814
 2046SOL     OW18016   2.142   3.893   5.497
 2046SOL    HW118017   2.165   3.803   5.475
 2046SOL    HW218018   2.208   3.946   5.452
 2047SOL     OW18019   0.963   4.266  16.591
 2047SOL    HW118020   1.051   4.280  16.627
 2047SOL    HW218021   0.938   4.179  16.621
 2048SOL     OW18022   3.518   0.641  17.884
 2048SOL    HW118023   3.562   0.718  17.847
 2048SOL    HW218024   3.578   0.609  17.951
 2049SOL     OW18025   0.509   3.624   1.308
 2049SOL    HW118026   0.450   3.566   1.357
 2049SOL    HW218027   0.552   3.567   1.245
 2050SOL     OW18028   1.177   3.863  19.469
 2050SOL    HW118029   1.144   3.861  19.379
 2050SOL    HW218030   1.106   3.901  19.520
 2051SOL     OW18031   4.640   3.222   3.911
 2051SOL    HW118032   4.658   3.229   3.817
 2051SOL    HW218033   4.727   3.212   3.951
 2052SOL     OW18034   0.748   0.980   3.689
 2052SOL    HW118035   0.810   0.981   3.615
 2052SOL    HW218036   0.746   1.070   3.720
 2053SOL     OW18037   2.118   0.575   6.081
 2053SOL    HW118038   2.144   0.658   6.042
 2053SOL    HW218039   2.195   0.519   6.074
 2054SOL     OW18040   0.027   3.786  21.076
 2054SOL    HW118041   0.020   3.866  21.024
 2054SOL    HW218042   0.033   3.816  21.166
 2055SOL     OW18043   4.278   1.025  15.256
 2055SOL    HW118044   4.292   1.063  15.343
 2055SOL    HW218045   4.317   0.937  15.263
 2056SOL     OW18046   3.971   0.602  13.938
 2056SOL    HW118047   3.982   0.539  14.009
 2056SOL    HW218048   3.933   0.551  13.867
 2057SOL     OW18049   1.372   2.366   5.638
 2057SOL    HW118050   1.332   2.337   5.719
 2057SOL    HW218051   1.407   2.285   5.598
 2058SOL     OW18052   0.025   1.506  17.773
 2058SOL    HW118053   4.728   1.487  17.746
 2058SOL    HW218054   0.064   1.420  17.788
 2059SOL     OW18055   4.306   0.649   6.848
 2059SOL    HW118056   4.340   0.576   6.900
 2059SOL    HW218057   4.373   0.664   6.781
 2060SOL     OW18058   0.554   4.742   5.958
 2060SOL    HW118059   0.576   4.691   6.036
 2060SOL    HW218060   0.638   4.762   5.917
 2061SOL     OW18061   2.080   4.441  14.442
 2061SOL    HW118062   1.988   4.422  14.423
 2061SOL    HW218063   2.089   4.534  14.426
 2062SOL     OW18064   3.704   1.963  20.600
 2062SOL    HW118065   3.780   1.906  20.588
 2062SOL    HW218066   3.672   1.942  20.688
 2063SOL     OW18067   0.152   1.370  16.811
 2063SOL    HW118068   0.144   1.332  16.899
 2063SOL    HW218069   0.246   1.378  16.797
 2064SOL     OW18070   4.591   3.465   4.065
 2064SOL    HW118071   4.599   3.386   4.012
 2064SOL    HW218072   4.677   3.506   4.060
 2065SOL     OW18073   0.663   1.709  16.142
 2065SOL    HW118074   0.704   1.624  16.156
 2065SOL    HW218075   0.736   1.771  16.140
 2066SOL     OW18076   1.527   2.128  20.714
 2066SOL    HW118077   1.618   2.108  20.693
 2066SOL    HW218078   1.531   2.184  20.791
 2067SOL     OW18079   1.606   0.702   7.498
 2067SOL    HW118080   1.536   0.647   7.533
 2067SOL    HW218081   1.606   0.685   7.403
 2068SOL     OW18082   4.343   2.052  18.871
 2068SOL    HW118083   4.409   2.088  18.930
 2068SOL    HW218084   4.367   2.086  18.785
 2069SOL     OW18085   1.903   3.680  18.356
 2069SOL    HW118086   1.812   3.708  18.350
 2069SOL    HW218087   1.905   3.594  18.315
 2070SOL     OW18088   2.126   1.944   5.145
 2070SOL    HW118089   2.136   2.033   5.111
 2070SOL    HW218090   2.126   1.889   5.067
 2071SOL     OW18091   0.009   2.121  20.849
 2071SOL    HW118092   4.759   2.205  20.836
 2071SOL    HW218093   4.732   2.056  20.839
 2072SOL     OW18094   0.435   3.400  17.594
 2072SOL    HW118095   0.398   3.430  17.678
 2072SOL    HW218096   0.527   3.383  17.614
 2073SOL     OW18097   1.003   0.371   3.008
 2073SOL    HW118098   1.086   0.329   2.984
 2073SOL    HW218099   0.941   0.299   3.016
 2074SOL     OW18100   2.492   2.995  17.847
 2074SOL    HW118101   2.461   2.910  17.880
 2074SOL    HW218102   2.518   3.043  17.925
 2075SOL     OW18103   2.392   2.644  20.498
 2075SOL    HW118104   2.298   2.627  20.492
 2075SOL    HW218105   2.424   2.639  20.408
 2076SOL     OW18106   0.074   1.907   3.929
 2076SOL    HW118107   0.018   1.985   3.926
 2076SOL    HW218108   0.077   1.883   4.021
 2077SOL     OW18109   0.723   0.241  12.417
 2077SOL    HW118110   0.684   0.316  12.463
 2077SOL    HW218111   0.780   0.281  12.352
 2078SOL     OW18112   3.368   2.268   3.249
 2078SOL    HW118113   3.397   2.246   3.337
 2078SOL    HW218114   3.332   2.186   3.214
 2079SOL     OW18115   1.298   1.074  17.653
 2079SOL    HW118116   1.365   1.070  17.722
 2079SOL    HW218117   1.242   0.998  17.670
 2080SOL     OW18118   3.442   3.172   5.270
 2080SOL    HW118119   3.426   3.218   5.188
 2080SOL    HW218120   3.413   3.232   5.338
 2081SOL     OW18121   1.424   1.292   8.286
 2081SOL    HW118122   1.415   1.293   8.381
 2081SOL    HW218123   1.334   1.280   8.254
 2082SOL     OW18124   2.243   1.231  17.623
 2082SOL    HW118125   2.231   1.310  17.570
 2082SOL    HW218126   2.310   1.182  17.577
 2083SOL     OW18127   0.284   0.865  17.532
 2083SOL    HW118128   0.266   0.874  17.438
 2083SOL    HW218129   0.200   0.883  17.574
 2084SOL     OW18130   0.635   0.816  18.403
 2084SOL    HW118131   0.690   0.758  18.350
 2084SOL    HW218132   0.558   0.832  18.349
 2085SOL     OW18133   4.289   1.230  18.204
 2085SOL    HW118134   4.329   1.156  18.160
 2085SOL    HW218135   4.331   1.307  18.167
 2086SOL     OW18136   3.688   1.377   1.337
 2086SOL    HW118137   3.649   1.463   1.323
 2086SOL    HW218138   3.771   1.395   1.380
 2087SOL     OW18139   0.310   0.011   2.226
 2087SOL    HW118140   0.233   0.052   2.264
 2087SOL    HW218141   0.372   0.082   2.213
 2088SOL     OW18142   1.936   0.818   5.715
 2088SOL    HW118143   2.001   0.750   5.696
 2088SOL    HW218144   1.987   0.895   5.740
 2089SOL     OW18145   4.640   0.450  15.496
 2089SOL    HW118146   4.617   0.442  15.404
 2089SOL    HW218147   4.719   0.505  15.497
 2090SOL     OW18148   0.755   4.192   0.230
 2090SOL    HW118149   0.718   4.244   0.158
 2090SOL    HW218150   0.683   4.182   0.292
 2091SOL     OW18151   3.314   3.721  12.924
 2091SOL    HW118152   3.315   3.762  12.838
 2091SOL    HW218153   3.354   3.635  12.910
 2092SOL     OW18154   0.518   3.090   0.972
 2092SOL    HW118155   0.605   3.112   1.006
 2092SOL    HW218156   0.518   3.125   0.883
 2093SOL     OW18157   2.044   2.616  20.125
 2093SOL    HW118158   2.036   2.711  20.115
 2093SOL    HW218159   2.134   2.597  20.102
 2094SOL     OW18160   4.285   1.853   6.686
 2094SOL    HW118161   4.275   1.939   6.728
 2094SOL    HW218162   4.351   1.808   6.739
 2095SOL     OW18163   1.238   4.192   6.242
 2095SOL    HW118164   1.268   4.212   6.330
 2095SOL    HW218165   1.144   4.177   6.251
 2096SOL     OW18166   4.168   1.252  16.172
 2096SOL    HW118167   4.109   1.324  16.196
 2096SOL    HW218168   4.153   1.186  16.238
 2097SOL     OW18169   3.098   0.156  19.516
 2097SOL    HW118170   3.005   0.135  19.529
 2097SOL    HW218171   3.143   0.073  19.531
 2098SOL     OW18172   4.053   3.065   3.294
 2098SOL    HW118173   4.140   3.027   3.306
 2098SOL    HW218174   4.064   3.158   3.309
 2099SOL     OW18175   2.487   2.360  21.154
 2099SOL    HW118176   2.477   2.455  21.152
 2099SOL    HW218177   2.528   2.338  21.070
 2100SOL     OW18178   0.397   4.370  20.224
 2100SOL    HW118179   0.487   4.385  20.195
 2100SOL    HW218180   0.392   4.276  20.236
 2101SOL     OW18181   4.691   4.562  17.777
 2101SOL    HW118182   4.746   4.487  17.754
 2101SOL    HW218183   4.753   4.632  17.797
 2102SOL     OW18184   2.932   4.668  17.176
 2102SOL    HW118185   2.884   4.748  17.157
 2102SOL    HW218186   2.996   4.694  17.243
 2103SOL     OW18187   2.106   1.977  18.394
 2103SOL    HW118188   2.102   2.045  18.461
 2103SOL    HW218189   2.067   2.017  18.317
 2104SOL     OW18190   4.685   0.517  20.621
 2104SOL    HW118191   4.593   0.515  20.646
 2104SOL    HW218192   4.685   0.545  20.530
 2105SOL     OW18193   4.290   3.364  21.247
 2105SOL    HW118194   4.284   3.407   0.059
 2105SOL    HW218195   4.370   3.398  21.208
 2106SOL     OW18196   4.635   1.949  15.349
 2106SOL    HW118197   4.631   1.861  15.387
 2106SOL    HW218198   4.671   2.004  15.419
 2107SOL     OW18199   2.193   4.185   0.185
 2107SOL    HW118200   2.232   4.119   0.242
 2107SOL    HW218201   2.167   4.136   0.106
 2108SOL     OW18202   4.209   4.545  20.415
 2108SOL    HW118203   4.159   4.564  20.494
 2108SOL    HW218204   4.249   4.629  20.392
 2109SOL     OW18205   1.786   2.055   1.472
 2109SOL    HW118206   1.700   2.094   1.458
 2109SOL    HW218207   1.812   2.083   1.560
 2110SOL     OW18208   0.424   4.156  14.796
 2110SOL    HW118209   0.389   4.182  14.710
 2110SOL    HW218210   0.415   4.234  14.850
 2111SOL     OW18211   3.385   0.326  18.527
 2111SOL    HW118212   3.368   0.255  18.465
 2111SOL    HW218213   3.439   0.287  18.594
 2112SOL     OW18214   4.263   4.338  18.049
 2112SOL    HW118215   4.250   4.248  18.019
 2112SOL    HW218216   4.338   4.369  17.999
 2113SOL     OW18217   0.164   0.582  19.166
 2113SOL    HW118218   0.152   0.492  19.196
 2113SOL    HW218219   0.226   0.620  19.228
 2114SOL     OW18220   2.181   0.044   3.763
 2114SOL    HW118221   2.178   4.765   3.826
 2114SOL    HW218222   2.248   0.103   3.798
 2115SOL     OW18223   1.983   2.857  16.089
 2115SOL    HW118224   1.891   2.864  16.062
 2115SOL    HW218225   2.033   2.886  16.012
 2116SOL     OW18226   1.162   0.698   1.120
 2116SOL    HW118227   1.140   0.614   1.158
 2116SOL    HW218228   1.135   0.691   1.028
 2117SOL     OW18229   1.289   1.611  18.958
 2117SOL    HW118230   1.253   1.698  18.973
 2117SOL    HW218231   1.238   1.553  19.014
 2118SOL     OW18232   3.545   2.142  16.397
 2118SOL    HW118233   3.559   2.237  16.394
 2118SOL    HW218234   3.527   2.117  16.306
 2119SOL     OW18235   3.988   0.700  12.168
 2119SOL    HW118236   4.035   0.682  12.086
 2119SOL    HW218237   3.954   0.789  12.156
 2120SOL     OW18238   4.216   1.069   0.191
 2120SOL    HW118239   4.145   1.019   0.231
 2120SOL    HW218240   4.211   1.155   0.232
 2121SOL     OW18241   3.934   0.671  16.638
 2121SOL    HW118242   3.898   0.685  16.550
 2121SOL    HW218243   3.993   0.597  16.628
 2122SOL     OW18244   2.179   1.636  12.036
 2122SOL    HW118245   2.168   1.580  11.959
 2122SOL    HW218246   2.250   1.695  12.013
 2123SOL     OW18247   0.016   3.394   1.638
 2123SOL    HW118248   4.783   3.466   1.695
 2123SOL    HW218249   0.101   3.421   1.603
 2124SOL     OW18250   3.665   3.782  19.433
 2124SOL    HW118251   3.681   3.746  19.520
 2124SOL    HW218252   3.753   3.793  19.396
 2125SOL     OW18253   2.656   1.165   0.275
 2125SOL    HW118254   2.626   1.234   0.215
 2125SOL    HW218255   2.590   1.164   0.344
 2126SOL     OW18256   0.474   1.803  19.924
 2126SOL    HW118257   0.480   1.802  19.828
 2126SOL    HW218258   0.382   1.785  19.942
 2127SOL     OW18259   0.640   2.075   1.485
 2127SOL    HW118260   0.692   2.005   1.445
 2127SOL    HW218261   0.685   2.156   1.459
 2128SOL     OW18262   1.659   3.143  17.922
 2128SOL    HW118263   1.572   3.140  17.883
 2128SOL    HW218264   1.697   3.058  17.901
 2129SOL     OW18265   2.126   3.884  15.226
 2129SOL    HW118266   2.068   3.913  15.297
 2129SOL    HW218267   2.214   3.891  15.263
 2130SOL     OW18268   3.490   1.900  20.350
 2130SOL    HW118269   3.467   1.937  20.436
 2130SOL    HW218270   3.462   1.809  20.354
 2131SOL     OW18271   0.837   1.405  11.997
 2131SOL    HW118272   0.868   1.320  12.031
 2131SOL    HW218273   0.862   1.404  11.904
 2132SOL     OW18274   3.171   4.253  17.932
 2132SOL    HW118275   3.236   4.297  17.878
 2132SOL    HW218276   3.094   4.310  17.929
 2133SOL     OW18277   2.921   4.614   2.309
 2133SOL    HW118278   2.956   4.668   2.239
 2133SOL    HW218279   2.854   4.668   2.350
 2134SOL     OW18280   0.645   4.354  16.850
 2134SOL    HW118281   0.632   4.441  16.889
 2134SOL    HW218282   0.723   4.364  16.795
 2135SOL     OW18283   2.565   4.771   3.429
 2135SOL    HW118284   2.617   0.044   3.472
 2135SOL    HW218285   2.629   4.711   3.390
 2136SOL     OW18286   4.238   3.569  14.283
 2136SOL    HW118287   4.237   3.665  14.282
 2136SOL    HW218288   4.147   3.544  14.298
 2137SOL     OW18289   3.619   4.566  17.400
 2137SOL    HW118290   3.540   4.611  17.369
 2137SOL    HW218291   3.683   4.636  17.413
 2138SOL     OW18292   1.166   0.161   4.607
 2138SOL    HW118293   1.243   0.219   4.607
 2138SOL    HW218294   1.119   0.184   4.527
 2139SOL     OW18295   4.262   2.071   2.301
 2139SOL    HW118296   4.287   2.134   2.234
 2139SOL    HW218297   4.167   2.078   2.308
 2140SOL     OW18298   0.186   1.167  20.584
 2140SOL    HW118299   0.140   1.193  20.505
 2140SOL    HW218300   0.123   1.180  20.654
 2141SOL     OW18301   4.768   0.041   5.552
 2141SOL    HW118302   0.006   4.749   5.520
 2141SOL    HW218303   4.719   0.078   5.478
 2142SOL     OW18304   1.310   3.087   5.937
 2142SOL    HW118305   1.376   3.141   5.980
 2142SOL    HW218306   1.314   3.002   5.982
 2143SOL     OW18307   1.399   0.477   2.590
 2143SOL    HW118308   1.312   0.516   2.586
 2143SOL    HW218309   1.458   0.547   2.563
 2144SOL     OW18310   1.539   3.506  16.380
 2144SOL    HW118311   1.467   3.568  16.372
 2144SOL    HW218312   1.562   3.507  16.473
 2145SOL     OW18313   4.023   0.351   0.632
 2145SOL    HW118314   3.992   0.420   0.691
 2145SOL    HW218315   4.023   0.272   0.686
 2146SOL     OW18316   0.902   2.578   5.062
 2146SOL    HW118317   0.929   2.512   5.126
 2146SOL    HW218318   0.808   2.587   5.075
 2147SOL     OW18319   3.393   2.442   7.256
 2147SOL    HW118320   3.401   2.453   7.351
 2147SOL    HW218321   3.305   2.405   7.244
 2148SOL     OW18322   1.228   2.432   2.263
 2148SOL    HW118323   1.133   2.429   2.249
 2148SOL    HW218324   1.266   2.420   2.176
 2149SOL     OW18325   1.266   2.921  14.029
 2149SOL    HW118326   1.362   2.919  14.026
 2149SOL    HW218327   1.243   2.884  14.114
 2150SOL     OW18328   2.314   1.422   1.886
 2150SOL    HW118329   2.381   1.417   1.818
 2150SOL    HW218330   2.237   1.382   1.847
 2151SOL     OW18331   2.300   4.707  14.374
 2151SOL    HW118332   2.374   4.757  14.409
 2151SOL    HW218333   2.250   4.682  14.451
 2152SOL     OW18334   2.097   3.925   1.020
 2152SOL    HW118335   2.186   3.936   0.986
 2152SOL    HW218336   2.041   3.959   0.950
 2153SOL     OW18337   1.864   0.675  18.918
 2153SOL    HW118338   1.870   0.595  18.970
 2153SOL    HW218339   1.955   0.697  18.899
 2154SOL     OW18340   1.850   2.248   4.725
 2154SOL    HW118341   1.765   2.241   4.769
 2154SOL    HW218342   1.908   2.287   4.791
 2155SOL     OW18343   4.742   0.827   6.316
 2155SOL    HW118344   0.019   0.763   6.328
 2155SOL    HW218345   4.716   0.818   6.224
 2156SOL     OW18346   2.029   1.586  17.591
 2156SOL    HW118347   2.024   1.522  17.662
 2156SOL    HW218348   1.942   1.586  17.552
 2157SOL     OW18349   3.728   1.075   1.662
 2157SOL    HW118350   3.730   1.072   1.758
 2157SOL    HW218351   3.698   1.163   1.642
 2158SOL     OW18352   3.426   1.646  20.386
 2158SOL    HW118353   3.484   1.582  20.428
 2158SOL    HW218354   3.340   1.604  20.386
 2159SOL     OW18355   3.877   3.301   1.322
 2159SOL    HW118356   3.782   3.287   1.318
 2159SOL    HW218357   3.906   3.251   1.399
 2160SOL     OW18358   3.814   4.152  18.774
 2160SOL    HW118359   3.849   4.213  18.709
 2160SOL    HW218360   3.764   4.207  18.834
 2161SOL     OW18361   2.535   1.565   5.523
 2161SOL    HW118362   2.483   1.604   5.593
 2161SOL    HW218363   2.615   1.617   5.522
 2162SOL     OW18364   1.161   3.469  12.806
 2162SOL    HW118365   1.094   3.404  12.788
 2162SOL    HW218366   1.239   3.438  12.760
 2163SOL     OW18367   2.165   3.925  13.428
 2163SOL    HW118368   2.081   3.940  13.472
 2163SOL    HW218369   2.231   3.939  13.495
 2164SOL     OW18370   1.100   3.905  15.572
 2164SOL    HW118371   1.063   3.942  15.652
 2164SOL    HW218372   1.108   3.979  15.513
 2165SOL     OW18373   0.744   3.178   2.609
 2165SOL    HW118374   0.736   3.251   2.548
 2165SOL    HW218375   0.781   3.217   2.688
 2166SOL     OW18376   3.280   4.331   4.060
 2166SOL    HW118377   3.277   4.360   4.151
 2166SOL    HW218378   3.193   4.295   4.044
 2167SOL     OW18379   4.628   3.103  16.164
 2167SOL    HW118380   4.597   3.179  16.115
 2167SOL    HW218381   4.720   3.122  16.184
 2168SOL     OW18382   3.563   1.715  20.978
 2168SOL    HW118383   3.518   1.660  21.042
 2168SOL    HW218384   3.626   1.656  20.936
 2169SOL     OW18385   1.614   1.741   2.309
 2169SOL    HW118386   1.700   1.733   2.269
 2169SOL    HW218387   1.553   1.720   2.239
 2170SOL     OW18388   2.648   0.442   3.423
 2170SOL    HW118389   2.689   0.448   3.509
 2170SOL    HW218390   2.648   0.533   3.391
 2171SOL     OW18391   1.468   0.821  16.249
 2171SOL    HW118392   1.553   0.810  16.206
 2171SOL    HW218393   1.412   0.859  16.181
 2172SOL     OW18394   0.934   3.032  18.785
 2172SOL    HW118395   0.976   3.110  18.821
 2172SOL    HW218396   0.939   3.044  18.690
 2173SOL     OW18397   4.206   1.256   1.572
 2173SOL    HW118398   4.171   1.174   1.607
 2173SOL    HW218399   4.293   1.233   1.538
 2174SOL     OW18400   2.429   4.356   3.494
 2174SOL    HW118401   2.381   4.408   3.429
 2174SOL    HW218402   2.380   4.275   3.501
 2175SOL     OW18403   3.862   2.369   2.520
 2175SOL    HW118404   3.919   2.441   2.548
 2175SOL    HW218405   3.773   2.400   2.537
 2176SOL     OW18406   3.253   3.195  19.478
 2176SOL    HW118407   3.326   3.139  19.503
 2176SOL    HW218408   3.176   3.140  19.489
 2177SOL     OW18409   2.564   4.318   1.332
 2177SOL    HW118410   2.529   4.338   1.419
 2177SOL    HW218411   2.528   4.386   1.275
 2178SOL     OW18412   4.274   0.101   7.776
 2178SOL    HW118413   4.323   0.036   7.725
 2178SOL    HW218414   4.185   0.065   7.781
 2179SOL     OW18415   4.461   2.324   4.129
 2179SOL    HW118416   4.409   2.250   4.159
 2179SOL    HW218417   4.414   2.357   4.053
 2180SOL     OW18418   2.753   3.092   2.862
 2180SOL    HW118419   2.822   3.063   2.922
 2180SOL    HW218420   2.679   3.111   2.919
 2181SOL     OW18421   0.869   4.537  13.604
 2181SOL    HW118422   0.941   4.538  13.541
 2181SOL    HW218423   0.842   4.629  13.611
 2182SOL     OW18424   3.634   1.948  19.217
 2182SOL    HW118425   3.707   1.980  19.165
 2182SOL    HW218426   3.646   1.988  19.303
 2183SOL     OW18427   2.916   0.219   6.360
 2183SOL    HW118428   2.955   0.156   6.300
 2183SOL    HW218429   2.987   0.244   6.418
 2184SOL     OW18430   4.504   2.328   6.086
 2184SOL    HW118431   4.589   2.343   6.043
 2184SOL    HW218432   4.522   2.262   6.152
 2185SOL     OW18433   1.145   3.718  17.083
 2185SOL    HW118434   1.117   3.747  16.996
 2185SOL    HW218435   1.237   3.697  17.072
 2186SOL     OW18436   2.208   3.831   9.219
 2186SOL    HW118437   2.148   3.882   9.274
 2186SOL    HW218438   2.257   3.896   9.169
 2187SOL     OW18439   0.419   1.250  20.620
 2187SOL    HW118440   0.442   1.292  20.537
 2187SOL    HW218441   0.334   1.208  20.602
 2188SOL     OW18442   0.993   3.803   5.025
 2188SOL    HW118443   0.913   3.814   5.077
 2188SOL    HW218444   1.062   3.792   5.091
 2189SOL     OW18445   4.601   0.288   1.776
 2189SOL    HW118446   4.536   0.240   1.828
 2189SOL    HW218447   4.586   0.380   1.797
 2190SOL     OW18448   3.390   3.238  17.579
 2190SOL    HW118449   3.371   3.181  17.653
 2190SOL    HW218450   3.461   3.195  17.532
 2191SOL     OW18451   0.129   0.341   2.016
 2191SOL    HW118452   0.112   0.265   1.962
 2191SOL    HW218453   0.224   0.348   2.020
 2192SOL     OW18454   1.752   1.880  18.535
 2192SOL    HW118455   1.709   1.879  18.620
 2192SOL    HW218456   1.771   1.973  18.518
 2193SOL     OW18457   3.362   4.223  19.692
 2193SOL    HW118458   3.279   4.215  19.739
 2193SOL    HW218459   3.400   4.135  19.694
 2194SOL     OW18460   3.324   4.611   5.234
 2194SOL    HW118461   3.251   4.593   5.175
 2194SOL    HW218462   3.288   4.598   5.322
 2195SOL     OW18463   3.681   0.547  18.072
 2195SOL    HW118464   3.744   0.507  18.013
 2195SOL    HW218465   3.607   0.487  18.074
 2196SOL     OW18466   0.016   3.668   2.201
 2196SOL    HW118467   0.061   3.747   2.234
 2196SOL    HW218468   4.748   3.645   2.271
 2197SOL     OW18469   1.573   4.337   1.165
 2197SOL    HW118470   1.521   4.376   1.095
 2197SOL    HW218471   1.542   4.380   1.245
 2198SOL     OW18472   1.300   2.434   1.575
 2198SOL    HW118473   1.393   2.429   1.597
 2198SOL    HW218474   1.287   2.525   1.548
 2199SOL     OW18475   1.406   2.482   2.748
 2199SOL    HW118476   1.462   2.493   2.825
 2199SOL    HW218477   1.425   2.559   2.694
 2200SOL     OW18478   1.496   4.656  20.616
 2200SOL    HW118479   1.420   4.630  20.565
 2200SOL    HW218480   1.483   4.615  20.702
 2201SOL     OW18481   3.956   1.239  15.476
 2201SOL    HW118482   4.015   1.196  15.538
 2201SOL    HW218483   3.933   1.322  15.518
 2202SOL     OW18484   2.901   1.513   5.432
 2202SOL    HW118485   2.978   1.525   5.377
 2202SOL    HW218486   2.919   1.434   5.483
 2203SOL     OW18487   4.348   0.739  18.893
 2203SOL    HW118488   4.347   0.675  18.964
 2203SOL    HW218489   4.419   0.709  18.835
 2204SOL     OW18490   4.438   2.720   1.148
 2204SOL    HW118491   4.369   2.685   1.205
 2204SOL    HW218492   4.393   2.739   1.065
 2205SOL     OW18493   4.692   2.776   6.099
 2205SOL    HW118494   4.689   2.857   6.048
 2205SOL    HW218495   4.636   2.715   6.051
 2206SOL     OW18496   1.752   0.460  19.049
 2206SOL    HW118497   1.719   0.406  18.977
 2206SOL    HW218498   1.824   0.409  19.086
 2207SOL     OW18499   0.526   0.392   5.978
 2207SOL    HW118500   0.476   0.471   5.957
 2207SOL    HW218501   0.469   0.320   5.948
 2208SOL     OW18502   4.332   2.493   9.532
 2208SOL    HW118503   4.416   2.535   9.552
 2208SOL    HW218504   4.355   2.405   9.502
 2209SOL     OW18505   0.264   2.865  19.014
 2209SOL    HW118506   0.357   2.877  19.030
 2209SOL    HW218507   0.253   2.770  19.005
 2210SOL     OW18508   3.966   2.653  15.024
 2210SOL    HW118509   4.041   2.682  14.971
 2210SOL    HW218510   3.944   2.730  15.077
 2211SOL     OW18511   4.233   0.100   4.985
 2211SOL    HW118512   4.172   0.029   5.002
 2211SOL    HW218513   4.264   0.084   4.896
 2212SOL     OW18514   1.924   3.068   0.326
 2212SOL    HW118515   1.852   3.132   0.328
 2212SOL    HW218516   1.882   2.985   0.350
 2213SOL     OW18517   3.163   0.527  18.150
 2213SOL    HW118518   3.100   0.558  18.084
 2213SOL    HW218519   3.212   0.606  18.174
 2214SOL     OW18520   0.514   0.402  11.959
 2214SOL    HW118521   0.430   0.446  11.969
 2214SOL    HW218522   0.512   0.332  12.024
 2215SOL     OW18523   2.154   0.829   5.985
 2215SOL    HW118524   2.111   0.907   5.950
 2215SOL    HW218525   2.245   0.839   5.958
 2216SOL     OW18526   2.121   2.083  20.884
 2216SOL    HW118527   2.187   2.016  20.868
 2216SOL    HW218528   2.156   2.136  20.955
 2217SOL     OW18529   0.407   4.485   0.836
 2217SOL    HW118530   0.420   4.565   0.783
 2217SOL    HW218531   0.428   4.414   0.776
 2218SOL     OW18532   2.844   1.244   9.131
 2218SOL    HW118533   2.873   1.244   9.222
 2218SOL    HW218534   2.918   1.281   9.082
 2219SOL     OW18535   1.108   1.274   3.455
 2219SOL    HW118536   1.055   1.196   3.438
 2219SOL    HW218537   1.190   1.240   3.492
 2220SOL     OW18538   1.665   3.615  17.244
 2220SOL    HW118539   1.593   3.556  17.267
 2220SOL    HW218540   1.737   3.557  17.221
 2221SOL     OW18541   2.951   3.096  16.268
 2221SOL    HW118542   2.861   3.068  16.280
 2221SOL    HW218543   2.989   3.094  16.356
 2222SOL     OW18544   3.352   3.377   0.884
 2222SOL    HW118545   3.299   3.340   0.813
 2222SOL    HW218546   3.426   3.317   0.892
 2223SOL     OW18547   3.836   4.124  20.303
 2223SOL    HW118548   3.833   4.162  20.215
 2223SOL    HW218549   3.917   4.159  20.341
 2224SOL     OW18550   2.809   3.771   4.960
 2224SOL    HW118551   2.831   3.751   5.051
 2224SOL    HW218552   2.843   3.860   4.946
 2225SOL     OW18553   0.169   0.563   2.227
 2225SOL    HW118554   0.168   0.657   2.210
 2225SOL    HW218555   0.199   0.524   2.145
 2226SOL     OW18556   1.982   1.863   6.220
 2226SOL    HW118557   1.942   1.912   6.291
 2226SOL    HW218558   2.051   1.921   6.187
 2227SOL     OW18559   3.122   1.975  16.586
 2227SOL    HW118560   3.143   2.066  16.604
 2227SOL    HW218561   3.206   1.930  16.582
 2228SOL     OW18562   1.351   0.808  13.957
 2228SOL    HW118563   1.297   0.884  13.935
 2228SOL    HW218564   1.305   0.766  14.030
 2229SOL     OW18565   2.107   3.629   3.772
 2229SOL    HW118566   2.184   3.663   3.817
 2229SOL    HW218567   2.037   3.634   3.837
 2230SOL     OW18568   3.906   2.394  17.533
 2230SOL    HW118569   3.956   2.458  17.482
 2230SOL    HW218570   3.830   2.375  17.478
 2231SOL     OW18571   1.409   4.722   1.886
 2231SOL    HW118572   1.407   4.792   1.951
 2231SOL    HW218573   1.503   4.708   1.868
 2232SOL     OW18574   2.008   0.866   5.020
 2232SOL    HW118575   1.915   0.865   5.042
 2232SOL    HW218576   2.017   0.800   4.951
 2233SOL     OW18577   1.209   0.846   4.566
 2233SOL    HW118578   1.274   0.850   4.496
 2233SOL    HW218579   1.257   0.875   4.644
 2234SOL     OW18580   3.731   0.016  15.933
 2234SOL    HW118581   3.711   4.729  15.883
 2234SOL    HW218582   3.662   0.022  15.998
 2235SOL     OW18583   2.720   1.905  18.592
 2235SOL    HW118584   2.729   1.814  18.565
 2235SOL    HW218585   2.728   1.955  18.511
 2236SOL     OW18586   4.285   4.542  14.710
 2236SOL    HW118587   4.216   4.486  14.746
 2236SOL    HW218588   4.239   4.616  14.671
 2237SOL     OW18589   0.039   1.154   3.804
 2237SOL    HW118590   0.061   1.247   3.809
 2237SOL    HW218591   0.116   1.114   3.763
 2238SOL     OW18592   1.529   3.295   2.574
 2238SOL    HW118593   1.504   3.208   2.607
 2238SOL    HW218594   1.469   3.355   2.618
 2239SOL     OW18595   2.094   0.731  13.144
 2239SOL    HW118596   2.045   0.688  13.213
 2239SOL    HW218597   2.060   0.821  13.142
 2240SOL     OW18598   3.885   0.615   2.245
 2240SOL    HW118599   3.955   0.558   2.215
 2240SOL    HW218600   3.901   0.628   2.338
 2241SOL     OW18601   3.229   0.716  18.697
 2241SOL    HW118602   3.230   0.621  18.686
 2241SOL    HW218603   3.232   0.751  18.608
 2242SOL     OW18604   1.079   4.389   2.138
 2242SOL    HW118605   1.076   4.484   2.133
 2242SOL    HW218606   1.035   4.368   2.220
 2243SOL     OW18607   3.784   1.727   1.848
 2243SOL    HW118608   3.753   1.653   1.796
 2243SOL    HW218609   3.727   1.800   1.822
 2244SOL     OW18610   3.327   3.839  16.162
 2244SOL    HW118611   3.306   3.932  16.173
 2244SOL    HW218612   3.368   3.814  16.244
 2245SOL     OW18613   0.336   1.994  18.673
 2245SOL    HW118614   0.316   1.942  18.596
 2245SOL    HW218615   0.421   1.960  18.703
 2246SOL     OW18616   0.479   3.413   6.100
 2246SOL    HW118617   0.492   3.385   6.010
 2246SOL    HW218618   0.563   3.449   6.127
 2247SOL     OW18619   3.251   3.094   0.058
 2247SOL    HW118620   3.341   3.063   0.049
 2247SOL    HW218621   3.206   3.060  21.253
 2248SOL     OW18622   4.016   3.723  17.855
 2248SOL    HW118623   4.077   3.729  17.928
 2248SOL    HW218624   3.951   3.659  17.883
 2249SOL     OW18625   1.350   3.994  15.352
 2249SOL    HW118626   1.309   3.910  15.333
 2249SOL    HW218627   1.277   4.051  15.376
 2250SOL     OW18628   0.161   0.065   7.852
 2250SOL    HW118629   0.076   0.023   7.841
 2250SOL    HW218630   0.224   4.787   7.846
 2251SOL     OW18631   2.563   2.378   5.896
 2251SOL    HW118632   2.642   2.332   5.868
 2251SOL    HW218633   2.552   2.448   5.831
 2252SOL     OW18634   2.459   3.009   0.158
 2252SOL    HW118635   2.430   2.927   0.199
 2252SOL    HW218636   2.385   3.036   0.103
 2253SOL     OW18637   4.048   4.644   5.822
 2253SOL    HW118638   3.965   4.598   5.806
 2253SOL    HW218639   4.072   4.620   5.911
 2254SOL     OW18640   4.127   2.789   9.450
 2254SOL    HW118641   4.133   2.874   9.407
 2254SOL    HW218642   4.178   2.730   9.395
 2255SOL     OW18643   2.520   4.301  15.616
 2255SOL    HW118644   2.550   4.226  15.667
 2255SOL    HW218645   2.441   4.332  15.662
 2256SOL     OW18646   0.490   1.381  16.285
 2256SOL    HW118647   0.481   1.286  16.293
 2256SOL    HW218648   0.409   1.410  16.244
 2257SOL     OW18649   0.142   0.947   3.196
 2257SOL    HW118650   0.222   0.994   3.218
 2257SOL    HW218651   0.149   0.864   3.243
 2258SOL     OW18652   1.587   1.550  20.974
 2258SOL    HW118653   1.606   1.499  21.052
 2258SOL    HW218654   1.502   1.590  20.991
 2259SOL     OW18655   1.194   2.528  17.715
 2259SOL    HW118656   1.250   2.521  17.638
 2259SOL    HW218657   1.244   2.487  17.785
 2260SOL     OW18658   3.614   2.197  20.518
 2260SOL    HW118659   3.646   2.118  20.563
 2260SOL    HW218660   3.574   2.164  20.438
 2261SOL     OW18661   2.357   0.850  20.761
 2261SOL    HW118662   2.439   0.854  20.810
 2261SOL    HW218663   2.369   0.910  20.688
 2262SOL     OW18664   3.264   1.449   7.135
 2262SOL    HW118665   3.357   1.472   7.124
 2262SOL    HW218666   3.257   1.362   7.095
 2263SOL     OW18667   3.357   2.711  21.077
 2263SOL    HW118668   3.381   2.716  20.984
 2263SOL    HW218669   3.430   2.664  21.117
 2264SOL     OW18670   2.295   3.107  21.011
 2264SOL    HW118671   2.231   3.164  20.968
 2264SOL    HW218672   2.270   3.108  21.103
 2265SOL     OW18673   2.947   3.444  15.579
 2265SOL    HW118674   2.935   3.504  15.505
 2265SOL    HW218675   2.997   3.370  15.542
 2266SOL     OW18676   3.901   3.574  14.288
 2266SOL    HW118677   3.874   3.514  14.219
 2266SOL    HW218678   3.839   3.647  14.281
 2267SOL     OW18679   0.821   4.611   4.629
 2267SOL    HW118680   0.910   4.645   4.628
 2267SOL    HW218681   0.831   4.517   4.615
 2268SOL     OW18682   4.370   1.293   3.645
 2268SOL    HW118683   4.314   1.297   3.723
 2268SOL    HW218684   4.455   1.265   3.678
 2269SOL     OW18685   2.702   0.842  15.860
 2269SOL    HW118686   2.680   0.754  15.832
 2269SOL    HW218687   2.700   0.894  15.780
 2270SOL     OW18688   0.419   1.669  20.406
 2270SOL    HW118689   0.379   1.755  20.395
 2270SOL    HW218690   0.496   1.671  20.349
 2271SOL     OW18691   2.105   0.830  18.916
 2271SOL    HW118692   2.156   0.750  18.902
 2271SOL    HW218693   2.120   0.852  19.008
 2272SOL     OW18694   2.150   0.025   4.844
 2272SOL    HW118695   2.231   0.016   4.794
 2272SOL    HW218696   2.178   0.033   4.935
 2273SOL     OW18697   0.643   1.908   3.727
 2273SOL    HW118698   0.714   1.898   3.664
 2273SOL    HW218699   0.642   1.826   3.776
 2274SOL     OW18700   1.998   0.057   4.142
 2274SOL    HW118701   2.037   4.764   4.154
 2274SOL    HW218702   1.908   0.048   4.174
 2275SOL     OW18703   3.697   1.334   7.077
 2275SOL    HW118704   3.733   1.264   7.132
 2275SOL    HW218705   3.774   1.376   7.039
 2276SOL     OW18706   4.219   3.020  14.930
 2276SOL    HW118707   4.212   3.108  14.892
 2276SOL    HW218708   4.176   3.027  15.015
 2277SOL     OW18709   2.917   4.554   8.350
 2277SOL    HW118710   2.932   4.544   8.256
 2277SOL    HW218711   2.843   4.616   8.356
 2278SOL     OW18712   2.885   3.470   5.205
 2278SOL    HW118713   2.837   3.424   5.137
 2278SOL    HW218714   2.973   3.433   5.201
 2279SOL     OW18715   4.216   3.075  17.612
 2279SOL    HW118716   4.270   2.999  17.629
 2279SOL    HW218717   4.153   3.078  17.684
 2280SOL     OW18718   0.304   1.701  15.957
 2280SOL    HW118719   0.389   1.664  15.936
 2280SOL    HW218720   0.323   1.773  16.017
 2281SOL     OW18721   1.942   2.657   0.507
 2281SOL    HW118722   1.937   2.630   0.415
 2281SOL    HW218723   2.027   2.699   0.515
 2282SOL     OW18724   0.917   3.562  19.825
 2282SOL    HW118725   0.884   3.480  19.861
 2282SOL    HW218726   0.954   3.608  19.900
 2283SOL     OW18727   2.131   0.006   3.297
 2283SOL    HW118728   2.096   4.754   3.374
 2283SOL    HW218729   2.055   0.045   3.255
 2284SOL     OW18730   3.455   3.471   7.801
 2284SOL    HW118731   3.461   3.566   7.788
 2284SOL    HW218732   3.539   3.447   7.840
 2285SOL     OW18733   3.588   0.214  16.320
 2285SOL    HW118734   3.579   0.131  16.367
 2285SOL    HW218735   3.595   0.189  16.228
 2286SOL     OW18736   2.331   0.083   2.265
 2286SOL    HW118737   2.379   0.113   2.188
 2286SOL    HW218738   2.390   0.021   2.308
 2287SOL     OW18739   4.225   3.493   0.632
 2287SOL    HW118740   4.193   3.548   0.704
 2287SOL    HW218741   4.150   3.484   0.574
 2288SOL     OW18742   3.392   2.308   1.998
 2288SOL    HW118743   3.425   2.232   1.950
 2288SOL    HW218744   3.395   2.281   2.090
 2289SOL     OW18745   1.407   1.034  19.400
 2289SOL    HW118746   1.473   1.072  19.342
 2289SOL    HW218747   1.432   0.942  19.407
 2290SOL     OW18748   2.282   2.141  18.095
 2290SOL    HW118749   2.294   2.054  18.058
 2290SOL    HW218750   2.354   2.152  18.156
 2291SOL     OW18751   0.491   0.635   4.370
 2291SOL    HW118752   0.478   0.712   4.315
 2291SOL    HW218753   0.445   0.564   4.324
 2292SOL     OW18754   4.600   2.655  15.155
 2292SOL    HW118755   4.595   2.735  15.103
 2292SOL    HW218756   4.533   2.666  15.223
 2293SOL     OW18757   2.806   0.832  17.324
 2293SOL    HW118758   2.770   0.743  17.330
 2293SOL    HW218759   2.801   0.866  17.413
 2294SOL     OW18760   3.972   1.478   6.033
 2294SOL    HW118761   3.988   1.451   5.943
 2294SOL    HW218762   3.879   1.498   6.036
 2295SOL     OW18763   2.467   1.742   3.928
 2295SOL    HW118764   2.529   1.811   3.950
 2295SOL    HW218765   2.517   1.680   3.874
 2296SOL     OW18766   3.153   3.211   6.519
 2296SOL    HW118767   3.201   3.199   6.437
 2296SOL    HW218768   3.093   3.136   6.522
 2297SOL     OW18769   4.561   2.230   7.700
 2297SOL    HW118770   4.617   2.269   7.633
 2297SOL    HW218771   4.483   2.202   7.653
 2298SOL     OW18772   4.387   1.820   2.516
 2298SOL    HW118773   4.372   1.881   2.444
 2298SOL    HW218774   4.335   1.855   2.589
 2299SOL     OW18775   2.871   1.273   0.456
 2299SOL    HW118776   2.791   1.227   0.482
 2299SOL    HW218777   2.857   1.297   0.365
 2300SOL     OW18778   0.555   4.001   0.314
 2300SOL    HW118779   0.609   3.976   0.239
 2300SOL    HW218780   0.610   3.984   0.391
 2301SOL     OW18781   0.372   0.188  14.876
 2301SOL    HW118782   0.368   0.219  14.967
 2301SOL    HW218783   0.294   0.226  14.835
 2302SOL     OW18784   2.940   2.797  19.490
 2302SOL    HW118785   2.908   2.752  19.568
 2302SOL    HW218786   2.992   2.731  19.444
 2303SOL     OW18787   3.949   0.164  18.677
 2303SOL    HW118788   3.924   0.072  18.675
 2303SOL    HW218789   4.026   0.169  18.621
 2304SOL     OW18790   4.651   0.968  17.056
 2304SOL    HW118791   4.558   0.988  17.055
 2304SOL    HW218792   4.659   0.889  17.108
 2305SOL     OW18793   2.293   1.200  16.463
 2305SOL    HW118794   2.269   1.120  16.416
 2305SOL    HW218795   2.321   1.170  16.549
 2306SOL     OW18796   2.369   3.716  20.453
 2306SOL    HW118797   2.333   3.803  20.469
 2306SOL    HW218798   2.336   3.662  20.525
 2307SOL     OW18799   4.489   1.062  17.825
 2307SOL    HW118800   4.420   1.112  17.781
 2307SOL    HW218801   4.455   0.973  17.831
 2308SOL     OW18802   2.008   0.975   7.685
 2308SOL    HW118803   1.927   1.016   7.656
 2308SOL    HW218804   2.077   1.027   7.644
 2309SOL     OW18805   3.027   4.716   4.058
 2309SOL    HW118806   3.065   4.695   4.143
 2309SOL    HW218807   3.015   4.631   4.016
 2310SOL     OW18808   4.536   0.168  20.497
 2310SOL    HW118809   4.575   0.083  20.520
 2310SOL    HW218810   4.599   0.233  20.528
 2311SOL     OW18811   2.253   0.168   4.182
 2311SOL    HW118812   2.252   0.258   4.148
 2311SOL    HW218813   2.164   0.136   4.168
 2312SOL     OW18814   2.742   2.438  20.148
 2312SOL    HW118815   2.718   2.345  20.145
 2312SOL    HW218816   2.736   2.467  20.057
 2313SOL     OW18817   0.430   4.741   5.372
 2313SOL    HW118818   0.479   4.761   5.451
 2313SOL    HW218819   0.445   0.024   5.315
 2314SOL     OW18820   0.430   1.864  16.109
 2314SOL    HW118821   0.513   1.822  16.128
 2314SOL    HW218822   0.399   1.898  16.193
 2315SOL     OW18823   4.304   3.917   6.392
 2315SOL    HW118824   4.251   3.846   6.355
 2315SOL    HW218825   4.241   3.970   6.440
 2316SOL     OW18826   0.270   1.447  20.724
 2316SOL    HW118827   0.312   1.397  20.653
 2316SOL    HW218828   0.286   1.394  20.802
 2317SOL     OW18829   2.316   3.481   4.115
 2317SOL    HW118830   2.286   3.496   4.205
 2317SOL    HW218831   2.244   3.432   4.074
 2318SOL     OW18832   3.705   2.104  15.890
 2318SOL    HW118833   3.785   2.068  15.851
 2318SOL    HW218834   3.705   2.071  15.980
 2319SOL     OW18835   1.029   1.722   5.420
 2319SOL    HW118836   0.969   1.652   5.445
 2319SOL    HW218837   1.096   1.678   5.367
 2320SOL     OW18838   0.947   3.766  15.351
 2320SOL    HW118839   0.987   3.808  15.275
 2320SOL    HW218840   1.003   3.793  15.425
 2321SOL     OW18841   1.605   2.571   2.990
 2321SOL    HW118842   1.663   2.629   2.941
 2321SOL    HW218843   1.660   2.531   3.057
 2322SOL     OW18844   2.490   2.459   5.587
 2322SOL    HW118845   2.465   2.513   5.513
 2322SOL    HW218846   2.579   2.429   5.567
 2323SOL     OW18847   3.725   2.188   1.342
 2323SOL    HW118848   3.782   2.181   1.418
 2323SOL    HW218849   3.639   2.162   1.374
 2324SOL     OW18850   3.133   4.359  20.712
 2324SOL    HW118851   3.119   4.339  20.805
 2324SOL    HW218852   3.120   4.276  20.667
 2325SOL     OW18853   2.340   2.027  19.860
 2325SOL    HW118854   2.382   2.048  19.943
 2325SOL    HW218855   2.262   2.082  19.858
 2326SOL     OW18856   3.857   4.208   2.542
 2326SOL    HW118857   3.936   4.215   2.489
 2326SOL    HW218858   3.801   4.280   2.512
 2327SOL     OW18859   3.562   2.591   7.091
 2327SOL    HW118860   3.510   2.671   7.084
 2327SOL    HW218861   3.511   2.534   7.149
 2328SOL     OW18862   0.952   2.992   2.470
 2328SOL    HW118863   0.883   3.056   2.488
 2328SOL    HW218864   0.917   2.909   2.503
 2329SOL     OW18865   2.888   0.646   3.043
 2329SOL    HW118866   2.833   0.720   3.019
 2329SOL    HW218867   2.826   0.578   3.070
 2330SOL     OW18868   0.066   4.068  13.323
 2330SOL    HW118869   0.156   4.100  13.317
 2330SOL    HW218870   0.058   4.005  13.251
 2331SOL     OW18871   1.431   0.588  15.079
 2331SOL    HW118872   1.519   0.594  15.116
 2331SOL    HW218873   1.445   0.557  14.989
 2332SOL     OW18874   4.068   4.458  17.708
 2332SOL    HW118875   4.139   4.394  17.701
 2332SOL    HW218876   3.990   4.406  17.724
 2333SOL     OW18877   2.313   3.304   1.954
 2333SOL    HW118878   2.267   3.299   2.038
 2333SOL    HW218879   2.346   3.216   1.939
 2334SOL     OW18880   2.558   1.761  18.789
 2334SOL    HW118881   2.589   1.686  18.738
 2334SOL    HW218882   2.579   1.837  18.736
 2335SOL     OW18883   2.080   1.488   4.157
 2335SOL    HW118884   2.084   1.577   4.193
 2335SOL    HW218885   2.028   1.439   4.221
 2336SOL     OW18886   0.800   3.127  19.642
 2336SOL    HW118887   0.792   3.034  19.624
 2336SOL    HW218888   0.775   3.170  19.560
 2337SOL     OW18889   2.831   2.794   6.614
 2337SOL    HW118890   2.886   2.731   6.660
 2337SOL    HW218891   2.742   2.772   6.641
 2338SOL     OW18892   0.669   0.255  15.616
 2338SOL    HW118893   0.758   0.228  15.594
 2338SOL    HW218894   0.623   0.257  15.532
 2339SOL     OW18895   2.620   1.241  13.355
 2339SOL    HW118896   2.659   1.270  13.272
 2339SOL    HW218897   2.621   1.319  13.410
 2340SOL     OW18898   2.260   0.356   8.992
 2340SOL    HW118899   2.222   0.427   9.045
 2340SOL    HW218900   2.316   0.309   9.053
 2341SOL     OW18901   2.129   1.412   2.981
 2341SOL    HW118902   2.065   1.472   3.020
 2341SOL    HW218903   2.076   1.345   2.938
 2342SOL     OW18904   1.373   4.495   2.986
 2342SOL    HW118905   1.354   4.558   2.915
 2342SOL    HW218906   1.469   4.497   2.994
 2343SOL     OW18907   3.276   1.680  18.980
 2343SOL    HW118908   3.320   1.636  19.053
 2343SOL    HW218909   3.332   1.755  18.961
 2344SOL     OW18910   3.426   4.619  20.252
 2344SOL    HW118911   3.363   4.626  20.324
 2344SOL    HW218912   3.481   4.544  20.276
 2345SOL     OW18913   1.411   3.424  17.652
 2345SOL    HW118914   1.485   3.412  17.713
 2345SOL    HW218915   1.432   3.367  17.578
 2346SOL     OW18916   4.559   2.406  14.986
 2346SOL    HW118917   4.590   2.483  15.034
 2346SOL    HW218918   4.524   2.442  14.904
 2347SOL     OW18919   0.680   3.701  18.428
 2347SOL    HW118920   0.693   3.789  18.392
 2347SOL    HW218921   0.718   3.706  18.516
 2348SOL     OW18922   2.137   0.786  19.904
 2348SOL    HW118923   2.188   0.729  19.846
 2348SOL    HW218924   2.146   0.873  19.866
 2349SOL     OW18925   1.822   3.615  13.507
 2349SOL    HW118926   1.844   3.606  13.599
 2349SOL    HW218927   1.783   3.702  13.500
 2350SOL     OW18928   0.942   1.100   4.717
 2350SOL    HW118929   0.954   1.061   4.630
 2350SOL    HW218930   1.026   1.088   4.761
 2351SOL     OW18931   3.378   0.952   6.910
 2351SOL    HW118932   3.341   0.961   6.998
 2351SOL    HW218933   3.472   0.962   6.922
 2352SOL     OW18934   3.675   1.144  17.378
 2352SOL    HW118935   3.669   1.105  17.291
 2352SOL    HW218936   3.632   1.081  17.436
 2353SOL     OW18937   0.982   4.601   3.425
 2353SOL    HW118938   1.075   4.578   3.433
 2353SOL    HW218939   0.983   4.695   3.406
 2354SOL     OW18940   2.240   1.523  15.138
 2354SOL    HW118941   2.203   1.437  15.117
 2354SOL    HW218942   2.171   1.568  15.187
 2355SOL     OW18943   0.298   2.166   3.135
 2355SOL    HW118944   0.305   2.187   3.042
 2355SOL    HW218945   0.308   2.250   3.180
 2356SOL     OW18946   0.539   0.728  16.339
 2356SOL    HW118947   0.538   0.718  16.434
 2356SOL    HW218948   0.454   0.767  16.318
 2357SOL     OW18949   2.467   2.107  14.558
 2357SOL    HW118950   2.491   2.065  14.475
 2357SOL    HW218951   2.433   2.193  14.532
 2358SOL     OW18952   4.213   4.545   5.221
 2358SOL    HW118953   4.187   4.599   5.295
 2358SOL    HW218954   4.191   4.456   5.247
 2359SOL     OW18955   4.279   2.807   2.190
 2359SOL    HW118956   4.348   2.852   2.238
 2359SOL    HW218957   4.233   2.755   2.256
 2360SOL     OW18958   3.856   1.929   3.852
 2360SOL    HW118959   3.895   1.871   3.918
 2360SOL    HW218960   3.765   1.936   3.877
 2361SOL     OW18961   0.876   4.358   1.744
 2361SOL    HW118962   0.780   4.359   1.748
 2361SOL    HW218963   0.903   4.326   1.830
 2362SOL     OW18964   1.053   0.636  17.103
 2362SOL    HW118965   1.117   0.567  17.087
 2362SOL    HW218966   1.058   0.692  17.025
 2363SOL     OW18967   0.234   2.127  17.169
 2363SOL    HW118968   0.268   2.148  17.083
 2363SOL    HW218969   0.291   2.173  17.230
 2364SOL     OW18970   2.580   3.750  12.870
 2364SOL    HW118971   2.645   3.688  12.837
 2364SOL    HW218972   2.587   3.825  12.812
 2365SOL     OW18973   0.094   3.591  14.294
 2365SOL    HW118974   0.026   3.655  14.274
 2365SOL    HW218975   0.058   3.539  14.366
 2366SOL     OW18976   0.679   2.165  19.981
 2366SOL    HW118977   0.768   2.154  20.016
 2366SOL    HW218978   0.671   2.259  19.966
 2367SOL     OW18979   4.727   4.718   4.378
 2367SOL    HW118980   4.786   4.667   4.323
 2367SOL    HW218981   4.713   4.664   4.455
 2368SOL     OW18982   3.731   0.755   3.485
 2368SOL    HW118983   3.777   0.835   3.458
 2368SOL    HW218984   3.800   0.700   3.523
 2369SOL     OW18985   3.236   2.680   5.477
 2369SOL    HW118986   3.203   2.750   5.533
 2369SOL    HW218987   3.330   2.678   5.493
 2370SOL     OW18988   4.553   2.044   1.123
 2370SOL    HW118989   4.646   2.025   1.110
 2370SOL    HW218990   4.537   2.026   1.215
 2371SOL     OW18991   1.224   0.964   2.891
 2371SOL    HW118992   1.299   0.937   2.839
 2371SOL    HW218993   1.179   1.028   2.836
 2372SOL     OW18994   3.880   2.281  16.312
 2372SOL    HW118995   3.937   2.238  16.376
 2372SOL    HW218996   3.876   2.372  16.342
 2373SOL     OW18997   2.113   0.411   2.423
 2373SOL    HW118998   2.039   0.421   2.482
 2373SOL    HW218999   2.190   0.422   2.478
 2374SOL     OW19000   1.004   3.040   3.782
 2374SOL    HW119001   1.097   3.051   3.760
 2374SOL    HW219002   0.999   2.955   3.825
 2375SOL     OW19003   0.451   3.518  18.899
 2375SOL    HW119004   0.534   3.559  18.921
 2375SOL    HW219005   0.470   3.467  18.819
 2376SOL     OW19006   0.977   2.345  19.715
 2376SOL    HW119007   1.028   2.426  19.722
 2376SOL    HW219008   1.034   2.286  19.665
 2377SOL     OW19009   2.285   3.944  20.548
 2377SOL    HW119010   2.334   3.948  20.630
 2377SOL    HW219011   2.269   4.035  20.524
 2378SOL     OW19012   4.551   3.709   0.239
 2378SOL    HW119013   4.527   3.700   0.331
 2378SOL    HW219014   4.487   3.771   0.204
 2379SOL     OW19015   2.587   3.159   2.114
 2379SOL    HW119016   2.569   3.170   2.207
 2379SOL    HW219017   2.502   3.139   2.075
 2380SOL     OW19018   2.549   3.184   7.278
 2380SOL    HW119019   2.625   3.203   7.333
 2380SOL    HW219020   2.475   3.180   7.340
 2381SOL     OW19021   0.442   2.955  20.391
 2381SOL    HW119022   0.352   2.983  20.408
 2381SOL    HW219023   0.466   2.903  20.467
 2382SOL     OW19024   1.706   3.824  16.968
 2382SOL    HW119025   1.681   3.865  17.050
 2382SOL    HW219026   1.798   3.849  16.956
 2383SOL     OW19027   3.961   3.396   4.103
 2383SOL    HW119028   3.966   3.327   4.036
 2383SOL    HW219029   3.997   3.356   4.182
 2384SOL     OW19030   3.669   1.166  15.038
 2384SOL    HW119031   3.713   1.235  15.087
 2384SOL    HW219032   3.607   1.128  15.099
 2385SOL     OW19033   2.180   1.542   1.628
 2385SOL    HW119034   2.104   1.589   1.592
 2385SOL    HW219035   2.142   1.479   1.689
 2386SOL     OW19036   0.098   2.005   3.505
 2386SOL    HW119037   0.096   2.014   3.410
 2386SOL    HW219038   0.179   2.049   3.531
 2387SOL     OW19039   0.976   3.542  14.449
 2387SOL    HW119040   0.912   3.578  14.511
 2387SOL    HW219041   0.997   3.615  14.391
 2388SOL     OW19042   3.025   4.187   3.897
 2388SOL    HW119043   3.015   4.191   3.801
 2388SOL    HW219044   2.964   4.119   3.925
 2389SOL     OW19045   3.094   1.207  17.122
 2389SOL    HW119046   3.100   1.297  17.154
 2389SOL    HW219047   3.050   1.159  17.193
 2390SOL     OW19048   2.252   1.484  18.926
 2390SOL    HW119049   2.183   1.544  18.898
 2390SOL    HW219050   2.205   1.411  18.966
 2391SOL     OW19051   0.017   0.457   2.406
 2391SOL    HW119052   0.074   0.490   2.336
 2391SOL    HW219053   4.721   0.470   2.373
 2392SOL     OW19054   4.292   1.116   5.704
 2392SOL    HW119055   4.304   1.175   5.778
 2392SOL    HW219056   4.357   1.047   5.717
 2393SOL     OW19057   4.663   3.063  15.810
 2393SOL    HW119058   4.702   3.133  15.863
 2393SOL    HW219059   4.642   2.994  15.873
 2394SOL     OW19060   3.827   4.781  17.109
 2394SOL    HW119061   3.777   0.067  17.090
 2394SOL    HW219062   3.894   0.016  17.171
 2395SOL     OW19063   3.397   1.855   0.443
 2395SOL    HW119064   3.464   1.921   0.425
 2395SOL    HW219065   3.342   1.856   0.366
 2396SOL     OW19066   3.729   3.273  20.999
 2396SOL    HW119067   3.763   3.334  20.932
 2396SOL    HW219068   3.681   3.208  20.949
 2397SOL     OW19069   3.588   4.587   2.610
 2397SOL    HW119070   3.577   4.593   2.705
 2397SOL    HW219071   3.507   4.546   2.579
 2398SOL     OW19072   3.878   3.818  17.595
 2398SOL    HW119073   3.787   3.832  17.621
 2398SOL    HW219074   3.919   3.780  17.672
 2399SOL     OW19075   0.510   0.027   3.199
 2399SOL    HW119076   0.490   0.080   3.121
 2399SOL    HW219077   0.433   0.037   3.255
 2400SOL     OW19078   2.991   2.298  17.464
 2400SOL    HW119079   2.998   2.284  17.370
 2400SOL    HW219080   3.062   2.246  17.502
 2401SOL     OW19081   2.039   2.711  14.435
 2401SOL    HW119082   2.068   2.701  14.344
 2401SOL    HW219083   1.998   2.797  14.438
 2402SOL     OW19084   4.241   3.994   2.401
 2402SOL    HW119085   4.247   3.902   2.426
 2402SOL    HW219086   4.178   3.994   2.329
 2403SOL     OW19087   4.244   3.263  18.457
 2403SOL    HW119088   4.270   3.176  18.426
 2403SOL    HW219089   4.184   3.295  18.389
 2404SOL     OW19090   2.788   0.471   1.603
 2404SOL    HW119091   2.768   0.519   1.523
 2404SOL    HW219092   2.789   0.379   1.576
 2405SOL     OW19093   4.308   2.268   5.238
 2405SOL    HW119094   4.299   2.202   5.168
 2405SOL    HW219095   4.402   2.272   5.254
 2406SOL     OW19096   1.098   2.148  16.060
 2406SOL    HW119097   1.084   2.166  15.967
 2406SOL    HW219098   1.127   2.232  16.097
 2407SOL     OW19099   4.244   0.530   0.539
 2407SOL    HW119100   4.275   0.498   0.624
 2407SOL    HW219101   4.179   0.466   0.512
 2408SOL     OW19102   3.141   3.294   2.540
 2408SOL    HW119103   3.201   3.228   2.507
 2408SOL    HW219104   3.097   3.252   2.614
 2409SOL     OW19105   3.194   2.483   6.938
 2409SOL    HW119106   3.205   2.528   7.022
 2409SOL    HW219107   3.256   2.525   6.880
 2410SOL     OW19108   1.041   3.920   0.441
 2410SOL    HW119109   1.061   3.978   0.513
 2410SOL    HW219110   1.074   3.834   0.469
 2411SOL     OW19111   0.163   3.027   0.266
 2411SOL    HW119112   0.098   2.970   0.224
 2411SOL    HW219113   0.175   3.099   0.204
 2412SOL     OW19114   0.671   3.418   2.455
 2412SOL    HW119115   0.736   3.479   2.490
 2412SOL    HW219116   0.589   3.468   2.454
 2413SOL     OW19117   3.383   0.857  20.747
 2413SOL    HW119118   3.371   0.938  20.697
 2413SOL    HW219119   3.478   0.847  20.755
 2414SOL     OW19120   4.784   1.757  20.251
 2414SOL    HW119121   4.754   1.693  20.186
 2414SOL    HW219122   4.755   1.842  20.217
 2415SOL     OW19123   2.871   1.430   3.310
 2415SOL    HW119124   2.815   1.506   3.326
 2415SOL    HW219125   2.899   1.402   3.398
 2416SOL     OW19126   2.000   2.348   2.566
 2416SOL    HW119127   1.956   2.363   2.650
 2416SOL    HW219128   2.090   2.376   2.581
 2417SOL     OW19129   4.656   2.541   3.039
 2417SOL    HW119130   4.692   2.627   3.064
 2417SOL    HW219131   4.733   2.487   3.023
 2418SOL     OW19132   4.206   1.748  20.752
 2418SOL    HW119133   4.168   1.717  20.670
 2418SOL    HW219134   4.192   1.842  20.751
 2419SOL     OW19135   2.940   1.092  16.290
 2419SOL    HW119136   2.931   1.056  16.202
 2419SOL    HW219137   2.939   1.187  16.278
 2420SOL     OW19138   2.639   2.621   4.545
 2420SOL    HW119139   2.583   2.653   4.474
 2420SOL    HW219140   2.719   2.674   4.538
 2421SOL     OW19141   2.334   0.725  15.133
 2421SOL    HW119142   2.410   0.706  15.189
 2421SOL    HW219143   2.371   0.736  15.045
 2422SOL     OW19144   1.293   2.250   0.638
 2422SOL    HW119145   1.359   2.319   0.648
 2422SOL    HW219146   1.212   2.291   0.665
 2423SOL     OW19147   2.064   2.862   3.956
 2423SOL    HW119148   2.152   2.859   3.994
 2423SOL    HW219149   2.025   2.778   3.980
 2424SOL     OW19150   4.311   4.294   4.061
 2424SOL    HW119151   4.242   4.228   4.051
 2424SOL    HW219152   4.286   4.342   4.140
 2425SOL     OW19153   3.531   0.338   8.119
 2425SOL    HW119154   3.610   0.321   8.068
 2425SOL    HW219155   3.462   0.293   8.071
 2426SOL     OW19156   3.357   4.720  14.140
 2426SOL    HW119157   3.300   4.644  14.133
 2426SOL    HW219158   3.354   4.760  14.053
 2427SOL     OW19159   2.077   0.672   4.814
 2427SOL    HW119160   2.140   0.608   4.783
 2427SOL    HW219161   2.065   0.732   4.740
 2428SOL     OW19162   2.744   4.615   3.988
 2428SOL    HW119163   2.763   4.661   4.069
 2428SOL    HW219164   2.684   4.546   4.013
 2429SOL     OW19165   1.215   3.070  17.751
 2429SOL    HW119166   1.174   3.157  17.747
 2429SOL    HW219167   1.167   3.018  17.687
 2430SOL     OW19168   1.940   0.913   2.514
 2430SOL    HW119169   1.889   0.977   2.464
 2430SOL    HW219170   2.026   0.955   2.526
 2431SOL     OW19171   3.788   2.027   6.817
 2431SOL    HW119172   3.734   2.039   6.739
 2431SOL    HW219173   3.877   2.045   6.787
 2432SOL     OW19174   4.388   2.048   0.918
 2432SOL    HW119175   4.428   2.047   1.005
 2432SOL    HW219176   4.355   2.137   0.908
 2433SOL     OW19177   3.844   2.079   4.154
 2433SOL    HW119178   3.776   2.012   4.157
 2433SOL    HW219179   3.922   2.032   4.126
 2434SOL     OW19180   2.132   1.352   6.633
 2434SOL    HW119181   2.091   1.396   6.708
 2434SOL    HW219182   2.077   1.376   6.558
 2435SOL     OW19183   0.802   0.922  21.120
 2435SOL    HW119184   0.771   0.874  21.196
 2435SOL    HW219185   0.897   0.930  21.134
 2436SOL     OW19186   1.260   0.905   1.616
 2436SOL    HW119187   1.230   0.844   1.548
 2436SOL    HW219188   1.181   0.949   1.646
 2437SOL     OW19189   0.960   3.195   4.674
 2437SOL    HW119190   0.873   3.212   4.710
 2437SOL    HW219191   1.017   3.258   4.718
 2438SOL     OW19192   2.153   1.497   7.294
 2438SOL    HW119193   2.185   1.511   7.383
 2438SOL    HW219194   2.068   1.541   7.291
 2439SOL     OW19195   3.436   2.616  18.335
 2439SOL    HW119196   3.392   2.674  18.396
 2439SOL    HW219197   3.515   2.663  18.309
 2440SOL     OW19198   3.986   3.007  18.569
 2440SOL    HW119199   3.961   2.940  18.633
 2440SOL    HW219200   4.035   3.071  18.620
 2441SOL     OW19201   3.448   4.324  20.213
 2441SOL    HW119202   3.402   4.318  20.130
 2441SOL    HW219203   3.535   4.288  20.195
 2442SOL     OW19204   0.408   3.691   5.107
 2442SOL    HW119205   0.328   3.649   5.139
 2442SOL    HW219206   0.432   3.752   5.177
 2443SOL     OW19207   1.201   2.775  20.842
 2443SOL    HW119208   1.223   2.688  20.877
 2443SOL    HW219209   1.170   2.824  20.917
 2444SOL     OW19210   4.282   4.069  17.907
 2444SOL    HW119211   4.300   3.976  17.920
 2444SOL    HW219212   4.217   4.072  17.837
 2445SOL     OW19213   0.390   2.320  14.115
 2445SOL    HW119214   0.338   2.240  14.110
 2445SOL    HW219215   0.370   2.366  14.033
 2446SOL     OW19216   1.886   0.153  18.514
 2446SOL    HW119217   1.801   0.116  18.538
 2446SOL    HW219218   1.949   0.083  18.529
 2447SOL     OW19219   1.415   3.808  14.666
 2447SOL    HW119220   1.368   3.795  14.583
 2447SOL    HW219221   1.475   3.880  14.649
 2448SOL     OW19222   2.062   4.426  18.827
 2448SOL    HW119223   2.137   4.483  18.810
 2448SOL    HW219224   1.987   4.473  18.788
 2449SOL     OW19225   4.214   0.079   1.288
 2449SOL    HW119226   4.207   0.004   1.229
 2449SOL    HW219227   4.178   0.152   1.238
 2450SOL     OW19228   4.354   4.771  18.146
 2450SOL    HW119229   4.415   4.702  18.120
 2450SOL    HW219230   4.273   4.725  18.167
 2451SOL     OW19231   0.989   0.843   5.703
 2451SOL    HW119232   0.964   0.765   5.653
 2451SOL    HW219233   0.954   0.827   5.791
 2452SOL     OW19234   3.816   0.700  16.344
 2452SOL    HW119235   3.767   0.619  16.334
 2452SOL    HW219236   3.885   0.695  16.278
 2453SOL     OW19237   0.793   1.089  18.238
 2453SOL    HW119238   0.714   1.142  18.242
 2453SOL    HW219239   0.858   1.145  18.197
 2454SOL     OW19240   0.628   0.757   7.168
 2454SOL    HW119241   0.572   0.716   7.101
 2454SOL    HW219242   0.698   0.798   7.119
 2455SOL     OW19243   4.514   3.637   3.249
 2455SOL    HW119244   4.589   3.633   3.189
 2455SOL    HW219245   4.459   3.563   3.224
 2456SOL     OW19246   0.810   4.495   2.934
 2456SOL    HW119247   0.883   4.541   2.976
 2456SOL    HW219248   0.811   4.407   2.972
 2457SOL     OW19249   1.969   2.237  20.570
 2457SOL    HW119250   2.034   2.254  20.502
 2457SOL    HW219251   1.885   2.250  20.527
 2458SOL     OW19252   4.689   0.531  12.613
 2458SOL    HW119253   4.603   0.541  12.654
 2458SOL    HW219254   4.735   0.613  12.631
 2459SOL     OW19255   0.875   0.200  17.629
 2459SOL    HW119256   0.883   0.278  17.683
 2459SOL    HW219257   0.814   0.224  17.559
 2460SOL     OW19258   2.637   4.532   7.673
 2460SOL    HW119259   2.688   4.537   7.592
 2460SOL    HW219260   2.602   4.621   7.685
 2461SOL     OW19261   2.365   4.065   4.708
 2461SOL    HW119262   2.392   3.992   4.765
 2461SOL    HW219263   2.299   4.026   4.650
 2462SOL     OW19264   2.691   3.703   0.743
 2462SOL    HW119265   2.656   3.645   0.675
 2462SOL    HW219266   2.712   3.784   0.697
 2463SOL     OW19267   0.408   1.117  19.421
 2463SOL    HW119268   0.432   1.202  19.383
 2463SOL    HW219269   0.335   1.137  19.479
 2464SOL     OW19270   3.416   2.111  20.212
 2464SOL    HW119271   3.463   2.036  20.250
 2464SOL    HW219272   3.477   2.185  20.222
 2465SOL     OW19273   4.539   4.534   1.116
 2465SOL    HW119274   4.526   4.565   1.205
 2465SOL    HW219275   4.605   4.593   1.079
 2466SOL     OW19276   3.218   0.014   2.752
 2466SOL    HW119277   3.274   0.029   2.828
 2466SOL    HW219278   3.274   4.760   2.690
 2467SOL     OW19279   2.411   1.861   1.119
 2467SOL    HW119280   2.446   1.799   1.183
 2467SOL    HW219281   2.326   1.886   1.154
 2468SOL     OW19282   1.567   4.248   6.422
 2468SOL    HW119283   1.626   4.295   6.481
 2468SOL    HW219284   1.486   4.237   6.472
 2469SOL     OW19285   2.337   4.282   4.054
 2469SOL    HW119286   2.348   4.209   4.115
 2469SOL    HW219287   2.319   4.240   3.970
 2470SOL     OW19288   1.707   0.958  18.930
 2470SOL    HW119289   1.721   0.925  18.841
 2470SOL    HW219290   1.694   0.879  18.983
 2471SOL     OW19291   2.259   1.609  18.180
 2471SOL    HW119292   2.217   1.692  18.200
 2471SOL    HW219293   2.344   1.633  18.144
 2472SOL     OW19294   3.632   4.596  18.528
 2472SOL    HW119295   3.549   4.550  18.516
 2472SOL    HW219296   3.612   4.664  18.593
 2473SOL     OW19297   0.273   0.615   0.887
 2473SOL    HW119298   0.265   0.636   0.793
 2473SOL    HW219299   0.361   0.578   0.896
 2474SOL     OW19300   3.887   1.250  16.853
 2474SOL    HW119301   3.896   1.246  16.757
 2474SOL    HW219302   3.869   1.342  16.871
 2475SOL     OW19303   1.923   2.819  19.635
 2475SOL    HW119304   2.000   2.769  19.609
 2475SOL    HW219305   1.940   2.845  19.725
 2476SOL     OW19306   2.417   1.950   5.791
 2476SOL    HW119307   2.411   2.045   5.805
 2476SOL    HW219308   2.510   1.930   5.802
 2477SOL     OW19309   2.262   3.649   0.730
 2477SOL    HW119310   2.195   3.712   0.706
 2477SOL    HW219311   2.338   3.673   0.676
 2478SOL     OW19312   3.857   3.447  17.287
 2478SOL    HW119313   3.870   3.541  17.300
 2478SOL    HW219314   3.785   3.442  17.223
 2479SOL     OW19315   3.879   3.880  18.378
 2479SOL    HW119316   3.953   3.820  18.387
 2479SOL    HW219317   3.805   3.833  18.416
 2480SOL     OW19318   0.143   2.936   5.839
 2480SOL    HW119319   0.060   2.972   5.809
 2480SOL    HW219320   0.172   2.880   5.767
 2481SOL     OW19321   3.437   3.675  18.211
 2481SOL    HW119322   3.511   3.736  18.205
 2481SOL    HW219323   3.360   3.731  18.204
 2482SOL     OW19324   4.015   2.731  20.867
 2482SOL    HW119325   4.057   2.717  20.782
 2482SOL    HW219326   4.068   2.799  20.908
 2483SOL     OW19327   1.287   1.879  15.593
 2483SOL    HW119328   1.295   1.790  15.626
 2483SOL    HW219329   1.377   1.909  15.582
 2484SOL     OW19330   0.032   4.619  16.471
 2484SOL    HW119331   0.078   4.539  16.494
 2484SOL    HW219332   0.042   4.676  16.547
 2485SOL     OW19333   2.879   1.656  14.822
 2485SOL    HW119334   2.794   1.630  14.857
 2485SOL    HW219335   2.930   1.575  14.819
 2486SOL     OW19336   2.089   4.659  16.309
 2486SOL    HW119337   2.113   4.727  16.247
 2486SOL    HW219338   1.993   4.661  16.310
 2487SOL     OW19339   1.879   3.490   5.147
 2487SOL    HW119340   1.883   3.444   5.063
 2487SOL    HW219341   1.788   3.479   5.176
 2488SOL     OW19342   4.052   2.307  18.826
 2488SOL    HW119343   4.010   2.380  18.871
 2488SOL    HW219344   4.102   2.262  18.894
 2489SOL     OW19345   2.330   1.032  16.700
 2489SOL    HW119346   2.409   1.085  16.702
 2489SOL    HW219347   2.347   0.962  16.763
 2490SOL     OW19348   4.253   0.476  19.538
 2490SOL    HW119349   4.275   0.412  19.470
 2490SOL    HW219350   4.223   0.553  19.490
 2491SOL     OW19351   4.730   3.257   1.186
 2491SOL    HW119352   4.778   3.300   1.116
 2491SOL    HW219353   4.718   3.324   1.253
 2492SOL     OW19354   2.939   4.502   5.184
 2492SOL    HW119355   2.951   4.593   5.158
 2492SOL    HW219356   2.887   4.463   5.114
 2493SOL     OW19357   3.614   1.693   6.574
 2493SOL    HW119358   3.633   1.646   6.493
 2493SOL    HW219359   3.540   1.750   6.552
 2494SOL     OW19360   2.041   2.900   1.888
 2494SOL    HW119361   2.128   2.859   1.894
 2494SOL    HW219362   1.985   2.847   1.945
 2495SOL     OW19363   0.999   4.096  20.864
 2495SOL    HW119364   1.033   4.011  20.836
 2495SOL    HW219365   0.965   4.080  20.952
 2496SOL     OW19366   1.267   1.987  17.166
 2496SOL    HW119367   1.341   2.043  17.144
 2496SOL    HW219368   1.289   1.951  17.251
 2497SOL     OW19369   1.211   1.224   6.455
 2497SOL    HW119370   1.198   1.290   6.386
 2497SOL    HW219371   1.197   1.140   6.411
 2498SOL     OW19372   0.376   1.035   3.018
 2498SOL    HW119373   0.319   1.107   2.990
 2498SOL    HW219374   0.416   1.066   3.099
 2499SOL     OW19375   1.385   3.530  16.123
 2499SOL    HW119376   1.479   3.544  16.128
 2499SOL    HW219377   1.358   3.575  16.043
 2500SOL     OW19378   1.323   1.245   7.293
 2500SOL    HW119379   1.402   1.213   7.338
 2500SOL    HW219380   1.258   1.254   7.362
 2501SOL     OW19381   3.524   2.686  14.302
 2501SOL    HW119382   3.506   2.610  14.357
 2501SOL    HW219383   3.606   2.722  14.337
 2502SOL     OW19384   4.472   0.557  19.706
 2502SOL    HW119385   4.550   0.523  19.663
 2502SOL    HW219386   4.400   0.531  19.649
 2503SOL     OW19387   1.811   1.432  20.839
 2503SOL    HW119388   1.724   1.466  20.855
 2503SOL    HW219389   1.870   1.505  20.857
 2504SOL     OW19390   3.432   2.594   1.981
 2504SOL    HW119391   3.385   2.620   1.903
 2504SOL    HW219392   3.427   2.498   1.982
 2505SOL     OW19393   1.065   3.123  19.774
 2505SOL    HW119394   1.030   3.092  19.857
 2505SOL    HW219395   0.992   3.168  19.732
 2506SOL     OW19396   4.631   1.021  20.478
 2506SOL    HW119397   4.540   0.999  20.497
 2506SOL    HW219398   4.679   0.995  20.557
 2507SOL     OW19399   1.672   1.066  19.295
 2507SOL    HW119400   1.714   0.981  19.310
 2507SOL    HW219401   1.716   1.126  19.354
 2508SOL     OW19402   4.081   0.327   2.665
 2508SOL    HW119403   4.074   0.255   2.603
 2508SOL    HW219404   4.157   0.304   2.719
 2509SOL     OW19405   0.259   2.349  19.535
 2509SOL    HW119406   0.255   2.439  19.502
 2509SOL    HW219407   0.168   2.320  19.535
 2510SOL     OW19408   1.753   1.517  19.311
 2510SOL    HW119409   1.673   1.509  19.260
 2510SOL    HW219410   1.725   1.550  19.396
 2511SOL     OW19411   3.121   4.181   2.099
 2511SOL    HW119412   3.125   4.124   2.175
 2511SOL    HW219413   3.146   4.267   2.132
 2512SOL     OW19414   4.080   2.417   9.447
 2512SOL    HW119415   4.153   2.477   9.461
 2512SOL    HW219416   4.094   2.347   9.511
 2513SOL     OW19417   1.099   1.947   1.614
 2513SOL    HW119418   1.189   1.958   1.585
 2513SOL    HW219419   1.106   1.928   1.708
 2514SOL     OW19420   2.279   3.193   3.973
 2514SOL    HW119421   2.282   3.175   3.879
 2514SOL    HW219422   2.228   3.274   3.980
 2515SOL     OW19423   1.862   1.878   5.149
 2515SOL    HW119424   1.847   1.794   5.192
 2515SOL    HW219425   1.953   1.899   5.170
 2516SOL     OW19426   1.944   3.208   1.369
 2516SOL    HW119427   1.861   3.244   1.399
 2516SOL    HW219428   1.919   3.131   1.318
 2517SOL     OW19429   2.754   4.345   3.535
 2517SOL    HW119430   2.848   4.363   3.535
 2517SOL    HW219431   2.714   4.430   3.514
 2518SOL     OW19432   3.893   3.065  21.117
 2518SOL    HW119433   3.818   3.012  21.090
 2518SOL    HW219434   3.869   3.154  21.095
 2519SOL     OW19435   0.049   4.600   5.404
 2519SOL    HW119436   0.105   4.564   5.335
 2519SOL    HW219437   0.061   4.541   5.478
 2520SOL     OW19438   0.926   0.730   1.657
 2520SOL    HW119439   0.911   0.658   1.718
 2520SOL    HW219440   0.864   0.715   1.586
 2521SOL     OW19441   3.090   3.499   4.470
 2521SOL    HW119442   3.035   3.456   4.404
 2521SOL    HW219443   3.073   3.450   4.551
 2522SOL     OW19444   4.510   0.922   4.151
 2522SOL    HW119445   4.485   0.834   4.124
 2522SOL    HW219446   4.589   0.942   4.101
 2523SOL     OW19447   4.386   4.280  19.267
 2523SOL    HW119448   4.451   4.227  19.313
 2523SOL    HW219449   4.436   4.351  19.228
 2524SOL     OW19450   4.298   3.544  18.777
 2524SOL    HW119451   4.355   3.494  18.718
 2524SOL    HW219452   4.211   3.535  18.739
 2525SOL     OW19453   3.054   3.623   1.083
 2525SOL    HW119454   3.001   3.681   1.029
 2525SOL    HW219455   3.064   3.670   1.166
 2526SOL     OW19456   1.151   4.361  11.517
 2526SOL    HW119457   1.127   4.427  11.452
 2526SOL    HW219458   1.239   4.333  11.492
 2527SOL     OW19459   0.967   3.335   1.464
 2527SOL    HW119460   0.888   3.330   1.518
 2527SOL    HW219461   0.940   3.385   1.387
 2528SOL     OW19462   0.783   0.008  12.568
 2528SOL    HW119463   0.771   0.083  12.509
 2528SOL    HW219464   0.877   4.783  12.566
 2529SOL     OW19465   1.007   2.622  15.148
 2529SOL    HW119466   0.975   2.610  15.059
 2529SOL    HW219467   0.932   2.601  15.204
 2530SOL     OW19468   2.924   0.991  16.035
 2530SOL    HW119469   3.014   1.002  16.004
 2530SOL    HW219470   2.875   0.966  15.956
 2531SOL     OW19471   1.328   3.000   3.113
 2531SOL    HW119472   1.298   3.037   3.030
 2531SOL    HW219473   1.349   2.909   3.093
 2532SOL     OW19474   4.275   1.344  20.745
 2532SOL    HW119475   4.312   1.366  20.830
 2532SOL    HW219476   4.346   1.298  20.699
 2533SOL     OW19477   4.095   3.250   7.559
 2533SOL    HW119478   4.162   3.203   7.510
 2533SOL    HW219479   4.057   3.310   7.496
 2534SOL     OW19480   0.049   2.163  17.394
 2534SOL    HW119481   0.111   2.127  17.331
 2534SOL    HW219482   0.064   2.114  17.474
 2535SOL     OW19483   0.753   0.581  19.489
 2535SOL    HW119484   0.747   0.676  19.499
 2535SOL    HW219485   0.689   0.561  19.421
 2536SOL     OW19486   1.046   2.770  18.440
 2536SOL    HW119487   1.105   2.695  18.428
 2536SOL    HW219488   1.072   2.807  18.524
 2537SOL     OW19489   0.621   3.676  18.162
 2537SOL    HW119490   0.609   3.583  18.143
 2537SOL    HW219491   0.663   3.678  18.248
 2538SOL     OW19492   1.983   0.146  20.993
 2538SOL    HW119493   1.908   0.163  21.049
 2538SOL    HW219494   2.052   0.117  21.054
 2539SOL     OW19495   2.527   1.728   4.721
 2539SOL    HW119496   2.450   1.673   4.713
 2539SOL    HW219497   2.584   1.701   4.649
 2540SOL     OW19498   4.579   2.348  16.449
 2540SOL    HW119499   4.648   2.414  16.458
 2540SOL    HW219500   4.613   2.285  16.386
 2541SOL     OW19501   0.175   3.867   1.289
 2541SOL    HW119502   0.152   3.926   1.360
 2541SOL    HW219503   0.265   3.889   1.266
 2542SOL     OW19504   2.756   3.932  20.989
 2542SOL    HW119505   2.764   3.902  20.898
 2542SOL    HW219506   2.787   3.858  21.041
 2543SOL     OW19507   4.072   0.481  10.322
 2543SOL    HW119508   4.057   0.394  10.361
 2543SOL    HW219509   4.115   0.531  10.391
 2544SOL     OW19510   3.045   3.677  18.281
 2544SOL    HW119511   3.108   3.725  18.334
 2544SOL    HW219512   3.005   3.744  18.225
 2545SOL     OW19513   2.186   0.239   1.104
 2545SOL    HW119514   2.217   0.329   1.110
 2545SOL    HW219515   2.266   0.186   1.096
 2546SOL     OW19516   2.821   1.807   6.251
 2546SOL    HW119517   2.829   1.711   6.256
 2546SOL    HW219518   2.728   1.824   6.269
 2547SOL     OW19519   2.330   3.003  12.741
 2547SOL    HW119520   2.247   2.959  12.723
 2547SOL    HW219521   2.382   2.990  12.662
 2548SOL     OW19522   1.914   3.160   5.120
 2548SOL    HW119523   1.855   3.084   5.118
 2548SOL    HW219524   1.859   3.233   5.147
 2549SOL     OW19525   2.934   4.038   4.916
 2549SOL    HW119526   3.019   4.033   4.961
 2549SOL    HW219527   2.908   4.129   4.925
 2550SOL     OW19528   0.154   1.124  16.386
 2550SOL    HW119529   0.083   1.059  16.389
 2550SOL    HW219530   0.116   1.198  16.339
 2551SOL     OW19531   4.104   4.222   2.413
 2551SOL    HW119532   4.122   4.208   2.320
 2551SOL    HW219533   4.147   4.149   2.457
 2552SOL     OW19534   4.062   4.625   1.417
 2552SOL    HW119535   3.971   4.656   1.417
 2552SOL    HW219536   4.114   4.705   1.408
 2553SOL     OW19537   4.437   2.310   4.821
 2553SOL    HW119538   4.463   2.239   4.879
 2553SOL    HW219539   4.447   2.389   4.874
 2554SOL     OW19540   2.291   4.034  16.123
 2554SOL    HW119541   2.364   4.073  16.171
 2554SOL    HW219542   2.312   3.941  16.119
 2555SOL     OW19543   3.976   3.775  20.058
 2555SOL    HW119544   3.881   3.782  20.069
 2555SOL    HW219545   4.004   3.863  20.034
 2556SOL     OW19546   2.514   0.223  16.378
 2556SOL    HW119547   2.433   0.201  16.424
 2556SOL    HW219548   2.509   0.317  16.364
 2557SOL     OW19549   4.124   1.984  17.629
 2557SOL    HW119550   4.124   1.941  17.714
 2557SOL    HW219551   4.184   1.931  17.576
 2558SOL     OW19552   2.346   0.275   6.525
 2558SOL    HW119553   2.310   0.207   6.468
 2558SOL    HW219554   2.336   0.356   6.474
 2559SOL     OW19555   1.946   2.767   9.052
 2559SOL    HW119556   2.016   2.811   9.005
 2559SOL    HW219557   1.933   2.819   9.131
 2560SOL     OW19558   3.783   2.028  18.562
 2560SOL    HW119559   3.865   2.052  18.520
 2560SOL    HW219560   3.768   2.098  18.626
 2561SOL     OW19561   0.723   1.080  20.920
 2561SOL    HW119562   0.719   1.009  20.984
 2561SOL    HW219563   0.815   1.085  20.895
 2562SOL     OW19564   2.333   0.903   3.397
 2562SOL    HW119565   2.253   0.947   3.367
 2562SOL    HW219566   2.311   0.810   3.397
 2563SOL     OW19567   3.634   1.576  15.576
 2563SOL    HW119568   3.644   1.629  15.655
 2563SOL    HW219569   3.558   1.614  15.531
 2564SOL     OW19570   1.635   1.673   2.562
 2564SOL    HW119571   1.651   1.703   2.473
 2564SOL    HW219572   1.584   1.743   2.603
 2565SOL     OW19573   0.076   1.427   3.840
 2565SOL    HW119574   0.145   1.468   3.788
 2565SOL    HW219575   0.015   1.497   3.860
 2566SOL     OW19576   0.839   4.299  19.190
 2566SOL    HW119577   0.825   4.346  19.272
 2566SOL    HW219578   0.759   4.247  19.178
 2567SOL     OW19579   3.832   1.529  17.580
 2567SOL    HW119580   3.783   1.535  17.498
 2567SOL    HW219581   3.835   1.436  17.600
 2568SOL     OW19582   0.823   1.091  17.272
 2568SOL    HW119583   0.883   1.056  17.338
 2568SOL    HW219584   0.755   1.024  17.264
 2569SOL     OW19585   1.728   4.675  18.163
 2569SOL    HW119586   1.815   4.654  18.196
 2569SOL    HW219587   1.729   4.770  18.151
 2570SOL     OW19588   1.322   1.421  20.812
 2570SOL    HW119589   1.417   1.432  20.818
 2570SOL    HW219590   1.289   1.508  20.792
 2571SOL     OW19591   3.514   3.969  12.333
 2571SOL    HW119592   3.548   3.907  12.398
 2571SOL    HW219593   3.545   4.054  12.363
 2572SOL     OW19594   2.744   3.119   6.616
 2572SOL    HW119595   2.677   3.162   6.563
 2572SOL    HW219596   2.753   3.174   6.693
 2573SOL     OW19597   4.047   3.212   5.045
 2573SOL    HW119598   3.978   3.185   5.106
 2573SOL    HW219599   4.024   3.302   5.020
 2574SOL     OW19600   4.079   2.257   0.018
 2574SOL    HW119601   4.011   2.239  21.227
 2574SOL    HW219602   4.148   2.302  21.241
 2575SOL     OW19603   4.503   4.586  11.421
 2575SOL    HW119604   4.585   4.572  11.469
 2575SOL    HW219605   4.456   4.651  11.473
 2576SOL     OW19606   0.213   4.326   6.675
 2576SOL    HW119607   0.118   4.319   6.669
 2576SOL    HW219608   0.246   4.271   6.604
 2577SOL     OW19609   0.745   3.762  16.678
 2577SOL    HW119610   0.717   3.704  16.608
 2577SOL    HW219611   0.676   3.755  16.744
 2578SOL     OW19612   0.622   2.527  16.591
 2578SOL    HW119613   0.649   2.619  16.593
 2578SOL    HW219614   0.667   2.488  16.666
 2579SOL     OW19615   0.147   3.384  12.889
 2579SOL    HW119616   0.074   3.397  12.830
 2579SOL    HW219617   0.142   3.291  12.913
 2580SOL     OW19618   1.135   3.474  17.966
 2580SOL    HW119619   1.058   3.472  18.022
 2580SOL    HW219620   1.116   3.411  17.897
 2581SOL     OW19621   1.270   4.786   0.466
 2581SOL    HW119622   1.196   0.051   0.483
 2581SOL    HW219623   1.342   0.051   0.442
 2582SOL     OW19624   3.762   3.898   6.693
 2582SOL    HW119625   3.855   3.874   6.687
 2582SOL    HW219626   3.716   3.815   6.695
 2583SOL     OW19627   3.814   2.252  18.299
 2583SOL    HW119628   3.745   2.190  18.277
 2583SOL    HW219629   3.773   2.338  18.291
 2584SOL     OW19630   3.517   0.714  17.021
 2584SOL    HW119631   3.425   0.724  16.997
 2584SOL    HW219632   3.566   0.746  16.945
 2585SOL     OW19633   4.510   0.706   2.315
 2585SOL    HW119634   4.504   0.765   2.239
 2585SOL    HW219635   4.570   0.751   2.374
 2586SOL     OW19636   4.708   0.864  17.462
 2586SOL    HW119637   4.651   0.844  17.388
 2586SOL    HW219638   4.657   0.839  17.539
 2587SOL     OW19639   1.838   3.040  16.994
 2587SOL    HW119640   1.857   2.953  17.030
 2587SOL    HW219641   1.921   3.069  16.956
 2588SOL     OW19642   2.312   2.136   6.229
 2588SOL    HW119643   2.250   2.099   6.166
 2588SOL    HW219644   2.303   2.081   6.307
 2589SOL     OW19645   0.238   0.314  17.940
 2589SOL    HW119646   0.206   0.357  18.019
 2589SOL    HW219647   0.208   0.369  17.868
 2590SOL     OW19648   1.523   1.281  20.210
 2590SOL    HW119649   1.485   1.269  20.124
 2590SOL    HW219650   1.573   1.362  20.202
 2591SOL     OW19651   2.186   0.802   1.085
 2591SOL    HW119652   2.182   0.891   1.122
 2591SOL    HW219653   2.277   0.775   1.099
 2592SOL     OW19654   2.017   2.539  17.771
 2592SOL    HW119655   2.040   2.509  17.683
 2592SOL    HW219656   2.061   2.477  17.829
 2593SOL     OW19657   4.368   3.658   6.069
 2593SOL    HW119658   4.436   3.725   6.079
 2593SOL    HW219659   4.373   3.607   6.150
 2594SOL     OW19660   0.379   0.364   2.439
 2594SOL    HW119661   0.316   0.318   2.383
 2594SOL    HW219662   0.463   0.321   2.422
 2595SOL     OW19663   2.103   3.885  17.533
 2595SOL    HW119664   2.137   3.797  17.549
 2595SOL    HW219665   2.072   3.915  17.618
 2596SOL     OW19666   2.418   0.849  18.971
 2596SOL    HW119667   2.363   0.924  18.995
 2596SOL    HW219668   2.450   0.815  19.055
 2597SOL     OW19669   4.742   1.992  20.010
 2597SOL    HW119670   4.730   1.936  19.933
 2597SOL    HW219671   4.692   2.071  19.990
 2598SOL     OW19672   4.359   4.676   4.373
 2598SOL    HW119673   4.369   4.716   4.460
 2598SOL    HW219674   4.425   4.606   4.372
 2599SOL     OW19675   1.704   0.170  20.401
 2599SOL    HW119676   1.788   0.217  20.404
 2599SOL    HW219677   1.639   0.236  20.427
 2600SOL     OW19678   1.845   2.249  19.057
 2600SOL    HW119679   1.833   2.340  19.083
 2600SOL    HW219680   1.913   2.216  19.116
 2601SOL     OW19681   0.820   2.170  14.731
 2601SOL    HW119682   0.759   2.198  14.662
 2601SOL    HW219683   0.907   2.184  14.693
 2602SOL     OW19684   4.623   1.087   2.849
 2602SOL    HW119685   4.541   1.037   2.856
 2602SOL    HW219686   4.691   1.022   2.868
 2603SOL     OW19687   4.684   3.130   0.758
 2603SOL    HW119688   4.746   3.127   0.685
 2603SOL    HW219689   4.702   3.050   0.807
 2604SOL     OW19690   0.099   0.488  15.242
 2604SOL    HW119691   0.015   0.445  15.256
 2604SOL    HW219692   0.087   0.576  15.277
 2605SOL     OW19693   3.707   0.800  20.209
 2605SOL    HW119694   3.641   0.741  20.244
 2605SOL    HW219695   3.669   0.833  20.128
 2606SOL     OW19696   3.432   1.560   5.820
 2606SOL    HW119697   3.463   1.470   5.825
 2606SOL    HW219698   3.508   1.613   5.844
 2607SOL     OW19699   2.774   1.358   1.590
 2607SOL    HW119700   2.829   1.389   1.518
 2607SOL    HW219701   2.769   1.432   1.650
 2608SOL     OW19702   2.525   2.013  17.518
 2608SOL    HW119703   2.549   1.923  17.539
 2608SOL    HW219704   2.506   2.012  17.424
 2609SOL     OW19705   0.407   2.692  16.881
 2609SOL    HW119706   0.425   2.599  16.897
 2609SOL    HW219707   0.393   2.698  16.787
 2610SOL     OW19708   2.695   2.837  13.325
 2610SOL    HW119709   2.684   2.801  13.413
 2610SOL    HW219710   2.741   2.920  13.339
 2611SOL     OW19711   1.522   0.835   0.216
 2611SOL    HW119712   1.561   0.759   0.174
 2611SOL    HW219713   1.565   0.842   0.301
 2612SOL     OW19714   0.973   2.042   1.395
 2612SOL    HW119715   1.037   2.004   1.335
 2612SOL    HW219716   1.005   2.019   1.482
 2613SOL     OW19717   1.848   3.434  20.312
 2613SOL    HW119718   1.845   3.407  20.220
 2613SOL    HW219719   1.756   3.448  20.336
 2614SOL     OW19720   0.278   3.643   1.947
 2614SOL    HW119721   0.272   3.635   2.042
 2614SOL    HW219722   0.338   3.573   1.921
 2615SOL     OW19723   0.059   1.239   0.565
 2615SOL    HW119724   0.031   1.323   0.529
 2615SOL    HW219725   0.144   1.257   0.605
 2616SOL     OW19726   4.027   0.400  21.041
 2616SOL    HW119727   3.945   0.353  21.057
 2616SOL    HW219728   4.064   0.416  21.128
 2617SOL     OW19729   0.626   2.502   4.584
 2617SOL    HW119730   0.650   2.594   4.573
 2617SOL    HW219731   0.679   2.456   4.518
 2618SOL     OW19732   2.237   1.012   9.876
 2618SOL    HW119733   2.212   0.920   9.872
 2618SOL    HW219734   2.309   1.020   9.812
 2619SOL     OW19735   3.768   3.084   5.511
 2619SOL    HW119736   3.820   3.037   5.576
 2619SOL    HW219737   3.704   3.020   5.480
 2620SOL     OW19738   3.988   2.245   0.485
 2620SOL    HW119739   3.947   2.199   0.413
 2620SOL    HW219740   3.915   2.273   0.540
 2621SOL     OW19741   1.035   4.374  21.052
 2621SOL    HW119742   1.012   4.349  21.141
 2621SOL    HW219743   1.079   4.297  21.016
 2622SOL     OW19744   2.850   0.301   4.927
 2622SOL    HW119745   2.903   0.256   4.860
 2622SOL    HW219746   2.844   0.391   4.896
 2623SOL     OW19747   1.025   1.063  17.984
 2623SOL    HW119748   0.938   1.026  17.966
 2623SOL    HW219749   1.035   1.132  17.918
 2624SOL     OW19750   2.445   0.259   2.770
 2624SOL    HW119751   2.501   0.307   2.710
 2624SOL    HW219752   2.505   0.210   2.826
 2625SOL     OW19753   0.360   0.400   3.366
 2625SOL    HW119754   0.378   0.408   3.272
 2625SOL    HW219755   0.275   0.356   3.370
 2626SOL     OW19756   3.334   1.911  17.641
 2626SOL    HW119757   3.310   1.818  17.639
 2626SOL    HW219758   3.342   1.931  17.734
 2627SOL     OW19759   1.697   2.496   2.249
 2627SOL    HW119760   1.669   2.543   2.328
 2627SOL    HW219761   1.789   2.473   2.265
 2628SOL     OW19762   0.314   1.613  19.294
 2628SOL    HW119763   0.313   1.629  19.200
 2628SOL    HW219764   0.299   1.699  19.333
 2629SOL     OW19765   1.406   2.455   1.095
 2629SOL    HW119766   1.385   2.514   1.167
 2629SOL    HW219767   1.448   2.511   1.029
 2630SOL     OW19768   0.366   3.157   2.106
 2630SOL    HW119769   0.374   3.130   2.014
 2630SOL    HW219770   0.343   3.249   2.102
 2631SOL     OW19771   1.100   1.454   2.603
 2631SOL    HW119772   1.081   1.515   2.532
 2631SOL    HW219773   1.180   1.488   2.643
 2632SOL     OW19774   3.950   4.639   2.599
 2632SOL    HW119775   4.040   4.607   2.598
 2632SOL    HW219776   3.899   4.569   2.558
 2633SOL     OW19777   0.629   3.772  15.208
 2633SOL    HW119778   0.658   3.691  15.165
 2633SOL    HW219779   0.552   3.746  15.258
 2634SOL     OW19780   0.429   0.682  17.091
 2634SOL    HW119781   0.504   0.741  17.098
 2634SOL    HW219782   0.446   0.630  17.012
 2635SOL     OW19783   3.988   4.113  18.250
 2635SOL    HW119784   4.055   4.151  18.308
 2635SOL    HW219785   3.961   4.033  18.295
 2636SOL     OW19786   0.964   1.786  17.675
 2636SOL    HW119787   1.001   1.858  17.625
 2636SOL    HW219788   1.032   1.718  17.675
 2637SOL     OW19789   2.067   0.212   6.357
 2637SOL    HW119790   2.058   0.306   6.372
 2637SOL    HW219791   2.021   0.195   6.276
 2638SOL     OW19792   0.950   0.308   0.887
 2638SOL    HW119793   0.918   0.374   0.826
 2638SOL    HW219794   0.874   0.254   0.907
 2639SOL     OW19795   4.163   1.788  16.417
 2639SOL    HW119796   4.185   1.697  16.435
 2639SOL    HW219797   4.209   1.837  16.485
 2640SOL     OW19798   0.255   1.653   7.824
 2640SOL    HW119799   0.245   1.619   7.913
 2640SOL    HW219800   0.304   1.585   7.778
 2641SOL     OW19801   4.424   1.245  20.089
 2641SOL    HW119802   4.357   1.205  20.144
 2641SOL    HW219803   4.420   1.338  20.110
 2642SOL     OW19804   3.169   1.236   1.873
 2642SOL    HW119805   3.074   1.221   1.866
 2642SOL    HW219806   3.190   1.290   1.797
 2643SOL     OW19807   1.775   4.511  16.246
 2643SOL    HW119808   1.823   4.462  16.180
 2643SOL    HW219809   1.683   4.489  16.230
 2644SOL     OW19810   0.471   2.903   6.786
 2644SOL    HW119811   0.505   2.982   6.747
 2644SOL    HW219812   0.387   2.929   6.824
 2645SOL     OW19813   2.006   3.617   6.540
 2645SOL    HW119814   2.039   3.706   6.552
 2645SOL    HW219815   2.042   3.567   6.614
 2646SOL     OW19816   3.538   1.144   5.431
 2646SOL    HW119817   3.479   1.211   5.466
 2646SOL    HW219818   3.479   1.075   5.400
 2647SOL     OW19819   0.027   2.877   2.438
 2647SOL    HW119820   4.764   2.939   2.485
 2647SOL    HW219821   0.097   2.932   2.402
 2648SOL     OW19822   3.096   2.634   2.081
 2648SOL    HW119823   3.145   2.700   2.031
 2648SOL    HW219824   3.020   2.681   2.115
 2649SOL     OW19825   0.186   2.015   5.245
 2649SOL    HW119826   0.139   2.084   5.292
 2649SOL    HW219827   0.116   1.961   5.208
 2650SOL     OW19828   2.976   4.740   1.063
 2650SOL    HW119829   2.924   4.753   1.142
 2650SOL    HW219830   2.945   0.014   1.002
 2651SOL     OW19831   0.691   3.815   3.649
 2651SOL    HW119832   0.622   3.835   3.713
 2651SOL    HW219833   0.671   3.725   3.621
 2652SOL     OW19834   2.453   3.433   1.079
 2652SOL    HW119835   2.380   3.456   1.021
 2652SOL    HW219836   2.531   3.466   1.034
 2653SOL     OW19837   2.528   3.232  21.253
 2653SOL    HW119838   2.546   3.195  21.166
 2653SOL    HW219839   2.492   3.160   0.031
 2654SOL     OW19840   0.729   2.229  17.561
 2654SOL    HW119841   0.687   2.258  17.480
 2654SOL    HW219842   0.709   2.136  17.566
 2655SOL     OW19843   3.576   2.399   7.694
 2655SOL    HW119844   3.630   2.327   7.663
 2655SOL    HW219845   3.634   2.476   7.688
 2656SOL     OW19846   4.594   4.467   5.887
 2656SOL    HW119847   4.676   4.472   5.935
 2656SOL    HW219848   4.608   4.396   5.824
 2657SOL     OW19849   4.636   4.012   4.671
 2657SOL    HW119850   4.543   4.013   4.692
 2657SOL    HW219851   4.679   3.984   4.752
 2658SOL     OW19852   0.287   1.683  16.718
 2658SOL    HW119853   0.305   1.592  16.692
 2658SOL    HW219854   0.197   1.699  16.691
 2659SOL     OW19855   0.855   2.104   3.874
 2659SOL    HW119856   0.873   2.026   3.927
 2659SOL    HW219857   0.868   2.076   3.784
 2660SOL     OW19858   3.051   3.923  16.332
 2660SOL    HW119859   2.986   3.892  16.395
 2660SOL    HW219860   3.031   3.875  16.252
 2661SOL     OW19861   0.364   0.349  15.803
 2661SOL    HW119862   0.281   0.325  15.845
 2661SOL    HW219863   0.398   0.267  15.768
 2662SOL     OW19864   1.105   1.075  15.725
 2662SOL    HW119865   1.131   0.993  15.767
 2662SOL    HW219866   1.063   1.048  15.643
 2663SOL     OW19867   1.430   0.264  15.646
 2663SOL    HW119868   1.448   0.193  15.707
 2663SOL    HW219869   1.442   0.344  15.698
 2664SOL     OW19870   4.611   2.915   1.037
 2664SOL    HW119871   4.549   2.852   1.074
 2664SOL    HW219872   4.587   2.999   1.076
 2665SOL     OW19873   4.720   2.093   4.718
 2665SOL    HW119874   4.790   2.031   4.736
 2665SOL    HW219875   4.702   2.082   4.625
 2666SOL     OW19876   1.534   2.934  13.981
 2666SOL    HW119877   1.531   3.030  13.983
 2666SOL    HW219878   1.592   2.913  13.908
 2667SOL     OW19879   3.451   4.190  15.506
 2667SOL    HW119880   3.430   4.179  15.599
 2667SOL    HW219881   3.366   4.192  15.462
 2668SOL     OW19882   2.391   2.290   2.102
 2668SOL    HW119883   2.462   2.351   2.084
 2668SOL    HW219884   2.433   2.205   2.106
 2669SOL     OW19885   2.019   3.021   6.212
 2669SOL    HW119886   2.080   3.092   6.190
 2669SOL    HW219887   2.075   2.943   6.216
 2670SOL     OW19888   3.182   4.418   2.234
 2670SOL    HW119889   3.274   4.423   2.261
 2670SOL    HW219890   3.133   4.405   2.315
 2671SOL     OW19891   1.135   1.849  19.009
 2671SOL    HW119892   1.090   1.907  18.948
 2671SOL    HW219893   1.069   1.827  19.074
 2672SOL     OW19894   2.708   3.943   0.622
 2672SOL    HW119895   2.758   4.004   0.676
 2672SOL    HW219896   2.669   3.997   0.554
 2673SOL     OW19897   2.132   3.967   4.575
 2673SOL    HW119898   2.087   3.930   4.651
 2673SOL    HW219899   2.081   4.045   4.552
 2674SOL     OW19900   3.088   2.875  19.084
 2674SOL    HW119901   3.029   2.913  19.018
 2674SOL    HW219902   3.145   2.948  19.109
 2675SOL     OW19903   4.396   3.313  17.375
 2675SOL    HW119904   4.414   3.371  17.301
 2675SOL    HW219905   4.320   3.353  17.418
 2676SOL     OW19906   0.931   0.078  13.450
 2676SOL    HW119907   0.861   0.088  13.387
 2676SOL    HW219908   1.004   0.042  13.400
 2677SOL     OW19909   0.303   3.903   0.305
 2677SOL    HW119910   0.396   3.920   0.318
 2677SOL    HW219911   0.300   3.848   0.226
 2678SOL     OW19912   3.666   1.113   4.721
 2678SOL    HW119913   3.747   1.163   4.715
 2678SOL    HW219914   3.683   1.048   4.790
 2679SOL     OW19915   4.663   3.336   4.612
 2679SOL    HW119916   4.663   3.272   4.541
 2679SOL    HW219917   4.750   3.329   4.651
 2680SOL     OW19918   3.319   3.636   4.825
 2680SOL    HW119919   3.316   3.639   4.921
 2680SOL    HW219920   3.256   3.703   4.798
 2681SOL     OW19921   0.965   3.643  16.834
 2681SOL    HW119922   1.022   3.609  16.766
 2681SOL    HW219923   0.880   3.654  16.791
 2682SOL     OW19924   1.256   3.063  17.041
 2682SOL    HW119925   1.201   3.053  16.963
 2682SOL    HW219926   1.298   3.149  17.029
 2683SOL     OW19927   4.616   2.912   6.679
 2683SOL    HW119928   4.530   2.890   6.716
 2683SOL    HW219929   4.596   2.949   6.593
 2684SOL     OW19930   1.308   1.769  10.848
 2684SOL    HW119931   1.332   1.808  10.764
 2684SOL    HW219932   1.384   1.716  10.873
 2685SOL     OW19933   1.403   0.995  20.893
 2685SOL    HW119934   1.341   1.038  20.835
 2685SOL    HW219935   1.488   1.006  20.850
 2686SOL     OW19936   1.081   1.122   4.286
 2686SOL    HW119937   1.147   1.058   4.260
 2686SOL    HW219938   1.083   1.189   4.218
 2687SOL     OW19939   3.350   3.434   4.247
 2687SOL    HW119940   3.354   3.339   4.231
 2687SOL    HW219941   3.328   3.441   4.340
 2688SOL     OW19942   4.332   1.380   0.315
 2688SOL    HW119943   4.282   1.414   0.240
 2688SOL    HW219944   4.269   1.377   0.387
 2689SOL     OW19945   2.448   0.682   0.006
 2689SOL    HW119946   2.406   0.696   0.091
 2689SOL    HW219947   2.385   0.717  21.215
 2690SOL     OW19948   2.203   4.210  13.162
 2690SOL    HW119949   2.188   4.120  13.133
 2690SOL    HW219950   2.126   4.232  13.214
 2691SOL     OW19951   2.162   3.903  19.894
 2691SOL    HW119952   2.157   3.987  19.940
 2691SOL    HW219953   2.255   3.892  19.873
 2692SOL     OW19954   1.279   1.040   5.234
 2692SOL    HW119955   1.238   1.016   5.151
 2692SOL    HW219956   1.206   1.054   5.294
 2693SOL     OW19957   0.419   4.791  21.113
 2693SOL    HW119958   0.426   4.769  21.020
 2693SOL    HW219959   0.500   0.045  21.132
 2694SOL     OW19960   0.749   0.482   2.583
 2694SOL    HW119961   0.745   0.414   2.516
 2694SOL    HW219962   0.700   0.555   2.547
 2695SOL     OW19963   4.108   1.895   4.378
 2695SOL    HW119964   4.177   1.828   4.382
 2695SOL    HW219965   4.035   1.858   4.426
 2696SOL     OW19966   0.762   0.753   7.882
 2696SOL    HW119967   0.756   0.659   7.894
 2696SOL    HW219968   0.778   0.788   7.970
 2697SOL     OW19969   2.870   3.364  15.180
 2697SOL    HW119970   2.789   3.415  15.188
 2697SOL    HW219971   2.939   3.430  15.177
 2698SOL     OW19972   0.044   2.555   1.847
 2698SOL    HW119973   0.117   2.509   1.891
 2698SOL    HW219974   0.080   2.640   1.825
 2699SOL     OW19975   0.809   0.273   4.976
 2699SOL    HW119976   0.726   0.273   4.928
 2699SOL    HW219977   0.844   0.361   4.963
 2700SOL     OW19978   0.961   4.510  15.792
 2700SOL    HW119979   0.873   4.547  15.795
 2700SOL    HW219980   1.000   4.536  15.875
 2701SOL     OW19981   1.775   3.138  16.038
 2701SOL    HW119982   1.749   3.050  16.010
 2701SOL    HW219983   1.700   3.193  16.017
 2702SOL     OW19984   4.198   1.887  18.686
 2702SOL    HW119985   4.157   1.825  18.746
 2702SOL    HW219986   4.251   1.944  18.742
 2703SOL     OW19987   0.222   3.311  14.474
 2703SOL    HW119988   0.128   3.298  14.485
 2703SOL    HW219989   0.232   3.330  14.380
 2704SOL     OW19990   0.532   3.902  20.459
 2704SOL    HW119991   0.441   3.888  20.484
 2704SOL    HW219992   0.581   3.893  20.541
 2705SOL     OW19993   1.253   2.885  19.378
 2705SOL    HW119994   1.331   2.937  19.356
 2705SOL    HW219995   1.237   2.904  19.470
 2706SOL     OW19996   2.331   1.779   6.217
 2706SOL    HW119997   2.352   1.704   6.272
 2706SOL    HW219998   2.279   1.836   6.273
 2707SOL     OW19999   1.472   1.667   3.600
 2707SOL    HW120000   1.564   1.642   3.588
 2707SOL    HW220001   1.468   1.701   3.689
 2708SOL     OW20002   1.894   3.496  16.711
 2708SOL    HW120003   1.885   3.464  16.621
 2708SOL    HW220004   1.981   3.467  16.738
 2709SOL     OW20005   4.696   0.316   1.530
 2709SOL    HW120006   4.650   0.382   1.479
 2709SOL    HW220007   4.647   0.310   1.612
 2710SOL     OW20008   1.108   0.798  21.071
 2710SOL    HW120009   1.173   0.744  21.115
 2710SOL    HW220010   1.144   0.887  21.076
 2711SOL     OW20011   0.435   3.690  15.377
 2711SOL    HW120012   0.394   3.744  15.445
 2711SOL    HW220013   0.454   3.607  15.420
 2712SOL     OW20014   2.350   0.948  13.076
 2712SOL    HW120015   2.356   0.921  12.984
 2712SOL    HW220016   2.262   0.987  13.083
 2713SOL     OW20017   1.834   4.374  14.405
 2713SOL    HW120018   1.852   4.329  14.322
 2713SOL    HW220019   1.740   4.360  14.419
 2714SOL     OW20020   2.498   2.552   0.903
 2714SOL    HW120021   2.501   2.555   0.999
 2714SOL    HW220022   2.532   2.465   0.881
 2715SOL     OW20023   1.565   4.261  16.497
 2715SOL    HW120024   1.622   4.185  16.504
 2715SOL    HW220025   1.486   4.236  16.546
 2716SOL     OW20026   1.123   0.852  19.500
 2716SOL    HW120027   1.215   0.851  19.528
 2716SOL    HW220028   1.117   0.926  19.440
 2717SOL     OW20029   3.792   4.499   3.514
 2717SOL    HW120030   3.753   4.517   3.599
 2717SOL    HW220031   3.825   4.584   3.484
 2718SOL     OW20032   4.392   0.951   2.845
 2718SOL    HW120033   4.320   0.950   2.908
 2718SOL    HW220034   4.368   0.883   2.782
 2719SOL     OW20035   1.827   4.649   4.430
 2719SOL    HW120036   1.857   4.715   4.492
 2719SOL    HW220037   1.800   4.575   4.484
 2720SOL     OW20038   3.002   4.628  19.460
 2720SOL    HW120039   2.912   4.648  19.485
 2720SOL    HW220040   2.993   4.576  19.380
 2721SOL     OW20041   4.692   3.073  15.085
 2721SOL    HW120042   4.737   3.019  15.150
 2721SOL    HW220043   4.703   3.163  15.117
 2722SOL     OW20044   2.320   2.273   6.478
 2722SOL    HW120045   2.394   2.269   6.538
 2722SOL    HW220046   2.354   2.239   6.395
 2723SOL     OW20047   0.071   1.339  18.009
 2723SOL    HW120048   0.153   1.299  18.036
 2723SOL    HW220049   0.018   1.267  17.977
 2724SOL     OW20050   2.406   0.684  19.201
 2724SOL    HW120051   2.400   0.720  19.290
 2724SOL    HW220052   2.316   0.677  19.172
 2725SOL     OW20053   1.012   1.689   2.080
 2725SOL    HW120054   1.050   1.634   2.011
 2725SOL    HW220055   1.076   1.686   2.151
 2726SOL     OW20056   3.251   1.688   3.483
 2726SOL    HW120057   3.236   1.641   3.565
 2726SOL    HW220058   3.173   1.743   3.472
 2727SOL     OW20059   2.983   3.377   3.283
 2727SOL    HW120060   3.071   3.350   3.254
 2727SOL    HW220061   2.980   3.352   3.375
 2728SOL     OW20062   0.590   3.503  13.686
 2728SOL    HW120063   0.502   3.537  13.676
 2728SOL    HW220064   0.595   3.474  13.777
 2729SOL     OW20065   4.676   3.017   5.667
 2729SOL    HW120066   4.598   2.975   5.630
 2729SOL    HW220067   4.692   3.092   5.610
 2730SOL     OW20068   4.113   0.014  14.573
 2730SOL    HW120069   4.161   0.027  14.491
 2730SOL    HW220070   4.136   0.089  14.627
 2731SOL     OW20071   2.829   4.690   1.309
 2731SOL    HW120072   2.751   4.662   1.356
 2731SOL    HW220073   2.885   4.727   1.377
 2732SOL     OW20074   2.862   3.401  17.416
 2732SOL    HW120075   2.806   3.410  17.494
 2732SOL    HW220076   2.828   3.324  17.371
 2733SOL     OW20077   3.481   4.346  17.978
 2733SOL    HW120078   3.455   4.271  18.032
 2733SOL    HW220079   3.456   4.320  17.889
 2734SOL     OW20080   3.644   2.903  14.761
 2734SOL    HW120081   3.650   2.819  14.805
 2734SOL    HW220082   3.704   2.960  14.809
 2735SOL     OW20083   0.784   2.034   4.214
 2735SOL    HW120084   0.819   1.968   4.155
 2735SOL    HW220085   0.699   2.058   4.176
 2736SOL     OW20086   2.910   1.224   9.442
 2736SOL    HW120087   2.981   1.162   9.427
 2736SOL    HW220088   2.836   1.170   9.471
 2737SOL     OW20089   1.946   0.450  16.580
 2737SOL    HW120090   2.030   0.476  16.543
 2737SOL    HW220091   1.884   0.458  16.508
 2738SOL     OW20092   1.442   0.397   1.686
 2738SOL    HW120093   1.462   0.310   1.651
 2738SOL    HW220094   1.468   0.458   1.616
 2739SOL     OW20095   0.151   4.523   4.211
 2739SOL    HW120096   0.128   4.579   4.136
 2739SOL    HW220097   0.247   4.520   4.209
 2740SOL     OW20098   3.975   0.020   5.278
 2740SOL    HW120099   3.927   4.768   5.208
 2740SOL    HW220100   3.999   0.104   5.239
 2741SOL     OW20101   4.373   4.148   1.115
 2741SOL    HW120102   4.332   4.159   1.029
 2741SOL    HW220103   4.423   4.067   1.108
 2742SOL     OW20104   2.757   2.425   4.403
 2742SOL    HW120105   2.846   2.458   4.418
 2742SOL    HW220106   2.700   2.491   4.443
 2743SOL     OW20107   0.212   4.092   0.097
 2743SOL    HW120108   0.240   4.047   0.176
 2743SOL    HW220109   0.216   4.185   0.120
 2744SOL     OW20110   0.555   3.879  16.206
 2744SOL    HW120111   0.490   3.943  16.177
 2744SOL    HW220112   0.525   3.853  16.293
 2745SOL     OW20113   0.050   4.428  16.232
 2745SOL    HW120114   0.127   4.411  16.177
 2745SOL    HW220115   0.078   4.498  16.291
 2746SOL     OW20116   4.779   1.981  17.677
 2746SOL    HW120117   0.038   1.901  17.685
 2746SOL    HW220118   0.020   2.038  17.746
 2747SOL     OW20119   3.562   0.560  19.531
 2747SOL    HW120120   3.642   0.612  19.535
 2747SOL    HW220121   3.493   0.619  19.560
 2748SOL     OW20122   3.690   3.410   7.190
 2748SOL    HW120123   3.696   3.353   7.267
 2748SOL    HW220124   3.740   3.488   7.214
 2749SOL     OW20125   0.133   2.942   1.916
 2749SOL    HW120126   0.080   3.016   1.886
 2749SOL    HW220127   0.154   2.894   1.836
 2750SOL     OW20128   4.200   3.725   5.393
 2750SOL    HW120129   4.230   3.815   5.381
 2750SOL    HW220130   4.144   3.729   5.471
 2751SOL     OW20131   0.981   0.067  17.961
 2751SOL    HW120132   1.056   0.123  17.940
 2751SOL    HW220133   1.008   0.018  18.039
 2752SOL     OW20134   2.154   1.891  16.477
 2752SOL    HW120135   2.224   1.897  16.542
 2752SOL    HW220136   2.176   1.813  16.425
 2753SOL     OW20137   3.256   3.402   3.168
 2753SOL    HW120138   3.315   3.399   3.243
 2753SOL    HW220139   3.277   3.484   3.124
 2754SOL     OW20140   1.182   2.891  21.108
 2754SOL    HW120141   1.124   2.882  21.184
 2754SOL    HW220142   1.175   2.983  21.084
 2755SOL     OW20143   1.686   2.500  19.208
 2755SOL    HW120144   1.609   2.528  19.259
 2755SOL    HW220145   1.738   2.450  19.270
 2756SOL     OW20146   1.987   2.930   3.702
 2756SOL    HW120147   1.984   2.908   3.796
 2756SOL    HW220148   1.897   2.924   3.673
 2757SOL     OW20149   1.967   1.344  19.987
 2757SOL    HW120150   1.971   1.413  20.053
 2757SOL    HW220151   2.054   1.305  19.987
 2758SOL     OW20152   1.427   2.002   5.880
 2758SOL    HW120153   1.498   2.002   5.945
 2758SOL    HW220154   1.362   1.941   5.915
 2759SOL     OW20155   3.091   0.658   2.734
 2759SOL    HW120156   3.126   0.656   2.823
 2759SOL    HW220157   3.136   0.587   2.689
 2760SOL     OW20158   3.211   2.003  18.118
 2760SOL    HW120159   3.136   1.943  18.118
 2760SOL    HW220160   3.178   2.084  18.079
 2761SOL     OW20161   2.607   0.417  17.940
 2761SOL    HW120162   2.691   0.449  17.974
 2761SOL    HW220163   2.612   0.429  17.846
 2762SOL     OW20164   2.661   0.763   2.735
 2762SOL    HW120165   2.721   0.823   2.692
 2762SOL    HW220166   2.660   0.792   2.827
 2763SOL     OW20167   2.881   2.024   5.642
 2763SOL    HW120168   2.944   2.066   5.582
 2763SOL    HW220169   2.867   1.937   5.604
 2764SOL     OW20170   2.893   3.684   5.636
 2764SOL    HW120171   2.833   3.658   5.567
 2764SOL    HW220172   2.837   3.703   5.711
 2765SOL     OW20173   1.870   3.915   1.662
 2765SOL    HW120174   1.933   3.974   1.620
 2765SOL    HW220175   1.879   3.832   1.615
 2766SOL     OW20176   3.398   3.628   3.407
 2766SOL    HW120177   3.344   3.640   3.485
 2766SOL    HW220178   3.377   3.539   3.378
 2767SOL     OW20179   4.339   4.374  15.941
 2767SOL    HW120180   4.376   4.341  16.023
 2767SOL    HW220181   4.320   4.466  15.958
 2768SOL     OW20182   3.726   4.495  14.367
 2768SOL    HW120183   3.700   4.534  14.284
 2768SOL    HW220184   3.784   4.561  14.406
 2769SOL     OW20185   2.575   4.426   4.073
 2769SOL    HW120186   2.489   4.383   4.080
 2769SOL    HW220187   2.628   4.365   4.021
 2770SOL     OW20188   0.099   0.267  15.888
 2770SOL    HW120189   0.055   0.250  15.804
 2770SOL    HW220190   0.033   0.311  15.941
 2771SOL     OW20191   4.443   3.030   3.939
 2771SOL    HW120192   4.510   3.098   3.934
 2771SOL    HW220193   4.411   3.034   4.029
 2772SOL     OW20194   3.300   3.691   0.970
 2772SOL    HW120195   3.337   3.765   1.018
 2772SOL    HW220196   3.229   3.660   1.025
 2773SOL     OW20197   2.733   3.820  19.354
 2773SOL    HW120198   2.660   3.766  19.384
 2773SOL    HW220199   2.693   3.904  19.332
 2774SOL     OW20200   1.313   2.331   5.891
 2774SOL    HW120201   1.267   2.254   5.923
 2774SOL    HW220202   1.405   2.308   5.896
 2775SOL     OW20203   0.099   0.525  18.159
 2775SOL    HW120204   0.077   0.568  18.241
 2775SOL    HW220205   0.031   0.459  18.147
 2776SOL     OW20206   1.517   1.698   4.703
 2776SOL    HW120207   1.561   1.690   4.788
 2776SOL    HW220208   1.567   1.641   4.645
 2777SOL     OW20209   2.517   3.735   1.271
 2777SOL    HW120210   2.546   3.724   1.181
 2777SOL    HW220211   2.424   3.758   1.263
 2778SOL     OW20212   3.789   1.748  17.041
 2778SOL    HW120213   3.761   1.839  17.050
 2778SOL    HW220214   3.719   1.705  16.993
 2779SOL     OW20215   3.316   1.081  21.022
 2779SOL    HW120216   3.366   1.015  20.974
 2779SOL    HW220217   3.382   1.130  21.072
 2780SOL     OW20218   3.814   3.398  18.947
 2780SOL    HW120219   3.837   3.488  18.926
 2780SOL    HW220220   3.897   3.351  18.944
 2781SOL     OW20221   2.074   3.885  20.999
 2781SOL    HW120222   2.030   3.941  20.934
 2781SOL    HW220223   2.075   3.798  20.958
 2782SOL     OW20224   1.379   0.235   1.972
 2782SOL    HW120225   1.312   0.285   1.926
 2782SOL    HW220226   1.457   0.242   1.916
 2783SOL     OW20227   1.594   0.523  17.378
 2783SOL    HW120228   1.580   0.428  17.383
 2783SOL    HW220229   1.685   0.533  17.348
 2784SOL     OW20230   1.126   4.613  12.805
 2784SOL    HW120231   1.168   4.527  12.802
 2784SOL    HW220232   1.116   4.638  12.713
 2785SOL     OW20233   4.725   2.808   0.479
 2785SOL    HW120234   4.685   2.797   0.565
 2785SOL    HW220235   4.763   2.895   0.481
 2786SOL     OW20236   1.686   2.153  18.515
 2786SOL    HW120237   1.689   2.185  18.605
 2786SOL    HW220238   1.726   2.223  18.464
 2787SOL     OW20239   0.460   4.270  18.752
 2787SOL    HW120240   0.416   4.353  18.735
 2787SOL    HW220241   0.415   4.206  18.697
 2788SOL     OW20242   2.434   4.731  16.329
 2788SOL    HW120243   2.494   4.788  16.376
 2788SOL    HW220244   2.405   4.783  16.254
 2789SOL     OW20245   0.595   1.335  20.837
 2789SOL    HW120246   0.552   1.322  20.752
 2789SOL    HW220247   0.676   1.284  20.831
 2790SOL     OW20248   0.425   3.806  15.651
 2790SOL    HW120249   0.468   3.801  15.737
 2790SOL    HW220250   0.436   3.898  15.625
 2791SOL     OW20251   3.166   4.208  15.413
 2791SOL    HW120252   3.103   4.279  15.399
 2791SOL    HW220253   3.136   4.166  15.494
 2792SOL     OW20254   0.526   1.821   4.951
 2792SOL    HW120255   0.606   1.780   4.918
 2792SOL    HW220256   0.469   1.826   4.874
 2793SOL     OW20257   0.684   0.261  20.929
 2793SOL    HW120258   0.775   0.279  20.952
 2793SOL    HW220259   0.659   0.188  20.984
 2794SOL     OW20260   4.188   2.570   0.007
 2794SOL    HW120261   4.114   2.623  21.251
 2794SOL    HW220262   4.208   2.603   0.095
 2795SOL     OW20263   2.279   2.337  15.369
 2795SOL    HW120264   2.289   2.278  15.444
 2795SOL    HW220265   2.215   2.402  15.397
 2796SOL     OW20266   2.239   3.664  18.062
 2796SOL    HW120267   2.216   3.686  17.971
 2796SOL    HW220268   2.229   3.569  18.066
 2797SOL     OW20269   1.328   4.694   3.837
 2797SOL    HW120270   1.328   4.698   3.933
 2797SOL    HW220271   1.398   4.632   3.816
 2798SOL     OW20272   0.010   2.626  18.111
 2798SOL    HW120273   4.723   2.639  18.162
 2798SOL    HW220274   0.055   2.710  18.114
 2799SOL     OW20275   1.206   4.387   3.179
 2799SOL    HW120276   1.289   4.435   3.179
 2799SOL    HW220277   1.232   4.296   3.190
 2800SOL     OW20278   1.604   1.480   6.015
 2800SOL    HW120279   1.636   1.424   5.945
 2800SOL    HW220280   1.672   1.546   6.026
 2801SOL     OW20281   3.085   2.190   6.220
 2801SOL    HW120282   3.009   2.243   6.245
 2801SOL    HW220283   3.075   2.109   6.271
 2802SOL     OW20284   0.713   4.637  14.814
 2802SOL    HW120285   0.748   4.726  14.817
 2802SOL    HW220286   0.790   4.581  14.827
 2803SOL     OW20287   3.431   3.281   5.003
 2803SOL    HW120288   3.357   3.270   4.942
 2803SOL    HW220289   3.506   3.245   4.955
 2804SOL     OW20290   1.994   1.527  18.473
 2804SOL    HW120291   1.905   1.494  18.462
 2804SOL    HW220292   2.049   1.466  18.423
 2805SOL     OW20293   0.876   3.491  20.861
 2805SOL    HW120294   0.855   3.505  20.953
 2805SOL    HW220295   0.792   3.499  20.815
 2806SOL     OW20296   2.853   1.585  18.607
 2806SOL    HW120297   2.848   1.494  18.634
 2806SOL    HW220298   2.930   1.620  18.652
 2807SOL     OW20299   2.447   2.300  19.064
 2807SOL    HW120300   2.383   2.253  19.118
 2807SOL    HW220301   2.426   2.393  19.079
 2808SOL     OW20302   2.627   1.359  18.034
 2808SOL    HW120303   2.708   1.307  18.039
 2808SOL    HW220304   2.568   1.318  18.096
 2809SOL     OW20305   3.184   1.543   5.716
 2809SOL    HW120306   3.169   1.468   5.773
 2809SOL    HW220307   3.268   1.579   5.746
 2810SOL     OW20308   1.937   0.462  16.276
 2810SOL    HW120309   2.019   0.481  16.322
 2810SOL    HW220310   1.914   0.544  16.233
 2811SOL     OW20311   0.690   1.284  16.610
 2811SOL    HW120312   0.770   1.334  16.622
 2811SOL    HW220313   0.699   1.244  16.524
 2812SOL     OW20314   2.959   1.152  17.772
 2812SOL    HW120315   2.915   1.202  17.703
 2812SOL    HW220316   3.044   1.195  17.783
 2813SOL     OW20317   1.252   4.538   5.418
 2813SOL    HW120318   1.199   4.574   5.348
 2813SOL    HW220319   1.204   4.459   5.446
 2814SOL     OW20320   2.379   1.777   3.626
 2814SOL    HW120321   2.369   1.731   3.543
 2814SOL    HW220322   2.448   1.728   3.672
 2815SOL     OW20323   2.266   1.133  16.145
 2815SOL    HW120324   2.209   1.207  16.127
 2815SOL    HW220325   2.354   1.166  16.128
 2816SOL     OW20326   1.177   0.241  17.672
 2816SOL    HW120327   1.240   0.271  17.607
 2816SOL    HW220328   1.096   0.226  17.623
 2817SOL     OW20329   3.650   1.830  16.645
 2817SOL    HW120330   3.728   1.846  16.592
 2817SOL    HW220331   3.618   1.745  16.616
 2818SOL     OW20332   1.453   4.507   0.564
 2818SOL    HW120333   1.541   4.484   0.536
 2818SOL    HW220334   1.457   4.600   0.584
 2819SOL     OW20335   4.784   0.538   5.503
 2819SOL    HW120336   0.015   0.445   5.501
 2819SOL    HW220337   0.044   0.578   5.434
 2820SOL     OW20338   1.265   0.953  20.409
 2820SOL    HW120339   1.301   0.890  20.346
 2820SOL    HW220340   1.171   0.936  20.410
 2821SOL     OW20341   1.716   0.686   3.170
 2821SOL    HW120342   1.686   0.596   3.159
 2821SOL    HW220343   1.812   0.679   3.172
 2822SOL     OW20344   1.648   2.137   0.426
 2822SOL    HW120345   1.721   2.142   0.488
 2822SOL    HW220346   1.687   2.102   0.346
 2823SOL     OW20347   4.213   0.086  15.506
 2823SOL    HW120348   4.263   0.167  15.519
 2823SOL    HW220349   4.215   0.071  15.412
 2824SOL     OW20350   2.868   0.161  19.107
 2824SOL    HW120351   2.812   0.212  19.048
 2824SOL    HW220352   2.810   0.136  19.179
 2825SOL     OW20353   2.102   4.699  19.614
 2825SOL    HW120354   2.032   4.651  19.659
 2825SOL    HW220355   2.076   4.699  19.522
 2826SOL     OW20356   2.299   0.863   5.069
 2826SOL    HW120357   2.219   0.837   5.023
 2826SOL    HW220358   2.275   0.944   5.114
 2827SOL     OW20359   2.400   0.181   3.913
 2827SOL    HW120360   2.441   0.104   3.875
 2827SOL    HW220361   2.367   0.152   3.998
 2828SOL     OW20362   0.537   0.901  17.613
 2828SOL    HW120363   0.449   0.880  17.583
 2828SOL    HW220364   0.585   0.923  17.534
 2829SOL     OW20365   0.183   3.234   6.568
 2829SOL    HW120366   0.208   3.176   6.640
 2829SOL    HW220367   0.227   3.317   6.587
 2830SOL     OW20368   2.082   2.328   1.633
 2830SOL    HW120369   2.107   2.279   1.555
 2830SOL    HW220370   2.135   2.290   1.703
 2831SOL     OW20371   1.597   2.217  15.904
 2831SOL    HW120372   1.533   2.162  15.859
 2831SOL    HW220373   1.586   2.195  15.996
 2832SOL     OW20374   2.916   3.651  15.903
 2832SOL    HW120375   3.006   3.666  15.932
 2832SOL    HW220376   2.910   3.697  15.819
 2833SOL     OW20377   1.282   1.334  11.851
 2833SOL    HW120378   1.305   1.254  11.899
 2833SOL    HW220379   1.364   1.361  11.809
 2834SOL     OW20380   2.935   2.473   5.199
 2834SOL    HW120381   2.858   2.417   5.190
 2834SOL    HW220382   2.904   2.560   5.174
 2835SOL     OW20383   1.162   4.116   1.244
 2835SOL    HW120384   1.205   4.177   1.303
 2835SOL    HW220385   1.230   4.052   1.222
 2836SOL     OW20386   1.935   4.546  20.415
 2836SOL    HW120387   2.011   4.599  20.440
 2836SOL    HW220388   1.963   4.500  20.336
 2837SOL     OW20389   4.360   1.260   3.014
 2837SOL    HW120390   4.385   1.192   3.077
 2837SOL    HW220391   4.346   1.338   3.067
 2838SOL     OW20392   0.901   4.336   6.592
 2838SOL    HW120393   0.896   4.278   6.668
 2838SOL    HW220394   0.889   4.277   6.517
 2839SOL     OW20395   3.461   1.860  19.029
 2839SOL    HW120396   3.504   1.884  19.111
 2839SOL    HW220397   3.513   1.903  18.962
 2840SOL     OW20398   2.885   1.972  20.283
 2840SOL    HW120399   2.972   1.975  20.243
 2840SOL    HW220400   2.875   2.059  20.323
 2841SOL     OW20401   1.678   1.365  18.792
 2841SOL    HW120402   1.676   1.279  18.834
 2841SOL    HW220403   1.729   1.419  18.852
 2842SOL     OW20404   2.797   2.564   6.088
 2842SOL    HW120405   2.705   2.590   6.078
 2842SOL    HW220406   2.827   2.547   5.999
 2843SOL     OW20407   3.856   1.275  16.046
 2843SOL    HW120408   3.825   1.348  15.993
 2843SOL    HW220409   3.882   1.315  16.129
 2844SOL     OW20410   1.235   0.166   6.248
 2844SOL    HW120411   1.175   0.101   6.212
 2844SOL    HW220412   1.277   0.122   6.322
 2845SOL     OW20413   1.691   3.152   5.873
 2845SOL    HW120414   1.710   3.166   5.966
 2845SOL    HW220415   1.629   3.080   5.871
 2846SOL     OW20416   3.838   2.598   2.856
 2846SOL    HW120417   3.886   2.570   2.934
 2846SOL    HW220418   3.747   2.578   2.876
 2847SOL     OW20419   3.907   0.322   2.877
 2847SOL    HW120420   3.942   0.350   2.792
 2847SOL    HW220421   3.946   0.236   2.891
 2848SOL     OW20422   2.576   4.492  14.008
 2848SOL    HW120423   2.534   4.502  14.094
 2848SOL    HW220424   2.666   4.522  14.023
 2849SOL     OW20425   3.784   1.041  20.384
 2849SOL    HW120426   3.860   1.019  20.438
 2849SOL    HW220427   3.776   0.968  20.323
 2850SOL     OW20428   4.133   4.381   5.996
 2850SOL    HW120429   4.201   4.427   6.044
 2850SOL    HW220430   4.053   4.399   6.045
 2851SOL     OW20431   3.391   1.129  20.069
 2851SOL    HW120432   3.476   1.143  20.028
 2851SOL    HW220433   3.355   1.052  20.024
 2852SOL     OW20434   1.006   1.716  19.884
 2852SOL    HW120435   0.924   1.690  19.842
 2852SOL    HW220436   0.978   1.766  19.961
 2853SOL     OW20437   0.807   2.765  15.326
 2853SOL    HW120438   0.889   2.812  15.341
 2853SOL    HW220439   0.828   2.673  15.342
 2854SOL     OW20440   1.823   1.658   4.887
 2854SOL    HW120441   1.774   1.584   4.853
 2854SOL    HW220442   1.758   1.712   4.932
 2855SOL     OW20443   2.705   0.939   1.508
 2855SOL    HW120444   2.651   0.926   1.586
 2855SOL    HW220445   2.793   0.915   1.535
 2856SOL     OW20446   3.678   3.745  20.108
 2856SOL    HW120447   3.634   3.775  20.187
 2856SOL    HW220448   3.618   3.769  20.037
 2857SOL     OW20449   0.462   4.239  20.542
 2857SOL    HW120450   0.406   4.203  20.474
 2857SOL    HW220451   0.539   4.272  20.496
 2858SOL     OW20452   0.999   0.950   1.163
 2858SOL    HW120453   0.985   0.964   1.256
 2858SOL    HW220454   1.069   0.884   1.158
 2859SOL     OW20455   3.834   3.987   5.213
 2859SOL    HW120456   3.777   3.942   5.152
 2859SOL    HW220457   3.918   3.993   5.167
 2860SOL     OW20458   3.252   4.546   6.211
 2860SOL    HW120459   3.318   4.499   6.261
 2860SOL    HW220460   3.202   4.594   6.276
 2861SOL     OW20461   3.015   3.014  21.169
 2861SOL    HW120462   2.989   3.106  21.161
 2861SOL    HW220463   2.997   2.992  21.261
 2862SOL     OW20464   4.015   2.903   4.106
 2862SOL    HW120465   4.110   2.905   4.101
 2862SOL    HW220466   3.994   2.820   4.149
 2863SOL     OW20467   4.379   4.085   3.281
 2863SOL    HW120468   4.314   4.019   3.304
 2863SOL    HW220469   4.328   4.157   3.244
 2864SOL     OW20470   4.195   0.809  18.674
 2864SOL    HW120471   4.264   0.754  18.636
 2864SOL    HW220472   4.219   0.818  18.766
 2865SOL     OW20473   3.754   0.013  14.907
 2865SOL    HW120474   3.773   0.011  14.813
 2865SOL    HW220475   3.660   4.790  14.914
 2866SOL     OW20476   0.731   1.962  17.526
 2866SOL    HW120477   0.783   1.906  17.583
 2866SOL    HW220478   0.763   1.944  17.437
 2867SOL     OW20479   1.845   1.749  16.419
 2867SOL    HW120480   1.816   1.798  16.341
 2867SOL    HW220481   1.940   1.744  16.410
 2868SOL     OW20482   1.058   3.874  19.860
 2868SOL    HW120483   1.088   3.963  19.876
 2868SOL    HW220484   1.116   3.841  19.791
 2869SOL     OW20485   3.798   3.732   1.713
 2869SOL    HW120486   3.728   3.777   1.665
 2869SOL    HW220487   3.865   3.799   1.726
 2870SOL     OW20488   2.731   3.065   5.193
 2870SOL    HW120489   2.712   3.016   5.114
 2870SOL    HW220490   2.675   3.143   5.187
 2871SOL     OW20491   0.519   3.223   0.732
 2871SOL    HW120492   0.537   3.165   0.657
 2871SOL    HW220493   0.520   3.311   0.695
 2872SOL     OW20494   0.622   3.416   2.083
 2872SOL    HW120495   0.575   3.432   2.002
 2872SOL    HW220496   0.553   3.395   2.147
 2873SOL     OW20497   2.235   1.652   6.868
 2873SOL    HW120498   2.234   1.737   6.913
 2873SOL    HW220499   2.276   1.671   6.784
 2874SOL     OW20500   4.143   3.485  17.721
 2874SOL    HW120501   4.126   3.432  17.643
 2874SOL    HW220502   4.056   3.498  17.760
 2875SOL     OW20503   1.858   3.079   2.551
 2875SOL    HW120504   1.787   3.015   2.550
 2875SOL    HW220505   1.821   3.155   2.597
 2876SOL     OW20506   0.760   4.114   6.126
 2876SOL    HW120507   0.763   4.094   6.032
 2876SOL    HW220508   0.681   4.070   6.157
 2877SOL     OW20509   3.685   2.194   8.687
 2877SOL    HW120510   3.754   2.139   8.723
 2877SOL    HW220511   3.729   2.276   8.665
 2878SOL     OW20512   1.542   3.298  15.762
 2878SOL    HW120513   1.573   3.386  15.783
 2878SOL    HW220514   1.515   3.262  15.847
 2879SOL     OW20515   3.465   3.485   1.100
 2879SOL    HW120516   3.377   3.484   1.136
 2879SOL    HW220517   3.454   3.471   1.006
 2880SOL     OW20518   3.866   4.744  19.119
 2880SOL    HW120519   3.927   4.759  19.191
 2880SOL    HW220520   3.786   4.791  19.146
 2881SOL     OW20521   2.500   1.936  19.166
 2881SOL    HW120522   2.416   1.981  19.179
 2881SOL    HW220523   2.476   1.852  19.128
 2882SOL     OW20524   0.284   4.297  19.571
 2882SOL    HW120525   0.325   4.257  19.648
 2882SOL    HW220526   0.268   4.223  19.512
 2883SOL     OW20527   2.551   3.028  15.256
 2883SOL    HW120528   2.535   3.123  15.259
 2883SOL    HW220529   2.645   3.019  15.241
 2884SOL     OW20530   2.024   2.353   6.288
 2884SOL    HW120531   2.112   2.352   6.251
 2884SOL    HW220532   2.008   2.263   6.315
 2885SOL     OW20533   2.334   3.305   2.943
 2885SOL    HW120534   2.277   3.356   2.886
 2885SOL    HW220535   2.418   3.303   2.898
 2886SOL     OW20536   1.052   3.228  19.186
 2886SOL    HW120537   1.026   3.137  19.202
 2886SOL    HW220538   1.142   3.234  19.217
 2887SOL     OW20539   0.135   3.973  14.934
 2887SOL    HW120540   0.105   3.933  15.016
 2887SOL    HW220541   0.084   3.930  14.866
 2888SOL     OW20542   3.439   2.044   0.973
 2888SOL    HW120543   3.382   2.038   1.050
 2888SOL    HW220544   3.495   2.120   0.991
 2889SOL     OW20545   2.858   2.169   3.580
 2889SOL    HW120546   2.814   2.232   3.523
 2889SOL    HW220547   2.796   2.154   3.651
 2890SOL     OW20548   2.402   1.682   5.258
 2890SOL    HW120549   2.414   1.777   5.254
 2890SOL    HW220550   2.458   1.655   5.331
 2891SOL     OW20551   4.184   1.625  14.185
 2891SOL    HW120552   4.176   1.539  14.143
 2891SOL    HW220553   4.269   1.659  14.156
 2892SOL     OW20554   2.483   1.342   1.416
 2892SOL    HW120555   2.556   1.315   1.359
 2892SOL    HW220556   2.493   1.289   1.495
 2893SOL     OW20557   0.743   4.260   7.398
 2893SOL    HW120558   0.689   4.336   7.377
 2893SOL    HW220559   0.833   4.290   7.384
 2894SOL     OW20560   1.565   0.196  16.628
 2894SOL    HW120561   1.562   0.280  16.582
 2894SOL    HW220562   1.553   0.219  16.721
 2895SOL     OW20563   1.791   3.445  17.439
 2895SOL    HW120564   1.765   3.371  17.385
 2895SOL    HW220565   1.709   3.491  17.458
 2896SOL     OW20566   0.370   0.720  18.987
 2896SOL    HW120567   0.381   0.652  18.920
 2896SOL    HW220568   0.315   0.680  19.054
 2897SOL     OW20569   2.271   0.642  14.538
 2897SOL    HW120570   2.315   0.596  14.466
 2897SOL    HW220571   2.180   0.648  14.511
 2898SOL     OW20572   0.520   3.256  20.929
 2898SOL    HW120573   0.599   3.281  20.882
 2898SOL    HW220574   0.466   3.336  20.929
 2899SOL     OW20575   1.429   2.618  14.237
 2899SOL    HW120576   1.515   2.653  14.259
 2899SOL    HW220577   1.368   2.691  14.250
 2900SOL     OW20578   3.136   4.081   1.214
 2900SOL    HW120579   3.114   4.170   1.240
 2900SOL    HW220580   3.052   4.037   1.203
 2901SOL     OW20581   4.532   0.156  17.244
 2901SOL    HW120582   4.455   0.151  17.187
 2901SOL    HW220583   4.601   0.192  17.188
 2902SOL     OW20584   0.197   3.831  16.556
 2902SOL    HW120585   0.126   3.813  16.495
 2902SOL    HW220586   0.168   3.908  16.605
 2903SOL     OW20587   0.599   0.405   0.005
 2903SOL    HW120588   0.644   0.405   0.089
 2903SOL    HW220589   0.618   0.318  21.241
 2904SOL     OW20590   3.517   2.622   1.589
 2904SOL    HW120591   3.612   2.620   1.592
 2904SOL    HW220592   3.496   2.697   1.532
 2905SOL     OW20593   3.161   2.907  13.623
 2905SOL    HW120594   3.247   2.871  13.642
 2905SOL    HW220595   3.177   2.999  13.602
 2906SOL     OW20596   0.561   1.812  16.583
 2906SOL    HW120597   0.572   1.723  16.552
 2906SOL    HW220598   0.644   1.855  16.563
 2907SOL     OW20599   3.009   3.090   1.075
 2907SOL    HW120600   2.941   3.050   1.128
 2907SOL    HW220601   2.992   3.184   1.080
 2908SOL     OW20602   3.461   1.260   0.735
 2908SOL    HW120603   3.536   1.298   0.689
 2908SOL    HW220604   3.472   1.166   0.727
 2909SOL     OW20605   0.458   0.726   1.605
 2909SOL    HW120606   0.504   0.669   1.545
 2909SOL    HW220607   0.412   0.667   1.665
 2910SOL     OW20608   4.688   2.746  15.791
 2910SOL    HW120609   4.678   2.759  15.886
 2910SOL    HW220610   4.777   2.774  15.772
 2911SOL     OW20611   1.900   0.722   1.939
 2911SOL    HW120612   1.931   0.689   1.855
 2911SOL    HW220613   1.812   0.756   1.921
 2912SOL     OW20614   1.957   1.174   2.859
 2912SOL    HW120615   2.026   1.166   2.793
 2912SOL    HW220616   1.876   1.180   2.809
 2913SOL     OW20617   4.183   1.423   2.722
 2913SOL    HW120618   4.205   1.501   2.773
 2913SOL    HW220619   4.237   1.353   2.760
 2914SOL     OW20620   0.498   1.095  18.045
 2914SOL    HW120621   0.559   1.132  18.109
 2914SOL    HW220622   0.550   1.034  17.994
 2915SOL     OW20623   4.419   0.290   0.030
 2915SOL    HW120624   4.420   0.212   0.086
 2915SOL    HW220625   4.426   0.255  21.213
 2916SOL     OW20626   2.433   2.856   3.462
 2916SOL    HW120627   2.422   2.809   3.544
 2916SOL    HW220628   2.353   2.908   3.452
 2917SOL     OW20629   1.825   4.446  16.546
 2917SOL    HW120630   1.770   4.413  16.617
 2917SOL    HW220631   1.785   4.411  16.466
 2918SOL     OW20632   3.497   3.366  19.732
 2918SOL    HW120633   3.565   3.378  19.799
 2918SOL    HW220634   3.517   3.432  19.666
 2919SOL     OW20635   3.230   4.185   0.630
 2919SOL    HW120636   3.283   4.225   0.699
 2919SOL    HW220637   3.180   4.117   0.676
 2920SOL     OW20638   1.660   4.602   0.995
 2920SOL    HW120639   1.742   4.553   1.003
 2920SOL    HW220640   1.669   4.649   0.911
 2921SOL     OW20641   3.016   0.860   1.933
 2921SOL    HW120642   3.067   0.880   2.012
 2921SOL    HW220643   2.933   0.825   1.967
 2922SOL     OW20644   2.569   1.554   0.892
 2922SOL    HW120645   2.658   1.561   0.925
 2922SOL    HW220646   2.538   1.644   0.884
 2923SOL     OW20647   1.808   3.888   8.964
 2923SOL    HW120648   1.842   3.931   8.886
 2923SOL    HW220649   1.878   3.828   8.991
 2924SOL     OW20650   4.068   0.230  19.963
 2924SOL    HW120651   4.150   0.188  19.936
 2924SOL    HW220652   4.094   0.319  19.988
 2925SOL     OW20653   1.477   4.199  17.296
 2925SOL    HW120654   1.404   4.182  17.356
 2925SOL    HW220655   1.439   4.253  17.227
 2926SOL     OW20656   1.464   1.064   0.059
 2926SOL    HW120657   1.398   1.099   0.119
 2926SOL    HW220658   1.490   0.981   0.098
 2927SOL     OW20659   3.478   2.014   0.055
 2927SOL    HW120660   3.471   2.071   0.132
 2927SOL    HW220661   3.403   2.038   0.001
 2928SOL     OW20662   1.395   3.529  19.619
 2928SOL    HW120663   1.484   3.493  19.623
 2928SOL    HW220664   1.338   3.453  19.624
 2929SOL     OW20665   2.693   0.993  17.132
 2929SOL    HW120666   2.744   0.939  17.192
 2929SOL    HW220667   2.712   1.083  17.159
 2930SOL     OW20668   4.394   0.818   5.060
 2930SOL    HW120669   4.344   0.889   5.019
 2930SOL    HW220670   4.370   0.740   5.009
 2931SOL     OW20671   2.969   2.923   6.124
 2931SOL    HW120672   2.877   2.930   6.100
 2931SOL    HW220673   2.989   3.007   6.167
 2932SOL     OW20674   0.946   4.417   2.397
 2932SOL    HW120675   0.916   4.393   2.485
 2932SOL    HW220676   0.987   4.503   2.408
 2933SOL     OW20677   3.529   2.055   1.935
 2933SOL    HW120678   3.569   1.981   1.980
 2933SOL    HW220679   3.561   2.048   1.845
 2934SOL     OW20680   1.119   2.864   2.238
 2934SOL    HW120681   1.042   2.812   2.263
 2934SOL    HW220682   1.111   2.944   2.288
 2935SOL     OW20683   3.624   3.668   6.824
 2935SOL    HW120684   3.567   3.595   6.847
 2935SOL    HW220685   3.567   3.745   6.831
 2936SOL     OW20686   4.331   1.682   8.070
 2936SOL    HW120687   4.427   1.682   8.068
 2936SOL    HW220688   4.306   1.664   7.979
 2937SOL     OW20689   1.542   4.359  16.231
 2937SOL    HW120690   1.535   4.348  16.325
 2937SOL    HW220691   1.572   4.274  16.198
 2938SOL     OW20692   3.919   3.332  14.046
 2938SOL    HW120693   3.843   3.298  14.091
 2938SOL    HW220694   3.885   3.402  13.990
 2939SOL     OW20695   2.181   1.479  16.793
 2939SOL    HW120696   2.125   1.452  16.720
 2939SOL    HW220697   2.248   1.534  16.753
 2940SOL     OW20698   3.165   2.125  17.249
 2940SOL    HW120699   3.223   2.115  17.325
 2940SOL    HW220700   3.082   2.087  17.278
 2941SOL     OW20701   2.826   2.160   1.330
 2941SOL    HW120702   2.800   2.192   1.243
 2941SOL    HW220703   2.828   2.239   1.384
 2942SOL     OW20704   0.866   0.031  15.560
 2942SOL    HW120705   0.890   4.746  15.510
 2942SOL    HW220706   0.918   0.027  15.640
 2943SOL     OW20707   4.403   1.448  17.002
 2943SOL    HW120708   4.452   1.401  17.069
 2943SOL    HW220709   4.352   1.513  17.050
 2944SOL     OW20710   2.060   4.492   9.246
 2944SOL    HW120711   2.040   4.580   9.214
 2944SOL    HW220712   2.156   4.489   9.249
 2945SOL     OW20713   0.047   1.298  16.201
 2945SOL    HW120714   0.105   1.334  16.134
 2945SOL    HW220715   4.778   1.369  16.219
 2946SOL     OW20716   4.714   0.438  16.526
 2946SOL    HW120717   4.785   0.465  16.585
 2946SOL    HW220718   4.687   0.352  16.558
 2947SOL     OW20719   1.608   4.419   9.845
 2947SOL    HW120720   1.700   4.403   9.824
 2947SOL    HW220721   1.600   4.514   9.851
 2948SOL     OW20722   0.895   0.340  12.224
 2948SOL    HW120723   0.843   0.376  12.152
 2948SOL    HW220724   0.952   0.275  12.182
 2949SOL     OW20725   1.782   3.370  13.824
 2949SOL    HW120726   1.859   3.384  13.880
 2949SOL    HW220727   1.818   3.341  13.741
 2950SOL     OW20728   1.888   2.005  15.847
 2950SOL    HW120729   1.932   2.053  15.918
 2950SOL    HW220730   1.945   2.019  15.771
 2951SOL     OW20731   3.162   3.604  19.944
 2951SOL    HW120732   3.163   3.556  19.862
 2951SOL    HW220733   3.247   3.585  19.984
 2952SOL     OW20734   2.943   1.299  17.554
 2952SOL    HW120735   3.037   1.307  17.567
 2952SOL    HW220736   2.919   1.374  17.499
 2953SOL     OW20737   4.484   2.899  16.489
 2953SOL    HW120738   4.555   2.963  16.483
 2953SOL    HW220739   4.526   2.821  16.526
 2954SOL     OW20740   3.777   3.068   3.291
 2954SOL    HW120741   3.868   3.087   3.268
 2954SOL    HW220742   3.743   3.021   3.214
 2955SOL     OW20743   2.619   4.742   2.105
 2955SOL    HW120744   2.649   4.658   2.071
 2955SOL    HW220745   2.699   4.786   2.135
 2956SOL     OW20746   1.673   2.963  16.375
 2956SOL    HW120747   1.658   3.056  16.394
 2956SOL    HW220748   1.759   2.960  16.333
 2957SOL     OW20749   1.455   1.443  12.955
 2957SOL    HW120750   1.496   1.411  13.035
 2957SOL    HW220751   1.380   1.495  12.984
 2958SOL     OW20752   1.944   3.275   3.738
 2958SOL    HW120753   1.900   3.208   3.686
 2958SOL    HW220754   1.898   3.356   3.718
 2959SOL     OW20755   3.321   2.506  18.113
 2959SOL    HW120756   3.232   2.537  18.098
 2959SOL    HW220757   3.354   2.559  18.185
 2960SOL     OW20758   0.161   0.574   4.662
 2960SOL    HW120759   0.139   0.518   4.588
 2960SOL    HW220760   0.112   0.655   4.647
 2961SOL     OW20761   0.875   0.757  11.521
 2961SOL    HW120762   0.914   0.796  11.599
 2961SOL    HW220763   0.878   0.663  11.536
 2962SOL     OW20764   2.649   1.720   0.618
 2962SOL    HW120765   2.565   1.767   0.623
 2962SOL    HW220766   2.689   1.733   0.703
 2963SOL     OW20767   3.493   3.858   1.418
 2963SOL    HW120768   3.539   3.776   1.399
 2963SOL    HW220769   3.545   3.899   1.487
 2964SOL     OW20770   1.927   4.055   0.817
 2964SOL    HW120771   1.974   4.104   0.750
 2964SOL    HW220772   1.835   4.082   0.807
 2965SOL     OW20773   3.619   1.620  18.904
 2965SOL    HW120774   3.541   1.645  18.953
 2965SOL    HW220775   3.586   1.575  18.827
 2966SOL     OW20776   1.163   2.031   1.011
 2966SOL    HW120777   1.227   2.095   0.980
 2966SOL    HW220778   1.083   2.050   0.962
 2967SOL     OW20779   4.473   1.608   2.681
 2967SOL    HW120780   4.401   1.591   2.741
 2967SOL    HW220781   4.435   1.664   2.613
 2968SOL     OW20782   2.646   1.642   7.637
 2968SOL    HW120783   2.665   1.624   7.729
 2968SOL    HW220784   2.607   1.729   7.637
 2969SOL     OW20785   4.203   4.680   0.151
 2969SOL    HW120786   4.182   4.589   0.174
 2969SOL    HW220787   4.147   4.699   0.076
 2970SOL     OW20788   4.487   0.834   2.083
 2970SOL    HW120789   4.403   0.854   2.042
 2970SOL    HW220790   4.522   0.919   2.110
 2971SOL     OW20791   3.226   4.231   4.705
 2971SOL    HW120792   3.272   4.284   4.640
 2971SOL    HW220793   3.163   4.180   4.655
 2972SOL     OW20794   1.373   4.676  13.394
 2972SOL    HW120795   1.461   4.687  13.429
 2972SOL    HW220796   1.384   4.675  13.299
 2973SOL     OW20797   1.764   1.000   6.135
 2973SOL    HW120798   1.683   0.971   6.095
 2973SOL    HW220799   1.833   0.958   6.084
 2974SOL     OW20800   1.150   1.849  21.255
 2974SOL    HW120801   1.135   1.944  21.251
 2974SOL    HW220802   1.242   1.840   0.005
 2975SOL     OW20803   2.005   2.833   1.394
 2975SOL    HW120804   1.949   2.841   1.471
 2975SOL    HW220805   1.952   2.864   1.321
 2976SOL     OW20806   0.257   2.848   8.306
 2976SOL    HW120807   0.174   2.893   8.291
 2976SOL    HW220808   0.306   2.907   8.364
 2977SOL     OW20809   1.440   3.372  14.983
 2977SOL    HW120810   1.357   3.411  14.955
 2977SOL    HW220811   1.507   3.434  14.956
 2978SOL     OW20812   2.096   1.877   0.906
 2978SOL    HW120813   2.038   1.845   0.837
 2978SOL    HW220814   2.113   1.968   0.883
 2979SOL     OW20815   3.422   4.510   7.889
 2979SOL    HW120816   3.350   4.528   7.950
 2979SOL    HW220817   3.384   4.450   7.825
 2980SOL     OW20818   4.234   1.484   4.236
 2980SOL    HW120819   4.300   1.529   4.184
 2980SOL    HW220820   4.270   1.396   4.250
 2981SOL     OW20821   3.615   1.628   0.408
 2981SOL    HW120822   3.573   1.713   0.402
 2981SOL    HW220823   3.556   1.568   0.363
 2982SOL     OW20824   0.254   3.255   6.104
 2982SOL    HW120825   0.343   3.274   6.133
 2982SOL    HW220826   0.205   3.335   6.123
 2983SOL     OW20827   3.704   3.704  19.715
 2983SOL    HW120828   3.631   3.731  19.770
 2983SOL    HW220829   3.731   3.619  19.749
 2984SOL     OW20830   4.501   4.363  19.683
 2984SOL    HW120831   4.407   4.350  19.671
 2984SOL    HW220832   4.509   4.410  19.766
 2985SOL     OW20833   1.134   2.322  20.509
 2985SOL    HW120834   1.195   2.248  20.511
 2985SOL    HW220835   1.053   2.285  20.473
 2986SOL     OW20836   2.001   2.495  15.400
 2986SOL    HW120837   1.935   2.560  15.421
 2986SOL    HW220838   1.964   2.412  15.430
 2987SOL     OW20839   0.097   1.971   5.589
 2987SOL    HW120840   0.143   2.043   5.632
 2987SOL    HW220841   0.029   2.014   5.536
 2988SOL     OW20842   1.205   0.391   1.318
 2988SOL    HW120843   1.195   0.363   1.227
 2988SOL    HW220844   1.209   0.309   1.368
 2989SOL     OW20845   3.027   2.179  14.209
 2989SOL    HW120846   3.010   2.227  14.290
 2989SOL    HW220847   2.966   2.216  14.146
 2990SOL     OW20848   0.510   2.294  15.951
 2990SOL    HW120849   0.530   2.327  15.864
 2990SOL    HW220850   0.588   2.245  15.977
 2991SOL     OW20851   4.746   2.246  15.789
 2991SOL    HW120852   0.035   2.209  15.820
 2991SOL    HW220853   4.701   2.276  15.868
 2992SOL     OW20854   1.671   1.005   2.677
 2992SOL    HW120855   1.687   1.027   2.585
 2992SOL    HW220856   1.684   1.088   2.723
 2993SOL     OW20857   3.996   3.237   5.789
 2993SOL    HW120858   3.983   3.145   5.765
 2993SOL    HW220859   4.083   3.240   5.830
 2994SOL     OW20860   0.288   3.792  15.177
 2994SOL    HW120861   0.210   3.750  15.212
 2994SOL    HW220862   0.353   3.784  15.246
 2995SOL     OW20863   4.650   2.855   4.628
 2995SOL    HW120864   4.691   2.888   4.548
 2995SOL    HW220865   4.558   2.880   4.619
 2996SOL     OW20866   3.803   3.277  19.351
 2996SOL    HW120867   3.894   3.248  19.345
 2996SOL    HW220868   3.758   3.206  19.397
 2997SOL     OW20869   0.963   0.615   5.210
 2997SOL    HW120870   1.034   0.648   5.155
 2997SOL    HW220871   1.006   0.566   5.279
 2998SOL     OW20872   0.629   2.519  21.001
 2998SOL    HW120873   0.609   2.485  21.088
 2998SOL    HW220874   0.719   2.489  20.984
 2999SOL     OW20875   3.011   0.331  19.796
 2999SOL    HW120876   3.015   0.422  19.823
 2999SOL    HW220877   3.084   0.320  19.735
 3000SOL     OW20878   3.179   1.957   1.155
 3000SOL    HW120879   3.124   2.001   1.090
 3000SOL    HW220880   3.125   1.953   1.233
 3001SOL     OW20881   4.230   1.959  21.021
 3001SOL    HW120882   4.176   1.881  21.030
 3001SOL    HW220883   4.175   2.021  20.973
 3002SOL     OW20884   2.511   2.935   8.067
 3002SOL    HW120885   2.519   3.010   8.009
 3002SOL    HW220886   2.568   2.956   8.141
 3003SOL     OW20887   0.362   2.441   4.918
 3003SOL    HW120888   0.328   2.506   4.980
 3003SOL    HW220889   0.375   2.362   4.971
 3004SOL     OW20890   2.524   4.697  18.047
 3004SOL    HW120891   2.499   4.788  18.034
 3004SOL    HW220892   2.617   4.694  18.024
 3005SOL     OW20893   2.938   1.934  17.965
 3005SOL    HW120894   2.948   2.025  17.992
 3005SOL    HW220895   2.930   1.939  17.870
 3006SOL     OW20896   0.953   0.521  18.976
 3006SOL    HW120897   0.961   0.499  19.069
 3006SOL    HW220898   0.986   0.443  18.931
 3007SOL     OW20899   0.664   3.040   4.097
 3007SOL    HW120900   0.726   3.098   4.054
 3007SOL    HW220901   0.707   3.014   4.179
 3008SOL     OW20902   1.964   2.660   5.349
 3008SOL    HW120903   2.054   2.665   5.382
 3008SOL    HW220904   1.970   2.602   5.273
 3009SOL     OW20905   1.651   0.435  17.021
 3009SOL    HW120906   1.725   0.462  17.074
 3009SOL    HW220907   1.578   0.489  17.051
 3010SOL     OW20908   2.716   2.791   0.172
 3010SOL    HW120909   2.691   2.750   0.255
 3010SOL    HW220910   2.681   2.880   0.177
 3011SOL     OW20911   0.039   3.132   1.424
 3011SOL    HW120912   0.025   3.132   1.329
 3011SOL    HW220913   4.792   3.213   1.454
 3012SOL     OW20914   4.769   4.608  19.920
 3012SOL    HW120915   4.717   4.689  19.920
 3012SOL    HW220916   0.009   4.602  19.830
 3013SOL     OW20917   4.484   4.338   0.920
 3013SOL    HW120918   4.571   4.365   0.890
 3013SOL    HW220919   4.475   4.375   1.007
 3014SOL     OW20920   0.175   4.207  20.161
 3014SOL    HW120921   0.184   4.200  20.256
 3014SOL    HW220922   0.141   4.296  20.147
 3015SOL     OW20923   3.129   2.015   1.796
 3015SOL    HW120924   3.157   1.994   1.885
 3015SOL    HW220925   3.042   2.053   1.806
 3016SOL     OW20926   4.381   4.014  16.017
 3016SOL    HW120927   4.391   4.083  15.951
 3016SOL    HW220928   4.316   4.047  16.078
 3017SOL     OW20929   2.650   1.483  19.040
 3017SOL    HW120930   2.625   1.442  19.123
 3017SOL    HW220931   2.586   1.452  18.977
 3018SOL     OW20932   1.159   4.031  16.796
 3018SOL    HW120933   1.068   4.008  16.813
 3018SOL    HW220934   1.202   3.948  16.778
 3019SOL     OW20935   2.725   3.341  18.346
 3019SOL    HW120936   2.719   3.372  18.436
 3019SOL    HW220937   2.725   3.245  18.353
 3020SOL     OW20938   4.531   1.197  15.604
 3020SOL    HW120939   4.601   1.156  15.654
 3020SOL    HW220940   4.486   1.253  15.668
 3021SOL     OW20941   2.378   2.273  18.755
 3021SOL    HW120942   2.307   2.315  18.803
 3021SOL    HW220943   2.370   2.180  18.779
 3022SOL     OW20944   0.310   1.678   2.953
 3022SOL    HW120945   0.309   1.613   2.883
 3022SOL    HW220946   0.389   1.729   2.937
 3023SOL     OW20947   2.473   3.835  16.387
 3023SOL    HW120948   2.535   3.777  16.431
 3023SOL    HW220949   2.421   3.873  16.458
 3024SOL     OW20950   1.262   4.421  16.179
 3024SOL    HW120951   1.355   4.410  16.200
 3024SOL    HW220952   1.258   4.413  16.084
 3025SOL     OW20953   0.209   4.494  17.249
 3025SOL    HW120954   0.213   4.407  17.289
 3025SOL    HW220955   0.130   4.533  17.285
 3026SOL     OW20956   3.597   1.646   5.535
 3026SOL    HW120957   3.610   1.664   5.628
 3026SOL    HW220958   3.531   1.710   5.508
 3027SOL     OW20959   0.092   3.809   5.098
 3027SOL    HW120960   0.054   3.742   5.155
 3027SOL    HW220961   0.081   3.891   5.145
 3028SOL     OW20962   1.670   1.074  20.144
 3028SOL    HW120963   1.616   1.127  20.203
 3028SOL    HW220964   1.634   0.986  20.151
 3029SOL     OW20965   2.419   3.635  18.732
 3029SOL    HW120966   2.501   3.683  18.718
 3029SOL    HW220967   2.404   3.589  18.650
 3030SOL     OW20968   4.082   4.488  17.059
 3030SOL    HW120969   4.104   4.507  16.968
 3030SOL    HW220970   4.100   4.395  17.070
 3031SOL     OW20971   3.664   1.901  21.130
 3031SOL    HW120972   3.616   1.831  21.085
 3031SOL    HW220973   3.602   1.936  21.194
 3032SOL     OW20974   2.080   4.328  16.559
 3032SOL    HW120975   2.005   4.360  16.509
 3032SOL    HW220976   2.156   4.350  16.505
 3033SOL     OW20977   1.531   3.754  20.127
 3033SOL    HW120978   1.569   3.818  20.067
 3033SOL    HW220979   1.449   3.727  20.086
 3034SOL     OW20980   2.953   0.827  16.385
 3034SOL    HW120981   2.860   0.811  16.371
 3034SOL    HW220982   2.964   0.921  16.369
 3035SOL     OW20983   4.722   1.033  19.661
 3035SOL    HW120984   4.638   1.078  19.656
 3035SOL    HW220985   4.728   0.983  19.579
 3036SOL     OW20986   3.391   1.667  16.635
 3036SOL    HW120987   3.321   1.605  16.614
 3036SOL    HW220988   3.354   1.721  16.705
 3037SOL     OW20989   1.481   1.450  19.869
 3037SOL    HW120990   1.393   1.465  19.836
 3037SOL    HW220991   1.487   1.356  19.882
 3038SOL     OW20992   1.012   2.614   1.450
 3038SOL    HW120993   0.983   2.562   1.525
 3038SOL    HW220994   1.092   2.656   1.479
 3039SOL     OW20995   0.970   4.684  18.446
 3039SOL    HW120996   0.951   4.674  18.539
 3039SOL    HW220997   0.927   4.608  18.405
 3040SOL     OW20998   0.812   3.879  17.332
 3040SOL    HW120999   0.745   3.821  17.297
 3040SOL    HW221000   0.790   3.888  17.424
 3041SOL     OW21001   3.609   1.859  19.708
 3041SOL    HW121002   3.532   1.802  19.703
 3041SOL    HW221003   3.672   1.820  19.648
 3042SOL     OW21004   1.805   1.175   7.633
 3042SOL    HW121005   1.770   1.206   7.716
 3042SOL    HW221006   1.784   1.244   7.571
 3043SOL     OW21007   3.546   2.095   3.692
 3043SOL    HW121008   3.639   2.117   3.699
 3043SOL    HW221009   3.542   2.001   3.708
 3044SOL     OW21010   0.408   2.532   2.459
 3044SOL    HW121011   0.368   2.593   2.398
 3044SOL    HW221012   0.345   2.460   2.468
 3045SOL     OW21013   2.331   1.086   5.206
 3045SOL    HW121014   2.366   1.173   5.226
 3045SOL    HW221015   2.396   1.026   5.241
 3046SOL     OW21016   3.863   4.220   4.502
 3046SOL    HW121017   3.849   4.133   4.466
 3046SOL    HW221018   3.951   4.244   4.474
 3047SOL     OW21019   2.002   1.068   9.641
 3047SOL    HW121020   2.049   1.014   9.578
 3047SOL    HW221021   1.965   1.140   9.588
 3048SOL     OW21022   3.096   3.036   2.358
 3048SOL    HW121023   3.168   3.069   2.303
 3048SOL    HW221024   3.021   3.031   2.299
 3049SOL     OW21025   0.485   2.537   3.057
 3049SOL    HW121026   0.543   2.554   3.131
 3049SOL    HW221027   0.524   2.461   3.014
 3050SOL     OW21028   1.434   3.085   2.733
 3050SOL    HW121029   1.371   3.156   2.731
 3050SOL    HW221030   1.482   3.097   2.815
 3051SOL     OW21031   4.359   0.118   7.045
 3051SOL    HW121032   4.335   0.124   6.952
 3051SOL    HW221033   4.276   0.104   7.090
 3052SOL     OW21034   1.019   0.849  20.405
 3052SOL    HW121035   0.970   0.782  20.454
 3052SOL    HW221036   0.991   0.836  20.314
 3053SOL     OW21037   1.883   4.635  14.202
 3053SOL    HW121038   1.943   4.619  14.129
 3053SOL    HW221039   1.836   4.552  14.213
 3054SOL     OW21040   4.379   4.757   6.793
 3054SOL    HW121041   4.465   4.738   6.756
 3054SOL    HW221042   4.331   0.005   6.721
 3055SOL     OW21043   1.737   3.815   4.431
 3055SOL    HW121044   1.727   3.909   4.449
 3055SOL    HW221045   1.813   3.789   4.483
 3056SOL     OW21046   2.384   0.957   5.887
 3056SOL    HW121047   2.410   0.955   5.795
 3056SOL    HW221048   2.442   0.895   5.930
 3057SOL     OW21049   0.805   2.506   4.028
 3057SOL    HW121050   0.880   2.483   3.973
 3057SOL    HW221051   0.765   2.422   4.050
 3058SOL     OW21052   2.436   0.864   3.122
 3058SOL    HW121053   2.407   0.881   3.212
 3058SOL    HW221054   2.357   0.833   3.077
 3059SOL     OW21055   3.642   3.795   9.121
 3059SOL    HW121056   3.727   3.763   9.090
 3059SOL    HW221057   3.647   3.890   9.109
 3060SOL     OW21058   0.583   3.529   5.827
 3060SOL    HW121059   0.558   3.438   5.842
 3060SOL    HW221060   0.512   3.565   5.773
 3061SOL     OW21061   3.689   0.194   2.207
 3061SOL    HW121062   3.659   0.114   2.249
 3061SOL    HW221063   3.639   0.198   2.125
 3062SOL     OW21064   2.578   1.748  17.497
 3062SOL    HW121065   2.617   1.679  17.444
 3062SOL    HW221066   2.484   1.742  17.480
 3063SOL     OW21067   0.409   4.603  18.436
 3063SOL    HW121068   0.484   4.654  18.408
 3063SOL    HW221069   0.393   4.542  18.364
 3064SOL     OW21070   4.353   2.049  17.850
 3064SOL    HW121071   4.258   2.039  17.854
 3064SOL    HW221072   4.368   2.109  17.777
 3065SOL     OW21073   2.161   1.892   5.766
 3065SOL    HW121074   2.157   1.864   5.675
 3065SOL    HW221075   2.253   1.911   5.782
 3066SOL     OW21076   2.491   3.437  16.675
 3066SOL    HW121077   2.434   3.396  16.740
 3066SOL    HW221078   2.544   3.365  16.641
 3067SOL     OW21079   1.881   3.628  19.654
 3067SOL    HW121080   1.809   3.564  19.662
 3067SOL    HW221081   1.849   3.692  19.590
 3068SOL     OW21082   3.630   1.536  16.615
 3068SOL    HW121083   3.539   1.566  16.617
 3068SOL    HW221084   3.624   1.441  16.603
 3069SOL     OW21085   4.676   2.588   4.679
 3069SOL    HW121086   4.676   2.684   4.683
 3069SOL    HW221087   4.593   2.562   4.718
 3070SOL     OW21088   4.095   2.428  17.801
 3070SOL    HW121089   4.057   2.366  17.738
 3070SOL    HW221090   4.180   2.452  17.762
 3071SOL     OW21091   2.505   2.851  16.045
 3071SOL    HW121092   2.468   2.774  16.001
 3071SOL    HW221093   2.438   2.919  16.035
 3072SOL     OW21094   1.057   0.122  12.454
 3072SOL    HW121095   1.033   0.106  12.363
 3072SOL    HW221096   1.075   0.035  12.490
 3073SOL     OW21097   0.941   4.111   4.002
 3073SOL    HW121098   0.913   4.119   3.910
 3073SOL    HW221099   0.946   4.201   4.033
 3074SOL     OW21100   3.495   0.630  19.048
 3074SOL    HW121101   3.468   0.707  19.098
 3074SOL    HW221102   3.425   0.566  19.062
 3075SOL     OW21103   4.552   3.566   0.519
 3075SOL    HW121104   4.642   3.591   0.539
 3075SOL    HW221105   4.510   3.558   0.604
 3076SOL     OW21106   0.883   4.734   3.162
 3076SOL    HW121107   0.913   4.741   3.253
 3076SOL    HW221108   0.955   4.690   3.116
 3077SOL     OW21109   2.455   1.232  18.254
 3077SOL    HW121110   2.496   1.246  18.340
 3077SOL    HW221111   2.362   1.248  18.269
 3078SOL     OW21112   2.472   2.251   2.719
 3078SOL    HW121113   2.543   2.225   2.659
 3078SOL    HW221114   2.516   2.270   2.802
 3079SOL     OW21115   0.214   2.374  18.179
 3079SOL    HW121116   0.224   2.295  18.125
 3079SOL    HW221117   0.167   2.435  18.123
 3080SOL     OW21118   2.521   4.664  15.801
 3080SOL    HW121119   2.441   4.708  15.773
 3080SOL    HW221120   2.507   4.572  15.781
 3081SOL     OW21121   1.132   3.366   3.080
 3081SOL    HW121122   1.117   3.337   3.170
 3081SOL    HW221123   1.227   3.363   3.069
 3082SOL     OW21124   2.488   0.061   5.006
 3082SOL    HW121125   2.553   0.092   5.069
 3082SOL    HW221126   2.439   0.139   4.980
 3083SOL     OW21127   0.454   3.885  19.518
 3083SOL    HW121128   0.534   3.913  19.562
 3083SOL    HW221129   0.484   3.827  19.447
 3084SOL     OW21130   1.234   3.290  19.634
 3084SOL    HW121131   1.184   3.236  19.695
 3084SOL    HW221132   1.285   3.228  19.583
 3085SOL     OW21133   2.936   2.593  14.864
 3085SOL    HW121134   2.876   2.657  14.826
 3085SOL    HW221135   3.017   2.642  14.879
 3086SOL     OW21136   0.562   2.831  19.436
 3086SOL    HW121137   0.489   2.864  19.488
 3086SOL    HW221138   0.635   2.828  19.498
 3087SOL     OW21139   4.100   1.646   6.346
 3087SOL    HW121140   4.144   1.632   6.430
 3087SOL    HW221141   4.115   1.566   6.297
 3088SOL     OW21142   3.722   2.071  19.433
 3088SOL    HW121143   3.786   2.141  19.443
 3088SOL    HW221144   3.665   2.079  19.510
 3089SOL     OW21145   2.109   0.948  13.553
 3089SOL    HW121146   2.149   1.007  13.617
 3089SOL    HW221147   2.014   0.963  13.563
 3090SOL     OW21148   2.544   1.580  15.767
 3090SOL    HW121149   2.586   1.508  15.813
 3090SOL    HW221150   2.610   1.611  15.705
 3091SOL     OW21151   3.010   0.426   0.949
 3091SOL    HW121152   3.014   0.411   0.855
 3091SOL    HW221153   2.927   0.471   0.963
 3092SOL     OW21154   1.390   1.580   1.526
 3092SOL    HW121155   1.303   1.551   1.496
 3092SOL    HW221156   1.413   1.651   1.467
 3093SOL     OW21157   3.426   2.196   2.243
 3093SOL    HW121158   3.432   2.204   2.338
 3093SOL    HW221159   3.511   2.227   2.211
 3094SOL     OW21160   0.273   2.788   7.690
 3094SOL    HW121161   0.330   2.832   7.626
 3094SOL    HW221162   0.281   2.695   7.667
 3095SOL     OW21163   4.208   3.476  15.001
 3095SOL    HW121164   4.229   3.558  14.957
 3095SOL    HW221165   4.129   3.496  15.052
 3096SOL     OW21166   4.214   2.252  17.019
 3096SOL    HW121167   4.151   2.210  16.961
 3096SOL    HW221168   4.287   2.190  17.025
 3097SOL     OW21169   3.257   2.174  16.275
 3097SOL    HW121170   3.292   2.231  16.207
 3097SOL    HW221171   3.278   2.219  16.357
 3098SOL     OW21172   0.558   0.235  16.144
 3098SOL    HW121173   0.493   0.306  16.146
 3098SOL    HW221174   0.613   0.256  16.069
 3099SOL     OW21175   0.192   2.423   5.224
 3099SOL    HW121176   0.106   2.418   5.183
 3099SOL    HW221177   0.228   2.507   5.195
 3100SOL     OW21178   2.304   3.551  21.231
 3100SOL    HW121179   2.217   3.592  21.234
 3100SOL    HW221180   2.296   3.474   0.014
 3101SOL     OW21181   0.809   2.790   4.077
 3101SOL    HW121182   0.816   2.695   4.068
 3101SOL    HW221183   0.716   2.806   4.093
 3102SOL     OW21184   2.572   1.920   5.083
 3102SOL    HW121185   2.608   1.839   5.045
 3102SOL    HW221186   2.485   1.928   5.044
 3103SOL     OW21187   0.935   0.471  19.248
 3103SOL    HW121188   0.881   0.393  19.235
 3103SOL    HW221189   0.886   0.523  19.312
 3104SOL     OW21190   0.219   2.769   1.713
 3104SOL    HW121191   0.301   2.818   1.711
 3104SOL    HW221192   0.219   2.719   1.632
 3105SOL     OW21193   4.632   0.646  18.273
 3105SOL    HW121194   4.651   0.662  18.366
 3105SOL    HW221195   4.563   0.579  18.274
 3106SOL     OW21196   0.703   1.755   1.837
 3106SOL    HW121197   0.774   1.747   1.773
 3106SOL    HW221198   0.717   1.681   1.897
 3107SOL     OW21199   1.296   0.146   3.715
 3107SOL    HW121200   1.265   0.121   3.627
 3107SOL    HW221201   1.330   0.064   3.751
 3108SOL     OW21202   2.380   1.620   5.776
 3108SOL    HW121203   2.451   1.562   5.804
 3108SOL    HW221204   2.413   1.708   5.793
 3109SOL     OW21205   4.423   1.343  15.214
 3109SOL    HW121206   4.359   1.367  15.281
 3109SOL    HW221207   4.508   1.349  15.258
 3110SOL     OW21208   4.198   0.845   3.675
 3110SOL    HW121209   4.275   0.880   3.720
 3110SOL    HW221210   4.220   0.851   3.582
 3111SOL     OW21211   0.767   1.018  19.985
 3111SOL    HW121212   0.833   1.087  19.997
 3111SOL    HW221213   0.728   1.036  19.900
 3112SOL     OW21214   2.726   2.758  11.394
 3112SOL    HW121215   2.771   2.690  11.444
 3112SOL    HW221216   2.650   2.780  11.447
 3113SOL     OW21217   0.074   2.249   0.218
 3113SOL    HW121218   0.076   2.177   0.155
 3113SOL    HW221219   0.028   2.213   0.294
 3114SOL     OW21220   0.723   3.556   4.172
 3114SOL    HW121221   0.730   3.469   4.212
 3114SOL    HW221222   0.633   3.561   4.140
 3115SOL     OW21223   3.502   4.561   1.110
 3115SOL    HW121224   3.437   4.629   1.128
 3115SOL    HW221225   3.451   4.480   1.107
 3116SOL     OW21226   4.461   3.221  17.665
 3116SOL    HW121227   4.508   3.229  17.582
 3116SOL    HW221228   4.380   3.175  17.643
 3117SOL     OW21229   2.484   2.963  18.134
 3117SOL    HW121230   2.502   2.971  18.227
 3117SOL    HW221231   2.557   2.910  18.100
 3118SOL     OW21232   4.740   4.116   3.826
 3118SOL    HW121233   4.668   4.136   3.885
 3118SOL    HW221234   4.705   4.049   3.767
 3119SOL     OW21235   1.501   4.103  16.825
 3119SOL    HW121236   1.494   4.048  16.747
 3119SOL    HW221237   1.435   4.069  16.885
 3120SOL     OW21238   0.074   2.047   2.995
 3120SOL    HW121239   0.114   2.104   3.060
 3120SOL    HW221240   0.064   1.963   3.040
 3121SOL     OW21241   0.928   3.210   8.106
 3121SOL    HW121242   0.965   3.176   8.025
 3121SOL    HW221243   1.003   3.236   8.159
 3122SOL     OW21244   1.111   3.952   3.534
 3122SOL    HW121245   1.062   3.892   3.591
 3122SOL    HW221246   1.047   3.979   3.468
 3123SOL     OW21247   2.857   2.002   3.346
 3123SOL    HW121248   2.921   1.944   3.387
 3123SOL    HW221249   2.791   2.016   3.414
 3124SOL     OW21250   3.441   3.269   0.290
 3124SOL    HW121251   3.360   3.249   0.244
 3124SOL    HW221252   3.424   3.246   0.381
 3125SOL     OW21253   1.261   1.289  21.032
 3125SOL    HW121254   1.265   1.342  20.952
 3125SOL    HW221255   1.205   1.339  21.091
 3126SOL     OW21256   2.146   3.651   5.894
 3126SOL    HW121257   2.109   3.736   5.870
 3126SOL    HW221258   2.137   3.647   5.989
 3127SOL     OW21259   2.652   1.766  21.171
 3127SOL    HW121260   2.630   1.674  21.152
 3127SOL    HW221261   2.674   1.766  21.264
 3128SOL     OW21262   2.238   4.342  15.692
 3128SOL    HW121263   2.168   4.393  15.733
 3128SOL    HW221264   2.193   4.278  15.639
 3129SOL     OW21265   0.906   1.966   5.118
 3129SOL    HW121266   0.936   1.958   5.028
 3129SOL    HW221267   0.891   1.875   5.146
 3130SOL     OW21268   3.528   4.553   5.978
 3130SOL    HW121269   3.461   4.484   5.970
 3130SOL    HW221270   3.503   4.618   5.913
 3131SOL     OW21271   4.326   2.528  20.248
 3131SOL    HW121272   4.287   2.557  20.165
 3131SOL    HW221273   4.406   2.482  20.222
 3132SOL     OW21274   3.193   2.438  13.747
 3132SOL    HW121275   3.266   2.409  13.802
 3132SOL    HW221276   3.138   2.360  13.738
 3133SOL     OW21277   4.305   1.354   6.438
 3133SOL    HW121278   4.261   1.418   6.493
 3133SOL    HW221279   4.257   1.356   6.355
 3134SOL     OW21280   4.490   1.069  17.478
 3134SOL    HW121281   4.481   1.012  17.553
 3134SOL    HW221282   4.428   1.034  17.413
 3135SOL     OW21283   3.685   3.667   3.462
 3135SOL    HW121284   3.598   3.654   3.424
 3135SOL    HW221285   3.671   3.662   3.556
 3136SOL     OW21286   1.634   1.752  12.811
 3136SOL    HW121287   1.621   1.847  12.810
 3136SOL    HW221288   1.580   1.720  12.739
 3137SOL     OW21289   4.474   4.541   7.015
 3137SOL    HW121290   4.512   4.627   6.994
 3137SOL    HW221291   4.456   4.502   6.929
 3138SOL     OW21292   4.061   2.769   4.509
 3138SOL    HW121293   4.044   2.863   4.516
 3138SOL    HW221294   4.047   2.748   4.417
 3139SOL     OW21295   1.584   0.244  18.542
 3139SOL    HW121296   1.557   0.173  18.483
 3139SOL    HW221297   1.571   0.209  18.630
 3140SOL     OW21298   4.197   4.572  18.504
 3140SOL    HW121299   4.265   4.505  18.503
 3140SOL    HW221300   4.121   4.529  18.464
 3141SOL     OW21301   1.916   4.350  17.432
 3141SOL    HW121302   1.910   4.407  17.509
 3141SOL    HW221303   1.848   4.284  17.446
 3142SOL     OW21304   2.038   1.224  18.376
 3142SOL    HW121305   2.067   1.153  18.434
 3142SOL    HW221306   2.116   1.276  18.361
 3143SOL     OW21307   0.648   4.550   5.374
 3143SOL    HW121308   0.660   4.546   5.279
 3143SOL    HW221309   0.572   4.608   5.386
 3144SOL     OW21310   4.729   1.445   0.025
 3144SOL    HW121311   4.687   1.436   0.111
 3144SOL    HW221312   0.014   1.389   0.031
 3145SOL     OW21313   2.397   0.330   3.347
 3145SOL    HW121314   2.478   0.364   3.385
 3145SOL    HW221315   2.353   0.285   3.419
 3146SOL     OW21316   0.957   0.445  20.084
 3146SOL    HW121317   1.003   0.449  20.168
 3146SOL    HW221318   0.982   0.526  20.039
 3147SOL     OW21319   3.521   2.370  21.254
 3147SOL    HW121320   3.447   2.363   0.042
 3147SOL    HW221321   3.480   2.379  21.168
 3148SOL     OW21322   4.102   0.359  15.735
 3148SOL    HW121323   4.189   0.376  15.700
 3148SOL    HW221324   4.101   0.265  15.752
 3149SOL     OW21325   3.224   3.984  12.943
 3149SOL    HW121326   3.138   3.942  12.943
 3149SOL    HW221327   3.285   3.914  12.919
 3150SOL     OW21328   4.030   3.076  13.930
 3150SOL    HW121329   3.971   3.149  13.909
 3150SOL    HW221330   4.118   3.113  13.918
 3151SOL     OW21331   0.094   0.590   6.523
 3151SOL    HW121332   0.134   0.663   6.475
 3151SOL    HW221333   0.129   0.512   6.482
 3152SOL     OW21334   2.423   3.004   0.985
 3152SOL    HW121335   2.373   3.086   0.975
 3152SOL    HW221336   2.428   2.990   1.079
 3153SOL     OW21337   1.917   4.042  20.800
 3153SOL    HW121338   1.843   4.053  20.860
 3153SOL    HW221339   1.934   4.130  20.766
 3154SOL     OW21340   2.499   1.784  16.991
 3154SOL    HW121341   2.408   1.800  17.014
 3154SOL    HW221342   2.535   1.871  16.975
 3155SOL     OW21343   4.316   1.370  16.744
 3155SOL    HW121344   4.277   1.454  16.719
 3155SOL    HW221345   4.382   1.393  16.809
 3156SOL     OW21346   1.208   4.014  18.839
 3156SOL    HW121347   1.208   4.007  18.934
 3156SOL    HW221348   1.177   3.928  18.809
 3157SOL     OW21349   1.270   4.201   0.223
 3157SOL    HW121350   1.265   4.269   0.291
 3157SOL    HW221351   1.180   4.188   0.195
 3158SOL     OW21352   2.434   4.495  14.251
 3158SOL    HW121353   2.415   4.579  14.293
 3158SOL    HW221354   2.357   4.441  14.268
 3159SOL     OW21355   1.888   3.782   2.904
 3159SOL    HW121356   1.894   3.863   2.955
 3159SOL    HW221357   1.971   3.737   2.920
 3160SOL     OW21358   4.206   2.791   1.660
 3160SOL    HW121359   4.117   2.762   1.640
 3160SOL    HW221360   4.222   2.758   1.749
 3161SOL     OW21361   2.544   2.614  16.499
 3161SOL    HW121362   2.600   2.656  16.433
 3161SOL    HW221363   2.455   2.630  16.467
 3162SOL     OW21364   4.350   4.523   6.121
 3162SOL    HW121365   4.397   4.600   6.088
 3162SOL    HW221366   4.328   4.545   6.211
 3163SOL     OW21367   3.320   1.472   1.625
 3163SOL    HW121368   3.348   1.406   1.562
 3163SOL    HW221369   3.227   1.453   1.639
 3164SOL     OW21370   0.697   1.329  20.225
 3164SOL    HW121371   0.620   1.333  20.169
 3164SOL    HW221372   0.665   1.295  20.308
 3165SOL     OW21373   4.154   3.156   1.768
 3165SOL    HW121374   4.171   3.246   1.738
 3165SOL    HW221375   4.059   3.145   1.760
 3166SOL     OW21376   4.682   0.763   1.445
 3166SOL    HW121377   4.748   0.791   1.508
 3166SOL    HW221378   4.717   0.788   1.360
 3167SOL     OW21379   2.400   0.339  18.230
 3167SOL    HW121380   2.440   0.423  18.207
 3167SOL    HW221381   2.347   0.358  18.308
 3168SOL     OW21382   1.915   2.263  15.579
 3168SOL    HW121383   1.845   2.198  15.570
 3168SOL    HW221384   1.894   2.310  15.660
 3169SOL     OW21385   0.736   3.805   6.852
 3169SOL    HW121386   0.818   3.836   6.889
 3169SOL    HW221387   0.677   3.798   6.928
 3170SOL     OW21388   3.337   0.924   3.285
 3170SOL    HW121389   3.274   0.878   3.340
 3170SOL    HW221390   3.405   0.860   3.268
 3171SOL     OW21391   0.315   3.252  20.298
 3171SOL    HW121392   0.261   3.174  20.289
 3171SOL    HW221393   0.334   3.280  20.209
 3172SOL     OW21394   0.692   1.838  15.514
 3172SOL    HW121395   0.755   1.798  15.574
 3172SOL    HW221396   0.611   1.846  15.566
 3173SOL     OW21397   1.769   2.863  14.512
 3173SOL    HW121398   1.728   2.786  14.553
 3173SOL    HW221399   1.748   2.855  14.419
 3174SOL     OW21400   3.809   3.976   3.385
 3174SOL    HW121401   3.818   3.880   3.379
 3174SOL    HW221402   3.828   3.996   3.476
 3175SOL     OW21403   1.359   2.747   2.990
 3175SOL    HW121404   1.339   2.790   2.907
 3175SOL    HW221405   1.445   2.706   2.976
 3176SOL     OW21406   3.889   2.431   3.804
 3176SOL    HW121407   3.944   2.505   3.828
 3176SOL    HW221408   3.926   2.401   3.720
 3177SOL     OW21409   2.655   2.834  17.274
 3177SOL    HW121410   2.711   2.860  17.347
 3177SOL    HW221411   2.673   2.741  17.262
 3178SOL     OW21412   2.886   3.140  17.608
 3178SOL    HW121413   2.955   3.197  17.640
 3178SOL    HW221414   2.810   3.163  17.661
 3179SOL     OW21415   0.268   3.782  19.190
 3179SOL    HW121416   0.263   3.719  19.118
 3179SOL    HW221417   0.291   3.865  19.148
 3180SOL     OW21418   0.868   1.616  16.457
 3180SOL    HW121419   0.867   1.711  16.468
 3180SOL    HW221420   0.783   1.596  16.417
 3181SOL     OW21421   0.167   3.260   3.835
 3181SOL    HW121422   0.142   3.201   3.764
 3181SOL    HW221423   0.154   3.208   3.915
 3182SOL     OW21424   2.216   3.661  16.653
 3182SOL    HW121425   2.223   3.708  16.736
 3182SOL    HW221426   2.239   3.570  16.675
 3183SOL     OW21427   0.116   0.069   0.978
 3183SOL    HW121428   0.040   0.108   0.936
 3183SOL    HW221429   0.123   0.114   1.063
 3184SOL     OW21430   3.646   3.893  18.650
 3184SOL    HW121431   3.738   3.887  18.677
 3184SOL    HW221432   3.640   3.837  18.573
 3185SOL     OW21433   2.959   2.006  17.647
 3185SOL    HW121434   3.037   2.053  17.619
 3185SOL    HW221435   2.961   1.924  17.598
 3186SOL     OW21436   2.777   4.119  18.174
 3186SOL    HW121437   2.775   4.142  18.267
 3186SOL    HW221438   2.741   4.195  18.129
 3187SOL     OW21439   0.926   3.456  19.092
 3187SOL    HW121440   0.993   3.524  19.091
 3187SOL    HW221441   0.974   3.375  19.112
 3188SOL     OW21442   0.467   4.475  20.859
 3188SOL    HW121443   0.530   4.462  20.788
 3188SOL    HW221444   0.449   4.569  20.858
 3189SOL     OW21445   0.505   4.453  14.448
 3189SOL    HW121446   0.505   4.426  14.540
 3189SOL    HW221447   0.547   4.539  14.449
 3190SOL     OW21448   0.871   0.625  21.213
 3190SOL    HW121449   0.810   0.696  21.231
 3190SOL    HW221450   0.948   0.668  21.176
 3191SOL     OW21451   4.434   1.803   5.819
 3191SOL    HW121452   4.439   1.899   5.819
 3191SOL    HW221453   4.360   1.784   5.878
 3192SOL     OW21454   1.070   4.507   2.731
 3192SOL    HW121455   1.018   4.562   2.672
 3192SOL    HW221456   1.142   4.476   2.678
 3193SOL     OW21457   4.561   0.461   4.056
 3193SOL    HW121458   4.505   0.422   3.989
 3193SOL    HW221459   4.522   0.547   4.072
 3194SOL     OW21460   2.649   2.732  18.747
 3194SOL    HW121461   2.621   2.642  18.730
 3194SOL    HW221462   2.581   2.768  18.803
 3195SOL     OW21463   3.646   3.363   6.935
 3195SOL    HW121464   3.676   3.370   7.026
 3195SOL    HW221465   3.552   3.344   6.943
 3196SOL     OW21466   1.575   3.228  16.410
 3196SOL    HW121467   1.605   3.318  16.426
 3196SOL    HW221468   1.480   3.235  16.403
 3197SOL     OW21469   0.066   2.426  17.447
 3197SOL    HW121470   0.072   2.411  17.542
 3197SOL    HW221471   0.034   2.343  17.412
 3198SOL     OW21472   0.626   3.530  20.733
 3198SOL    HW121473   0.670   3.515  20.650
 3198SOL    HW221474   0.544   3.574  20.710
 3199SOL     OW21475   4.534   0.356   0.801
 3199SOL    HW121476   4.506   0.446   0.819
 3199SOL    HW221477   4.583   0.362   0.719
 3200SOL     OW21478   0.809   1.804   6.219
 3200SOL    HW121479   0.790   1.808   6.125
 3200SOL    HW221480   0.825   1.894   6.245
 3201SOL     OW21481   1.956   2.652  16.862
 3201SOL    HW121482   1.948   2.715  16.933
 3201SOL    HW221483   1.866   2.628  16.840
 3202SOL     OW21484   0.091   3.626  15.937
 3202SOL    HW121485   0.165   3.684  15.956
 3202SOL    HW221486   0.122   3.567  15.869
 3203SOL     OW21487   0.270   2.658  19.850
 3203SOL    HW121488   0.326   2.592  19.810
 3203SOL    HW221489   0.229   2.703  19.776
 3204SOL     OW21490   3.202   0.980  16.029
 3204SOL    HW121491   3.289   1.012  16.004
 3204SOL    HW221492   3.203   0.982  16.125
 3205SOL     OW21493   4.738   3.646  20.115
 3205SOL    HW121494   4.678   3.573  20.098
 3205SOL    HW221495   4.680   3.721  20.130
 3206SOL     OW21496   4.564   4.386  16.752
 3206SOL    HW121497   4.636   4.405  16.811
 3206SOL    HW221498   4.604   4.337  16.680
 3207SOL     OW21499   1.890   0.129  17.808
 3207SOL    HW121500   1.870   0.221  17.823
 3207SOL    HW221501   1.985   0.124  17.816
 3208SOL     OW21502   3.208   3.876  17.709
 3208SOL    HW121503   3.280   3.909  17.764
 3208SOL    HW221504   3.143   3.844  17.771
 3209SOL     OW21505   0.389   4.272  16.696
 3209SOL    HW121506   0.460   4.335  16.707
 3209SOL    HW221507   0.426   4.188  16.724
 3210SOL     OW21508   4.782   0.352  20.239
 3210SOL    HW121509   4.712   0.407  20.273
 3210SOL    HW221510   0.044   0.412  20.189
 3211SOL     OW21511   3.257   1.002   8.753
 3211SOL    HW121512   3.310   1.075   8.721
 3211SOL    HW221513   3.313   0.925   8.743
 3212SOL     OW21514   0.134   0.303  16.691
 3212SOL    HW121515   0.227   0.311  16.672
 3212SOL    HW221516   0.120   0.358  16.769
 3213SOL     OW21517   2.408   0.535  16.635
 3213SOL    HW121518   2.349   0.606  16.661
 3213SOL    HW221519   2.492   0.578  16.619
 3214SOL     OW21520   3.625   3.260   3.426
 3214SOL    HW121521   3.645   3.184   3.371
 3214SOL    HW221522   3.677   3.246   3.505
 3215SOL     OW21523   3.363   1.743  18.571
 3215SOL    HW121524   3.444   1.791  18.588
 3215SOL    HW221525   3.367   1.668  18.630
 3216SOL     OW21526   1.589   4.142   1.492
 3216SOL    HW121527   1.592   4.096   1.576
 3216SOL    HW221528   1.605   4.234   1.515
 3217SOL     OW21529   1.121   0.430  13.067
 3217SOL    HW121530   1.197   0.460  13.116
 3217SOL    HW221531   1.075   0.370  13.126
 3218SOL     OW21532   0.894   3.604  20.102
 3218SOL    HW121533   0.804   3.627  20.122
 3218SOL    HW221534   0.911   3.526  20.156
 3219SOL     OW21535   4.744   0.780   4.629
 3219SOL    HW121536   4.727   0.812   4.541
 3219SOL    HW221537   4.678   0.714   4.644
 3220SOL     OW21538   3.553   0.453   3.875
 3220SOL    HW121539   3.517   0.486   3.958
 3220SOL    HW221540   3.509   0.505   3.808
 3221SOL     OW21541   1.005   0.300   5.881
 3221SOL    HW121542   1.059   0.259   5.814
 3221SOL    HW221543   1.004   0.237   5.953
 3222SOL     OW21544   1.858   0.843   2.837
 3222SOL    HW121545   1.830   0.887   2.756
 3222SOL    HW221546   1.896   0.761   2.807
 3223SOL     OW21547   3.360   3.360  20.687
 3223SOL    HW121548   3.274   3.375  20.646
 3223SOL    HW221549   3.367   3.429  20.753
 3224SOL     OW21550   3.770   2.693   0.956
 3224SOL    HW121551   3.779   2.785   0.932
 3224SOL    HW221552   3.735   2.651   0.878
 3225SOL     OW21553   4.059   1.375   3.424
 3225SOL    HW121554   4.144   1.335   3.438
 3225SOL    HW221555   4.060   1.402   3.332
 3226SOL     OW21556   1.433   2.784   8.796
 3226SOL    HW121557   1.452   2.699   8.757
 3226SOL    HW221558   1.512   2.806   8.845
 3227SOL     OW21559   0.667   2.184  17.965
 3227SOL    HW121560   0.735   2.126  18.000
 3227SOL    HW221561   0.715   2.249  17.915
 3228SOL     OW21562   3.462   0.365  15.776
 3228SOL    HW121563   3.503   0.286  15.741
 3228SOL    HW221564   3.368   0.344  15.778
 3229SOL     OW21565   0.326   0.357   2.711
 3229SOL    HW121566   0.334   0.272   2.754
 3229SOL    HW221567   0.352   0.340   2.620
 3230SOL     OW21568   4.770   2.251   3.821
 3230SOL    HW121569   0.038   2.310   3.778
 3230SOL    HW221570   4.695   2.247   3.763
 3231SOL     OW21571   3.551   3.175   1.804
 3231SOL    HW121572   3.558   3.264   1.836
 3231SOL    HW221573   3.496   3.181   1.726
 3232SOL     OW21574   4.039   1.878   3.430
 3232SOL    HW121575   4.057   1.825   3.353
 3232SOL    HW221576   4.124   1.888   3.473
 3233SOL     OW21577   3.531   1.448  17.491
 3233SOL    HW121578   3.482   1.410  17.418
 3233SOL    HW221579   3.536   1.541  17.470
 3234SOL     OW21580   2.875   3.871  15.740
 3234SOL    HW121581   2.940   3.902  15.803
 3234SOL    HW221582   2.807   3.938  15.741
 3235SOL     OW21583   0.238   3.573   4.696
 3235SOL    HW121584   0.221   3.667   4.683
 3235SOL    HW221585   0.304   3.570   4.765
 3236SOL     OW21586   2.815   1.624  19.551
 3236SOL    HW121587   2.876   1.566  19.597
 3236SOL    HW221588   2.734   1.620  19.602
 3237SOL     OW21589   3.984   2.582   2.639
 3237SOL    HW121590   3.933   2.582   2.720
 3237SOL    HW221591   4.058   2.640   2.657
 3238SOL     OW21592   3.500   4.793   5.357
 3238SOL    HW121593   3.510   0.080   5.306
 3238SOL    HW221594   3.433   4.743   5.310
 3239SOL     OW21595   2.683   2.461  16.217
 3239SOL    HW121596   2.760   2.424  16.260
 3239SOL    HW221597   2.611   2.404  16.243
 3240SOL     OW21598   2.962   2.992   6.497
 3240SOL    HW121599   2.922   2.921   6.547
 3240SOL    HW221600   2.897   3.063   6.501
 3241SOL     OW21601   0.153   1.261   5.199
 3241SOL    HW121602   0.118   1.254   5.110
 3241SOL    HW221603   0.194   1.347   5.202
 3242SOL     OW21604   1.441   0.024   3.083
 3242SOL    HW121605   1.510   0.049   3.144
 3242SOL    HW221606   1.485   4.764   3.017
 3243SOL     OW21607   3.247   4.093   5.248
 3243SOL    HW121608   3.323   4.051   5.288
 3243SOL    HW221609   3.236   4.175   5.297
 3244SOL     OW21610   3.076   2.366  19.530
 3244SOL    HW121611   3.032   2.448  19.510
 3244SOL    HW221612   3.012   2.298  19.508
 3245SOL     OW21613   1.869   2.400   5.553
 3245SOL    HW121614   1.939   2.367   5.610
 3245SOL    HW221615   1.915   2.447   5.483
 3246SOL     OW21616   0.129   4.029  16.739
 3246SOL    HW121617   0.164   3.975  16.811
 3246SOL    HW221618   0.044   3.989  16.719
 3247SOL     OW21619   4.597   4.364  20.896
 3247SOL    HW121620   4.551   4.284  20.918
 3247SOL    HW221621   4.635   4.394  20.978
 3248SOL     OW21622   4.127   3.678   0.817
 3248SOL    HW121623   4.033   3.673   0.836
 3248SOL    HW221624   4.169   3.663   0.902
 3249SOL     OW21625   3.108   0.073  20.893
 3249SOL    HW121626   3.097   0.136  20.964
 3249SOL    HW221627   3.019   0.046  20.872
 3250SOL     OW21628   0.127   0.588  20.134
 3250SOL    HW121629   0.049   0.628  20.171
 3250SOL    HW221630   0.195   0.601  20.200
 3251SOL     OW21631   4.533   3.687   6.608
 3251SOL    HW121632   4.612   3.632   6.604
 3251SOL    HW221633   4.463   3.630   6.575
 3252SOL     OW21634   3.337   2.091  18.788
 3252SOL    HW121635   3.379   2.072  18.703
 3252SOL    HW221636   3.340   2.187  18.795
 3253SOL     OW21637   0.413   0.793   4.976
 3253SOL    HW121638   0.416   0.756   4.887
 3253SOL    HW221639   0.333   0.846   4.976
 3254SOL     OW21640   1.825   2.919  15.661
 3254SOL    HW121641   1.905   2.940  15.709
 3254SOL    HW221642   1.792   2.840  15.704
 3255SOL     OW21643   0.624   3.748   1.623
 3255SOL    HW121644   0.547   3.755   1.679
 3255SOL    HW221645   0.610   3.813   1.554
 3256SOL     OW21646   1.357   0.610   6.027
 3256SOL    HW121647   1.421   0.544   6.054
 3256SOL    HW221648   1.407   0.691   6.022
 3257SOL     OW21649   2.180   2.499  18.786
 3257SOL    HW121650   2.132   2.416  18.794
 3257SOL    HW221651   2.118   2.566  18.815
 3258SOL     OW21652   1.338   0.030   0.085
 3258SOL    HW121653   1.393   0.104   0.111
 3258SOL    HW221654   1.375   4.749   0.133
 3259SOL     OW21655   1.555   0.558   4.502
 3259SOL    HW121656   1.564   0.564   4.407
 3259SOL    HW221657   1.568   0.465   4.522
 3260SOL     OW21658   0.430   3.641   3.141
 3260SOL    HW121659   0.452   3.714   3.199
 3260SOL    HW221660   0.436   3.564   3.197
 3261SOL     OW21661   3.950   2.201  19.764
 3261SOL    HW121662   4.042   2.206  19.790
 3261SOL    HW221663   3.949   2.137  19.692
 3262SOL     OW21664   1.986   4.410  20.978
 3262SOL    HW121665   1.930   4.336  21.003
 3262SOL    HW221666   2.024   4.384  20.894
 3263SOL     OW21667   3.632   2.527  18.803
 3263SOL    HW121668   3.671   2.613  18.788
 3263SOL    HW221669   3.658   2.504  18.892
 3264SOL     OW21670   3.088   0.080  18.739
 3264SOL    HW121671   3.066   4.787  18.774
 3264SOL    HW221672   3.136   0.124  18.810
 3265SOL     OW21673   3.913   2.511   3.117
 3265SOL    HW121674   3.903   2.441   3.182
 3265SOL    HW221675   3.994   2.556   3.141
 3266SOL     OW21676   3.815   2.141   3.685
 3266SOL    HW121677   3.880   2.210   3.693
 3266SOL    HW221678   3.861   2.061   3.711
 3267SOL     OW21679   3.732   1.633   1.051
 3267SOL    HW121680   3.749   1.666   0.963
 3267SOL    HW221681   3.794   1.562   1.063
 3268SOL     OW21682   1.769   2.970  15.013
 3268SOL    HW121683   1.695   3.017  15.051
 3268SOL    HW221684   1.842   3.032  15.016
 3269SOL     OW21685   3.828   0.848  18.805
 3269SOL    HW121686   3.895   0.915  18.794
 3269SOL    HW221687   3.747   0.889  18.776
 3270SOL     OW21688   1.473   2.776  16.350
 3270SOL    HW121689   1.481   2.681  16.337
 3270SOL    HW221690   1.558   2.802  16.385
 3271SOL     OW21691   2.085   3.383   3.972
 3271SOL    HW121692   2.070   3.478   3.970
 3271SOL    HW221693   2.023   3.348   3.908
 3272SOL     OW21694   2.378   4.110   3.839
 3272SOL    HW121695   2.408   4.189   3.792
 3272SOL    HW221696   2.293   4.091   3.801
 3273SOL     OW21697   1.495   2.627   4.780
 3273SOL    HW121698   1.551   2.592   4.849
 3273SOL    HW221699   1.488   2.721   4.800
 3274SOL     OW21700   3.946   2.843  17.986
 3274SOL    HW121701   3.894   2.768  17.956
 3274SOL    HW221702   3.974   2.819  18.074
 3275SOL     OW21703   2.822   2.700  19.188
 3275SOL    HW121704   2.807   2.635  19.257
 3275SOL    HW221705   2.819   2.650  19.106
 3276SOL     OW21706   3.774   4.405  18.900
 3276SOL    HW121707   3.753   4.498  18.902
 3276SOL    HW221708   3.860   4.399  18.941
 3277SOL     OW21709   3.007   0.086  15.717
 3277SOL    HW121710   2.940   0.151  15.701
 3277SOL    HW221711   2.963   0.002  15.704
 3278SOL     OW21712   3.670   3.127  19.521
 3278SOL    HW121713   3.621   3.099  19.598
 3278SOL    HW221714   3.758   3.090  19.533
 3279SOL     OW21715   2.262   1.037   4.690
 3279SOL    HW121716   2.347   1.035   4.734
 3279SOL    HW221717   2.282   1.014   4.599
 3280SOL     OW21718   2.478   2.902  20.596
 3280SOL    HW121719   2.455   2.814  20.565
 3280SOL    HW221720   2.573   2.905  20.592
 3281SOL     OW21721   4.723   2.789  19.888
 3281SOL    HW121722   4.787   2.853  19.857
 3281SOL    HW221723   4.754   2.764  19.975
 3282SOL     OW21724   3.715   1.505   6.064
 3282SOL    HW121725   3.714   1.411   6.083
 3282SOL    HW221726   3.678   1.545   6.143
 3283SOL     OW21727   1.894   0.405  14.523
 3283SOL    HW121728   1.828   0.394  14.454
 3283SOL    HW221729   1.876   0.335  14.585
 3284SOL     OW21730   1.206   2.084  17.796
 3284SOL    HW121731   1.258   2.106  17.719
 3284SOL    HW221732   1.118   2.116  17.776
 3285SOL     OW21733   1.744   1.656  17.558
 3285SOL    HW121734   1.690   1.695  17.490
 3285SOL    HW221735   1.694   1.580  17.587
 3286SOL     OW21736   2.487   3.704   4.077
 3286SOL    HW121737   2.444   3.723   3.994
 3286SOL    HW221738   2.467   3.612   4.094
 3287SOL     OW21739   1.552   4.223   4.443
 3287SOL    HW121740   1.574   4.304   4.488
 3287SOL    HW221741   1.628   4.167   4.456
 3288SOL     OW21742   2.205   1.307  20.784
 3288SOL    HW121743   2.179   1.324  20.875
 3288SOL    HW221744   2.191   1.212  20.774
 3289SOL     OW21745   1.769   3.141   6.472
 3289SOL    HW121746   1.842   3.083   6.449
 3289SOL    HW221747   1.704   3.083   6.511
 3290SOL     OW21748   2.192   0.709   8.217
 3290SOL    HW121749   2.140   0.742   8.143
 3290SOL    HW221750   2.274   0.681   8.178
 3291SOL     OW21751   1.458   1.206   3.825
 3291SOL    HW121752   1.463   1.112   3.842
 3291SOL    HW221753   1.549   1.233   3.814
 3292SOL     OW21754   1.476   2.420   0.742
 3292SOL    HW121755   1.557   2.418   0.793
 3292SOL    HW221756   1.475   2.507   0.703
 3293SOL     OW21757   3.266   3.466  19.439
 3293SOL    HW121758   3.335   3.519  19.400
 3293SOL    HW221759   3.294   3.375  19.424
 3294SOL     OW21760   3.679   0.779   2.499
 3294SOL    HW121761   3.685   0.872   2.519
 3294SOL    HW221762   3.673   0.775   2.403
 3295SOL     OW21763   1.039   0.009   6.784
 3295SOL    HW121764   0.978   4.748   6.734
 3295SOL    HW221765   1.076   0.070   6.720
 3296SOL     OW21766   0.989   3.087  18.529
 3296SOL    HW121767   0.996   3.183  18.529
 3296SOL    HW221768   1.075   3.058  18.497
 3297SOL     OW21769   2.715   4.019  13.731
 3297SOL    HW121770   2.673   3.939  13.701
 3297SOL    HW221771   2.804   3.992  13.755
 3298SOL     OW21772   2.177   4.292  12.499
 3298SOL    HW121773   2.083   4.289  12.480
 3298SOL    HW221774   2.192   4.216  12.555
 3299SOL     OW21775   1.477   0.822   5.327
 3299SOL    HW121776   1.415   0.895   5.320
 3299SOL    HW221777   1.555   0.861   5.368
 3300SOL     OW21778   2.019   2.098  16.083
 3300SOL    HW121779   1.946   2.122  16.141
 3300SOL    HW221780   2.097   2.126  16.132
 3301SOL     OW21781   0.804   1.905   2.092
 3301SOL    HW121782   0.794   1.885   2.185
 3301SOL    HW221783   0.851   1.829   2.056
 3302SOL     OW21784   2.533   0.132   1.635
 3302SOL    HW121785   2.543   0.211   1.689
 3302SOL    HW221786   2.444   0.138   1.601
 3303SOL     OW21787   4.636   0.185   5.355
 3303SOL    HW121788   4.565   0.155   5.298
 3303SOL    HW221789   4.704   0.215   5.294
 3304SOL     OW21790   2.857   3.576   6.094
 3304SOL    HW121791   2.887   3.504   6.039
 3304SOL    HW221792   2.934   3.632   6.104
 3305SOL     OW21793   4.453   2.117   6.254
 3305SOL    HW121794   4.368   2.160   6.254
 3305SOL    HW221795   4.457   2.071   6.337
 3306SOL     OW21796   1.685   1.016   2.126
 3306SOL    HW121797   1.649   1.072   2.057
 3306SOL    HW221798   1.644   0.930   2.110
 3307SOL     OW21799   0.846   4.435  18.791
 3307SOL    HW121800   0.777   4.397  18.737
 3307SOL    HW221801   0.882   4.360  18.840
 3308SOL     OW21802   1.447   0.936   8.093
 3308SOL    HW121803   1.448   0.920   7.998
 3308SOL    HW221804   1.540   0.935   8.118
 3309SOL     OW21805   2.838   1.155   2.771
 3309SOL    HW121806   2.844   1.061   2.758
 3309SOL    HW221807   2.817   1.165   2.864
 3310SOL     OW21808   2.388   0.431  20.166
 3310SOL    HW121809   2.421   0.359  20.112
 3310SOL    HW221810   2.427   0.417  20.252
 3311SOL     OW21811   3.195   1.371   3.451
 3311SOL    HW121812   3.241   1.326   3.380
 3311SOL    HW221813   3.201   1.464   3.429
 3312SOL     OW21814   2.320   3.638  14.825
 3312SOL    HW121815   2.287   3.726  14.844
 3312SOL    HW221816   2.336   3.638  14.730
 3313SOL     OW21817   2.543   2.469  17.375
 3313SOL    HW121818   2.609   2.473  17.306
 3313SOL    HW221819   2.577   2.404  17.437
 3314SOL     OW21820   3.063   4.364   4.903
 3314SOL    HW121821   3.091   4.418   4.977
 3314SOL    HW221822   3.141   4.313   4.879
 3315SOL     OW21823   4.655   2.776  17.623
 3315SOL    HW121824   4.673   2.864  17.655
 3315SOL    HW221825   4.740   2.732  17.625
 3316SOL     OW21826   4.018   0.045   0.453
 3316SOL    HW121827   3.923   0.056   0.461
 3316SOL    HW221828   4.041   0.096   0.375
 3317SOL     OW21829   2.639   1.120   5.981
 3317SOL    HW121830   2.687   1.142   6.060
 3317SOL    HW221831   2.548   1.142   6.001
 3318SOL     OW21832   1.538   3.788   7.859
 3318SOL    HW121833   1.446   3.762   7.860
 3318SOL    HW221834   1.573   3.747   7.780
 3319SOL     OW21835   4.096   3.331  16.976
 3319SOL    HW121836   4.135   3.374  17.052
 3319SOL    HW221837   4.153   3.355  16.903
 3320SOL     OW21838   4.423   0.173  14.075
 3320SOL    HW121839   4.471   0.129  14.005
 3320SOL    HW221840   4.352   0.219  14.031
 3321SOL     OW21841   4.793   4.391  21.230
 3321SOL    HW121842   0.056   4.389   0.035
 3321SOL    HW221843   0.044   4.451  21.169
 3322SOL     OW21844   1.598   0.274  17.679
 3322SOL    HW121845   1.621   0.181  17.685
 3322SOL    HW221846   1.649   0.315  17.749
 3323SOL     OW21847   0.978   0.823   3.817
 3323SOL    HW121848   0.892   0.826   3.774
 3323SOL    HW221849   0.961   0.854   3.906
 3324SOL     OW21850   2.005   0.671  17.418
 3324SOL    HW121851   1.929   0.700  17.468
 3324SOL    HW221852   2.028   0.587  17.457
 3325SOL     OW21853   3.339   0.235  14.645
 3325SOL    HW121854   3.296   0.151  14.653
 3325SOL    HW221855   3.428   0.214  14.618
 3326SOL     OW21856   3.345   3.224   3.786
 3326SOL    HW121857   3.293   3.164   3.838
 3326SOL    HW221858   3.367   3.174   3.707
 3327SOL     OW21859   4.266   2.836   7.664
 3327SOL    HW121860   4.315   2.905   7.709
 3327SOL    HW221861   4.282   2.852   7.571
 3328SOL     OW21862   4.385   2.065  18.131
 3328SOL    HW121863   4.349   2.021  18.054
 3328SOL    HW221864   4.449   2.126  18.096
 3329SOL     OW21865   0.587   1.753  20.614
 3329SOL    HW121866   0.651   1.799  20.560
 3329SOL    HW221867   0.513   1.738  20.555
 3330SOL     OW21868   1.509   2.564  17.747
 3330SOL    HW121869   1.576   2.501  17.775
 3330SOL    HW221870   1.505   2.627  17.819
 3331SOL     OW21871   1.874   1.101  16.454
 3331SOL    HW121872   1.803   1.063  16.507
 3331SOL    HW221873   1.828   1.145  16.382
 3332SOL     OW21874   0.817   1.850   2.725
 3332SOL    HW121875   0.863   1.917   2.673
 3332SOL    HW221876   0.743   1.825   2.670
 3333SOL     OW21877   1.124   2.551  19.897
 3333SOL    HW121878   1.083   2.564  19.983
 3333SOL    HW221879   1.210   2.594  19.906
 3334SOL     OW21880   0.905   3.839  21.174
 3334SOL    HW121881   0.988   3.792  21.184
 3334SOL    HW221882   0.848   3.777  21.129
 3335SOL     OW21883   3.631   0.949  17.553
 3335SOL    HW121884   3.676   0.935  17.636
 3335SOL    HW221885   3.571   0.875  17.545
 3336SOL     OW21886   1.612   1.179   4.861
 3336SOL    HW121887   1.543   1.134   4.812
 3336SOL    HW221888   1.587   1.167   4.953
 3337SOL     OW21889   3.705   3.444   0.417
 3337SOL    HW121890   3.768   3.374   0.433
 3337SOL    HW221891   3.630   3.421   0.471
 3338SOL     OW21892   3.192   4.337   4.325
 3338SOL    HW121893   3.256   4.274   4.357
 3338SOL    HW221894   3.107   4.297   4.344
 3339SOL     OW21895   2.072   3.497   7.098
 3339SOL    HW121896   2.049   3.505   7.006
 3339SOL    HW221897   2.133   3.423   7.102
 3340SOL     OW21898   1.157   0.454  15.012
 3340SOL    HW121899   1.233   0.471  15.067
 3340SOL    HW221900   1.147   0.533  14.958
 3341SOL     OW21901   2.505   4.618   2.318
 3341SOL    HW121902   2.551   4.683   2.265
 3341SOL    HW221903   2.495   4.543   2.260
 3342SOL     OW21904   0.999   2.493   2.036
 3342SOL    HW121905   1.038   2.511   1.950
 3342SOL    HW221906   0.952   2.410   2.023
 3343SOL     OW21907   1.840   3.522   3.664
 3343SOL    HW121908   1.750   3.496   3.644
 3343SOL    HW221909   1.844   3.615   3.640
 3344SOL     OW21910   1.595   1.341   5.326
 3344SOL    HW121911   1.567   1.422   5.368
 3344SOL    HW221912   1.690   1.345   5.325
 3345SOL     OW21913   3.976   0.803  18.503
 3345SOL    HW121914   4.046   0.827  18.564
 3345SOL    HW221915   3.921   0.743  18.553
 3346SOL     OW21916   1.427   4.269  20.473
 3346SOL    HW121917   1.338   4.289  20.441
 3346SOL    HW221918   1.481   4.338  20.434
 3347SOL     OW21919   0.744   1.043  16.924
 3347SOL    HW121920   0.812   1.098  16.886
 3347SOL    HW221921   0.687   1.103  16.972
 3348SOL     OW21922   0.735   0.302   3.304
 3348SOL    HW121923   0.799   0.361   3.263
 3348SOL    HW221924   0.676   0.360   3.352
 3349SOL     OW21925   1.380   2.481  17.493
 3349SOL    HW121926   1.460   2.512  17.535
 3349SOL    HW221927   1.374   2.389  17.518
 3350SOL     OW21928   3.187   1.530  16.346
 3350SOL    HW121929   3.130   1.469  16.299
 3350SOL    HW221930   3.129   1.569  16.412
 3351SOL     OW21931   4.352   2.413   1.492
 3351SOL    HW121932   4.289   2.468   1.445
 3351SOL    HW221933   4.336   2.431   1.585
 3352SOL     OW21934   4.107   3.580   4.642
 3352SOL    HW121935   4.018   3.612   4.630
 3352SOL    HW221936   4.115   3.508   4.579
 3353SOL     OW21937   2.191   3.860  17.150
 3353SOL    HW121938   2.265   3.847  17.209
 3353SOL    HW221939   2.114   3.848  17.206
 3354SOL     OW21940   0.366   0.348  13.881
 3354SOL    HW121941   0.289   0.387  13.839
 3354SOL    HW221942   0.436   0.412  13.868
 3355SOL     OW21943   1.469   0.164   5.752
 3355SOL    HW121944   1.473   0.103   5.826
 3355SOL    HW221945   1.509   0.245   5.786
 3356SOL     OW21946   3.356   4.122  18.712
 3356SOL    HW121947   3.400   4.082  18.787
 3356SOL    HW221948   3.424   4.174  18.669
 3357SOL     OW21949   0.777   0.901   4.775
 3357SOL    HW121950   0.831   0.979   4.775
 3357SOL    HW221951   0.777   0.872   4.866
 3358SOL     OW21952   3.617   0.620  20.636
 3358SOL    HW121953   3.605   0.590  20.726
 3358SOL    HW221954   3.531   0.649  20.608
 3359SOL     OW21955   2.312   2.491  18.131
 3359SOL    HW121956   2.402   2.526  18.132
 3359SOL    HW221957   2.306   2.438  18.210
 3360SOL     OW21958   0.121   0.814  20.419
 3360SOL    HW121959   0.086   0.872  20.487
 3360SOL    HW221960   0.207   0.852  20.397
 3361SOL     OW21961   2.346   2.238   0.075
 3361SOL    HW121962   2.396   2.282   0.006
 3361SOL    HW221963   2.356   2.145   0.056
 3362SOL     OW21964   3.326   1.974  20.000
 3362SOL    HW121965   3.346   1.995  20.092
 3362SOL    HW221966   3.270   2.046  19.971
 3363SOL     OW21967   2.670   3.053  18.793
 3363SOL    HW121968   2.716   3.062  18.877
 3363SOL    HW221969   2.731   3.088  18.728
 3364SOL     OW21970   1.900   4.011   6.921
 3364SOL    HW121971   1.964   4.005   6.849
 3364SOL    HW221972   1.816   4.025   6.877
 3365SOL     OW21973   0.780   2.985   5.297
 3365SOL    HW121974   0.833   2.907   5.317
 3365SOL    HW221975   0.710   2.953   5.241
 3366SOL     OW21976   3.284   4.793   6.064
 3366SOL    HW121977   3.340   0.030   5.993
 3366SOL    HW221978   3.323   4.710   6.092
 3367SOL     OW21979   1.268   0.226  18.832
 3367SOL    HW121980   1.276   0.155  18.768
 3367SOL    HW221981   1.267   0.306  18.779
 3368SOL     OW21982   1.409   0.761  19.536
 3368SOL    HW121983   1.447   0.814  19.606
 3368SOL    HW221984   1.456   0.678  19.541
 3369SOL     OW21985   3.043   1.148   5.034
 3369SOL    HW121986   3.087   1.064   5.043
 3369SOL    HW221987   3.025   1.176   5.124
 3370SOL     OW21988   4.667   1.665   8.165
 3370SOL    HW121989   4.628   1.675   8.079
 3370SOL    HW221990   4.698   1.752   8.188
 3371SOL     OW21991   3.529   1.610  18.196
 3371SOL    HW121992   3.521   1.521  18.161
 3371SOL    HW221993   3.445   1.627  18.237
 3372SOL     OW21994   1.238   3.182  15.746
 3372SOL    HW121995   1.196   3.112  15.796
 3372SOL    HW221996   1.266   3.140  15.665
 3373SOL     OW21997   1.451   4.673   1.137
 3373SOL    HW121998   1.526   4.666   1.078
 3373SOL    HW221999   1.488   4.661   1.225
 3374SOL     OW22000   1.927   4.259  19.163
 3374SOL    HW122001   1.925   4.179  19.215
 3374SOL    HW222002   1.983   4.238  19.088
 3375SOL     OW22003   3.335   1.281   2.942
 3375SOL    HW122004   3.338   1.371   2.976
 3375SOL    HW222005   3.264   1.283   2.878
 3376SOL     OW22006   3.178   2.842  18.099
 3376SOL    HW122007   3.205   2.873  18.012
 3376SOL    HW222008   3.147   2.920  18.144
 3377SOL     OW22009   2.075   3.929   5.870
 3377SOL    HW122010   2.042   3.967   5.951
 3377SOL    HW222011   2.169   3.949   5.871
 3378SOL     OW22012   2.108   0.698   3.903
 3378SOL    HW122013   2.152   0.613   3.893
 3378SOL    HW222014   2.132   0.727   3.991
 3379SOL     OW22015   1.014   2.138  19.498
 3379SOL    HW122016   0.952   2.119  19.569
 3379SOL    HW222017   0.958   2.152  19.421
 3380SOL     OW22018   2.337   3.279   6.831
 3380SOL    HW122019   2.264   3.282   6.893
 3380SOL    HW222020   2.398   3.344   6.864
 3381SOL     OW22021   2.303   3.364   0.166
 3381SOL    HW122022   2.279   3.386   0.256
 3381SOL    HW222023   2.300   3.269   0.162
 3382SOL     OW22024   0.322   0.720   3.909
 3382SOL    HW122025   0.237   0.676   3.899
 3382SOL    HW222026   0.329   0.739   4.003
 3383SOL     OW22027   0.012   0.228  20.670
 3383SOL    HW122028   0.040   0.198  20.583
 3383SOL    HW222029   4.770   0.315  20.655
 3384SOL     OW22030   4.408   1.898   2.133
 3384SOL    HW122031   4.445   1.950   2.062
 3384SOL    HW222032   4.392   1.961   2.203
 3385SOL     OW22033   3.238   4.104  13.416
 3385SOL    HW122034   3.251   4.191  13.378
 3385SOL    HW222035   3.180   4.119  13.491
 3386SOL     OW22036   3.350   3.924   1.840
 3386SOL    HW122037   3.414   3.876   1.788
 3386SOL    HW222038   3.364   3.893   1.930
 3387SOL     OW22039   2.042   3.176  20.091
 3387SOL    HW122040   2.132   3.194  20.116
 3387SOL    HW222041   2.032   3.218  20.005
 3388SOL     OW22042   2.764   3.150   0.099
 3388SOL    HW122043   2.674   3.182   0.099
 3388SOL    HW222044   2.816   3.225   0.070
 3389SOL     OW22045   2.013   1.005  15.109
 3389SOL    HW122046   1.998   1.023  15.202
 3389SOL    HW222047   1.932   1.033  15.066
 3390SOL     OW22048   3.300   3.898  19.215
 3390SOL    HW122049   3.369   3.926  19.276
 3390SOL    HW222050   3.340   3.827  19.165
 3391SOL     OW22051   1.403   2.356   8.050
 3391SOL    HW122052   1.319   2.337   8.092
 3391SOL    HW222053   1.382   2.420   7.983
 3392SOL     OW22054   0.629   1.487   2.596
 3392SOL    HW122055   0.663   1.420   2.655
 3392SOL    HW222056   0.686   1.484   2.519
 3393SOL     OW22057   3.465   2.478  19.934
 3393SOL    HW122058   3.535   2.543  19.937
 3393SOL    HW222059   3.505   2.398  19.967
 3394SOL     OW22060   0.682   0.512  15.654
 3394SOL    HW122061   0.771   0.534  15.628
 3394SOL    HW222062   0.671   0.421  15.627
 3395SOL     OW22063   2.382   2.016   1.526
 3395SOL    HW122064   2.393   1.985   1.616
 3395SOL    HW222065   2.468   2.006   1.486
 3396SOL     OW22066   0.719   4.050  17.803
 3396SOL    HW122067   0.639   4.078  17.849
 3396SOL    HW222068   0.785   4.113  17.830
 3397SOL     OW22069   3.098   1.048  18.725
 3397SOL    HW122070   3.128   1.138  18.711
 3397SOL    HW222071   3.177   0.998  18.745
 3398SOL     OW22072   1.900   3.302   7.671
 3398SOL    HW122073   1.907   3.322   7.764
 3398SOL    HW222074   1.820   3.347   7.643
 3399SOL     OW22075   0.315   1.103  16.639
 3399SOL    HW122076   0.316   1.011  16.612
 3399SOL    HW222077   0.266   1.147  16.570
 3400SOL     OW22078   4.391   1.423  16.196
 3400SOL    HW122079   4.331   1.350  16.178
 3400SOL    HW222080   4.364   1.492  16.135
 3401SOL     OW22081   3.478   4.581  19.188
 3401SOL    HW122082   3.483   4.669  19.223
 3401SOL    HW222083   3.499   4.590  19.095
 3402SOL     OW22084   3.364   2.441   1.277
 3402SOL    HW122085   3.314   2.361   1.294
 3402SOL    HW222086   3.406   2.425   1.192
 3403SOL     OW22087   3.111   1.903   2.593
 3403SOL    HW122088   3.163   1.911   2.513
 3403SOL    HW222089   3.065   1.986   2.600
 3404SOL     OW22090   0.449   4.578   0.089
 3404SOL    HW122091   0.442   4.659   0.139
 3404SOL    HW222092   0.359   4.559   0.062
 3405SOL     OW22093   2.038   0.991  16.863
 3405SOL    HW122094   2.114   1.009  16.807
 3405SOL    HW222095   2.054   0.903  16.897
 3406SOL     OW22096   0.088   1.170  17.212
 3406SOL    HW122097   0.118   1.261  17.205
 3406SOL    HW222098   0.084   1.152  17.306
 3407SOL     OW22099   1.196   1.378   0.690
 3407SOL    HW122100   1.160   1.455   0.646
 3407SOL    HW222101   1.221   1.319   0.618
 3408SOL     OW22102   2.815   2.784   3.715
 3408SOL    HW122103   2.896   2.821   3.680
 3408SOL    HW222104   2.788   2.720   3.649
 3409SOL     OW22105   2.997   2.891  20.915
 3409SOL    HW122106   2.951   2.819  20.959
 3409SOL    HW222107   3.031   2.945  20.986
 3410SOL     OW22108   0.630   3.752   5.988
 3410SOL    HW122109   0.645   3.739   6.082
 3410SOL    HW222110   0.647   3.667   5.949
 3411SOL     OW22111   3.875   2.592  17.857
 3411SOL    HW122112   3.806   2.573  17.794
 3411SOL    HW222113   3.947   2.534  17.832
 3412SOL     OW22114   0.821   2.464  16.120
 3412SOL    HW122115   0.783   2.414  16.193
 3412SOL    HW222116   0.762   2.539  16.110
 3413SOL     OW22117   0.863   0.771  17.909
 3413SOL    HW122118   0.783   0.818  17.936
 3413SOL    HW222119   0.857   0.769  17.813
 3414SOL     OW22120   1.556   0.345  20.563
 3414SOL    HW122121   1.471   0.307  20.583
 3414SOL    HW222122   1.566   0.416  20.625
 3415SOL     OW22123   0.312   3.482  19.450
 3415SOL    HW122124   0.284   3.571  19.470
 3415SOL    HW222125   0.278   3.429  19.521
 3416SOL     OW22126   1.480   4.657  20.135
 3416SOL    HW122127   1.552   4.698  20.183
 3416SOL    HW222128   1.495   4.563  20.145
 3417SOL     OW22129   2.293   3.545   4.397
 3417SOL    HW122130   2.255   3.514   4.480
 3417SOL    HW222131   2.268   3.638   4.393
 3418SOL     OW22132   2.231   2.510   6.583
 3418SOL    HW122133   2.252   2.443   6.517
 3418SOL    HW222134   2.185   2.462   6.652
 3419SOL     OW22135   2.765   4.168  14.494
 3419SOL    HW122136   2.748   4.221  14.417
 3419SOL    HW222137   2.851   4.129  14.479
 3420SOL     OW22138   0.703   0.415  20.437
 3420SOL    HW122139   0.688   0.422  20.343
 3420SOL    HW222140   0.616   0.418  20.476
 3421SOL     OW22141   4.012   3.783   6.698
 3421SOL    HW122142   4.037   3.694   6.724
 3421SOL    HW222143   4.031   3.787   6.605
 3422SOL     OW22144   0.288   3.781   2.276
 3422SOL    HW122145   0.203   3.822   2.291
 3422SOL    HW222146   0.313   3.744   2.361
 3423SOL     OW22147   3.782   2.872  15.892
 3423SOL    HW122148   3.770   2.778  15.902
 3423SOL    HW222149   3.810   2.883  15.801
 3424SOL     OW22150   2.391   1.574  20.000
 3424SOL    HW122151   2.381   1.623  19.919
 3424SOL    HW222152   2.395   1.640  20.068
 3425SOL     OW22153   0.401   0.712   4.722
 3425SOL    HW122154   0.472   0.653   4.696
 3425SOL    HW222155   0.328   0.688   4.664
 3426SOL     OW22156   1.740   3.917   5.154
 3426SOL    HW122157   1.730   3.921   5.249
 3426SOL    HW222158   1.672   3.856   5.125
 3427SOL     OW22159   3.464   2.484   0.997
 3427SOL    HW122160   3.394   2.549   1.008
 3427SOL    HW222161   3.529   2.528   0.942
 3428SOL     OW22162   0.610   0.915   1.304
 3428SOL    HW122163   0.616   0.979   1.233
 3428SOL    HW222164   0.671   0.946   1.370
 3429SOL     OW22165   2.879   3.559   2.882
 3429SOL    HW122166   2.850   3.497   2.949
 3429SOL    HW222167   2.970   3.535   2.865
 3430SOL     OW22168   4.419   2.889   0.591
 3430SOL    HW122169   4.345   2.841   0.630
 3430SOL    HW222170   4.496   2.850   0.631
 3431SOL     OW22171   3.026   1.738   9.414
 3431SOL    HW122172   2.931   1.734   9.418
 3431SOL    HW222173   3.055   1.651   9.442
 3432SOL     OW22174   2.704   4.456   7.951
 3432SOL    HW122175   2.697   4.475   7.858
 3432SOL    HW222176   2.663   4.369   7.961
 3433SOL     OW22177   4.312   3.766   7.986
 3433SOL    HW122178   4.269   3.850   7.999
 3433SOL    HW222179   4.394   3.788   7.941
 3434SOL     OW22180   3.878   3.931   9.622
 3434SOL    HW122181   3.959   3.971   9.657
 3434SOL    HW222182   3.838   3.889   9.698
 3435SOL     OW22183   1.317   2.434   7.766
 3435SOL    HW122184   1.390   2.497   7.769
 3435SOL    HW222185   1.239   2.488   7.772
 3436SOL     OW22186   1.511   0.868   8.895
 3436SOL    HW122187   1.594   0.825   8.872
 3436SOL    HW222188   1.506   0.860   8.990
 3437SOL     OW22189   2.642   1.566   6.640
 3437SOL    HW122190   2.560   1.519   6.624
 3437SOL    HW222191   2.711   1.506   6.610
 3438SOL     OW22192   1.689   0.771   8.646
 3438SOL    HW122193   1.684   0.711   8.572
 3438SOL    HW222194   1.608   0.821   8.642
 3439SOL     OW22195   2.453   4.359   5.657
 3439SOL    HW122196   2.540   4.326   5.679
 3439SOL    HW222197   2.432   4.318   5.573
 3440SOL     OW22198   0.831   4.040   2.980
 3440SOL    HW122199   0.775   4.091   3.038
 3440SOL    HW222200   0.920   4.067   3.002
 3441SOL     OW22201   1.976   0.364   8.191
 3441SOL    HW122202   1.916   0.399   8.256
 3441SOL    HW222203   1.941   0.393   8.107
 3442SOL     OW22204   1.247   2.121   4.667
 3442SOL    HW122205   1.334   2.138   4.630
 3442SOL    HW222206   1.242   2.178   4.744
 3443SOL     OW22207   3.410   0.809   8.641
 3443SOL    HW122208   3.380   0.822   8.551
 3443SOL    HW222209   3.479   0.743   8.635
 3444SOL     OW22210   2.526   4.311   7.543
 3444SOL    HW122211   2.598   4.303   7.481
 3444SOL    HW222212   2.558   4.369   7.612
 3445SOL     OW22213   1.390   4.598   3.320
 3445SOL    HW122214   1.412   4.644   3.401
 3445SOL    HW222215   1.347   4.664   3.266
 3446SOL     OW22216   4.772   3.673   9.333
 3446SOL    HW122217   4.697   3.675   9.392
 3446SOL    HW222218   4.757   3.744   9.271
 3447SOL     OW22219   2.894   3.805   0.936
 3447SOL    HW122220   2.961   3.843   0.879
 3447SOL    HW222221   2.815   3.803   0.883
 3448SOL     OW22222   1.122   3.413   9.499
 3448SOL    HW122223   1.086   3.429   9.586
 3448SOL    HW222224   1.204   3.367   9.516
 3449SOL     OW22225   2.761   4.099  10.089
 3449SOL    HW122226   2.784   4.101  10.182
 3449SOL    HW222227   2.796   4.016  10.057
 3450SOL     OW22228   3.436   3.474  10.856
 3450SOL    HW122229   3.409   3.559  10.819
 3450SOL    HW222230   3.386   3.467  10.937
 3451SOL     OW22231   0.001   3.501   9.838
 3451SOL    HW122232   0.048   3.585   9.838
 3451SOL    HW222233   0.034   3.456   9.760
 3452SOL     OW22234   2.659   3.800   9.093
 3452SOL    HW122235   2.619   3.873   9.140
 3452SOL    HW222236   2.735   3.838   9.050
 3453SOL     OW22237   0.028   4.579   9.525
 3453SOL    HW122238   0.018   4.532   9.443
 3453SOL    HW222239   0.009   4.670   9.503
 3454SOL     OW22240   3.543   4.405  10.420
 3454SOL    HW122241   3.480   4.447  10.361
 3454SOL    HW222242   3.524   4.311  10.413
 3455SOL     OW22243   0.016   0.722   9.420
 3455SOL    HW122244   4.787   0.751   9.508
 3455SOL    HW222245   4.776   0.632   9.415
 3456SOL     OW22246   3.836   4.196  11.025
 3456SOL    HW122247   3.841   4.101  11.028
 3456SOL    HW222248   3.923   4.224  10.997
 3457SOL     OW22249   0.097   3.899  11.041
 3457SOL    HW122250   0.183   3.918  11.077
 3457SOL    HW222251   0.052   3.851  11.110
 3458SOL     OW22252   3.115   3.216  10.488
 3458SOL    HW122253   3.124   3.205  10.393
 3458SOL    HW222254   3.070   3.299  10.499
 3459SOL     OW22255   3.035   0.211  10.305
 3459SOL    HW122256   2.991   0.269  10.243
 3459SOL    HW222257   2.976   0.208  10.381
 3460SOL     OW22258   3.895   0.153   8.977
 3460SOL    HW122259   3.958   0.101   9.027
 3460SOL    HW222260   3.897   0.239   9.017
 3461SOL     OW22261   4.555   0.536   9.417
 3461SOL    HW122262   4.550   0.469   9.485
 3461SOL    HW222263   4.465   0.566   9.405
 3462SOL     OW22264   4.394   4.112   9.211
 3462SOL    HW122265   4.307   4.148   9.228
 3462SOL    HW222266   4.378   4.029   9.167
 3463SOL     OW22267   0.208   4.466   9.893
 3463SOL    HW122268   0.190   4.436   9.982
 3463SOL    HW222269   0.176   4.395   9.837
 3464SOL     OW22270   0.016   4.083   9.074
 3464SOL    HW122271   0.104   4.114   9.054
 3464SOL    HW222272   0.029   3.998   9.115
 3465SOL     OW22273   3.397   3.732  10.749
 3465SOL    HW122274   3.380   3.792  10.677
 3465SOL    HW222275   3.418   3.788  10.823
 3466SOL     OW22276   4.763   3.923  10.193
 3466SOL    HW122277   0.032   3.852  10.180
 3466SOL    HW222278   4.718   3.901  10.274
 3467SOL     OW22279   0.738   0.376  11.458
 3467SOL    HW122280   0.687   0.315  11.511
 3467SOL    HW222281   0.729   0.343  11.368
 3468SOL     OW22282   4.182   3.540  10.601
 3468SOL    HW122283   4.265   3.518  10.645
 3468SOL    HW222284   4.209   3.573  10.516
 3469SOL     OW22285   3.763   3.089  10.105
 3469SOL    HW122286   3.810   3.005  10.102
 3469SOL    HW222287   3.783   3.130  10.021
 3470SOL     OW22288   3.475   4.484   9.376
 3470SOL    HW122289   3.508   4.412   9.430
 3470SOL    HW222290   3.406   4.524   9.429
 3471SOL     OW22291   4.051   3.447  11.258
 3471SOL    HW122292   3.974   3.473  11.208
 3471SOL    HW222293   4.020   3.436  11.348
 3472SOL     OW22294   0.492   4.465   9.902
 3472SOL    HW122295   0.499   4.383   9.853
 3472SOL    HW222296   0.398   4.482   9.909
 3473SOL     OW22297   3.865   3.106  10.454
 3473SOL    HW122298   3.870   3.045  10.381
 3473SOL    HW222299   3.776   3.139  10.452
 3474SOL     OW22300   0.074   2.707  10.411
 3474SOL    HW122301   4.789   2.678  10.362
 3474SOL    HW222302   0.047   2.702  10.503
 3475SOL     OW22303   2.968   3.757   9.501
 3475SOL    HW122304   2.995   3.728   9.414
 3475SOL    HW222305   3.031   3.716   9.560
 3476SOL     OW22306   4.292   2.618  10.310
 3476SOL    HW122307   4.334   2.699  10.339
 3476SOL    HW222308   4.209   2.646  10.272
 3477SOL     OW22309   2.997   3.465  13.333
 3477SOL    HW122310   3.037   3.500  13.253
 3477SOL    HW222311   2.942   3.536  13.365
 3478SOL     OW22312   1.394   0.239  19.398
 3478SOL    HW122313   1.463   0.247  19.464
 3478SOL    HW222314   1.412   0.310  19.336
 3479SOL     OW22315   3.179   2.240   1.336
 3479SOL    HW122316   3.177   2.144   1.331
 3479SOL    HW222317   3.119   2.262   1.407
 3480SOL     OW22318   3.724   4.685  12.613
 3480SOL    HW122319   3.814   4.718  12.621
 3480SOL    HW222320   3.669   4.763  12.620
 3481SOL     OW22321   2.106   3.803  11.347
 3481SOL    HW122322   2.023   3.770  11.380
 3481SOL    HW222323   2.131   3.742  11.278
 3482SOL     OW22324   3.996   4.006  11.515
 3482SOL    HW122325   4.023   3.916  11.529
 3482SOL    HW222326   4.061   4.043  11.456
 3483SOL     OW22327   2.161   4.393  18.124
 3483SOL    HW122328   2.204   4.309  18.106
 3483SOL    HW222329   2.232   4.452  18.149
 3484SOL     OW22330   3.348   0.982   5.312
 3484SOL    HW122331   3.266   1.024   5.340
 3484SOL    HW222332   3.327   0.943   5.227
 3485SOL     OW22333   3.621   0.128  12.641
 3485SOL    HW122334   3.539   0.101  12.681
 3485SOL    HW222335   3.621   0.224  12.646
 3486SOL     OW22336   3.925   0.504  12.803
 3486SOL    HW122337   3.973   0.585  12.815
 3486SOL    HW222338   3.833   0.528  12.814
 3487SOL     OW22339   4.167   1.666  11.911
 3487SOL    HW122340   4.212   1.739  11.954
 3487SOL    HW222341   4.139   1.609  11.983
 3488SOL     OW22342   3.541   0.613   1.274
 3488SOL    HW122343   3.474   0.681   1.266
 3488SOL    HW222344   3.618   0.659   1.306
 3489SOL     OW22345   0.183   4.330  12.552
 3489SOL    HW122346   0.179   4.298  12.461
 3489SOL    HW222347   0.239   4.266  12.596
 3490SOL     OW22348   3.073   0.428  12.070
 3490SOL    HW122349   3.107   0.490  12.133
 3490SOL    HW222350   3.144   0.366  12.055
 3491SOL     OW22351   1.860   4.691  15.361
 3491SOL    HW122352   1.906   4.632  15.302
 3491SOL    HW222353   1.825   4.759  15.303
 3492SOL     OW22354   4.756   3.799  11.245
 3492SOL    HW122355   4.756   3.818  11.339
 3492SOL    HW222356   4.664   3.808  11.220
 3493SOL     OW22357   0.622   0.463   0.415
 3493SOL    HW122358   0.629   0.544   0.364
 3493SOL    HW222359   0.528   0.449   0.424
 3494SOL     OW22360   4.094   1.637  12.641
 3494SOL    HW122361   4.036   1.713  12.636
 3494SOL    HW222362   4.041   1.563  12.612
 3495SOL     OW22363   0.794   0.673   3.512
 3495SOL    HW122364   0.861   0.605   3.518
 3495SOL    HW222365   0.712   0.627   3.529
 3496SOL     OW22366   0.641   4.469   6.035
 3496SOL    HW122367   0.552   4.435   6.025
 3496SOL    HW222368   0.697   4.393   6.020
 3497SOL     OW22369   3.203   2.860   4.534
 3497SOL    HW122370   3.192   2.809   4.454
 3497SOL    HW222371   3.127   2.919   4.536
 3498SOL     OW22372   0.465   3.818   5.357
 3498SOL    HW122373   0.522   3.751   5.394
 3498SOL    HW222374   0.425   3.860   5.433
 3499SOL     OW22375   2.555   4.381   1.610
 3499SOL    HW122376   2.514   4.394   1.695
 3499SOL    HW222377   2.610   4.304   1.621
 3500SOL     OW22378   4.132   4.577  18.086
 3500SOL    HW122379   4.147   4.484  18.069
 3500SOL    HW222380   4.175   4.622  18.014
 3501SOL     OW22381   4.437   0.316  17.847
 3501SOL    HW122382   4.493   0.247  17.882
 3501SOL    HW222383   4.348   0.290  17.872
 3502SOL     OW22384   2.057   4.530   3.598
 3502SOL    HW122385   2.047   4.464   3.667
 3502SOL    HW222386   2.149   4.524   3.573
 3503SOL     OW22387   2.467   3.765  11.386
 3503SOL    HW122388   2.534   3.815  11.339
 3503SOL    HW222389   2.486   3.780  11.478
 3504SOL     OW22390   2.251   4.479   0.162
 3504SOL    HW122391   2.238   4.500   0.069
 3504SOL    HW222392   2.257   4.383   0.164
 3505SOL     OW22393   1.874   3.438   2.157
 3505SOL    HW122394   1.954   3.415   2.204
 3505SOL    HW222395   1.867   3.533   2.166
 3506SOL     OW22396   0.923   1.014  13.737
 3506SOL    HW122397   0.935   1.073  13.811
 3506SOL    HW222398   0.981   0.941  13.755
 3507SOL     OW22399   3.500   0.005   5.004
 3507SOL    HW122400   3.505   0.090   5.048
 3507SOL    HW222401   3.484   0.027   4.912
 3508SOL     OW22402   0.040   4.159   4.955
 3508SOL    HW122403   0.126   4.123   4.932
 3508SOL    HW222404   0.032   4.144   5.050
 3509SOL     OW22405   1.525   2.919  18.155
 3509SOL    HW122406   1.579   2.990  18.191
 3509SOL    HW222407   1.476   2.886  18.230
 3510SOL     OW22408   0.376   0.247  16.551
 3510SOL    HW122409   0.364   0.203  16.466
 3510SOL    HW222410   0.471   0.253  16.561
 3511SOL     OW22411   0.603   0.733  11.640
 3511SOL    HW122412   0.580   0.641  11.651
 3511SOL    HW222413   0.677   0.732  11.579
 3512SOL     OW22414   0.033   4.781  11.308
 3512SOL    HW122415   4.787   4.767  11.394
 3512SOL    HW222416   4.754   0.020  11.254
 3513SOL     OW22417   3.636   1.175  18.346
 3513SOL    HW122418   3.672   1.213  18.266
 3513SOL    HW222419   3.679   1.090  18.353
 3514SOL     OW22420   0.099   1.668  21.200
 3514SOL    HW122421   0.184   1.651  21.160
 3514SOL    HW222422   0.068   1.582  21.228
 3515SOL     OW22423   4.694   2.089  16.186
 3515SOL    HW122424   4.644   2.109  16.107
 3515SOL    HW222425   4.780   2.128  16.171
 3516SOL     OW22426   4.119   0.830  19.740
 3516SOL    HW122427   4.205   0.808  19.777
 3516SOL    HW222428   4.057   0.780  19.794
 3517SOL     OW22429   1.166   3.972  16.140
 3517SOL    HW122430   1.132   3.943  16.055
 3517SOL    HW222431   1.104   4.039  16.169
 3518SOL     OW22432   4.318   4.571  15.081
 3518SOL    HW122433   4.315   4.535  15.169
 3518SOL    HW222434   4.399   4.537  15.043
 3519SOL     OW22435   4.455   1.388  12.510
 3519SOL    HW122436   4.426   1.382  12.602
 3519SOL    HW222437   4.512   1.465  12.509
 3520SOL     OW22438   1.459   4.622  14.970
 3520SOL    HW122439   1.460   4.717  14.968
 3520SOL    HW222440   1.372   4.599  15.000
 3521SOL     OW22441   1.030   3.391   0.237
 3521SOL    HW122442   0.954   3.448   0.253
 3521SOL    HW222443   1.007   3.342   0.158
 3522SOL     OW22444   0.199   3.797   5.770
 3522SOL    HW122445   0.200   3.702   5.769
 3522SOL    HW222446   0.268   3.822   5.832
 3523SOL     OW22447   2.133   0.538   0.057
 3523SOL    HW122448   2.079   0.581  21.262
 3523SOL    HW222449   2.104   0.447   0.057
 3524SOL     OW22450   1.558   2.297  16.179
 3524SOL    HW122451   1.566   2.390  16.199
 3524SOL    HW222452   1.485   2.266  16.232
 3525SOL     OW22453   0.522   3.412  18.037
 3525SOL    HW122454   0.474   3.336  18.004
 3525SOL    HW222455   0.526   3.398  18.132
 3526SOL     OW22456   4.469   1.604   2.065
 3526SOL    HW122457   4.483   1.675   2.127
 3526SOL    HW222458   4.491   1.641   1.979
 3527SOL     OW22459   4.631   1.391   2.549
 3527SOL    HW122460   4.700   1.420   2.608
 3527SOL    HW222461   4.559   1.454   2.562
 3528SOL     OW22462   1.763   2.557   0.660
 3528SOL    HW122463   1.682   2.595   0.627
 3528SOL    HW222464   1.831   2.594   0.604
 3529SOL     OW22465   0.415   1.609  18.600
 3529SOL    HW122466   0.392   1.560  18.679
 3529SOL    HW222467   0.338   1.662  18.581
 3530SOL     OW22468   0.607   1.582   3.380
 3530SOL    HW122469   0.547   1.624   3.441
 3530SOL    HW222470   0.564   1.588   3.295
 3531SOL     OW22471   4.588   3.991   3.615
 3531SOL    HW122472   4.560   4.076   3.580
 3531SOL    HW222473   4.535   3.927   3.568
 3532SOL     OW22474   1.252   2.026   1.314
 3532SOL    HW122475   1.253   1.965   1.241
 3532SOL    HW222476   1.312   2.096   1.289
 3533SOL     OW22477   1.674   1.808   1.095
 3533SOL    HW122478   1.612   1.880   1.101
 3533SOL    HW222479   1.689   1.796   1.001
 3534SOL     OW22480   4.229   3.071  12.987
 3534SOL    HW122481   4.309   3.104  12.947
 3534SOL    HW222482   4.179   3.150  13.009
 3535SOL     OW22483   2.332   1.172  19.427
 3535SOL    HW122484   2.379   1.164  19.343
 3535SOL    HW222485   2.249   1.214  19.404
 3536SOL     OW22486   2.092   4.386   3.035
 3536SOL    HW122487   2.042   4.394   3.116
 3536SOL    HW222488   2.160   4.322   3.055
 3537SOL     OW22489   2.134   2.275  20.097
 3537SOL    HW122490   2.084   2.216  20.041
 3537SOL    HW222491   2.208   2.302  20.042
 3538SOL     OW22492   4.093   3.376  20.798
 3538SOL    HW122493   4.052   3.353  20.881
 3538SOL    HW222494   4.119   3.293  20.760
 3539SOL     OW22495   2.476   4.160  11.211
 3539SOL    HW122496   2.405   4.099  11.228
 3539SOL    HW222497   2.540   4.144  11.280
 3540SOL     OW22498   1.533   0.901  18.428
 3540SOL    HW122499   1.525   0.806  18.439
 3540SOL    HW222500   1.522   0.936  18.516
 3541SOL     OW22501   4.624   1.749   1.062
 3541SOL    HW122502   4.566   1.825   1.067
 3541SOL    HW222503   4.634   1.722   1.154
 3542SOL     OW22504   0.222   2.538  14.482
 3542SOL    HW122505   0.145   2.520  14.536
 3542SOL    HW222506   0.222   2.633  14.471
 3543SOL     OW22507   2.333   1.743   8.039
 3543SOL    HW122508   2.390   1.799   8.092
 3543SOL    HW222509   2.338   1.657   8.082
 3544SOL     OW22510   4.713   1.807   2.575
 3544SOL    HW122511   4.683   1.866   2.645
 3544SOL    HW222512   4.632   1.776   2.535
 3545SOL     OW22513   0.836   4.089   2.459
 3545SOL    HW122514   0.866   4.008   2.501
 3545SOL    HW222515   0.843   4.156   2.528
 3546SOL     OW22516   4.535   1.702  18.149
 3546SOL    HW122517   4.494   1.740  18.071
 3546SOL    HW222518   4.604   1.645  18.115
 3547SOL     OW22519   0.882   0.707   2.327
 3547SOL    HW122520   0.951   0.773   2.328
 3547SOL    HW222521   0.836   0.718   2.410
 3548SOL     OW22522   4.243   3.484  20.607
 3548SOL    HW122523   4.211   3.455  20.693
 3548SOL    HW222524   4.213   3.415  20.546
 3549SOL     OW22525   0.319   2.161  19.299
 3549SOL    HW122526   0.285   2.224  19.363
 3549SOL    HW222527   0.251   2.155  19.232
 3550SOL     OW22528   0.139   2.396   3.639
 3550SOL    HW122529   0.179   2.315   3.608
 3550SOL    HW222530   0.200   2.465   3.613
 3551SOL     OW22531   1.909   0.423   6.022
 3551SOL    HW122532   1.860   0.479   5.962
 3551SOL    HW222533   1.975   0.481   6.060
 3552SOL     OW22534   3.667   0.174  13.542
 3552SOL    HW122535   3.753   0.133  13.555
 3552SOL    HW222536   3.661   0.187  13.448
 3553SOL     OW22537   2.501   2.938  14.880
 3553SOL    HW122538   2.432   2.872  14.891
 3553SOL    HW222539   2.463   3.018  14.917
 3554SOL     OW22540   4.499   3.040  17.363
 3554SOL    HW122541   4.462   3.128  17.358
 3554SOL    HW222542   4.484   3.003  17.276
 3555SOL     OW22543   3.384   1.579   0.786
 3555SOL    HW122544   3.417   1.507   0.840
 3555SOL    HW222545   3.423   1.658   0.824
 3556SOL     OW22546   0.796   0.129  14.335
 3556SOL    HW122547   0.722   0.145  14.394
 3556SOL    HW222548   0.759   0.078  14.263
 3557SOL     OW22549   0.223   1.053  15.454
 3557SOL    HW122550   0.197   1.115  15.385
 3557SOL    HW222551   0.146   1.045  15.510
 3558SOL     OW22552   2.531   2.401   3.037
 3558SOL    HW122553   2.525   2.372   3.128
 3558SOL    HW222554   2.445   2.438   3.017
 3559SOL     OW22555   3.888   2.251  20.706
 3559SOL    HW122556   3.872   2.184  20.639
 3559SOL    HW222557   3.953   2.309  20.667
 3560SOL     OW22558   4.533   2.368  11.998
 3560SOL    HW122559   4.606   2.393  12.055
 3560SOL    HW222560   4.574   2.319  11.926
 3561SOL     OW22561   0.417   1.371   3.124
 3561SOL    HW122562   0.351   1.307   3.097
 3561SOL    HW222563   0.366   1.447   3.153
 3562SOL     OW22564   1.678   2.542   3.848
 3562SOL    HW122565   1.738   2.480   3.890
 3562SOL    HW222566   1.599   2.490   3.829
 3563SOL     OW22567   4.151   3.327   2.031
 3563SOL    HW122568   4.204   3.404   2.010
 3563SOL    HW222569   4.128   3.289   1.946
 3564SOL     OW22570   1.107   1.234  15.281
 3564SOL    HW122571   1.166   1.309  15.278
 3564SOL    HW222572   1.142   1.179  15.352
 3565SOL     OW22573   4.780   1.278   1.528
 3565SOL    HW122574   0.061   1.231   1.566
 3565SOL    HW222575   4.781   1.363   1.573
 3566SOL     OW22576   3.683   2.004   7.363
 3566SOL    HW122577   3.635   1.954   7.298
 3566SOL    HW222578   3.775   1.991   7.342
 3567SOL     OW22579   1.387   2.798  17.091
 3567SOL    HW122580   1.326   2.869  17.072
 3567SOL    HW222581   1.393   2.797  17.187
 3568SOL     OW22582   3.322   3.622  15.241
 3568SOL    HW122583   3.279   3.670  15.312
 3568SOL    HW222584   3.253   3.570  15.202
 3569SOL     OW22585   0.695   3.811  18.698
 3569SOL    HW122586   0.714   3.836  18.788
 3569SOL    HW222587   0.607   3.846  18.681
 3570SOL     OW22588   4.075   4.252  14.215
 3570SOL    HW122589   4.146   4.200  14.254
 3570SOL    HW222590   4.006   4.252  14.281
 3571SOL     OW22591   2.943   2.133   7.611
 3571SOL    HW122592   3.023   2.176   7.582
 3571SOL    HW222593   2.953   2.042   7.584
 3572SOL     OW22594   3.171   0.880   4.621
 3572SOL    HW122595   3.258   0.918   4.610
 3572SOL    HW222596   3.115   0.955   4.643
 3573SOL     OW22597   1.082   1.595  20.930
 3573SOL    HW122598   1.001   1.642  20.953
 3573SOL    HW222599   1.079   1.588  20.834
 3574SOL     OW22600   3.457   3.285  15.961
 3574SOL    HW122601   3.471   3.371  16.001
 3574SOL    HW222602   3.536   3.269  15.910
 3575SOL     OW22603   0.378   0.058  18.213
 3575SOL    HW122604   0.302   0.088  18.263
 3575SOL    HW222605   0.430   0.137  18.200
 3576SOL     OW22606   2.864   4.318   5.980
 3576SOL    HW122607   2.901   4.396   5.941
 3576SOL    HW222608   2.914   4.304   6.060
 3577SOL     OW22609   2.093   1.059  12.334
 3577SOL    HW122610   2.114   0.972  12.368
 3577SOL    HW222611   2.160   1.077  12.269
 3578SOL     OW22612   3.952   4.001  19.160
 3578SOL    HW122613   3.883   4.030  19.100
 3578SOL    HW222614   4.004   4.080  19.176
 3579SOL     OW22615   1.349   2.975   4.650
 3579SOL    HW122616   1.287   3.042   4.620
 3579SOL    HW222617   1.378   3.007   4.735
 3580SOL     OW22618   0.716   4.346  17.514
 3580SOL    HW122619   0.774   4.392  17.575
 3580SOL    HW222620   0.742   4.378  17.427
 3581SOL     OW22621   1.862   1.951  17.229
 3581SOL    HW122622   1.878   1.863  17.264
 3581SOL    HW222623   1.921   1.957  17.154
 3582SOL     OW22624   2.389   3.172  20.429
 3582SOL    HW122625   2.404   3.197  20.520
 3582SOL    HW222626   2.476   3.176  20.389
 3583SOL     OW22627   3.373   3.347   4.510
 3583SOL    HW122628   3.448   3.405   4.499
 3583SOL    HW222629   3.350   3.355   4.602
 3584SOL     OW22630   3.237   2.562   2.748
 3584SOL    HW122631   3.142   2.564   2.758
 3584SOL    HW222632   3.254   2.614   2.669
 3585SOL     OW22633   2.380   3.267  17.244
 3585SOL    HW122634   2.398   3.203  17.313
 3585SOL    HW222635   2.465   3.284  17.203
 3586SOL     OW22636   1.516   0.838   6.384
 3586SOL    HW122637   1.549   0.909   6.438
 3586SOL    HW222638   1.444   0.801   6.435
 3587SOL     OW22639   0.886   2.764  18.769
 3587SOL    HW122640   0.936   2.841  18.796
 3587SOL    HW222641   0.811   2.799  18.722
 3588SOL     OW22642   1.144   4.571  16.421
 3588SOL    HW122643   1.079   4.501  16.431
 3588SOL    HW222644   1.167   4.568  16.328
 3589SOL     OW22645   0.895   1.971   3.648
 3589SOL    HW122646   0.921   1.995   3.559
 3589SOL    HW222647   0.950   1.896   3.669
 3590SOL     OW22648   0.302   3.819   7.101
 3590SOL    HW122649   0.389   3.818   7.139
 3590SOL    HW222650   0.247   3.861   7.167
 3591SOL     OW22651   0.383   4.331  13.653
 3591SOL    HW122652   0.350   4.346  13.564
 3591SOL    HW222653   0.363   4.240  13.672
 3592SOL     OW22654   1.157   0.668   2.564
 3592SOL    HW122655   1.136   0.597   2.503
 3592SOL    HW222656   1.087   0.664   2.629
 3593SOL     OW22657   3.238   0.517  16.505
 3593SOL    HW122658   3.327   0.484  16.505
 3593SOL    HW222659   3.183   0.439  16.511
 3594SOL     OW22660   2.655   1.458  13.163
 3594SOL    HW122661   2.566   1.487  13.143
 3594SOL    HW222662   2.689   1.426  13.080
 3595SOL     OW22663   1.755   2.443  20.776
 3595SOL    HW122664   1.708   2.443  20.693
 3595SOL    HW222665   1.847   2.452  20.752
 3596SOL     OW22666   0.825   1.082   2.903
 3596SOL    HW122667   0.919   1.096   2.891
 3596SOL    HW222668   0.819   0.996   2.945
 3597SOL     OW22669   2.693   3.841  15.279
 3597SOL    HW122670   2.628   3.792  15.329
 3597SOL    HW222671   2.687   3.806  15.190
 3598SOL     OW22672   2.939   4.787   2.792
 3598SOL    HW122673   3.028   0.010   2.761
 3598SOL    HW222674   2.886   4.783   2.713
 3599SOL     OW22675   1.308   3.421  16.709
 3599SOL    HW122676   1.246   3.366  16.661
 3599SOL    HW222677   1.282   3.511  16.688
 3600SOL     OW22678   2.077   3.886  16.462
 3600SOL    HW122679   1.999   3.850  16.504
 3600SOL    HW222680   2.044   3.960  16.410
 3601SOL     OW22681   3.580   4.337  16.342
 3601SOL    HW122682   3.672   4.311  16.339
 3601SOL    HW222683   3.565   4.364  16.432
 3602SOL     OW22684   1.965   0.284   3.678
 3602SOL    HW122685   1.930   0.250   3.761
 3602SOL    HW222686   1.888   0.319   3.633
 3603SOL     OW22687   0.409   0.653   5.933
 3603SOL    HW122688   0.417   0.685   5.843
 3603SOL    HW222689   0.462   0.714   5.984
 3604SOL     OW22690   3.106   2.967  16.084
 3604SOL    HW122691   3.043   2.992  16.016
 3604SOL    HW222692   3.078   3.016  16.162
 3605SOL     OW22693   2.264   1.441   0.322
 3605SOL    HW122694   2.332   1.386   0.361
 3605SOL    HW222695   2.228   1.490   0.396
 3606SOL     OW22696   4.030   2.779  16.013
 3606SOL    HW122697   3.978   2.847  15.971
 3606SOL    HW222698   3.980   2.699  16.001
 3607SOL     OW22699   1.317   1.710  20.728
 3607SOL    HW122700   1.397   1.762  20.739
 3607SOL    HW222701   1.305   1.703  20.633
 3608SOL     OW22702   3.676   1.692  14.236
 3608SOL    HW122703   3.641   1.774  14.201
 3608SOL    HW222704   3.761   1.682  14.194
 3609SOL     OW22705   0.715   3.618  18.979
 3609SOL    HW122706   0.799   3.577  19.001
 3609SOL    HW222707   0.738   3.707  18.953
 3610SOL     OW22708   1.896   1.281   3.828
 3610SOL    HW122709   1.840   1.286   3.750
 3610SOL    HW222710   1.858   1.211   3.881
 3611SOL     OW22711   0.547   4.681  20.004
 3611SOL    HW122712   0.589   4.709  20.086
 3611SOL    HW222713   0.510   4.762  19.968
 3612SOL     OW22714   3.888   1.511   6.983
 3612SOL    HW122715   3.837   1.586   6.953
 3612SOL    HW222716   3.979   1.533   6.962
 3613SOL     OW22717   2.692   2.043   5.954
 3613SOL    HW122718   2.722   2.118   6.006
 3613SOL    HW222719   2.772   2.007   5.916
 3614SOL     OW22720   3.725   4.648   1.980
 3614SOL    HW122721   3.668   4.625   1.907
 3614SOL    HW222722   3.700   4.738   2.002
 3615SOL     OW22723   0.657   4.675  12.779
 3615SOL    HW122724   0.691   4.710  12.697
 3615SOL    HW222725   0.563   4.691  12.775
 3616SOL     OW22726   2.921   3.090   3.078
 3616SOL    HW122727   3.008   3.117   3.049
 3616SOL    HW222728   2.935   3.052   3.164
 3617SOL     OW22729   2.128   0.405  15.716
 3617SOL    HW122730   2.134   0.485  15.664
 3617SOL    HW222731   2.194   0.346  15.678
 3618SOL     OW22732   3.137   2.257  18.091
 3618SOL    HW122733   3.215   2.311  18.081
 3618SOL    HW222734   3.064   2.318  18.079
 3619SOL     OW22735   4.033   1.154   6.831
 3619SOL    HW122736   4.115   1.148   6.781
 3619SOL    HW222737   4.007   1.063   6.845
 3620SOL     OW22738   0.182   4.194  17.360
 3620SOL    HW122739   0.222   4.210  17.445
 3620SOL    HW222740   0.230   4.119  17.325
 3621SOL     OW22741   1.390   0.836  16.610
 3621SOL    HW122742   1.363   0.925  16.586
 3621SOL    HW222743   1.316   0.781  16.587
 3622SOL     OW22744   3.742   4.353   5.063
 3622SOL    HW122745   3.683   4.304   5.006
 3622SOL    HW222746   3.694   4.433   5.084
 3623SOL     OW22747   2.192   2.901  16.514
 3623SOL    HW122748   2.158   2.940  16.433
 3623SOL    HW222749   2.275   2.945  16.529
 3624SOL     OW22750   3.614   1.692  19.333
 3624SOL    HW122751   3.570   1.652  19.258
 3624SOL    HW222752   3.641   1.779  19.302
 3625SOL     OW22753   3.391   1.772   4.291
 3625SOL    HW122754   3.479   1.737   4.301
 3625SOL    HW222755   3.404   1.860   4.254
 3626SOL     OW22756   4.020   4.342  21.133
 3626SOL    HW122757   4.101   4.393  21.130
 3626SOL    HW222758   3.975   4.363  21.051
 3627SOL     OW22759   4.057   4.333  16.237
 3627SOL    HW122760   4.004   4.382  16.300
 3627SOL    HW222761   4.010   4.251  16.225
 3628SOL     OW22762   0.383   0.432  16.180
 3628SOL    HW122763   0.337   0.469  16.256
 3628SOL    HW222764   0.364   0.493  16.109
 3629SOL     OW22765   1.361   2.651   1.301
 3629SOL    HW122766   1.453   2.678   1.294
 3629SOL    HW222767   1.333   2.683   1.387
 3630SOL     OW22768   0.033   0.476   4.157
 3630SOL    HW122769   0.077   0.406   4.110
 3630SOL    HW222770   4.733   0.458   4.146
 3631SOL     OW22771   3.315   0.417   5.398
 3631SOL    HW122772   3.361   0.481   5.453
 3631SOL    HW222773   3.233   0.461   5.375
 3632SOL     OW22774   2.022   0.270   0.065
 3632SOL    HW122775   2.054   0.254   0.153
 3632SOL    HW222776   2.034   0.187   0.019
 3633SOL     OW22777   3.512   2.647   6.393
 3633SOL    HW122778   3.569   2.581   6.356
 3633SOL    HW222779   3.465   2.684   6.318
 3634SOL     OW22780   1.362   0.232  18.204
 3634SOL    HW122781   1.371   0.327  18.214
 3634SOL    HW222782   1.268   0.218  18.197
 3635SOL     OW22783   4.069   3.682   3.611
 3635SOL    HW122784   4.005   3.729   3.664
 3635SOL    HW222785   4.120   3.632   3.675
 3636SOL     OW22786   3.893   3.641   6.963
 3636SOL    HW122787   3.940   3.616   6.883
 3636SOL    HW222788   3.806   3.665   6.932
 3637SOL     OW22789   0.694   1.936  20.453
 3637SOL    HW122790   0.642   2.011  20.481
 3637SOL    HW222791   0.778   1.946  20.499
 3638SOL     OW22792   3.122   1.782   4.296
 3638SOL    HW122793   3.213   1.786   4.325
 3638SOL    HW222794   3.101   1.872   4.269
 3639SOL     OW22795   2.149   4.594  21.138
 3639SOL    HW122796   2.094   4.541  21.080
 3639SOL    HW222797   2.237   4.556  21.130
 3640SOL     OW22798   0.994   3.548   3.782
 3640SOL    HW122799   1.022   3.491   3.854
 3640SOL    HW222800   0.904   3.571   3.805
 3641SOL     OW22801   2.303   1.598   4.809
 3641SOL    HW122802   2.338   1.552   4.885
 3641SOL    HW222803   2.225   1.643   4.842
 3642SOL     OW22804   3.409   1.223   5.913
 3642SOL    HW122805   3.358   1.269   5.980
 3642SOL    HW222806   3.415   1.133   5.945
 3643SOL     OW22807   2.385   1.445   6.578
 3643SOL    HW122808   2.303   1.401   6.598
 3643SOL    HW222809   2.368   1.537   6.599
 3644SOL     OW22810   2.860   1.589  20.518
 3644SOL    HW122811   2.929   1.522  20.524
 3644SOL    HW222812   2.857   1.613  20.425
 3645SOL     OW22813   0.584   0.562  21.071
 3645SOL    HW122814   0.593   0.522  21.157
 3645SOL    HW222815   0.659   0.531  21.021
 3646SOL     OW22816   4.498   0.153   3.039
 3646SOL    HW122817   4.428   0.140   3.103
 3646SOL    HW222818   4.564   0.204   3.086
 3647SOL     OW22819   1.296   4.247   2.131
 3647SOL    HW122820   1.215   4.298   2.120
 3647SOL    HW222821   1.356   4.282   2.065
 3648SOL     OW22822   3.047   2.456   5.901
 3648SOL    HW122823   2.979   2.514   5.866
 3648SOL    HW222824   3.124   2.512   5.908
 3649SOL     OW22825   0.631   3.149  18.834
 3649SOL    HW122826   0.672   3.102  18.762
 3649SOL    HW222827   0.575   3.214  18.792
 3650SOL     OW22828   3.750   2.727   3.863
 3650SOL    HW122829   3.672   2.672   3.854
 3650SOL    HW222830   3.823   2.665   3.864
 3651SOL     OW22831   4.570   0.667   0.602
 3651SOL    HW122832   4.494   0.673   0.661
 3651SOL    HW222833   4.558   0.585   0.555
 3652SOL     OW22834   3.279   2.007   5.088
 3652SOL    HW122835   3.318   2.081   5.134
 3652SOL    HW222836   3.353   1.957   5.054
 3653SOL     OW22837   3.430   0.557   8.263
 3653SOL    HW122838   3.485   0.635   8.273
 3653SOL    HW222839   3.486   0.494   8.217
 3654SOL     OW22840   3.484   2.488   4.614
 3654SOL    HW122841   3.479   2.434   4.535
 3654SOL    HW222842   3.504   2.426   4.684
 3655SOL     OW22843   1.260   0.415  18.626
 3655SOL    HW122844   1.347   0.393  18.593
 3655SOL    HW222845   1.261   0.511  18.632
 3656SOL     OW22846   2.459   1.023  16.962
 3656SOL    HW122847   2.390   1.079  16.999
 3656SOL    HW222848   2.537   1.044  17.014
 3657SOL     OW22849   3.198   3.055   5.828
 3657SOL    HW122850   3.219   3.110   5.903
 3657SOL    HW222851   3.163   2.974   5.866
 3658SOL     OW22852   2.761   0.334  16.619
 3658SOL    HW122853   2.713   0.296  16.545
 3658SOL    HW222854   2.769   0.263  16.682
 3659SOL     OW22855   0.962   3.837   3.739
 3659SOL    HW122856   0.998   3.771   3.799
 3659SOL    HW222857   0.867   3.832   3.752
 3660SOL     OW22858   1.831   4.068   1.317
 3660SOL    HW122859   1.752   4.092   1.366
 3660SOL    HW222860   1.903   4.109   1.365
 3661SOL     OW22861   0.200   0.392  16.949
 3661SOL    HW122862   0.201   0.344  17.032
 3661SOL    HW222863   0.168   0.479  16.972
 3662SOL     OW22864   0.399   2.849   5.050
 3662SOL    HW122865   0.493   2.845   5.066
 3662SOL    HW222866   0.388   2.918   4.985
 3663SOL     OW22867   3.108   3.918   4.350
 3663SOL    HW122868   3.078   3.856   4.417
 3663SOL    HW222869   3.187   3.957   4.388
 3664SOL     OW22870   2.195   4.246  18.563
 3664SOL    HW122871   2.200   4.261  18.657
 3664SOL    HW222872   2.222   4.155  18.551
 3665SOL     OW22873   4.731   0.407   3.088
 3665SOL    HW122874   4.712   0.450   3.172
 3665SOL    HW222875   0.023   0.365   3.101
 3666SOL     OW22876   3.677   3.759   4.513
 3666SOL    HW122877   3.629   3.741   4.432
 3666SOL    HW222878   3.632   3.834   4.551
 3667SOL     OW22879   1.524   4.373   5.002
 3667SOL    HW122880   1.479   4.306   4.950
 3667SOL    HW222881   1.460   4.444   5.008
 3668SOL     OW22882   3.734   2.029   3.435
 3668SOL    HW122883   3.731   2.088   3.510
 3668SOL    HW222884   3.825   2.033   3.405
 3669SOL     OW22885   4.260   0.934  15.786
 3669SOL    HW122886   4.211   0.852  15.787
 3669SOL    HW222887   4.274   0.956  15.878
 3670SOL     OW22888   0.033   4.071   1.917
 3670SOL    HW122889   4.771   4.005   1.959
 3670SOL    HW222890   0.076   4.024   1.846
 3671SOL     OW22891   1.255   3.831   0.798
 3671SOL    HW122892   1.320   3.896   0.822
 3671SOL    HW222893   1.192   3.878   0.742
 3672SOL     OW22894   1.576   1.636  17.062
 3672SOL    HW122895   1.530   1.612  16.982
 3672SOL    HW222896   1.655   1.680  17.032
 3673SOL     OW22897   3.553   2.191  19.625
 3673SOL    HW122898   3.520   2.120  19.679
 3673SOL    HW222899   3.475   2.230  19.586
 3674SOL     OW22900   1.217   4.519   4.352
 3674SOL    HW122901   1.291   4.553   4.402
 3674SOL    HW222902   1.241   4.428   4.333
 3675SOL     OW22903   2.106   3.478   4.602
 3675SOL    HW122904   2.100   3.400   4.547
 3675SOL    HW222905   2.017   3.514   4.602
 3676SOL     OW22906   0.392   0.020   1.938
 3676SOL    HW122907   0.420   0.086   2.001
 3676SOL    HW222908   0.329   4.759   1.986
 3677SOL     OW22909   4.387   4.576   2.374
 3677SOL    HW122910   4.460   4.619   2.418
 3677SOL    HW222911   4.426   4.541   2.293
 3678SOL     OW22912   3.606   1.921  19.985
 3678SOL    HW122913   3.510   1.927  19.992
 3678SOL    HW222914   3.621   1.889  19.896
 3679SOL     OW22915   0.480   1.967   3.433
 3679SOL    HW122916   0.484   1.874   3.456
 3679SOL    HW222917   0.563   1.984   3.390
 3680SOL     OW22918   3.351   0.702   0.376
 3680SOL    HW122919   3.382   0.664   0.458
 3680SOL    HW222920   3.385   0.792   0.377
 3681SOL     OW22921   1.490   4.378  20.796
 3681SOL    HW122922   1.487   4.344  20.886
 3681SOL    HW222923   1.411   4.432  20.789
 3682SOL     OW22924   3.529   4.032   2.033
 3682SOL    HW122925   3.482   4.065   1.956
 3682SOL    HW222926   3.467   3.974   2.076
 3683SOL     OW22927   3.773   2.188   0.292
 3683SOL    HW122928   3.776   2.204   0.198
 3683SOL    HW222929   3.699   2.241   0.323
 3684SOL     OW22930   1.221   3.057  17.338
 3684SOL    HW122931   1.219   2.962  17.347
 3684SOL    HW222932   1.237   3.072  17.244
 3685SOL     OW22933   3.051   4.072   4.587
 3685SOL    HW122934   2.980   4.015   4.616
 3685SOL    HW222935   3.129   4.016   4.589
 3686SOL     OW22936   3.010   1.651  16.529
 3686SOL    HW122937   2.919   1.634  16.553
 3686SOL    HW222938   3.023   1.744  16.549
 3687SOL     OW22939   3.392   3.514  20.940
 3687SOL    HW122940   3.468   3.534  20.885
 3687SOL    HW222941   3.430   3.494  21.026
 3688SOL     OW22942   0.222   3.791  17.796
 3688SOL    HW122943   0.149   3.777  17.736
 3688SOL    HW222944   0.185   3.843  17.868
 3689SOL     OW22945   2.485   2.706   4.784
 3689SOL    HW122946   2.415   2.642   4.798
 3689SOL    HW222947   2.520   2.684   4.698
 3690SOL     OW22948   3.472   1.235  21.188
 3690SOL    HW122949   3.411   1.306  21.209
 3690SOL    HW222950   3.555   1.279  21.170
 3691SOL     OW22951   4.187   4.509   2.534
 3691SOL    HW122952   4.148   4.429   2.498
 3691SOL    HW222953   4.267   4.522   2.482
 3692SOL     OW22954   2.385   4.473  20.219
 3692SOL    HW122955   2.472   4.510  20.208
 3692SOL    HW222956   2.399   4.378  20.220
 3693SOL     OW22957   1.001   4.390   1.428
 3693SOL    HW122958   1.063   4.372   1.357
 3693SOL    HW222959   1.036   4.342   1.503
 3694SOL     OW22960   4.406   1.651  19.515
 3694SOL    HW122961   4.378   1.716  19.450
 3694SOL    HW222962   4.492   1.624  19.485
 3695SOL     OW22963   1.250   2.141   3.888
 3695SOL    HW122964   1.193   2.064   3.894
 3695SOL    HW222965   1.198   2.205   3.839
 3696SOL     OW22966   0.559   3.451  19.554
 3696SOL    HW122967   0.622   3.397  19.508
 3696SOL    HW222968   0.485   3.458  19.494
 3697SOL     OW22969   1.788   0.743  15.152
 3697SOL    HW122970   1.882   0.744  15.137
 3697SOL    HW222971   1.765   0.834  15.170
 3698SOL     OW22972   2.089   2.031  15.652
 3698SOL    HW122973   2.073   2.122  15.629
 3698SOL    HW222974   2.175   2.012  15.615
 3699SOL     OW22975   2.033   3.801   5.006
 3699SOL    HW122976   1.951   3.790   4.958
 3699SOL    HW222977   2.096   3.747   4.958
 3700SOL     OW22978   2.535   3.491  18.970
 3700SOL    HW122979   2.543   3.410  18.919
 3700SOL    HW222980   2.474   3.545  18.920
 3701SOL     OW22981   4.616   2.257   2.470
 3701SOL    HW122982   4.571   2.287   2.391
 3701SOL    HW222983   4.546   2.232   2.530
 3702SOL     OW22984   4.094   0.864   5.709
 3702SOL    HW122985   4.040   0.904   5.640
 3702SOL    HW222986   4.181   0.857   5.671
 3703SOL     OW22987   0.925   1.364  20.044
 3703SOL    HW122988   0.888   1.417  19.973
 3703SOL    HW222989   0.850   1.335  20.095
 3704SOL     OW22990   2.749   1.682   6.001
 3704SOL    HW122991   2.742   1.765   6.049
 3704SOL    HW222992   2.840   1.655   6.010
 3705SOL     OW22993   0.884   3.750  19.625
 3705SOL    HW122994   0.915   3.710  19.543
 3705SOL    HW222995   0.908   3.688  19.693
 3706SOL     OW22996   0.660   3.958   4.543
 3706SOL    HW122997   0.640   4.031   4.603
 3706SOL    HW222998   0.755   3.951   4.544
 3707SOL     OW22999   0.613   4.054   3.448
 3707SOL    HW123000   0.705   4.045   3.422
 3707SOL    HW223001   0.615   4.113   3.523
 3708SOL     OW23002   4.782   2.103   1.002
 3708SOL    HW123003   0.084   2.115   1.006
 3708SOL    HW223004   4.747   2.173   1.057
 3709SOL     OW23005   4.121   4.678   9.798
 3709SOL    HW123006   4.162   4.753   9.842
 3709SOL    HW223007   4.185   4.648   9.735
 3710SOL     OW23008   0.035   4.447   5.086
 3710SOL    HW123009   0.110   4.500   5.114
 3710SOL    HW223010   0.071   4.360   5.073
 3711SOL     OW23011   1.678   3.174  18.790
 3711SOL    HW123012   1.769   3.175  18.761
 3711SOL    HW223013   1.662   3.083  18.816
 3712SOL     OW23014   3.487   4.109  17.399
 3712SOL    HW123015   3.508   4.188  17.348
 3712SOL    HW223016   3.406   4.131  17.444
 3713SOL     OW23017   4.022   0.896  20.467
 3713SOL    HW123018   4.077   0.843  20.409
 3713SOL    HW223019   4.064   0.888  20.553
 3714SOL     OW23020   2.827   2.537   0.151
 3714SOL    HW123021   2.905   2.560   0.100
 3714SOL    HW223022   2.785   2.622   0.169
 3715SOL     OW23023   3.218   4.104   3.058
 3715SOL    HW123024   3.299   4.111   3.008
 3715SOL    HW223025   3.239   4.045   3.131
 3716SOL     OW23026   2.331   3.501   5.172
 3716SOL    HW123027   2.247   3.459   5.190
 3716SOL    HW223028   2.332   3.511   5.076
 3717SOL     OW23029   3.594   4.632  15.668
 3717SOL    HW123030   3.647   4.552  15.661
 3717SOL    HW223031   3.506   4.604  15.643
 3718SOL     OW23032   4.380   2.536  16.563
 3718SOL    HW123033   4.372   2.451  16.520
 3718SOL    HW223034   4.474   2.547  16.578
 3719SOL     OW23035   1.386   3.248  20.230
 3719SOL    HW123036   1.461   3.196  20.204
 3719SOL    HW223037   1.316   3.223  20.170
 3720SOL     OW23038   0.747   1.620  17.234
 3720SOL    HW123039   0.763   1.528  17.214
 3720SOL    HW223040   0.702   1.619  17.318
 3721SOL     OW23041   1.363   3.428  12.649
 3721SOL    HW123042   1.440   3.422  12.706
 3721SOL    HW223043   1.377   3.361  12.583
 3722SOL     OW23044   4.670   0.072  20.861
 3722SOL    HW123045   4.703   0.093  20.774
 3722SOL    HW223046   4.578   0.048  20.847
 3723SOL     OW23047   4.426   4.180  18.684
 3723SOL    HW123048   4.399   4.102  18.636
 3723SOL    HW223049   4.470   4.146  18.762
 3724SOL     OW23050   0.962   3.355  16.800
 3724SOL    HW123051   0.868   3.375  16.810
 3724SOL    HW223052   1.006   3.430  16.839
 3725SOL     OW23053   0.623   2.877  18.320
 3725SOL    HW123054   0.603   2.832  18.401
 3725SOL    HW223055   0.543   2.872  18.269
 3726SOL     OW23056   3.617   2.121   8.407
 3726SOL    HW123057   3.647   2.132   8.498
 3726SOL    HW223058   3.572   2.203   8.387
 3727SOL     OW23059   3.600   3.061  17.792
 3727SOL    HW123060   3.530   3.120  17.820
 3727SOL    HW223061   3.607   3.075  17.697
 3728SOL     OW23062   3.750   1.472  19.809
 3728SOL    HW123063   3.833   1.444  19.771
 3728SOL    HW223064   3.766   1.561  19.840
 3729SOL     OW23065   3.294   1.919   3.131
 3729SOL    HW123066   3.275   1.969   3.052
 3729SOL    HW223067   3.387   1.933   3.147
 3730SOL     OW23068   1.288   1.009  21.136
 3730SOL    HW123069   1.353   1.030  21.203
 3730SOL    HW223070   1.332   1.027  21.053
 3731SOL     OW23071   2.104   3.146  17.785
 3731SOL    HW123072   2.055   3.066  17.769
 3731SOL    HW223073   2.148   3.131  17.869
 3732SOL     OW23074   2.262   2.315   4.503
 3732SOL    HW123075   2.339   2.262   4.484
 3732SOL    HW223076   2.254   2.374   4.428
 3733SOL     OW23077   0.598   0.208   0.683
 3733SOL    HW123078   0.666   0.179   0.623
 3733SOL    HW223079   0.529   0.243   0.626
 3734SOL     OW23080   2.973   2.857  20.232
 3734SOL    HW123081   3.068   2.861  20.223
 3734SOL    HW223082   2.956   2.771  20.272
 3735SOL     OW23083   0.051   2.019   0.047
 3735SOL    HW123084   0.116   1.963   0.005
 3735SOL    HW223085   4.772   1.960   0.070
 3736SOL     OW23086   3.916   0.628  18.947
 3736SOL    HW123087   3.868   0.701  18.907
 3736SOL    HW223088   3.898   0.554  18.889
 3737SOL     OW23089   4.218   4.225   5.055
 3737SOL    HW123090   4.294   4.197   5.106
 3737SOL    HW223091   4.256   4.273   4.982
 3738SOL     OW23092   0.365   2.905  19.601
 3738SOL    HW123093   0.306   2.830  19.601
 3738SOL    HW223094   0.343   2.954  19.680
 3739SOL     OW23095   2.825   3.019  14.974
 3739SOL    HW123096   2.747   3.072  14.955
 3739SOL    HW223097   2.852   3.046  15.061
 3740SOL     OW23098   0.165   2.256   7.542
 3740SOL    HW123099   0.185   2.239   7.450
 3740SOL    HW223100   0.197   2.179   7.589
 3741SOL     OW23101   3.791   3.553  13.897
 3741SOL    HW123102   3.801   3.644  13.866
 3741SOL    HW223103   3.730   3.559  13.970
 3742SOL     OW23104   0.260   3.394  15.454
 3742SOL    HW123105   0.232   3.309  15.418
 3742SOL    HW223106   0.336   3.418  15.402
 3743SOL     OW23107   2.354   3.100  16.109
 3743SOL    HW123108   2.314   3.045  16.176
 3743SOL    HW223109   2.420   3.151  16.155
 3744SOL     OW23110   0.881   4.312  17.091
 3744SOL    HW123111   0.826   4.364  17.150
 3744SOL    HW223112   0.861   4.221  17.113
 3745SOL     OW23113   0.435   1.981   2.189
 3745SOL    HW123114   0.456   2.066   2.226
 3745SOL    HW223115   0.472   1.983   2.101
 3746SOL     OW23116   2.179   2.797   6.208
 3746SOL    HW123117   2.255   2.768   6.259
 3746SOL    HW223118   2.136   2.716   6.180
 3747SOL     OW23119   3.917   1.543  18.122
 3747SOL    HW123120   3.888   1.547  18.031
 3747SOL    HW223121   3.853   1.596  18.170
 3748SOL     OW23122   0.775   3.627  16.181
 3748SOL    HW123123   0.718   3.701  16.201
 3748SOL    HW223124   0.796   3.637  16.088
 3749SOL     OW23125   1.730   1.986   4.517
 3749SOL    HW123126   1.688   1.975   4.603
 3749SOL    HW223127   1.707   2.075   4.490
 3750SOL     OW23128   4.607   1.504  20.688
 3750SOL    HW123129   4.698   1.507  20.657
 3750SOL    HW223130   4.561   1.455  20.619
 3751SOL     OW23131   1.672   1.409   2.283
 3751SOL    HW123132   1.683   1.479   2.347
 3751SOL    HW223133   1.752   1.414   2.229
 3752SOL     OW23134   2.486   3.224  17.677
 3752SOL    HW123135   2.551   3.174  17.727
 3752SOL    HW223136   2.430   3.157  17.638
 3753SOL     OW23137   2.619   4.242  14.248
 3753SOL    HW123138   2.570   4.161  14.233
 3753SOL    HW223139   2.551   4.307  14.269
 3754SOL     OW23140   1.789   2.148   6.051
 3754SOL    HW123141   1.752   2.071   6.093
 3754SOL    HW223142   1.849   2.114   5.985
 3755SOL     OW23143   3.890   0.043  13.501
 3755SOL    HW123144   3.964   0.064  13.444
 3755SOL    HW223145   3.899   4.742  13.516
 3756SOL     OW23146   1.974   1.113  15.481
 3756SOL    HW123147   1.935   1.122  15.568
 3756SOL    HW223148   1.905   1.138  15.421
 3757SOL     OW23149   0.301   0.564  18.772
 3757SOL    HW123150   0.205   0.559  18.777
 3757SOL    HW223151   0.319   0.570  18.678
 3758SOL     OW23152   3.693   2.612  15.251
 3758SOL    HW123153   3.778   2.656  15.244
 3758SOL    HW223154   3.715   2.525  15.286
 3759SOL     OW23155   0.158   1.230  19.887
 3759SOL    HW123156   0.202   1.311  19.910
 3759SOL    HW223157   0.079   1.228  19.940
 3760SOL     OW23158   3.252   3.598  19.106
 3760SOL    HW123159   3.177   3.581  19.048
 3760SOL    HW223160   3.217   3.584  19.194
 3761SOL     OW23161   2.734   1.293  19.531
 3761SOL    HW123162   2.762   1.308  19.622
 3761SOL    HW223163   2.649   1.335  19.525
 3762SOL     OW23164   3.294   3.063  18.349
 3762SOL    HW123165   3.237   3.113  18.290
 3762SOL    HW223166   3.381   3.074  18.312
 3763SOL     OW23167   1.344   0.008  16.973
 3763SOL    HW123168   1.266   4.746  16.980
 3763SOL    HW223169   1.406   4.750  16.921
 3764SOL     OW23170   3.726   2.555  19.942
 3764SOL    HW123171   3.790   2.561  20.013
 3764SOL    HW223172   3.723   2.462  19.919
 3765SOL     OW23173   2.129   1.602   5.338
 3765SOL    HW123174   2.172   1.523   5.372
 3765SOL    HW223175   2.199   1.650   5.294
 3766SOL     OW23176   0.045   1.035   0.063
 3766SOL    HW123177   0.135   1.058   0.041
 3766SOL    HW223178   0.043   1.035   0.158
 3767SOL     OW23179   0.470   3.477   6.392
 3767SOL    HW123180   0.559   3.511   6.388
 3767SOL    HW223181   0.431   3.502   6.308
 3768SOL     OW23182   0.870   3.404   5.036
 3768SOL    HW123183   0.875   3.326   5.092
 3768SOL    HW223184   0.946   3.457   5.062
 3769SOL     OW23185   1.013   0.293  14.360
 3769SOL    HW123186   0.938   0.237  14.338
 3769SOL    HW223187   0.982   0.382  14.341
 3770SOL     OW23188   1.352   0.632  21.122
 3770SOL    HW123189   1.357   0.697  21.191
 3770SOL    HW223190   1.316   0.554  21.164
 3771SOL     OW23191   2.567   4.364  19.106
 3771SOL    HW123192   2.662   4.369  19.091
 3771SOL    HW223193   2.529   4.401  19.026
 3772SOL     OW23194   2.367   2.987   6.467
 3772SOL    HW123195   2.380   2.997   6.561
 3772SOL    HW223196   2.305   3.056   6.444
 3773SOL     OW23197   4.347   1.558   2.348
 3773SOL    HW123198   4.375   1.648   2.363
 3773SOL    HW223199   4.350   1.547   2.252
 3774SOL     OW23200   4.374   3.945  18.555
 3774SOL    HW123201   4.447   3.892  18.522
 3774SOL    HW223202   4.340   3.896  18.630
 3775SOL     OW23203   1.909   1.035  20.497
 3775SOL    HW123204   1.871   1.010  20.581
 3775SOL    HW223205   1.920   1.130  20.503
 3776SOL     OW23206   4.268   3.472  19.121
 3776SOL    HW123207   4.338   3.407  19.116
 3776SOL    HW223208   4.312   3.556  19.113
 3777SOL     OW23209   1.708   4.246  20.688
 3777SOL    HW123210   1.661   4.329  20.692
 3777SOL    HW223211   1.641   4.179  20.702
 3778SOL     OW23212   3.822   3.896  15.842
 3778SOL    HW123213   3.800   3.854  15.925
 3778SOL    HW223214   3.889   3.840  15.804
 3779SOL     OW23215   0.205   3.078  17.952
 3779SOL    HW123216   0.123   3.111  17.916
 3779SOL    HW223217   0.254   3.046  17.876
 3780SOL     OW23218   1.915   1.185  17.856
 3780SOL    HW123219   1.859   1.163  17.931
 3780SOL    HW223220   1.965   1.261  17.885
 3781SOL     OW23221   3.561   1.023  18.703
 3781SOL    HW123222   3.539   1.080  18.630
 3781SOL    HW223223   3.597   0.944  18.663
 3782SOL     OW23224   1.610   1.378  18.286
 3782SOL    HW123225   1.694   1.400  18.246
 3782SOL    HW223226   1.621   1.398  18.379
 3783SOL     OW23227   2.642   0.867  21.254
 3783SOL    HW123228   2.592   0.786  21.241
 3783SOL    HW223229   2.676   0.859   0.071
 3784SOL     OW23230   4.087   1.466  18.366
 3784SOL    HW123231   4.030   1.498  18.296
 3784SOL    HW223232   4.127   1.387  18.330
 3785SOL     OW23233   2.528   1.354  19.262
 3785SOL    HW123234   2.596   1.286  19.261
 3785SOL    HW223235   2.489   1.348  19.349
 3786SOL     OW23236   2.159   3.864   3.590
 3786SOL    HW123237   2.215   3.844   3.515
 3786SOL    HW223238   2.135   3.779   3.626
 3787SOL     OW23239   0.495   2.603  18.384
 3787SOL    HW123240   0.402   2.605  18.361
 3787SOL    HW223241   0.541   2.623  18.302
 3788SOL     OW23242   1.154   0.137   0.890
 3788SOL    HW123243   1.117   0.133   0.802
 3788SOL    HW223244   1.091   0.189   0.940
 3789SOL     OW23245   2.344   3.905   4.914
 3789SOL    HW123246   2.356   3.812   4.897
 3789SOL    HW223247   2.332   3.911   5.008
 3790SOL     OW23248   4.682   3.300   2.368
 3790SOL    HW123249   4.702   3.247   2.291
 3790SOL    HW223250   4.598   3.266   2.399
 3791SOL     OW23251   4.173   3.472   5.997
 3791SOL    HW123252   4.201   3.480   5.906
 3791SOL    HW223253   4.242   3.516   6.048
 3792SOL     OW23254   1.656   3.711   3.127
 3792SOL    HW123255   1.681   3.625   3.161
 3792SOL    HW223256   1.729   3.737   3.071
 3793SOL     OW23257   0.591   4.321  15.667
 3793SOL    HW123258   0.512   4.375  15.660
 3793SOL    HW223259   0.569   4.241  15.620
 3794SOL     OW23260   1.910   1.643   4.392
 3794SOL    HW123261   1.987   1.592   4.420
 3794SOL    HW223262   1.937   1.734   4.401
 3795SOL     OW23263   0.204   2.288   3.980
 3795SOL    HW123264   0.146   2.215   3.962
 3795SOL    HW223265   0.148   2.366   3.974
 3796SOL     OW23266   1.630   4.642   2.567
 3796SOL    HW123267   1.586   4.558   2.578
 3796SOL    HW223268   1.714   4.631   2.613
 3797SOL     OW23269   2.960   3.014   4.497
 3797SOL    HW123270   2.930   3.062   4.574
 3797SOL    HW223271   3.022   3.073   4.454
 3798SOL     OW23272   4.505   0.308  16.321
 3798SOL    HW123273   4.536   0.288  16.410
 3798SOL    HW223274   4.512   0.225  16.274
 3799SOL     OW23275   1.148   1.377   3.729
 3799SOL    HW123276   1.108   1.291   3.741
 3799SOL    HW223277   1.192   1.372   3.644
 3800SOL     OW23278   1.513   2.210   4.560
 3800SOL    HW123279   1.462   2.284   4.591
 3800SOL    HW223280   1.553   2.173   4.639
 3801SOL     OW23281   3.715   0.505  15.695
 3801SOL    HW123282   3.735   0.455  15.616
 3801SOL    HW223283   3.619   0.503  15.701
 3802SOL     OW23284   3.495   2.835  20.039
 3802SOL    HW123285   3.528   2.910  19.990
 3802SOL    HW223286   3.469   2.772  19.972
 3803SOL     OW23287   0.982   3.963  13.848
 3803SOL    HW123288   0.889   3.980  13.833
 3803SOL    HW223289   1.022   4.050  13.856
 3804SOL     OW23290   1.863   0.076   1.751
 3804SOL    HW123291   1.885   0.024   1.828
 3804SOL    HW223292   1.892   0.165   1.772
 3805SOL     OW23293   4.109   0.546  15.157
 3805SOL    HW123294   4.062   0.541  15.074
 3805SOL    HW223295   4.108   0.639  15.179
 3806SOL     OW23296   3.008   2.104   5.322
 3806SOL    HW123297   3.030   2.183   5.372
 3806SOL    HW223298   3.014   2.132   5.230
 3807SOL     OW23299   2.407   2.842   3.891
 3807SOL    HW123300   2.418   2.850   3.986
 3807SOL    HW223301   2.421   2.930   3.857
 3808SOL     OW23302   3.467   2.080  12.455
 3808SOL    HW123303   3.541   2.117  12.407
 3808SOL    HW223304   3.496   2.078  12.546
 3809SOL     OW23305   3.933   0.406  15.508
 3809SOL    HW123306   3.998   0.392  15.577
 3809SOL    HW223307   3.941   0.499  15.486
 3810SOL     OW23308   1.388   1.280  18.141
 3810SOL    HW123309   1.362   1.198  18.182
 3810SOL    HW223310   1.447   1.321  18.205
 3811SOL     OW23311   3.246   0.054  13.210
 3811SOL    HW123312   3.222   0.123  13.148
 3811SOL    HW223313   3.260   0.099  13.293
 3812SOL     OW23314   2.541   2.144   1.232
 3812SOL    HW123315   2.467   2.139   1.172
 3812SOL    HW223316   2.536   2.232   1.270
 3813SOL     OW23317   0.310   2.185  20.505
 3813SOL    HW123318   0.403   2.205  20.506
 3813SOL    HW223319   0.277   2.219  20.588
 3814SOL     OW23320   4.160   1.512   1.345
 3814SOL    HW123321   4.157   1.607   1.353
 3814SOL    HW223322   4.251   1.489   1.365
 3815SOL     OW23323   3.732   3.275   5.845
 3815SOL    HW123324   3.827   3.275   5.832
 3815SOL    HW223325   3.720   3.320   5.929
 3816SOL     OW23326   3.136   4.570  11.634
 3816SOL    HW123327   3.113   4.477  11.632
 3816SOL    HW223328   3.158   4.588  11.725
 3817SOL     OW23329   4.135   1.026  17.598
 3817SOL    HW123330   4.124   1.067  17.513
 3817SOL    HW223331   4.060   1.056  17.649
 3818SOL     OW23332   1.744   2.130   8.764
 3818SOL    HW123333   1.681   2.069   8.724
 3818SOL    HW223334   1.753   2.098   8.854
 3819SOL     OW23335   0.972   0.158   0.203
 3819SOL    HW123336   1.057   0.190   0.235
 3819SOL    HW223337   0.957   0.206   0.122
 3820SOL     OW23338   3.366   0.402  17.247
 3820SOL    HW123339   3.458   0.427  17.258
 3820SOL    HW223340   3.360   0.375  17.155
 3821SOL     OW23341   3.345   1.267   5.628
 3821SOL    HW123342   3.342   1.279   5.723
 3821SOL    HW223343   3.324   1.174   5.615
 3822SOL     OW23344   1.406   3.271  18.722
 3822SOL    HW123345   1.462   3.208  18.768
 3822SOL    HW223346   1.455   3.293  18.643
 3823SOL     OW23347   4.518   4.002  18.891
 3823SOL    HW123348   4.453   3.935  18.870
 3823SOL    HW223349   4.487   4.041  18.972
 3824SOL     OW23350   0.113   1.756  17.668
 3824SOL    HW123351   0.106   1.668  17.706
 3824SOL    HW223352   0.151   1.742  17.582
 3825SOL     OW23353   0.097   4.666  15.565
 3825SOL    HW123354   0.138   4.702  15.644
 3825SOL    HW223355   0.160   4.603  15.531
 3826SOL     OW23356   3.457   2.482  14.520
 3826SOL    HW123357   3.407   2.401  14.517
 3826SOL    HW223358   3.533   2.461  14.575
 3827SOL     OW23359   0.040   1.349   4.114
 3827SOL    HW123360   0.030   1.398   4.032
 3827SOL    HW223361   0.098   1.404   4.167
 3828SOL     OW23362   3.340   4.439  15.806
 3828SOL    HW123363   3.399   4.396  15.868
 3828SOL    HW223364   3.287   4.497  15.861
 3829SOL     OW23365   1.129   0.149   6.581
 3829SOL    HW123366   1.215   0.109   6.568
 3829SOL    HW223367   1.077   0.119   6.506
 3830SOL     OW23368   3.390   4.037  20.398
 3830SOL    HW123369   3.305   4.031  20.354
 3830SOL    HW223370   3.424   3.948  20.397
 3831SOL     OW23371   0.899   2.345  20.238
 3831SOL    HW123372   0.930   2.330  20.149
 3831SOL    HW223373   0.806   2.366  20.228
 3832SOL     OW23374   0.196   3.817  15.497
 3832SOL    HW123375   0.144   3.738  15.492
 3832SOL    HW223376   0.243   3.809  15.580
 3833SOL     OW23377   4.533   0.793   3.367
 3833SOL    HW123378   4.599   0.851   3.331
 3833SOL    HW223379   4.450   0.829   3.335
 3834SOL     OW23380   3.965   1.162  20.699
 3834SOL    HW123381   4.048   1.175  20.652
 3834SOL    HW223382   3.951   1.068  20.696
 3835SOL     OW23383   3.600   3.259   1.232
 3835SOL    HW123384   3.604   3.246   1.137
 3835SOL    HW223385   3.571   3.349   1.242
 3836SOL     OW23386   1.352   0.484  16.734
 3836SOL    HW123387   1.393   0.410  16.778
 3836SOL    HW223388   1.258   0.466  16.738
 3837SOL     OW23389   4.142   3.903   3.799
 3837SOL    HW123390   4.145   3.939   3.888
 3837SOL    HW223391   4.218   3.844   3.795
 3838SOL     OW23392   2.427   2.703  17.776
 3838SOL    HW123393   2.452   2.683  17.686
 3838SOL    HW223394   2.337   2.736  17.770
 3839SOL     OW23395   0.559   2.434  15.227
 3839SOL    HW123396   0.494   2.420  15.296
 3839SOL    HW223397   0.624   2.365  15.242
 3840SOL     OW23398   2.316   1.159  15.814
 3840SOL    HW123399   2.381   1.161  15.744
 3840SOL    HW223400   2.354   1.100  15.880
 3841SOL     OW23401   3.435   0.226   5.215
 3841SOL    HW123402   3.361   0.257   5.163
 3841SOL    HW223403   3.433   0.282   5.293
 3842SOL     OW23404   3.111   2.050   4.242
 3842SOL    HW123405   3.101   2.117   4.310
 3842SOL    HW223406   3.026   2.046   4.199
 3843SOL     OW23407   0.194   2.131  16.368
 3843SOL    HW123408   0.258   2.067  16.396
 3843SOL    HW223409   0.239   2.183  16.301
 3844SOL     OW23410   0.628   1.353  15.008
 3844SOL    HW123411   0.537   1.325  15.016
 3844SOL    HW223412   0.662   1.349  15.098
 3845SOL     OW23413   3.308   0.930  20.273
 3845SOL    HW123414   3.394   0.966  20.252
 3845SOL    HW223415   3.256   0.944  20.195
 3846SOL     OW23416   4.261   3.687   1.781
 3846SOL    HW123417   4.335   3.722   1.831
 3846SOL    HW223418   4.252   3.747   1.706
 3847SOL     OW23419   4.549   2.686  18.216
 3847SOL    HW123420   4.587   2.741  18.284
 3847SOL    HW223421   4.504   2.747  18.157
 3848SOL     OW23422   1.970   0.776  16.082
 3848SOL    HW123423   1.996   0.777  15.990
 3848SOL    HW223424   2.046   0.812  16.128
 3849SOL     OW23425   0.952   1.846   3.369
 3849SOL    HW123426   0.978   1.765   3.326
 3849SOL    HW223427   1.013   1.912   3.335
 3850SOL     OW23428   0.162   0.513   3.676
 3850SOL    HW123429   0.126   0.590   3.721
 3850SOL    HW223430   0.085   0.462   3.653
 3851SOL     OW23431   0.433   4.739   0.321
 3851SOL    HW123432   0.383   4.672   0.367
 3851SOL    HW223433   0.523   4.730   0.354
 3852SOL     OW23434   4.038   3.288  12.989
 3852SOL    HW123435   4.000   3.290  12.901
 3852SOL    HW223436   3.979   3.232  13.040
 3853SOL     OW23437   2.903   2.881   1.839
 3853SOL    HW123438   2.893   2.927   1.756
 3853SOL    HW223439   2.978   2.922   1.881
 3854SOL     OW23440   2.886   4.097   0.735
 3854SOL    HW123441   2.939   4.100   0.815
 3854SOL    HW223442   2.904   4.180   0.691
 3855SOL     OW23443   0.608   3.333   1.282
 3855SOL    HW123444   0.601   3.318   1.187
 3855SOL    HW223445   0.662   3.261   1.314
 3856SOL     OW23446   1.372   1.305  14.665
 3856SOL    HW123447   1.422   1.299  14.584
 3856SOL    HW223448   1.437   1.319  14.733
 3857SOL     OW23449   3.053   1.224   6.791
 3857SOL    HW123450   2.984   1.290   6.787
 3857SOL    HW223451   3.043   1.174   6.710
 3858SOL     OW23452   2.684   2.372  15.489
 3858SOL    HW123453   2.762   2.410  15.449
 3858SOL    HW223454   2.713   2.288  15.523
 3859SOL     OW23455   2.332   4.455  14.801
 3859SOL    HW123456   2.387   4.426  14.874
 3859SOL    HW223457   2.340   4.385  14.736
 3860SOL     OW23458   0.692   3.375  16.819
 3860SOL    HW123459   0.626   3.443  16.805
 3860SOL    HW223460   0.649   3.311  16.875
 3861SOL     OW23461   3.554   3.566  15.115
 3861SOL    HW123462   3.492   3.584  15.185
 3861SOL    HW223463   3.632   3.617  15.138
 3862SOL     OW23464   2.257   1.617  18.628
 3862SOL    HW123465   2.191   1.548  18.635
 3862SOL    HW223466   2.302   1.617  18.713
 3863SOL     OW23467   1.144   0.446   2.385
 3863SOL    HW123468   1.134   0.452   2.290
 3863SOL    HW223469   1.166   0.355   2.401
 3864SOL     OW23470   3.884   3.923  19.662
 3864SOL    HW123471   3.834   3.850  19.697
 3864SOL    HW223472   3.966   3.884  19.631
 3865SOL     OW23473   4.436   2.453  19.120
 3865SOL    HW123474   4.507   2.488  19.066
 3865SOL    HW223475   4.452   2.358  19.121
 3866SOL     OW23476   0.349   3.643   0.820
 3866SOL    HW123477   0.300   3.562   0.834
 3866SOL    HW223478   0.439   3.614   0.804
 3867SOL     OW23479   2.242   3.945   1.809
 3867SOL    HW123480   2.216   3.853   1.819
 3867SOL    HW223481   2.329   3.941   1.771
 3868SOL     OW23482   1.069   4.095  15.824
 3868SOL    HW123483   1.018   4.041  15.885
 3868SOL    HW223484   1.010   4.165  15.799
 3869SOL     OW23485   2.572   1.884   6.183
 3869SOL    HW123486   2.477   1.878   6.184
 3869SOL    HW223487   2.591   1.944   6.110
 3870SOL     OW23488   3.840   4.208   3.956
 3870SOL    HW123489   3.855   4.125   3.910
 3870SOL    HW223490   3.750   4.202   3.988
 3871SOL     OW23491   1.512   1.108   3.400
 3871SOL    HW123492   1.527   1.157   3.319
 3871SOL    HW223493   1.584   1.045   3.403
 3872SOL     OW23494   0.063   2.299   4.850
 3872SOL    HW123495   0.005   2.235   4.811
 3872SOL    HW223496   0.151   2.272   4.823
 3873SOL     OW23497   4.105   4.452  16.777
 3873SOL    HW123498   4.064   4.502  16.707
 3873SOL    HW223499   4.049   4.375  16.789
 3874SOL     OW23500   3.841   1.140   8.308
 3874SOL    HW123501   3.777   1.076   8.339
 3874SOL    HW223502   3.922   1.117   8.353
 3875SOL     OW23503   1.900   1.166  20.911
 3875SOL    HW123504   1.871   1.174  21.002
 3875SOL    HW223505   1.917   1.256  20.883
 3876SOL     OW23506   1.039   3.813  20.773
 3876SOL    HW123507   1.019   3.724  20.801
 3876SOL    HW223508   1.134   3.812  20.758
 3877SOL     OW23509   1.551   1.317  15.270
 3877SOL    HW123510   1.547   1.412  15.279
 3877SOL    HW223511   1.482   1.296  15.208
 3878SOL     OW23512   4.517   3.921   1.806
 3878SOL    HW123513   4.576   3.960   1.742
 3878SOL    HW223514   4.575   3.888   1.875
 3879SOL     OW23515   0.330   4.641  15.215
 3879SOL    HW123516   0.287   4.703  15.274
 3879SOL    HW223517   0.339   4.689  15.133
 3880SOL     OW23518   0.490   3.700  17.183
 3880SOL    HW123519   0.469   3.760  17.112
 3880SOL    HW223520   0.442   3.620  17.162
 3881SOL     OW23521   3.672   3.388   4.130
 3881SOL    HW123522   3.621   3.377   4.049
 3881SOL    HW223523   3.762   3.402   4.101
 3882SOL     OW23524   1.972   3.272  15.572
 3882SOL    HW123525   1.969   3.347  15.631
 3882SOL    HW223526   1.884   3.235  15.576
 3883SOL     OW23527   0.721   4.189  18.203
 3883SOL    HW123528   0.810   4.170  18.232
 3883SOL    HW223529   0.681   4.103  18.188
 3884SOL     OW23530   3.008   0.632   0.547
 3884SOL    HW123531   2.947   0.670   0.610
 3884SOL    HW223532   3.019   0.700   0.481
 3885SOL     OW23533   3.081   4.094   2.631
 3885SOL    HW123534   3.111   4.045   2.554
 3885SOL    HW223535   3.158   4.097   2.688
 3886SOL     OW23536   0.260   1.154   1.500
 3886SOL    HW123537   0.317   1.084   1.470
 3886SOL    HW223538   0.264   1.219   1.430
 3887SOL     OW23539   2.541   1.400  18.533
 3887SOL    HW123540   2.627   1.364  18.553
 3887SOL    HW223541   2.489   1.384  18.612
 3888SOL     OW23542   2.671   4.748   5.368
 3888SOL    HW123543   2.704   0.038   5.333
 3888SOL    HW223544   2.578   4.764   5.382
 3889SOL     OW23545   1.903   3.983   3.085
 3889SOL    HW123546   1.950   3.925   3.144
 3889SOL    HW223547   1.858   4.045   3.142
 3890SOL     OW23548   1.997   4.141   1.886
 3890SOL    HW123549   2.069   4.080   1.873
 3890SOL    HW223550   1.918   4.087   1.883
 3891SOL     OW23551   3.157   4.729   1.697
 3891SOL    HW123552   3.211   0.015   1.693
 3891SOL    HW223553   3.220   4.657   1.702
 3892SOL     OW23554   0.671   4.491  14.156
 3892SOL    HW123555   0.699   4.583  14.161
 3892SOL    HW223556   0.616   4.479  14.233
 3893SOL     OW23557   1.935   0.226   5.133
 3893SOL    HW123558   1.896   0.201   5.049
 3893SOL    HW223559   1.994   0.298   5.112
 3894SOL     OW23560   0.423   4.344   7.591
 3894SOL    HW123561   0.382   4.429   7.602
 3894SOL    HW223562   0.392   4.313   7.506
 3895SOL     OW23563   4.441   2.734  19.235
 3895SOL    HW123564   4.481   2.654  19.201
 3895SOL    HW223565   4.351   2.708  19.258
 3896SOL     OW23566   4.210   0.120  14.324
 3896SOL    HW123567   4.253   0.148  14.243
 3896SOL    HW223568   4.126   0.165  14.323
 3897SOL     OW23569   2.284   0.819   0.711
 3897SOL    HW123570   2.225   0.779   0.648
 3897SOL    HW223571   2.236   0.817   0.794
 3898SOL     OW23572   1.792   0.782  13.163
 3898SOL    HW123573   1.721   0.845  13.176
 3898SOL    HW223574   1.757   0.720  13.099
 3899SOL     OW23575   1.705   2.431   2.656
 3899SOL    HW123576   1.688   2.522   2.629
 3899SOL    HW223577   1.702   2.381   2.574
 3900SOL     OW23578   0.778   1.815   5.961
 3900SOL    HW123579   0.795   1.905   5.932
 3900SOL    HW223580   0.844   1.763   5.915
 3901SOL     OW23581   3.088   1.267   1.054
 3901SOL    HW123582   3.109   1.354   1.090
 3901SOL    HW223583   3.121   1.270   0.964
 3902SOL     OW23584   1.819   4.750  16.362
 3902SOL    HW123585   1.821   4.781  16.272
 3902SOL    HW223586   1.788   4.659  16.356
 3903SOL     OW23587   3.078   3.165  17.307
 3903SOL    HW123588   3.107   3.115  17.383
 3903SOL    HW223589   3.071   3.255  17.339
 3904SOL     OW23590   0.464   3.819  16.456
 3904SOL    HW123591   0.390   3.826  16.517
 3904SOL    HW223592   0.502   3.733  16.475
 3905SOL     OW23593   0.366   0.100  16.282
 3905SOL    HW123594   0.440   0.139  16.236
 3905SOL    HW223595   0.301   0.084  16.213
 3906SOL     OW23596   3.673   1.968  18.866
 3906SOL    HW123597   3.766   1.951  18.879
 3906SOL    HW223598   3.652   1.928  18.782
 3907SOL     OW23599   0.358   3.935   5.576
 3907SOL    HW123600   0.375   4.027   5.596
 3907SOL    HW223601   0.322   3.899   5.657
 3908SOL     OW23602   1.815   0.695  20.818
 3908SOL    HW123603   1.786   0.705  20.909
 3908SOL    HW223604   1.849   0.606  20.814
 3909SOL     OW23605   4.575   2.529   3.872
 3909SOL    HW123606   4.511   2.459   3.861
 3909SOL    HW223607   4.626   2.528   3.791
 3910SOL     OW23608   3.639   0.177  18.424
 3910SOL    HW123609   3.662   0.103  18.368
 3910SOL    HW223610   3.555   0.208  18.389
 3911SOL     OW23611   1.297   3.257  19.285
 3911SOL    HW123612   1.306   3.213  19.369
 3911SOL    HW223613   1.327   3.347  19.302
 3912SOL     OW23614   3.455   0.299  19.922
 3912SOL    HW123615   3.533   0.321  19.973
 3912SOL    HW223616   3.477   0.328  19.833
 3913SOL     OW23617   4.168   3.656  19.351
 3913SOL    HW123618   4.162   3.579  19.294
 3913SOL    HW223619   4.261   3.662  19.373
 3914SOL     OW23620   4.191   0.275   6.795
 3914SOL    HW123621   4.272   0.317   6.766
 3914SOL    HW223622   4.178   0.202   6.735
 3915SOL     OW23623   2.345   2.806   7.898
 3915SOL    HW123624   2.273   2.855   7.938
 3915SOL    HW223625   2.424   2.846   7.934
 3916SOL     OW23626   2.214   4.670  14.620
 3916SOL    HW123627   2.280   4.724  14.665
 3916SOL    HW223628   2.216   4.586  14.667
 3917SOL     OW23629   2.196   0.237  20.668
 3917SOL    HW123630   2.141   0.315  20.663
 3917SOL    HW223631   2.137   0.167  20.695
 3918SOL     OW23632   2.703   0.168   5.129
 3918SOL    HW123633   2.751   0.194   5.050
 3918SOL    HW223634   2.726   0.236   5.193
 3919SOL     OW23635   1.309   0.906  17.053
 3919SOL    HW123636   1.336   0.985  17.008
 3919SOL    HW223637   1.307   0.838  16.986
 3920SOL     OW23638   2.041   0.499   6.328
 3920SOL    HW123639   2.087   0.529   6.249
 3920SOL    HW223640   1.994   0.576   6.359
 3921SOL     OW23641   3.922   4.490  18.470
 3921SOL    HW123642   3.915   4.553  18.542
 3921SOL    HW223643   3.831   4.463  18.453
 3922SOL     OW23644   1.312   1.315   1.457
 3922SOL    HW123645   1.382   1.268   1.412
 3922SOL    HW223646   1.358   1.384   1.506
 3923SOL     OW23647   0.820   2.113  18.356
 3923SOL    HW123648   0.862   2.199  18.358
 3923SOL    HW223649   0.773   2.111  18.272
 3924SOL     OW23650   1.374   2.170  18.191
 3924SOL    HW123651   1.357   2.094  18.135
 3924SOL    HW223652   1.462   2.198  18.167
 3925SOL     OW23653   1.141   2.115  18.660
 3925SOL    HW123654   1.100   2.175  18.599
 3925SOL    HW223655   1.234   2.119  18.638
 3926SOL     OW23656   1.559   2.703   0.946
 3926SOL    HW123657   1.549   2.635   0.879
 3926SOL    HW223658   1.602   2.775   0.900
 3927SOL     OW23659   0.033   4.545   3.055
 3927SOL    HW123660   0.015   4.633   3.023
 3927SOL    HW223661   4.776   4.537   3.136
 3928SOL     OW23662   3.142   2.771  18.705
 3928SOL    HW123663   3.207   2.746  18.772
 3928SOL    HW223664   3.058   2.745  18.743
 3929SOL     OW23665   1.484   3.043  17.726
 3929SOL    HW123666   1.389   3.048  17.719
 3929SOL    HW223667   1.513   3.004  17.644
 3930SOL     OW23668   4.156   4.127  19.365
 3930SOL    HW123669   4.075   4.178  19.359
 3930SOL    HW223670   4.225   4.189  19.340
 3931SOL     OW23671   0.793   4.791   5.775
 3931SOL    HW123672   0.776   0.091   5.760
 3931SOL    HW223673   0.866   4.771   5.716
 3932SOL     OW23674   0.650   4.407   6.442
 3932SOL    HW123675   0.744   4.417   6.458
 3932SOL    HW223676   0.627   4.479   6.384
 3933SOL     OW23677   0.280   0.039   3.336
 3933SOL    HW123678   0.227   4.754   3.351
 3933SOL    HW223679   0.227   0.112   3.369
 3934SOL     OW23680   0.048   4.726  17.271
 3934SOL    HW123681   0.026   4.750  17.181
 3934SOL    HW223682   0.042   0.014  17.320
 3935SOL     OW23683   0.969   0.294  10.111
 3935SOL    HW123684   0.946   0.202  10.098
 3935SOL    HW223685   1.061   0.292  10.135
 3936SOL     OW23686   0.589   2.239  14.535
 3936SOL    HW123687   0.528   2.295  14.485
 3936SOL    HW223688   0.568   2.150  14.507
 3937SOL     OW23689   1.831   2.808   6.243
 3937SOL    HW123690   1.894   2.876   6.221
 3937SOL    HW223691   1.870   2.727   6.210
 3938SOL     OW23692   1.122   3.495   6.030
 3938SOL    HW123693   1.215   3.507   6.051
 3938SOL    HW223694   1.118   3.504   5.935
 3939SOL     OW23695   2.350   4.156  18.102
 3939SOL    HW123696   2.418   4.162  18.035
 3939SOL    HW223697   2.343   4.062  18.120
 3940SOL     OW23698   3.915   2.939   1.243
 3940SOL    HW123699   4.006   2.966   1.253
 3940SOL    HW223700   3.913   2.847   1.269
 3941SOL     OW23701   2.458   1.995  17.253
 3941SOL    HW123702   2.374   2.022  17.217
 3941SOL    HW223703   2.444   1.907  17.287
 3942SOL     OW23704   1.495   3.709  20.585
 3942SOL    HW123705   1.574   3.757  20.610
 3942SOL    HW223706   1.471   3.745  20.500
 3943SOL     OW23707   1.623   3.061  19.104
 3943SOL    HW123708   1.668   3.003  19.043
 3943SOL    HW223709   1.687   3.127  19.127
 3944SOL     OW23710   2.190   0.335  18.029
 3944SOL    HW123711   2.263   0.336  18.090
 3944SOL    HW223712   2.118   0.295  18.078
 3945SOL     OW23713   1.085   1.259   4.051
 3945SOL    HW123714   1.023   1.324   4.018
 3945SOL    HW223715   1.097   1.198   3.977
 3946SOL     OW23716   1.100   0.207  18.210
 3946SOL    HW123717   1.056   0.122  18.205
 3946SOL    HW223718   1.031   0.269  18.233
 3947SOL     OW23719   4.183   4.217   8.908
 3947SOL    HW123720   4.190   4.212   9.003
 3947SOL    HW223721   4.252   4.160   8.875
 3948SOL     OW23722   2.239   3.568   9.158
 3948SOL    HW123723   2.204   3.646   9.200
 3948SOL    HW223724   2.299   3.531   9.222
 3949SOL     OW23725   1.508   0.058   5.004
 3949SOL    HW123726   1.474   0.009   5.080
 3949SOL    HW223727   1.454   0.137   5.000
 3950SOL     OW23728   4.560   1.235   6.083
 3950SOL    HW123729   4.536   1.148   6.113
 3950SOL    HW223730   4.639   1.257   6.133
 3951SOL     OW23731   2.785   2.785   3.221
 3951SOL    HW123732   2.846   2.851   3.254
 3951SOL    HW223733   2.832   2.743   3.149
 3952SOL     OW23734   4.194   2.400   5.477
 3952SOL    HW123735   4.267   2.458   5.453
 3952SOL    HW223736   4.201   2.327   5.414
 3953SOL     OW23737   1.750   2.220  20.360
 3953SOL    HW123738   1.782   2.298  20.316
 3953SOL    HW223739   1.791   2.147  20.312
 3954SOL     OW23740   0.028   2.473  16.395
 3954SOL    HW123741   0.089   2.544  16.373
 3954SOL    HW223742   0.073   2.424  16.464
 3955SOL     OW23743   3.226   2.470   4.239
 3955SOL    HW123744   3.306   2.465   4.291
 3955SOL    HW223745   3.238   2.405   4.169
 3956SOL     OW23746   1.176   3.167   1.371
 3956SOL    HW123747   1.191   3.114   1.449
 3956SOL    HW223748   1.139   3.249   1.405
 3957SOL     OW23749   1.129   1.345  20.526
 3957SOL    HW123750   1.193   1.307  20.586
 3957SOL    HW223751   1.068   1.274  20.508
 3958SOL     OW23752   0.290   0.315  15.100
 3958SOL    HW123753   0.356   0.347  15.163
 3958SOL    HW223754   0.208   0.354  15.130
 3959SOL     OW23755   1.348   1.587  16.079
 3959SOL    HW123756   1.315   1.567  16.166
 3959SOL    HW223757   1.270   1.610  16.028
 3960SOL     OW23758   0.548   2.250   0.681
 3960SOL    HW123759   0.632   2.258   0.636
 3960SOL    HW223760   0.550   2.162   0.718
 3961SOL     OW23761   2.349   3.914  16.643
 3961SOL    HW123762   2.284   3.845  16.636
 3961SOL    HW223763   2.357   3.930  16.737
 3962SOL     OW23764   2.986   4.716  20.523
 3962SOL    HW123765   2.951   0.009  20.500
 3962SOL    HW223766   2.931   4.655  20.475
 3963SOL     OW23767   1.816   3.006   2.024
 3963SOL    HW123768   1.789   3.090   1.987
 3963SOL    HW223769   1.768   2.941   1.972
 3964SOL     OW23770   4.586   2.315  15.975
 3964SOL    HW123771   4.625   2.400  15.996
 3964SOL    HW223772   4.540   2.289  16.055
 3965SOL     OW23773   4.289   4.121   0.505
 3965SOL    HW123774   4.247   4.207   0.500
 3965SOL    HW223775   4.337   4.123   0.588
 3966SOL     OW23776   1.599   2.519   1.985
 3966SOL    HW123777   1.635   2.501   2.072
 3966SOL    HW223778   1.626   2.445   1.931
 3967SOL     OW23779   4.115   0.533   1.267
 3967SOL    HW123780   4.100   0.627   1.277
 3967SOL    HW223781   4.027   0.496   1.257
 3968SOL     OW23782   2.902   4.626   1.805
 3968SOL    HW123783   2.975   4.662   1.755
 3968SOL    HW223784   2.832   4.615   1.740
 3969SOL     OW23785   3.728   3.565   1.935
 3969SOL    HW123786   3.734   3.616   1.855
 3969SOL    HW223787   3.646   3.516   1.928
 3970SOL     OW23788   4.628   4.613   4.621
 3970SOL    HW123789   4.678   4.549   4.671
 3970SOL    HW223790   4.536   4.594   4.643
 3971SOL     OW23791   1.160   2.754  16.836
 3971SOL    HW123792   1.215   2.829  16.811
 3971SOL    HW223793   1.202   2.720  16.915
 3972SOL     OW23794   3.498   1.336  15.579
 3972SOL    HW123795   3.415   1.382  15.563
 3972SOL    HW223796   3.562   1.406  15.590
 3973SOL     OW23797   4.114   1.326  17.922
 3973SOL    HW123798   4.140   1.405  17.970
 3973SOL    HW223799   4.139   1.253  17.980
 3974SOL     OW23800   0.869   2.255  14.978
 3974SOL    HW123801   0.866   2.176  15.032
 3974SOL    HW223802   0.844   2.225  14.890
 3975SOL     OW23803   1.589   3.813   0.130
 3975SOL    HW123804   1.606   3.744   0.195
 3975SOL    HW223805   1.578   3.892   0.182
 3976SOL     OW23806   0.445   0.663  18.031
 3976SOL    HW123807   0.353   0.662  18.001
 3976SOL    HW223808   0.496   0.658  17.950
 3977SOL     OW23809   2.455   4.569   3.057
 3977SOL    HW123810   2.400   4.492   3.072
 3977SOL    HW223811   2.436   4.627   3.130
 3978SOL     OW23812   2.059   1.691  18.900
 3978SOL    HW123813   2.019   1.695  18.813
 3978SOL    HW223814   1.986   1.682  18.960
 3979SOL     OW23815   4.587   3.634   1.452
 3979SOL    HW123816   4.680   3.643   1.473
 3979SOL    HW223817   4.560   3.723   1.427
 3980SOL     OW23818   3.869   3.797  20.726
 3980SOL    HW123819   3.962   3.818  20.735
 3980SOL    HW223820   3.842   3.844  20.646
 3981SOL     OW23821   0.209   3.016  15.618
 3981SOL    HW123822   0.233   2.929  15.648
 3981SOL    HW223823   0.281   3.043  15.561
 3982SOL     OW23824   0.859   4.397   5.417
 3982SOL    HW123825   0.910   4.429   5.342
 3982SOL    HW223826   0.782   4.454   5.420
 3983SOL     OW23827   0.408   1.668   3.646
 3983SOL    HW123828   0.451   1.647   3.729
 3983SOL    HW223829   0.350   1.742   3.667
 3984SOL     OW23830   3.286   0.477   5.105
 3984SOL    HW123831   3.221   0.488   5.174
 3984SOL    HW223832   3.361   0.528   5.135
 3985SOL     OW23833   4.143   0.776  16.797
 3985SOL    HW123834   4.220   0.786  16.741
 3985SOL    HW223835   4.075   0.744  16.739
 3986SOL     OW23836   4.288   1.513  16.473
 3986SOL    HW123837   4.305   1.480  16.385
 3986SOL    HW223838   4.200   1.481  16.494
 3987SOL     OW23839   1.634   1.331  19.674
 3987SOL    HW123840   1.571   1.401  19.693
 3987SOL    HW223841   1.654   1.294  19.760
 3988SOL     OW23842   3.317   0.066  19.817
 3988SOL    HW123843   3.390   0.010  19.791
 3988SOL    HW223844   3.359   0.147  19.847
 3989SOL     OW23845   2.385   0.671   4.542
 3989SOL    HW123846   2.292   0.691   4.533
 3989SOL    HW223847   2.400   0.597   4.482
 3990SOL     OW23848   2.966   4.740  18.954
 3990SOL    HW123849   3.037   4.713  19.013
 3990SOL    HW223850   2.926   0.022  18.997
 3991SOL     OW23851   2.003   0.549   1.367
 3991SOL    HW123852   1.979   0.539   1.459
 3991SOL    HW223853   1.953   0.482   1.321
 3992SOL     OW23854   1.430   3.620   5.515
 3992SOL    HW123855   1.430   3.707   5.475
 3992SOL    HW223856   1.508   3.619   5.570
 3993SOL     OW23857   3.011   4.636  16.535
 3993SOL    HW123858   2.934   4.655  16.480
 3993SOL    HW223859   3.069   4.585  16.478
 3994SOL     OW23860   4.294   3.472   5.470
 3994SOL    HW123861   4.252   3.543   5.420
 3994SOL    HW223862   4.270   3.392   5.424
 3995SOL     OW23863   2.388   3.022   6.737
 3995SOL    HW123864   2.312   2.984   6.781
 3995SOL    HW223865   2.391   3.113   6.768
 3996SOL     OW23866   4.034   3.402  19.912
 3996SOL    HW123867   3.976   3.471  19.943
 3996SOL    HW223868   4.108   3.449  19.872
 3997SOL     OW23869   4.149   2.626  18.822
 3997SOL    HW123870   4.178   2.591  18.906
 3997SOL    HW223871   4.172   2.557  18.759
 3998SOL     OW23872   0.067   3.981  18.691
 3998SOL    HW123873   0.135   3.965  18.756
 3998SOL    HW223874   0.042   3.894  18.660
 3999SOL     OW23875   3.961   4.308  19.231
 3999SOL    HW123876   3.992   4.396  19.253
 3999SOL    HW223877   3.876   4.322  19.189
 4000SOL     OW23878   0.317   1.087   0.012
 4000SOL    HW123879   0.365   1.066   0.092
 4000SOL    HW223880   0.383   1.123  21.226
 4001SOL     OW23881   0.315   2.348   0.836
 4001SOL    HW123882   0.377   2.281   0.807
 4001SOL    HW223883   0.229   2.311   0.817
 4002SOL     OW23884   2.339   2.667  14.658
 4002SOL    HW123885   2.406   2.725  14.619
 4002SOL    HW223886   2.387   2.618  14.725
 4003SOL     OW23887   2.097   1.314   1.769
 4003SOL    HW123888   2.050   1.264   1.836
 4003SOL    HW223889   2.052   1.292   1.687
 4004SOL     OW23890   0.757   0.577   6.165
 4004SOL    HW123891   0.703   0.511   6.121
 4004SOL    HW223892   0.821   0.527   6.216
 4005SOL     OW23893   0.432   1.202  15.585
 4005SOL    HW123894   0.355   1.165  15.542
 4005SOL    HW223895   0.436   1.292  15.553
 4006SOL     OW23896   4.704   1.236  20.026
 4006SOL    HW123897   4.608   1.245  20.023
 4006SOL    HW223898   4.720   1.184  20.104
 4007SOL     OW23899   1.322   3.105  18.046
 4007SOL    HW123900   1.310   3.075  17.955
 4007SOL    HW223901   1.404   3.065  18.074
 4008SOL     OW23902   3.490   3.446   1.870
 4008SOL    HW123903   3.481   3.441   1.965
 4008SOL    HW223904   3.405   3.418   1.836
 4009SOL     OW23905   0.554   3.926  20.970
 4009SOL    HW123906   0.533   3.978  20.893
 4009SOL    HW223907   0.569   3.990  21.040
 4010SOL     OW23908   4.579   0.127   4.424
 4010SOL    HW123909   4.633   0.140   4.502
 4010SOL    HW223910   4.601   0.038   4.395
 4011SOL     OW23911   1.536   1.658  17.365
 4011SOL    HW123912   1.482   1.596  17.415
 4011SOL    HW223913   1.553   1.613  17.282
 4012SOL     OW23914   3.922   3.974   2.665
 4012SOL    HW123915   3.947   3.941   2.579
 4012SOL    HW223916   3.882   4.060   2.647
 4013SOL     OW23917   2.702   1.170   6.377
 4013SOL    HW123918   2.713   1.088   6.328
 4013SOL    HW223919   2.609   1.173   6.398
 4014SOL     OW23920   2.495   2.574   6.172
 4014SOL    HW123921   2.502   2.654   6.223
 4014SOL    HW223922   2.526   2.505   6.231
 4015SOL     OW23923   3.945   2.110  16.528
 4015SOL    HW123924   3.975   2.057  16.602
 4015SOL    HW223925   3.885   2.174  16.568
 4016SOL     OW23926   2.369   3.274   7.707
 4016SOL    HW123927   2.291   3.326   7.727
 4016SOL    HW223928   2.351   3.235   7.622
 4017SOL     OW23929   2.869   1.471   3.721
 4017SOL    HW123930   2.796   1.453   3.780
 4017SOL    HW223931   2.946   1.470   3.777
 4018SOL     OW23932   3.803   2.710   6.139
 4018SOL    HW123933   3.852   2.724   6.058
 4018SOL    HW223934   3.750   2.632   6.121
 4019SOL     OW23935   0.941   0.565  11.835
 4019SOL    HW123936   0.960   0.658  11.824
 4019SOL    HW223937   0.951   0.528  11.747
 4020SOL     OW23938   4.439   4.712  19.015
 4020SOL    HW123939   4.380   4.684  18.945
 4020SOL    HW223940   4.390   4.778  19.063
 4021SOL     OW23941   4.786   3.706   3.129
 4021SOL    HW123942   4.750   3.794   3.118
 4021SOL    HW223943   0.088   3.719   3.126
 4022SOL     OW23944   1.117   4.683   1.375
 4022SOL    HW123945   1.089   4.599   1.411
 4022SOL    HW223946   1.169   4.661   1.298
 4023SOL     OW23947   2.497   2.948   4.391
 4023SOL    HW123948   2.472   2.939   4.299
 4023SOL    HW223949   2.569   2.886   4.402
 4024SOL     OW23950   1.864   4.007   0.330
 4024SOL    HW123951   1.856   4.081   0.270
 4024SOL    HW223952   1.862   3.929   0.274
 4025SOL     OW23953   3.489   3.534  20.412
 4025SOL    HW123954   3.441   3.560  20.491
 4025SOL    HW223955   3.574   3.502  20.445
 4026SOL     OW23956   2.780   3.706  16.771
 4026SOL    HW123957   2.748   3.631  16.821
 4026SOL    HW223958   2.788   3.776  16.836
 4027SOL     OW23959   1.880   0.122   3.354
 4027SOL    HW123960   1.928   0.086   3.428
 4027SOL    HW223961   1.927   0.203   3.332
 4028SOL     OW23962   1.733   0.986  16.841
 4028SOL    HW123963   1.691   1.054  16.892
 4028SOL    HW223964   1.820   1.020  16.822
 4029SOL     OW23965   4.455   1.334  17.993
 4029SOL    HW123966   4.469   1.273  17.920
 4029SOL    HW223967   4.430   1.416  17.951
 4030SOL     OW23968   1.403   0.543  16.290
 4030SOL    HW123969   1.309   0.546  16.309
 4030SOL    HW223970   1.428   0.635  16.280
 4031SOL     OW23971   4.514   1.208  16.501
 4031SOL    HW123972   4.554   1.295  16.506
 4031SOL    HW223973   4.523   1.173  16.589
 4032SOL     OW23974   3.430   3.892  17.872
 4032SOL    HW123975   3.513   3.845  17.878
 4032SOL    HW223976   3.453   3.979  17.841
 4033SOL     OW23977   4.712   0.134   0.585
 4033SOL    HW123978   4.735   0.183   0.664
 4033SOL    HW223979   4.617   0.141   0.579
 4034SOL     OW23980   4.532   2.413  13.916
 4034SOL    HW123981   4.556   2.438  13.827
 4034SOL    HW223982   4.613   2.378  13.954
 4035SOL     OW23983   0.522   1.911  18.090
 4035SOL    HW123984   0.615   1.922  18.071
 4035SOL    HW223985   0.502   1.823  18.059
 4036SOL     OW23986   3.994   4.196   1.611
 4036SOL    HW123987   3.912   4.231   1.645
 4036SOL    HW223988   4.058   4.266   1.627
 4037SOL     OW23989   3.865   1.752   3.613
 4037SOL    HW123990   3.905   1.795   3.538
 4037SOL    HW223991   3.880   1.811   3.687
 4038SOL     OW23992   2.874   1.665   0.846
 4038SOL    HW123993   2.960   1.658   0.805
 4038SOL    HW223994   2.860   1.759   0.857
 4039SOL     OW23995   0.551   1.048   5.084
 4039SOL    HW123996   0.473   1.053   5.139
 4039SOL    HW223997   0.540   0.966   5.034
 4040SOL     OW23998   0.534   3.941  12.529
 4040SOL    HW123999   0.501   3.999  12.599
 4040SOL    HW224000   0.583   3.873  12.575
 4041SOL     OW24001   0.762   3.210   1.054
 4041SOL    HW124002   0.840   3.215   1.000
 4041SOL    HW224003   0.790   3.167   1.134
 4042SOL     OW24004   2.033   1.511   3.895
 4042SOL    HW124005   2.048   1.502   3.990
 4042SOL    HW224006   1.980   1.436   3.872
 4043SOL     OW24007   0.014   2.079   0.494
 4043SOL    HW124008   4.720   2.108   0.469
 4043SOL    HW224009   0.005   1.985   0.508
 4044SOL     OW24010   3.974   2.834  18.779
 4044SOL    HW124011   3.906   2.803  18.839
 4044SOL    HW224012   4.020   2.754  18.752
 4045SOL     OW24013   4.308   4.713   2.069
 4045SOL    HW124014   4.310   4.727   2.164
 4045SOL    HW224015   4.323   4.619   2.059
 4046SOL     OW24016   1.310   2.482  11.787
 4046SOL    HW124017   1.342   2.491  11.697
 4046SOL    HW224018   1.329   2.391  11.811
 4047SOL     OW24019   3.606   2.086  18.273
 4047SOL    HW124020   3.601   2.022  18.202
 4047SOL    HW224021   3.578   2.168  18.233
 4048SOL     OW24022   0.633   4.118   7.595
 4048SOL    HW124023   0.568   4.188   7.595
 4048SOL    HW224024   0.699   4.147   7.532
 4049SOL     OW24025   3.117   0.756  19.292
 4049SOL    HW124026   3.175   0.729  19.221
 4049SOL    HW224027   3.175   0.794  19.358
 4050SOL     OW24028   4.448   4.723  17.789
 4050SOL    HW124029   4.502   4.788  17.833
 4050SOL    HW224030   4.507   4.649  17.774
 4051SOL     OW24031   3.549   3.977   4.623
 4051SOL    HW124032   3.542   3.963   4.717
 4051SOL    HW224033   3.568   4.070   4.613
 4052SOL     OW24034   3.694   4.223  16.795
 4052SOL    HW124035   3.696   4.301  16.739
 4052SOL    HW224036   3.643   4.160  16.746
 4053SOL     OW24037   3.485   0.743  17.440
 4053SOL    HW124038   3.408   0.686  17.430
 4053SOL    HW224039   3.555   0.696  17.395
 4054SOL     OW24040   3.820   0.136   2.633
 4054SOL    HW124041   3.841   0.106   2.722
 4054SOL    HW224042   3.839   0.061   2.577
 4055SOL     OW24043   2.639   3.035   0.816
 4055SOL    HW124044   2.573   3.046   0.885
 4055SOL    HW224045   2.610   2.958   0.768
 4056SOL     OW24046   2.001   3.490   0.566
 4056SOL    HW124047   1.941   3.565   0.573
 4056SOL    HW224048   2.063   3.502   0.639
 4057SOL     OW24049   3.059   0.258   3.096
 4057SOL    HW124050   3.006   0.193   3.141
 4057SOL    HW224051   3.114   0.296   3.165
 4058SOL     OW24052   3.908   3.863  16.860
 4058SOL    HW124053   3.823   3.903  16.839
 4058SOL    HW224054   3.887   3.772  16.879
 4059SOL     OW24055   0.266   4.111  12.971
 4059SOL    HW124056   0.251   4.158  13.053
 4059SOL    HW224057   0.270   4.019  12.995
 4060SOL     OW24058   2.840   4.262  14.057
 4060SOL    HW124059   2.853   4.345  14.104
 4060SOL    HW224060   2.778   4.214  14.112
 4061SOL     OW24061   2.075   0.307   5.744
 4061SOL    HW124062   1.983   0.284   5.757
 4061SOL    HW224063   2.121   0.266   5.818
 4062SOL     OW24064   1.686   0.923   5.819
 4062SOL    HW124065   1.667   0.992   5.755
 4062SOL    HW224066   1.764   0.879   5.785
 4063SOL     OW24067   3.049   1.046   5.913
 4063SOL    HW124068   2.973   1.027   5.857
 4063SOL    HW224069   3.020   1.022   6.001
 4064SOL     OW24070   3.316   2.317  15.780
 4064SOL    HW124071   3.225   2.333  15.755
 4064SOL    HW224072   3.360   2.401  15.761
 4065SOL     OW24073   2.665   2.378  16.581
 4065SOL    HW124074   2.647   2.458  16.532
 4065SOL    HW224075   2.584   2.327  16.574
 4066SOL     OW24076   0.344   0.709   5.626
 4066SOL    HW124077   0.338   0.652   5.549
 4066SOL    HW224078   0.345   0.798   5.590
 4067SOL     OW24079   3.588   4.340  15.965
 4067SOL    HW124080   3.659   4.275  15.966
 4067SOL    HW224081   3.623   4.412  16.017
 4068SOL     OW24082   4.232   0.814   2.280
 4068SOL    HW124083   4.309   0.760   2.296
 4068SOL    HW224084   4.248   0.894   2.331
 4069SOL     OW24085   4.160   3.462  17.433
 4069SOL    HW124086   4.074   3.436  17.399
 4069SOL    HW224087   4.169   3.554  17.407
 4070SOL     OW24088   2.508   2.854  18.956
 4070SOL    HW124089   2.565   2.922  18.919
 4070SOL    HW224090   2.428   2.900  18.982
 4071SOL     OW24091   2.278   0.564   2.585
 4071SOL    HW124092   2.367   0.547   2.616
 4071SOL    HW224093   2.287   0.578   2.491
 4072SOL     OW24094   2.522   0.504  20.455
 4072SOL    HW124095   2.455   0.445  20.488
 4072SOL    HW224096   2.582   0.516  20.529
 4073SOL     OW24097   1.101   3.329   1.748
 4073SOL    HW124098   1.059   3.291   1.671
 4073SOL    HW224099   1.172   3.383   1.713
 4074SOL     OW24100   0.402   1.145   3.952
 4074SOL    HW124101   0.352   1.159   3.872
 4074SOL    HW224102   0.338   1.114   4.016
 4075SOL     OW24103   0.996   3.739  17.590
 4075SOL    HW124104   0.910   3.781  17.599
 4075SOL    HW224105   1.009   3.733  17.495
 4076SOL     OW24106   1.454   4.356   7.201
 4076SOL    HW124107   1.529   4.307   7.169
 4076SOL    HW224108   1.424   4.306   7.277
 4077SOL     OW24109   1.685   4.251   7.480
 4077SOL    HW124110   1.737   4.197   7.540
 4077SOL    HW224111   1.651   4.322   7.534
 4078SOL     OW24112   4.391   0.292   5.115
 4078SOL    HW124113   4.327   0.362   5.100
 4078SOL    HW224114   4.355   0.217   5.067
 4079SOL     OW24115   3.606   0.578  17.243
 4079SOL    HW124116   3.555   0.636  17.187
 4079SOL    HW224117   3.692   0.573  17.202
 4080SOL     OW24118   2.925   3.595  20.948
 4080SOL    HW124119   2.859   3.620  20.883
 4080SOL    HW224120   3.007   3.594  20.899
 4081SOL     OW24121   4.123   1.456   2.465
 4081SOL    HW124122   4.203   1.497   2.434
 4081SOL    HW224123   4.145   1.423   2.552
 4082SOL     OW24124   3.386   1.940   2.380
 4082SOL    HW124125   3.357   1.885   2.307
 4082SOL    HW224126   3.371   2.030   2.350
 4083SOL     OW24127   2.368   2.650   5.929
 4083SOL    HW124128   2.439   2.667   5.867
 4083SOL    HW224129   2.411   2.645   6.014
 4084SOL     OW24130   0.420   0.260   3.591
 4084SOL    HW124131   0.501   0.213   3.574
 4084SOL    HW224132   0.393   0.293   3.505
 4085SOL     OW24133   0.845   3.893   3.445
 4085SOL    HW124134   0.831   3.820   3.385
 4085SOL    HW224135   0.792   3.872   3.521
 4086SOL     OW24136   2.537   3.851   3.635
 4086SOL    HW124137   2.617   3.903   3.633
 4086SOL    HW224138   2.566   3.763   3.660
 4087SOL     OW24139   0.338   4.533  19.920
 4087SOL    HW124140   0.392   4.604  19.953
 4087SOL    HW224141   0.397   4.458  19.913
 4088SOL     OW24142   3.723   2.231   7.554
 4088SOL    HW124143   3.701   2.152   7.504
 4088SOL    HW224144   3.803   2.209   7.600
 4089SOL     OW24145   2.079   1.406  16.543
 4089SOL    HW124146   2.124   1.327  16.514
 4089SOL    HW224147   1.999   1.409  16.491
 4090SOL     OW24148   3.301   2.749   5.062
 4090SOL    HW124149   3.263   2.698   5.134
 4090SOL    HW224150   3.239   2.737   4.990
 4091SOL     OW24151   4.371   0.111  19.455
 4091SOL    HW124152   4.358   0.035  19.512
 4091SOL    HW224153   4.443   0.085  19.397
 4092SOL     OW24154   1.226   1.293   4.990
 4092SOL    HW124155   1.290   1.249   5.045
 4092SOL    HW224156   1.262   1.380   4.975
 4093SOL     OW24157   1.842   1.717  18.291
 4093SOL    HW124158   1.918   1.660  18.297
 4093SOL    HW224159   1.820   1.739  18.382
 4094SOL     OW24160   3.378   4.005  13.174
 4094SOL    HW124161   3.308   3.958  13.130
 4094SOL    HW224162   3.338   4.039  13.254
 4095SOL     OW24163   2.938   1.272   3.534
 4095SOL    HW124164   3.028   1.306   3.524
 4095SOL    HW224165   2.910   1.303   3.620
 4096SOL     OW24166   1.717   3.148   4.881
 4096SOL    HW124167   1.666   3.069   4.860
 4096SOL    HW224168   1.702   3.162   4.974
 4097SOL     OW24169   3.184   4.535   0.481
 4097SOL    HW124170   3.213   4.592   0.409
 4097SOL    HW224171   3.167   4.595   0.553
 4098SOL     OW24172   4.326   2.566   0.403
 4098SOL    HW124173   4.408   2.521   0.422
 4098SOL    HW224174   4.281   2.509   0.340
 4099SOL     OW24175   1.082   3.737  11.486
 4099SOL    HW124176   1.152   3.793  11.519
 4099SOL    HW224177   1.054   3.779  11.405
 4100SOL     OW24178   1.689   1.447   1.117
 4100SOL    HW124179   1.626   1.403   1.173
 4100SOL    HW224180   1.754   1.483   1.177
 4101SOL     OW24181   4.731   2.393  20.544
 4101SOL    HW124182   4.742   2.377  20.451
 4101SOL    HW224183   4.672   2.324  20.573
 4102SOL     OW24184   2.059   2.158   6.535
 4102SOL    HW124185   2.141   2.201   6.512
 4102SOL    HW224186   2.026   2.208   6.610
 4103SOL     OW24187   0.864   2.436   0.469
 4103SOL    HW124188   0.801   2.364   0.461
 4103SOL    HW224189   0.865   2.477   0.383
 4104SOL     OW24190   3.813   3.532  17.940
 4104SOL    HW124191   3.801   3.485  17.857
 4104SOL    HW224192   3.742   3.501  17.995
 4105SOL     OW24193   2.662   2.089   2.995
 4105SOL    HW124194   2.666   2.181   2.968
 4105SOL    HW224195   2.739   2.049   2.955
 4106SOL     OW24196   0.264   3.065  18.827
 4106SOL    HW124197   0.283   3.025  18.912
 4106SOL    HW224198   0.280   3.158  18.841
 4107SOL     OW24199   1.277   3.783  16.777
 4107SOL    HW124200   1.356   3.748  16.817
 4107SOL    HW224201   1.288   3.768  16.683
 4108SOL     OW24202   1.828   1.849   6.866
 4108SOL    HW124203   1.870   1.817   6.787
 4108SOL    HW224204   1.804   1.770   6.914
 4109SOL     OW24205   4.068   0.170   5.850
 4109SOL    HW124206   4.092   0.134   5.935
 4109SOL    HW224207   4.057   0.094   5.793
 4110SOL     OW24208   1.635   2.878  18.870
 4110SOL    HW124209   1.624   2.792  18.909
 4110SOL    HW224210   1.577   2.878  18.794
 4111SOL     OW24211   2.397   1.572   3.446
 4111SOL    HW124212   2.368   1.562   3.356
 4111SOL    HW224213   2.364   1.493   3.490
 4112SOL     OW24214   2.613   4.309  12.267
 4112SOL    HW124215   2.688   4.354  12.305
 4112SOL    HW224216   2.536   4.353  12.305
 4113SOL     OW24217   4.629   2.331  20.812
 4113SOL    HW124218   4.560   2.271  20.783
 4113SOL    HW224219   4.597   2.366  20.895
 4114SOL     OW24220   3.460   4.566  14.831
 4114SOL    HW124221   3.440   4.484  14.787
 4114SOL    HW224222   3.528   4.606  14.778
 4115SOL     OW24223   0.164   1.711   5.550
 4115SOL    HW124224   0.256   1.731   5.566
 4115SOL    HW224225   0.119   1.794   5.567
 4116SOL     OW24226   3.327   4.584  14.540
 4116SOL    HW124227   3.335   4.499  14.495
 4116SOL    HW224228   3.383   4.643  14.490
 4117SOL     OW24229   4.199   2.918  14.123
 4117SOL    HW124230   4.288   2.900  14.092
 4117SOL    HW224231   4.157   2.966  14.052
 4118SOL     OW24232   1.902   1.425   2.162
 4118SOL    HW124233   1.995   1.423   2.137
 4118SOL    HW224234   1.856   1.401   2.081
 4119SOL     OW24235   3.899   3.223  16.208
 4119SOL    HW124236   3.839   3.269  16.268
 4119SOL    HW224237   3.920   3.142  16.254
 4120SOL     OW24238   1.181   3.744   4.476
 4120SOL    HW124239   1.273   3.715   4.473
 4120SOL    HW224240   1.185   3.829   4.521
 4121SOL     OW24241   2.436   1.181   2.386
 4121SOL    HW124242   2.496   1.227   2.328
 4121SOL    HW224243   2.491   1.147   2.456
 4122SOL     OW24244   4.666   2.060  19.268
 4122SOL    HW124245   4.754   2.083  19.237
 4122SOL    HW224246   4.646   1.978  19.224
 4123SOL     OW24247   3.683   3.217   6.219
 4123SOL    HW124248   3.703   3.229   6.312
 4123SOL    HW224249   3.676   3.306   6.185
 4124SOL     OW24250   3.312   1.267   2.122
 4124SOL    HW124251   3.297   1.230   2.034
 4124SOL    HW224252   3.378   1.210   2.161
 4125SOL     OW24253   0.006   3.636   0.191
 4125SOL    HW124254   0.036   3.714   0.145
 4125SOL    HW224255   4.707   3.653   0.210
 4126SOL     OW24256   3.415   2.799   3.457
 4126SOL    HW124257   3.369   2.736   3.401
 4126SOL    HW224258   3.427   2.753   3.539
 4127SOL     OW24259   2.816   1.905   7.792
 4127SOL    HW124260   2.867   1.824   7.789
 4127SOL    HW224261   2.837   1.943   7.877
 4128SOL     OW24262   4.670   4.459  18.378
 4128SOL    HW124263   4.695   4.371  18.350
 4128SOL    HW224264   4.735   4.483  18.444
 4129SOL     OW24265   2.135   0.056  21.202
 4129SOL    HW124266   2.135   4.760  21.169
 4129SOL    HW224267   2.217   0.064  21.251
 4130SOL     OW24268   2.599   2.713   5.738
 4130SOL    HW124269   2.589   2.808   5.744
 4130SOL    HW224270   2.544   2.688   5.663
 4131SOL     OW24271   2.362   4.654   1.445
 4131SOL    HW124272   2.375   4.747   1.461
 4131SOL    HW224273   2.277   4.634   1.484
 4132SOL     OW24274   4.475   0.452  13.731
 4132SOL    HW124275   4.457   0.516  13.799
 4132SOL    HW224276   4.532   0.387  13.772
 4133SOL     OW24277   2.306   3.260   5.608
 4133SOL    HW124278   2.242   3.318   5.650
 4133SOL    HW224279   2.296   3.177   5.654
 4134SOL     OW24280   0.789   0.995  16.630
 4134SOL    HW124281   0.697   1.001  16.603
 4134SOL    HW224282   0.790   1.029  16.719
 4135SOL     OW24283   3.854   0.295  14.976
 4135SOL    HW124284   3.841   0.329  15.065
 4135SOL    HW224285   3.907   0.362  14.933
 4136SOL     OW24286   2.530   3.154   2.380
 4136SOL    HW124287   2.591   3.156   2.455
 4136SOL    HW224288   2.445   3.174   2.419
 4137SOL     OW24289   2.024   1.623   3.606
 4137SOL    HW124290   2.003   1.608   3.699
 4137SOL    HW224291   2.113   1.657   3.607
 4138SOL     OW24292   0.347   2.543  21.237
 4138SOL    HW124293   0.289   2.520   0.037
 4138SOL    HW224294   0.377   2.459  21.202
 4139SOL     OW24295   4.223   3.913   1.251
 4139SOL    HW124296   4.196   3.955   1.169
 4139SOL    HW224297   4.239   3.985   1.311
 4140SOL     OW24298   1.534   2.800  18.624
 4140SOL    HW124299   1.615   2.750  18.632
 4140SOL    HW224300   1.546   2.853  18.545
 4141SOL     OW24301   2.839   3.949   3.566
 4141SOL    HW124302   2.811   3.866   3.529
 4141SOL    HW224303   2.934   3.950   3.556
 4142SOL     OW24304   2.135   3.367  19.784
 4142SOL    HW124305   2.048   3.382  19.821
 4142SOL    HW224306   2.193   3.425  19.833
 4143SOL     OW24307   1.775   4.616   3.305
 4143SOL    HW124308   1.705   4.666   3.347
 4143SOL    HW224309   1.785   4.657   3.219
 4144SOL     OW24310   0.540   0.080   5.598
 4144SOL    HW124311   0.581   0.125   5.671
 4144SOL    HW224312   0.492   0.149   5.552
 4145SOL     OW24313   3.125   2.574  16.802
 4145SOL    HW124314   3.161   2.663  16.804
 4145SOL    HW224315   3.160   2.532  16.881
 4146SOL     OW24316   3.859   2.065   4.984
 4146SOL    HW124317   3.880   2.158   4.987
 4146SOL    HW224318   3.890   2.030   5.067
 4147SOL     OW24319   4.790   1.888  14.420
 4147SOL    HW124320   0.089   1.905  14.442
 4147SOL    HW224321   4.776   1.936  14.338
 4148SOL     OW24322   1.018   0.695   4.421
 4148SOL    HW124323   1.074   0.772   4.428
 4148SOL    HW224324   0.961   0.699   4.499
 4149SOL     OW24325   3.635   4.066  15.358
 4149SOL    HW124326   3.557   4.092  15.406
 4149SOL    HW224327   3.686   4.015  15.421
 4150SOL     OW24328   3.824   2.812  16.625
 4150SOL    HW124329   3.864   2.898  16.618
 4150SOL    HW224330   3.773   2.802  16.545
 4151SOL     OW24331   3.799   2.581  15.933
 4151SOL    HW124332   3.772   2.574  15.842
 4151SOL    HW224333   3.763   2.503  15.975
 4152SOL     OW24334   3.210   4.517   5.441
 4152SOL    HW124335   3.157   4.442   5.415
 4152SOL    HW224336   3.200   4.522   5.536
 4153SOL     OW24337   2.261   2.472   2.954
 4153SOL    HW124338   2.198   2.481   2.882
 4153SOL    HW224339   2.245   2.549   3.009
 4154SOL     OW24340   0.394   0.023  14.481
 4154SOL    HW124341   0.316   0.003  14.532
 4154SOL    HW224342   0.368   0.013  14.390
 4155SOL     OW24343   1.483   4.735  14.169
 4155SOL    HW124344   1.457   4.661  14.113
 4155SOL    HW224345   1.513   0.008  14.107
 4156SOL     OW24346   1.454   0.875   2.729
 4156SOL    HW124347   1.541   0.911   2.710
 4156SOL    HW224348   1.467   0.816   2.803
 4157SOL     OW24349   2.899   1.235   1.915
 4157SOL    HW124350   2.957   1.268   1.985
 4157SOL    HW224351   2.825   1.296   1.915
 4158SOL     OW24352   2.549   1.165  16.662
 4158SOL    HW124353   2.570   1.177  16.570
 4158SOL    HW224354   2.635   1.155  16.705
 4159SOL     OW24355   1.376   2.731  17.360
 4159SOL    HW124356   1.293   2.765  17.328
 4159SOL    HW224357   1.353   2.650  17.405
 4160SOL     OW24358   2.726   2.310  17.487
 4160SOL    HW124359   2.720   2.261  17.569
 4160SOL    HW224360   2.816   2.343  17.485
 4161SOL     OW24361   4.310   3.404   6.779
 4161SOL    HW124362   4.391   3.413   6.728
 4161SOL    HW224363   4.256   3.343   6.729
 4162SOL     OW24364   1.401   1.706   1.832
 4162SOL    HW124365   1.330   1.730   1.772
 4162SOL    HW224366   1.476   1.757   1.802
 4163SOL     OW24367   0.058   4.288  16.778
 4163SOL    HW124368   0.142   4.331  16.795
 4163SOL    HW224369   0.081   4.201  16.745
 4164SOL     OW24370   0.428   4.763   4.539
 4164SOL    HW124371   0.519   4.790   4.545
 4164SOL    HW224372   0.397   0.006   4.456
 4165SOL     OW24373   3.150   1.497  18.659
 4165SOL    HW124374   3.125   1.553  18.585
 4165SOL    HW224375   3.099   1.531  18.733
 4166SOL     OW24376   0.879   3.187  18.181
 4166SOL    HW124377   0.905   3.100  18.210
 4166SOL    HW224378   0.823   3.171  18.105
 4167SOL     OW24379   2.731   1.751  15.133
 4167SOL    HW124380   2.692   1.684  15.076
 4167SOL    HW224381   2.687   1.832  15.109
 4168SOL     OW24382   2.203   2.460   0.425
 4168SOL    HW124383   2.266   2.520   0.385
 4168SOL    HW224384   2.222   2.464   0.519
 4169SOL     OW24385   0.906   4.758   1.043
 4169SOL    HW124386   0.854   0.041   1.013
 4169SOL    HW224387   0.849   4.714   1.105
 4170SOL     OW24388   0.585   3.141   3.472
 4170SOL    HW124389   0.665   3.138   3.524
 4170SOL    HW224390   0.516   3.167   3.534
 4171SOL     OW24391   0.842   1.561   0.642
 4171SOL    HW124392   0.787   1.632   0.608
 4171SOL    HW224393   0.900   1.538   0.570
 4172SOL     OW24394   0.285   1.481  16.139
 4172SOL    HW124395   0.240   1.517  16.215
 4172SOL    HW224396   0.266   1.543  16.068
 4173SOL     OW24397   0.486   3.407   2.714
 4173SOL    HW124398   0.457   3.487   2.758
 4173SOL    HW224399   0.471   3.337   2.779
 4174SOL     OW24400   2.186   0.519  16.454
 4174SOL    HW124401   2.218   0.554  16.371
 4174SOL    HW224402   2.264   0.512  16.509
 4175SOL     OW24403   0.016   3.380   0.347
 4175SOL    HW124404   4.725   3.367   0.304
 4175SOL    HW224405   0.051   3.460   0.308
 4176SOL     OW24406   0.971   0.915  17.418
 4176SOL    HW124407   0.940   0.830  17.449
 4176SOL    HW224408   1.036   0.894  17.351
 4177SOL     OW24409   1.797   2.159  16.220
 4177SOL    HW124410   1.716   2.211  16.218
 4177SOL    HW224411   1.766   2.068  16.229
 4178SOL     OW24412   1.421   1.885  21.271
 4178SOL    HW124413   1.451   1.958  21.217
 4178SOL    HW224414   1.487   1.878   0.067
 4179SOL     OW24415   0.482   0.999   0.205
 4179SOL    HW124416   0.576   1.009   0.219
 4179SOL    HW224417   0.461   0.914   0.246
 4180SOL     OW24418   2.295   0.987  14.970
 4180SOL    HW124419   2.203   0.959  14.978
 4180SOL    HW224420   2.337   0.916  14.921
 4181SOL     OW24421   0.684   0.379  15.302
 4181SOL    HW124422   0.764   0.359  15.350
 4181SOL    HW224423   0.712   0.381  15.210
 4182SOL     OW24424   0.312   4.783   4.788
 4182SOL    HW124425   0.338   4.739   4.707
 4182SOL    HW224426   0.243   0.050   4.762
 4183SOL     OW24427   1.896   2.378   0.041
 4183SOL    HW124428   1.991   2.369   0.053
 4183SOL    HW224429   1.877   2.324  21.236
 4184SOL     OW24430   0.098   0.564   2.660
 4184SOL    HW124431   0.072   0.537   2.572
 4184SOL    HW224432   0.160   0.497   2.689
 4185SOL     OW24433   4.267   3.188  15.519
 4185SOL    HW124434   4.280   3.252  15.589
 4185SOL    HW224435   4.263   3.241  15.439
 4186SOL     OW24436   2.272   4.583  17.393
 4186SOL    HW124437   2.340   4.516  17.400
 4186SOL    HW224438   2.284   4.620  17.306
 4187SOL     OW24439   0.475   3.146   6.430
 4187SOL    HW124440   0.471   3.233   6.390
 4187SOL    HW224441   0.502   3.088   6.359
 4188SOL     OW24442   0.580   4.438   2.382
 4188SOL    HW124443   0.665   4.455   2.342
 4188SOL    HW224444   0.516   4.473   2.320
 4189SOL     OW24445   2.486   2.066  17.868
 4189SOL    HW124446   2.560   2.016  17.832
 4189SOL    HW224447   2.502   2.156  17.840
 4190SOL     OW24448   2.742   0.693  20.865
 4190SOL    HW124449   2.774   0.783  20.861
 4190SOL    HW224450   2.793   0.652  20.935
 4191SOL     OW24451   0.317   1.901  20.384
 4191SOL    HW124452   0.347   1.921  20.295
 4191SOL    HW224453   0.288   1.985  20.418
 4192SOL     OW24454   4.736   4.705  20.269
 4192SOL    HW124455   4.731   4.784  20.216
 4192SOL    HW224456   0.030   4.669  20.253
 4193SOL     OW24457   0.889   2.350  17.053
 4193SOL    HW124458   0.850   2.377  17.137
 4193SOL    HW224459   0.910   2.432  17.009
 4194SOL     OW24460   0.058   1.607   4.266
 4194SOL    HW124461   0.142   1.608   4.312
 4194SOL    HW224462   0.037   1.699   4.253
 4195SOL     OW24463   0.188   1.373   4.510
 4195SOL    HW124464   0.140   1.397   4.589
 4195SOL    HW224465   0.203   1.456   4.464
 4196SOL     OW24466   1.396   2.299  16.398
 4196SOL    HW124467   1.479   2.313  16.444
 4196SOL    HW224468   1.334   2.276  16.468
 4197SOL     OW24469   3.691   0.778  19.462
 4197SOL    HW124470   3.782   0.795  19.486
 4197SOL    HW224471   3.695   0.741  19.374
 4198SOL     OW24472   1.360   2.542  16.231
 4198SOL    HW124473   1.273   2.538  16.192
 4198SOL    HW224474   1.365   2.465  16.287
 4199SOL     OW24475   1.352   3.888   4.157
 4199SOL    HW124476   1.262   3.884   4.190
 4199SOL    HW224477   1.347   3.946   4.081
 4200SOL     OW24478   1.456   3.947  14.901
 4200SOL    HW124479   1.495   3.870  14.943
 4200SOL    HW224480   1.413   3.912  14.823
 4201SOL     OW24481   3.246   2.640  19.643
 4201SOL    HW124482   3.235   2.566  19.703
 4201SOL    HW224483   3.326   2.618  19.593
 4202SOL     OW24484   0.376   3.621   7.943
 4202SOL    HW124485   0.440   3.576   7.888
 4202SOL    HW224486   0.382   3.578   8.028
 4203SOL     OW24487   2.724   1.102  14.156
 4203SOL    HW124488   2.819   1.101  14.162
 4203SOL    HW224489   2.695   1.029  14.211
 4204SOL     OW24490   0.666   0.967  17.857
 4204SOL    HW124491   0.623   0.928  17.781
 4204SOL    HW224492   0.694   1.054  17.827
 4205SOL     OW24493   2.203   1.082   5.597
 4205SOL    HW124494   2.255   1.152   5.636
 4205SOL    HW224495   2.255   1.003   5.610
 4206SOL     OW24496   0.570   1.240   0.713
 4206SOL    HW124497   0.640   1.211   0.654
 4206SOL    HW224498   0.611   1.306   0.769
 4207SOL     OW24499   4.748   0.942   3.975
 4207SOL    HW124500   4.751   0.976   3.885
 4207SOL    HW224501   4.792   0.857   3.970
 4208SOL     OW24502   1.525   1.757   3.935
 4208SOL    HW124503   1.485   1.842   3.957
 4208SOL    HW224504   1.618   1.776   3.927
 4209SOL     OW24505   1.067   2.774   0.842
 4209SOL    HW124506   1.043   2.682   0.832
 4209SOL    HW224507   1.128   2.775   0.917
 4210SOL     OW24508   1.623   4.482   3.014
 4210SOL    HW124509   1.699   4.534   3.041
 4210SOL    HW224510   1.608   4.421   3.086
 4211SOL     OW24511   0.537   1.663   2.154
 4211SOL    HW124512   0.442   1.649   2.153
 4211SOL    HW224513   0.548   1.753   2.185
 4212SOL     OW24514   0.991   1.145   5.077
 4212SOL    HW124515   1.034   1.063   5.053
 4212SOL    HW224516   1.055   1.213   5.057
 4213SOL     OW24517   1.499   4.733   5.247
 4213SOL    HW124518   1.435   4.675   5.289
 4213SOL    HW224519   1.514   0.009   5.311
 4214SOL     OW24520   2.247   3.795   1.220
 4214SOL    HW124521   2.237   3.862   1.288
 4214SOL    HW224522   2.226   3.841   1.138
 4215SOL     OW24523   3.420   2.022  15.578
 4215SOL    HW124524   3.436   2.116  15.570
 4215SOL    HW224525   3.499   1.980  15.543
 4216SOL     OW24526   0.856   3.665  15.919
 4216SOL    HW124527   0.842   3.691  15.828
 4216SOL    HW224528   0.918   3.593  15.915
 4217SOL     OW24529   1.851   0.729   3.697
 4217SOL    HW124530   1.900   0.747   3.617
 4217SOL    HW224531   1.915   0.741   3.767
 4218SOL     OW24532   1.594   2.016  16.580
 4218SOL    HW124533   1.540   1.983  16.509
 4218SOL    HW224534   1.534   2.068  16.634
 4219SOL     OW24535   1.347   3.875   2.846
 4219SOL    HW124536   1.280   3.816   2.880
 4219SOL    HW224537   1.390   3.909   2.924
 4220SOL     OW24538   2.209   3.946   3.126
 4220SOL    HW124539   2.285   3.945   3.068
 4220SOL    HW224540   2.167   4.030   3.110
 4221SOL     OW24541   2.757   2.407   1.416
 4221SOL    HW124542   2.754   2.471   1.345
 4221SOL    HW224543   2.686   2.433   1.475
 4222SOL     OW24544   3.988   1.377  19.708
 4222SOL    HW124545   4.071   1.330  19.703
 4222SOL    HW224546   3.951   1.368  19.620
 4223SOL     OW24547   4.745   0.195  13.028
 4223SOL    HW124548   0.031   0.217  12.979
 4223SOL    HW224549   4.698   0.277  13.038
 4224SOL     OW24550   1.999   2.186   4.383
 4224SOL    HW124551   2.087   2.203   4.416
 4224SOL    HW224552   1.945   2.255   4.421
 4225SOL     OW24553   3.507   2.767  15.147
 4225SOL    HW124554   3.581   2.719  15.184
 4225SOL    HW224555   3.431   2.735  15.196
 4226SOL     OW24556   2.817   1.318   6.081
 4226SOL    HW124557   2.746   1.383   6.084
 4226SOL    HW224558   2.827   1.299   5.988
 4227SOL     OW24559   1.892   3.393   6.295
 4227SOL    HW124560   1.854   3.442   6.368
 4227SOL    HW224561   1.971   3.354   6.331
 4228SOL     OW24562   2.070   2.685  17.421
 4228SOL    HW124563   1.975   2.689  17.415
 4228SOL    HW224564   2.094   2.603  17.378
 4229SOL     OW24565   4.024   1.198   5.627
 4229SOL    HW124566   4.103   1.145   5.637
 4229SOL    HW224567   3.970   1.149   5.565
 4230SOL     OW24568   3.612   3.064  20.352
 4230SOL    HW124569   3.546   2.994  20.344
 4230SOL    HW224570   3.629   3.090  20.261
 4231SOL     OW24571   2.799   2.061   1.668
 4231SOL    HW124572   2.715   2.103   1.649
 4231SOL    HW224573   2.815   2.004   1.593
 4232SOL     OW24574   0.488   2.760  19.988
 4232SOL    HW124575   0.413   2.755  19.928
 4232SOL    HW224576   0.462   2.708  20.064
 4233SOL     OW24577   0.940   0.247  20.455
 4233SOL    HW124578   0.852   0.279  20.476
 4233SOL    HW224579   0.989   0.326  20.433
 4234SOL     OW24580   2.238   0.474   4.726
 4234SOL    HW124581   2.196   0.443   4.645
 4234SOL    HW224582   2.314   0.524   4.697
 4235SOL     OW24583   1.656   3.979  21.197
 4235SOL    HW124584   1.593   3.930  21.144
 4235SOL    HW224585   1.651   3.938   0.011
 4236SOL     OW24586   0.133   0.632  17.054
 4236SOL    HW124587   0.107   0.708  17.002
 4236SOL    HW224588   0.228   0.636  17.058
 4237SOL     OW24589   1.411   3.955   1.383
 4237SOL    HW124590   1.328   3.967   1.429
 4237SOL    HW224591   1.468   4.023   1.419
 4238SOL     OW24592   3.905   3.828  19.352
 4238SOL    HW124593   3.929   3.884  19.278
 4238SOL    HW224594   3.985   3.778  19.370
 4239SOL     OW24595   4.598   0.873  18.090
 4239SOL    HW124596   4.510   0.911  18.091
 4239SOL    HW224597   4.597   0.808  18.160
 4240SOL     OW24598   1.903   4.575  19.768
 4240SOL    HW124599   1.885   4.621  19.849
 4240SOL    HW224600   1.819   4.535  19.743
 4241SOL     OW24601   2.107   0.973  18.179
 4241SOL    HW124602   2.065   0.932  18.255
 4241SOL    HW224603   2.037   1.023  18.137
 4242SOL     OW24604   4.373   2.539   4.352
 4242SOL    HW124605   4.388   2.533   4.446
 4242SOL    HW224606   4.460   2.534   4.313
 4243SOL     OW24607   0.238   2.612   2.258
 4243SOL    HW124608   0.241   2.541   2.194
 4243SOL    HW224609   0.264   2.690   2.209
 4244SOL     OW24610   3.143   0.284  16.827
 4244SOL    HW124611   3.120   0.233  16.749
 4244SOL    HW224612   3.142   0.220  16.898
 4245SOL     OW24613   1.335   4.464  17.184
 4245SOL    HW124614   1.343   4.523  17.259
 4245SOL    HW224615   1.261   4.407  17.205
 4246SOL     OW24616   2.450   3.078   6.082
 4246SOL    HW124617   2.384   3.119   6.139
 4246SOL    HW224618   2.405   3.064   5.999
 4247SOL     OW24619   2.825   0.239   1.185
 4247SOL    HW124620   2.879   0.289   1.247
 4247SOL    HW224621   2.758   0.199   1.240
 4248SOL     OW24622   2.028   1.033   4.042
 4248SOL    HW124623   1.943   1.019   4.001
 4248SOL    HW224624   2.056   1.119   4.011
 4249SOL     OW24625   1.937   4.787  14.875
 4249SOL    HW124626   2.022   4.743  14.870
 4249SOL    HW224627   1.888   4.754  14.800
 4250SOL     OW24628   2.248   4.270   1.582
 4250SOL    HW124629   2.286   4.263   1.669
 4250SOL    HW224630   2.318   4.305   1.528
 4251SOL     OW24631   0.130   2.620  20.553
 4251SOL    HW124632   0.104   2.597  20.642
 4251SOL    HW224633   0.075   2.565  20.497
 4252SOL     OW24634   3.712   3.084  18.043
 4252SOL    HW124635   3.678   3.083  17.953
 4252SOL    HW224636   3.786   3.023  18.040
 4253SOL     OW24637   3.323   3.857   5.816
 4253SOL    HW124638   3.303   3.765   5.798
 4253SOL    HW224639   3.418   3.860   5.824
 4254SOL     OW24640   2.397   2.120  15.870
 4254SOL    HW124641   2.334   2.093  15.937
 4254SOL    HW224642   2.426   2.207  15.899
 4255SOL     OW24643   2.876   4.563  20.328
 4255SOL    HW124644   2.880   4.483  20.276
 4255SOL    HW224645   2.940   4.622  20.287
 4256SOL     OW24646   4.143   2.774  14.838
 4256SOL    HW124647   4.173   2.797  14.750
 4256SOL    HW224648   4.177   2.845  14.894
 4257SOL     OW24649   2.146   3.377  14.538
 4257SOL    HW124650   2.225   3.383  14.484
 4257SOL    HW224651   2.179   3.363  14.627
 4258SOL     OW24652   4.713   3.434   3.096
 4258SOL    HW124653   4.751   3.512   3.136
 4258SOL    HW224654   4.788   3.382   3.068
 4259SOL     OW24655   2.716   1.222  16.418
 4259SOL    HW124656   2.789   1.166  16.392
 4259SOL    HW224657   2.680   1.253  16.335
 4260SOL     OW24658   1.422   2.624   5.478
 4260SOL    HW124659   1.429   2.542   5.527
 4260SOL    HW224660   1.347   2.669   5.517
 4261SOL     OW24661   3.279   2.910   0.279
 4261SOL    HW124662   3.344   2.857   0.232
 4261SOL    HW224663   3.240   2.965   0.212
 4262SOL     OW24664   2.294   0.926  19.572
 4262SOL    HW124665   2.326   0.991  19.509
 4262SOL    HW224666   2.213   0.963  19.605
 4263SOL     OW24667   3.353   3.131  18.893
 4263SOL    HW124668   3.264   3.102  18.911
 4263SOL    HW224669   3.349   3.169  18.805
 4264SOL     OW24670   1.976   3.827  17.304
 4264SOL    HW124671   2.002   3.851  17.393
 4264SOL    HW224672   1.893   3.872  17.290
 4265SOL     OW24673   4.552   0.801  13.384
 4265SOL    HW124674   4.622   0.866  13.378
 4265SOL    HW224675   4.538   0.773  13.294
 4266SOL     OW24676   0.468   0.321  18.122
 4266SOL    HW124677   0.498   0.409  18.147
 4266SOL    HW224678   0.422   0.334  18.040
 4267SOL     OW24679   3.400   0.050   3.276
 4267SOL    HW124680   3.382   0.021   3.187
 4267SOL    HW224681   3.437   0.138   3.265
 4268SOL     OW24682   2.231   2.664   2.604
 4268SOL    HW124683   2.276   2.647   2.521
 4268SOL    HW224684   2.204   2.577   2.635
 4269SOL     OW24685   4.026   3.943   5.890
 4269SOL    HW124686   4.098   3.883   5.873
 4269SOL    HW224687   4.043   4.018   5.832
 4270SOL     OW24688   2.759   2.811   6.347
 4270SOL    HW124689   2.841   2.839   6.307
 4270SOL    HW224690   2.782   2.794   6.438
 4271SOL     OW24691   2.142   2.114  19.589
 4271SOL    HW124692   2.172   2.058  19.518
 4271SOL    HW224693   2.216   2.172  19.608
 4272SOL     OW24694   1.501   1.999   3.718
 4272SOL    HW124695   1.423   2.022   3.668
 4272SOL    HW224696   1.476   2.013   3.809
 4273SOL     OW24697   3.237   2.223   6.968
 4273SOL    HW124698   3.207   2.314   6.959
 4273SOL    HW224699   3.324   2.223   6.926
 4274SOL     OW24700   1.078   4.677   4.617
 4274SOL    HW124701   1.120   4.759   4.643
 4274SOL    HW224702   1.132   4.644   4.544
 4275SOL     OW24703   3.929   2.054   6.214
 4275SOL    HW124704   3.895   2.140   6.192
 4275SOL    HW224705   3.860   1.993   6.189
 4276SOL     OW24706   4.306   2.231   1.277
 4276SOL    HW124707   4.331   2.268   1.361
 4276SOL    HW224708   4.312   2.304   1.216
 4277SOL     OW24709   0.773   4.060   4.267
 4277SOL    HW124710   0.678   4.061   4.260
 4277SOL    HW224711   0.798   3.968   4.253
 4278SOL     OW24712   0.462   1.754   0.883
 4278SOL    HW124713   0.453   1.847   0.860
 4278SOL    HW224714   0.549   1.748   0.922
 4279SOL     OW24715   3.260   3.748  15.741
 4279SOL    HW124716   3.282   3.840  15.752
 4279SOL    HW224717   3.206   3.728  15.818
 4280SOL     OW24718   0.143   0.184   4.756
 4280SOL    HW124719   0.063   0.173   4.808
 4280SOL    HW224720   0.113   0.219   4.672
 4281SOL     OW24721   4.713   3.932  13.729
 4281SOL    HW124722   4.641   3.875  13.754
 4281SOL    HW224723   4.684   3.974  13.647
 4282SOL     OW24724   0.168   0.560  16.002
 4282SOL    HW124725   0.185   0.653  16.018
 4282SOL    HW224726   0.128   0.529  16.084
 4283SOL     OW24727   3.053   1.837  21.116
 4283SOL    HW124728   2.958   1.838  21.124
 4283SOL    HW224729   3.084   1.796  21.197
 4284SOL     OW24730   4.598   0.703  16.253
 4284SOL    HW124731   4.526   0.640  16.259
 4284SOL    HW224732   4.558   0.787  16.278
 4285SOL     OW24733   0.565   0.898   1.789
 4285SOL    HW124734   0.523   0.846   1.720
 4285SOL    HW224735   0.492   0.943   1.833
 4286SOL     OW24736   4.685   1.915   1.581
 4286SOL    HW124737   4.663   1.865   1.660
 4286SOL    HW224738   4.777   1.937   1.591
 4287SOL     OW24739   1.469   0.603   2.241
 4287SOL    HW124740   1.427   0.621   2.325
 4287SOL    HW224741   1.470   0.508   2.234
 4288SOL     OW24742   1.322   4.287   4.324
 4288SOL    HW124743   1.264   4.220   4.361
 4288SOL    HW224744   1.409   4.264   4.357
 4289SOL     OW24745   3.239   1.168   3.216
 4289SOL    HW124746   3.296   1.161   3.139
 4289SOL    HW224747   3.255   1.087   3.264
 4290SOL     OW24748   2.133   2.894   2.343
 4290SOL    HW124749   2.228   2.884   2.346
 4290SOL    HW224750   2.118   2.965   2.282
 4291SOL     OW24751   3.290   0.442   2.696
 4291SOL    HW124752   3.272   0.357   2.737
 4291SOL    HW224753   3.358   0.481   2.750
 4292SOL     OW24754   0.048   4.752   2.491
 4292SOL    HW124755   0.003   4.716   2.568
 4292SOL    HW224756   0.141   4.736   2.507
 4293SOL     OW24757   2.091   2.994  16.293
 4293SOL    HW124758   2.088   3.087  16.269
 4293SOL    HW224759   2.052   2.949  16.218
 4294SOL     OW24760   1.514   3.249  16.040
 4294SOL    HW124761   1.492   3.168  16.085
 4294SOL    HW224762   1.483   3.319  16.097
 4295SOL     OW24763   2.716   0.708  19.361
 4295SOL    HW124764   2.640   0.671  19.404
 4295SOL    HW224765   2.721   0.663  19.277
 4296SOL     OW24766   1.426   2.517  15.609
 4296SOL    HW124767   1.378   2.584  15.657
 4296SOL    HW224768   1.515   2.522  15.643
 4297SOL     OW24769   2.613   1.943   1.391
 4297SOL    HW124770   2.628   1.869   1.332
 4297SOL    HW224771   2.614   2.020   1.335
 4298SOL     OW24772   0.677   1.033  19.108
 4298SOL    HW124773   0.633   1.074  19.182
 4298SOL    HW224774   0.606   1.011  19.047
 4299SOL     OW24775   0.592   1.548  20.028
 4299SOL    HW124776   0.644   1.572  20.105
 4299SOL    HW224777   0.548   1.629  20.002
 4300SOL     OW24778   3.279   3.023   5.055
 4300SOL    HW124779   3.346   3.058   5.114
 4300SOL    HW224780   3.295   2.929   5.054
 4301SOL     OW24781   2.716   4.078   1.813
 4301SOL    HW124782   2.732   4.124   1.730
 4301SOL    HW224783   2.778   4.117   1.874
 4302SOL     OW24784   2.043   0.956  19.690
 4302SOL    HW124785   2.011   1.046  19.691
 4302SOL    HW224786   1.987   0.911  19.626
 4303SOL     OW24787   2.897   2.186  19.717
 4303SOL    HW124788   2.889   2.242  19.795
 4303SOL    HW224789   2.899   2.097  19.752
 4304SOL     OW24790   0.397   2.901  17.802
 4304SOL    HW124791   0.404   2.875  17.710
 4304SOL    HW224792   0.411   2.819  17.850
 4305SOL     OW24793   3.332   0.402  19.055
 4305SOL    HW124794   3.244   0.411  19.091
 4305SOL    HW224795   3.383   0.363  19.126
 4306SOL     OW24796   3.572   3.834   3.996
 4306SOL    HW124797   3.547   3.803   4.083
 4306SOL    HW224798   3.491   3.828   3.945
 4307SOL     OW24799   1.230   1.270   4.475
 4307SOL    HW124800   1.176   1.208   4.426
 4307SOL    HW224801   1.239   1.345   4.416
 4308SOL     OW24802   1.400   4.477  13.074
 4308SOL    HW124803   1.360   4.404  13.027
 4308SOL    HW224804   1.472   4.505  13.017
 4309SOL     OW24805   3.409   0.794  19.405
 4309SOL    HW124806   3.504   0.806  19.405
 4309SOL    HW224807   3.384   0.801  19.313
 4310SOL     OW24808   3.080   3.926   5.636
 4310SOL    HW124809   3.151   3.899   5.694
 4310SOL    HW224810   3.023   3.850   5.630
 4311SOL     OW24811   1.072   3.204   2.694
 4311SOL    HW124812   1.045   3.172   2.608
 4311SOL    HW224813   0.990   3.228   2.737
 4312SOL     OW24814   3.216   3.239   6.027
 4312SOL    HW124815   3.156   3.308   6.056
 4312SOL    HW224816   3.298   3.259   6.072
 4313SOL     OW24817   4.360   0.982  15.522
 4313SOL    HW124818   4.409   1.059  15.551
 4313SOL    HW224819   4.311   0.955  15.600
 4314SOL     OW24820   1.839   0.364   1.563
 4314SOL    HW124821   1.816   0.354   1.471
 4314SOL    HW224822   1.780   0.433   1.595
 4315SOL     OW24823   0.923   4.678  21.155
 4315SOL    HW124824   0.831   4.651  21.144
 4315SOL    HW224825   0.973   4.606  21.119
 4316SOL     OW24826   2.857   2.943  18.224
 4316SOL    HW124827   2.837   2.859  18.266
 4316SOL    HW224828   2.927   2.981  18.277
 4317SOL     OW24829   2.139   2.501  21.088
 4317SOL    HW124830   2.161   2.594  21.099
 4317SOL    HW224831   2.131   2.490  20.994
 4318SOL     OW24832   3.323   3.658  11.583
 4318SOL    HW124833   3.300   3.714  11.509
 4318SOL    HW224834   3.288   3.572  11.559
 4319SOL     OW24835   4.019   0.586   7.702
 4319SOL    HW124836   4.085   0.541   7.649
 4319SOL    HW224837   4.008   0.530   7.779
 4320SOL     OW24838   4.312   0.761  17.045
 4320SOL    HW124839   4.258   0.712  17.107
 4320SOL    HW224840   4.263   0.757  16.963
 4321SOL     OW24841   2.445   1.730   2.825
 4321SOL    HW124842   2.527   1.729   2.875
 4321SOL    HW224843   2.376   1.731   2.891
 4322SOL     OW24844   3.641   1.730  16.044
 4322SOL    HW124845   3.550   1.734  16.073
 4322SOL    HW224846   3.636   1.739  15.949
 4323SOL     OW24847   0.638   2.869   3.828
 4323SOL    HW124848   0.640   2.930   3.902
 4323SOL    HW224849   0.592   2.917   3.759
 4324SOL     OW24850   0.245   0.569  16.376
 4324SOL    HW124851   0.151   0.548  16.372
 4324SOL    HW224852   0.274   0.532  16.459
 4325SOL     OW24853   2.937   4.231   2.923
 4325SOL    HW124854   2.851   4.225   2.966
 4325SOL    HW224855   3.000   4.209   2.991
 4326SOL     OW24856   1.872   0.266   3.961
 4326SOL    HW124857   1.918   0.183   3.978
 4326SOL    HW224858   1.779   0.243   3.966
 4327SOL     OW24859   4.596   3.597   2.367
 4327SOL    HW124860   4.621   3.505   2.363
 4327SOL    HW224861   4.500   3.596   2.370
 4328SOL     OW24862   2.205   1.893  15.969
 4328SOL    HW124863   2.243   1.905  15.882
 4328SOL    HW224864   2.142   1.964  15.978
 4329SOL     OW24865   3.864   3.575   0.624
 4329SOL    HW124866   3.948   3.554   0.584
 4329SOL    HW224867   3.799   3.545   0.560
 4330SOL     OW24868   3.209   2.277   4.672
 4330SOL    HW124869   3.233   2.365   4.644
 4330SOL    HW224870   3.291   2.228   4.670
 4331SOL     OW24871   3.730   4.019   3.794
 4331SOL    HW124872   3.722   3.924   3.802
 4331SOL    HW224873   3.791   4.032   3.722
 4332SOL     OW24874   1.283   4.402  18.994
 4332SOL    HW124875   1.324   4.325  18.954
 4332SOL    HW224876   1.262   4.374  19.083
 4333SOL     OW24877   3.204   0.563  16.784
 4333SOL    HW124878   3.171   0.474  16.776
 4333SOL    HW224879   3.236   0.584  16.696
 4334SOL     OW24880   4.203   1.124   3.869
 4334SOL    HW124881   4.205   1.087   3.957
 4334SOL    HW224882   4.283   1.092   3.828
 4335SOL     OW24883   2.770   4.195  18.425
 4335SOL    HW124884   2.842   4.252  18.398
 4335SOL    HW224885   2.704   4.255  18.460
 4336SOL     OW24886   1.452   0.643  18.331
 4336SOL    HW124887   1.400   0.622  18.253
 4336SOL    HW224888   1.389   0.681  18.393
 4337SOL     OW24889   3.521   1.406  17.751
 4337SOL    HW124890   3.464   1.329  17.756
 4337SOL    HW224891   3.531   1.423  17.658
 4338SOL     OW24892   1.308   1.343  15.068
 4338SOL    HW124893   1.280   1.424  15.112
 4338SOL    HW224894   1.230   1.313  15.021
 4339SOL     OW24895   1.372   3.521  19.343
 4339SOL    HW124896   1.425   3.583  19.293
 4339SOL    HW224897   1.385   3.547  19.434
 4340SOL     OW24898   2.445   4.303  14.594
 4340SOL    HW124899   2.423   4.219  14.554
 4340SOL    HW224900   2.514   4.282  14.657
 4341SOL     OW24901   0.209   1.531   5.248
 4341SOL    HW124902   0.277   1.555   5.310
 4341SOL    HW224903   0.255   1.519   5.165
 4342SOL     OW24904   3.172   2.247   0.838
 4342SOL    HW124905   3.214   2.333   0.834
 4342SOL    HW224906   3.130   2.245   0.923
 4343SOL     OW24907   2.584   0.543  20.714
 4343SOL    HW124908   2.637   0.591  20.777
 4343SOL    HW224909   2.577   0.455  20.750
 4344SOL     OW24910   3.866   4.679  16.320
 4344SOL    HW124911   3.941   4.652  16.266
 4344SOL    HW224912   3.884   4.771  16.341
 4345SOL     OW24913   3.369   3.489   7.171
 4345SOL    HW124914   3.459   3.520   7.182
 4345SOL    HW224915   3.346   3.450   7.255
 4346SOL     OW24916   2.860   3.446   4.354
 4346SOL    HW124917   2.875   3.372   4.295
 4346SOL    HW224918   2.784   3.419   4.406
 4347SOL     OW24919   0.313   4.300   6.041
 4347SOL    HW124920   0.364   4.281   6.120
 4347SOL    HW224921   0.379   4.319   5.974
 4348SOL     OW24922   2.433   1.812   7.760
 4348SOL    HW124923   2.474   1.893   7.791
 4348SOL    HW224924   2.385   1.780   7.836
 4349SOL     OW24925   3.399   2.227   3.506
 4349SOL    HW124926   3.456   2.177   3.564
 4349SOL    HW224927   3.310   2.206   3.534
 4350SOL     OW24928   1.756   0.434   6.309
 4350SOL    HW124929   1.846   0.464   6.323
 4350SOL    HW224930   1.716   0.505   6.258
 4351SOL     OW24931   1.032   4.645   2.060
 4351SOL    HW124932   1.035   4.741   2.055
 4351SOL    HW224933   1.055   4.615   1.972
 4352SOL     OW24934   2.388   1.760  20.221
 4352SOL    HW124935   2.440   1.722  20.292
 4352SOL    HW224936   2.319   1.810  20.267
 4353SOL     OW24937   3.168   3.072  16.825
 4353SOL    HW124938   3.107   3.129  16.872
 4353SOL    HW224939   3.248   3.074  16.879
 4354SOL     OW24940   3.725   0.802  15.366
 4354SOL    HW124941   3.632   0.785  15.352
 4354SOL    HW224942   3.735   0.807  15.461
 4355SOL     OW24943   1.580   0.050   5.521
 4355SOL    HW124944   1.537   0.099   5.591
 4355SOL    HW224945   1.671   0.079   5.524
 4356SOL     OW24946   3.113   0.267  21.082
 4356SOL    HW124947   3.159   0.334  21.033
 4356SOL    HW224948   3.037   0.311  21.120
 4357SOL     OW24949   3.943   3.590   7.426
 4357SOL    HW124950   3.895   3.634   7.496
 4357SOL    HW224951   3.978   3.661   7.373
 4358SOL     OW24952   0.034   2.364  20.258
 4358SOL    HW124953   0.102   2.430  20.247
 4358SOL    HW224954   0.079   2.281  20.245
 4359SOL     OW24955   2.939   0.999   0.945
 4359SOL    HW124956   2.868   0.983   1.007
 4359SOL    HW224957   2.990   1.069   0.985
 4360SOL     OW24958   0.915   1.279  19.182
 4360SOL    HW124959   1.007   1.263  19.201
 4360SOL    HW224960   0.877   1.192  19.172
 4361SOL     OW24961   0.914   4.397  16.371
 4361SOL    HW124962   0.921   4.333  16.442
 4361SOL    HW224963   0.821   4.421  16.370
 4362SOL     OW24964   0.932   4.381   3.259
 4362SOL    HW124965   1.023   4.354   3.245
 4362SOL    HW224966   0.939   4.472   3.288
 4363SOL     OW24967   4.041   3.847  15.491
 4363SOL    HW124968   4.132   3.852  15.461
 4363SOL    HW224969   4.029   3.927  15.541
 4364SOL     OW24970   4.720   1.489  17.247
 4364SOL    HW124971   4.721   1.583  17.265
 4364SOL    HW224972   4.653   1.478  17.180
 4365SOL     OW24973   0.415   3.517   0.327
 4365SOL    HW124974   0.427   3.433   0.283
 4365SOL    HW224975   0.411   3.581   0.256
 4366SOL     OW24976   2.648   4.182   5.727
 4366SOL    HW124977   2.656   4.159   5.820
 4366SOL    HW224978   2.609   4.105   5.687
 4367SOL     OW24979   4.172   3.845   7.638
 4367SOL    HW124980   4.113   3.824   7.710
 4367SOL    HW224981   4.225   3.765   7.627
 4368SOL     OW24982   4.175   1.429  15.908
 4368SOL    HW124983   4.118   1.379  15.967
 4368SOL    HW224984   4.178   1.517  15.947
 4369SOL     OW24985   2.993   3.032   4.967
 4369SOL    HW124986   3.085   3.024   4.942
 4369SOL    HW224987   2.991   3.012   5.060
 4370SOL     OW24988   1.205   2.907  19.656
 4370SOL    HW124989   1.124   2.858  19.665
 4370SOL    HW224990   1.195   2.982  19.715
 4371SOL     OW24991   2.930   4.095   3.246
 4371SOL    HW124992   2.952   4.003   3.232
 4371SOL    HW224993   2.835   4.096   3.255
 4372SOL     OW24994   4.212   2.243   6.094
 4372SOL    HW124995   4.290   2.291   6.066
 4372SOL    HW224996   4.140   2.285   6.047
 4373SOL     OW24997   1.212   4.458   3.491
 4373SOL    HW124998   1.229   4.371   3.527
 4373SOL    HW224999   1.257   4.458   3.406
 4374SOL     OW25000   0.511   4.200  15.265
 4374SOL    HW125001   0.493   4.255  15.188
 4374SOL    HW225002   0.580   4.140  15.237
 4375SOL     OW25003   0.536   4.208  19.679
 4375SOL    HW125004   0.630   4.187  19.685
 4375SOL    HW225005   0.529   4.296  19.716
 4376SOL     OW25006   2.439   3.914  19.819
 4376SOL    HW125007   2.444   4.006  19.794
 4376SOL    HW225008   2.519   3.875  19.785
 4377SOL     OW25009   3.485   4.540   4.369
 4377SOL    HW125010   3.457   4.449   4.377
 4377SOL    HW225011   3.580   4.536   4.359
 4378SOL     OW25012   1.404   1.191  20.476
 4378SOL    HW125013   1.340   1.122  20.460
 4378SOL    HW225014   1.447   1.204  20.391
 4379SOL     OW25015   2.051   4.179  17.246
 4379SOL    HW125016   2.120   4.138  17.299
 4379SOL    HW225017   1.989   4.213  17.310
 4380SOL     OW25018   1.985   3.234   0.717
 4380SOL    HW125019   1.919   3.270   0.776
 4380SOL    HW225020   1.989   3.296   0.644
 4381SOL     OW25021   1.595   0.081  18.750
 4381SOL    HW125022   1.596   0.007  18.689
 4381SOL    HW225023   1.531   0.055  18.817
 4382SOL     OW25024   3.043   3.828  17.910
 4382SOL    HW125025   3.023   3.914  17.872
 4382SOL    HW225026   2.984   3.821  17.985
 4383SOL     OW25027   2.940   4.589   5.952
 4383SOL    HW125028   3.032   4.598   5.975
 4383SOL    HW225029   2.917   4.673   5.912
 4384SOL     OW25030   3.460   2.888   7.161
 4384SOL    HW125031   3.550   2.909   7.188
 4384SOL    HW225032   3.408   2.961   7.196
 4385SOL     OW25033   3.915   1.332  20.905
 4385SOL    HW125034   3.947   1.299  20.821
 4385SOL    HW225035   3.994   1.362  20.951
 4386SOL     OW25036   1.297   3.808  14.425
 4386SOL    HW125037   1.293   3.729  14.372
 4386SOL    HW225038   1.355   3.867  14.376
 4387SOL     OW25039   2.320   0.261  16.720
 4387SOL    HW125040   2.341   0.351  16.694
 4387SOL    HW225041   2.275   0.224  16.644
 4388SOL     OW25042   3.904   1.449   2.884
 4388SOL    HW125043   3.858   1.487   2.809
 4388SOL    HW225044   3.925   1.360   2.857
 4389SOL     OW25045   3.843   1.116  19.891
 4389SOL    HW125046   3.860   1.040  19.947
 4389SOL    HW225047   3.855   1.192  19.949
 4390SOL     OW25048   1.437   4.332   0.810
 4390SOL    HW125049   1.412   4.384   0.887
 4390SOL    HW225050   1.431   4.393   0.737
 4391SOL     OW25051   1.005   2.226   2.708
 4391SOL    HW125052   1.053   2.212   2.789
 4391SOL    HW225053   0.947   2.301   2.727
 4392SOL     OW25054   3.551   4.027  19.685
 4392SOL    HW125055   3.617   3.960  19.699
 4392SOL    HW225056   3.563   4.055  19.595
 4393SOL     OW25057   0.233   0.735   6.340
 4393SOL    HW125058   0.290   0.800   6.299
 4393SOL    HW225059   0.227   0.665   6.275
 4394SOL     OW25060   3.928   1.174  18.636
 4394SOL    HW125061   4.001   1.215  18.589
 4394SOL    HW225062   3.971   1.110  18.693
 4395SOL     OW25063   1.329   2.437   0.186
 4395SOL    HW125064   1.410   2.475   0.152
 4395SOL    HW225065   1.357   2.368   0.246
 4396SOL     OW25066   0.006   2.321   3.143
 4396SOL    HW125067   0.079   2.339   3.203
 4396SOL    HW225068   0.045   2.325   3.056
 4397SOL     OW25069   1.467   1.496  14.119
 4397SOL    HW125070   1.502   1.433  14.056
 4397SOL    HW225071   1.530   1.496  14.191
 4398SOL     OW25072   3.835   3.071  17.203
 4398SOL    HW125073   3.913   3.110  17.243
 4398SOL    HW225074   3.820   2.991  17.254
 4399SOL     OW25075   2.926   1.319   4.361
 4399SOL    HW125076   2.940   1.369   4.280
 4399SOL    HW225077   2.983   1.243   4.352
 4400SOL     OW25078   2.322   3.761   3.860
 4400SOL    HW125079   2.329   3.770   3.765
 4400SOL    HW225080   2.302   3.849   3.891
 4401SOL     OW25081   2.376   2.357   5.220
 4401SOL    HW125082   2.417   2.424   5.165
 4401SOL    HW225083   2.448   2.301   5.248
 4402SOL     OW25084   0.851   2.044  15.419
 4402SOL    HW125085   0.935   1.998  15.413
 4402SOL    HW225086   0.789   1.976  15.446
 4403SOL     OW25087   0.363   4.048  13.443
 4403SOL    HW125088   0.417   3.983  13.488
 4403SOL    HW225089   0.426   4.104  13.397
 4404SOL     OW25090   1.898   1.898  19.314
 4404SOL    HW125091   1.867   1.979  19.356
 4404SOL    HW225092   1.925   1.842  19.387
 4405SOL     OW25093   3.120   1.864   5.388
 4405SOL    HW125094   3.093   1.953   5.367
 4405SOL    HW225095   3.049   1.808   5.356
 4406SOL     OW25096   2.737   3.483  14.529
 4406SOL    HW125097   2.689   3.429  14.592
 4406SOL    HW225098   2.829   3.476  14.557
 4407SOL     OW25099   2.515   2.598  20.226
 4407SOL    HW125100   2.561   2.514  20.230
 4407SOL    HW225101   2.575   2.656  20.181
 4408SOL     OW25102   3.763   1.042   2.815
 4408SOL    HW125103   3.765   1.031   2.720
 4408SOL    HW225104   3.833   1.104   2.834
 4409SOL     OW25105   2.360   4.474   4.870
 4409SOL    HW125106   2.371   4.569   4.873
 4409SOL    HW225107   2.275   4.458   4.912
 4410SOL     OW25108   3.152   0.136   2.031
 4410SOL    HW125109   3.186   0.127   2.120
 4410SOL    HW225110   3.230   0.141   1.976
 4411SOL     OW25111   3.557   1.116   1.015
 4411SOL    HW125112   3.488   1.068   0.970
 4411SOL    HW225113   3.528   1.207   1.014
 4412SOL     OW25114   3.605   3.121  17.504
 4412SOL    HW125115   3.679   3.180  17.521
 4412SOL    HW225116   3.614   3.100  17.411
 4413SOL     OW25117   1.355   2.915  16.747
 4413SOL    HW125118   1.389   2.985  16.803
 4413SOL    HW225119   1.352   2.954  16.660
 4414SOL     OW25120   4.212   3.887  19.666
 4414SOL    HW125121   4.295   3.908  19.709
 4414SOL    HW225122   4.213   3.938  19.585
 4415SOL     OW25123   3.191   2.762  14.041
 4415SOL    HW125124   3.163   2.846  14.076
 4415SOL    HW225125   3.129   2.743  13.970
 4416SOL     OW25126   0.792   3.054  16.757
 4416SOL    HW125127   0.821   3.020  16.842
 4416SOL    HW225128   0.822   3.146  16.757
 4417SOL     OW25129   3.030   3.575  15.144
 4417SOL    HW125130   3.002   3.662  15.171
 4417SOL    HW225131   3.002   3.568  15.053
 4418SOL     OW25132   2.799   1.596   4.001
 4418SOL    HW125133   2.742   1.519   4.013
 4418SOL    HW225134   2.869   1.584   4.065
 4419SOL     OW25135   1.047   1.123  16.903
 4419SOL    HW125136   1.142   1.124  16.891
 4419SOL    HW225137   1.020   1.214  16.892
 4420SOL     OW25138   2.384   4.751   3.234
 4420SOL    HW125139   2.296   4.765   3.269
 4420SOL    HW225140   2.438   4.735   3.311
 4421SOL     OW25141   2.379   4.556   2.800
 4421SOL    HW125142   2.361   4.643   2.765
 4421SOL    HW225143   2.429   4.572   2.880
 4422SOL     OW25144   0.187   3.490  15.714
 4422SOL    HW125145   0.199   3.469  15.621
 4422SOL    HW225146   0.269   3.463  15.755
 4423SOL     OW25147   2.656   1.530  20.094
 4423SOL    HW125148   2.673   1.455  20.038
 4423SOL    HW225149   2.566   1.555  20.073
 4424SOL     OW25150   2.409   3.937   3.401
 4424SOL    HW125151   2.474   3.977   3.459
 4424SOL    HW225152   2.438   3.847   3.391
 4425SOL     OW25153   2.412   0.457   4.389
 4425SOL    HW125154   2.506   0.440   4.384
 4425SOL    HW225155   2.388   0.481   4.299
 4426SOL     OW25156   3.519   4.490  16.599
 4426SOL    HW125157   3.552   4.509  16.687
 4426SOL    HW225158   3.436   4.445  16.615
 4427SOL     OW25159   0.612   0.559   4.633
 4427SOL    HW125160   0.560   0.574   4.554
 4427SOL    HW225161   0.646   0.471   4.623
 4428SOL     OW25162   3.886   3.246   0.509
 4428SOL    HW125163   3.942   3.180   0.468
 4428SOL    HW225164   3.885   3.222   0.602
 4429SOL     OW25165   1.907   1.358   4.961
 4429SOL    HW125166   1.947   1.273   4.943
 4429SOL    HW225167   1.827   1.358   4.908
 4430SOL     OW25168   0.246   1.369  20.995
 4430SOL    HW125169   0.202   1.345  21.077
 4430SOL    HW225170   0.317   1.306  20.987
 4431SOL     OW25171   3.639   1.307  19.104
 4431SOL    HW125172   3.689   1.270  19.031
 4431SOL    HW225173   3.656   1.248  19.178
 4432SOL     OW25174   1.035   1.333  17.136
 4432SOL    HW125175   1.048   1.360  17.045
 4432SOL    HW225176   0.944   1.303  17.139
 4433SOL     OW25177   2.811   1.288   5.819
 4433SOL    HW125178   2.767   1.204   5.801
 4433SOL    HW225179   2.862   1.305   5.739
 4434SOL     OW25180   3.191   4.244  19.202
 4434SOL    HW125181   3.141   4.164  19.218
 4434SOL    HW225182   3.250   4.251  19.277
 4435SOL     OW25183   2.265   3.136   3.426
 4435SOL    HW125184   2.333   3.181   3.376
 4435SOL    HW225185   2.193   3.200   3.431
 4436SOL     OW25186   3.457   1.557  13.833
 4436SOL    HW125187   3.490   1.616  13.765
 4436SOL    HW225188   3.524   1.489  13.841
 4437SOL     OW25189   3.061   4.200  16.368
 4437SOL    HW125190   2.976   4.224  16.404
 4437SOL    HW225191   3.058   4.105  16.360
 4438SOL     OW25192   0.244   3.821   3.055
 4438SOL    HW125193   0.305   3.755   3.085
 4438SOL    HW225194   0.261   3.897   3.110
 4439SOL     OW25195   0.327   0.305   7.233
 4439SOL    HW125196   0.351   0.216   7.259
 4439SOL    HW225197   0.233   0.310   7.251
 4440SOL     OW25198   2.246   0.869  16.108
 4440SOL    HW125199   2.271   0.959  16.125
 4440SOL    HW225200   2.254   0.859  16.013
 4441SOL     OW25201   3.117   1.833   5.682
 4441SOL    HW125202   3.106   1.738   5.695
 4441SOL    HW225203   3.130   1.842   5.587
 4442SOL     OW25204   0.646   0.148   4.005
 4442SOL    HW125205   0.605   0.224   3.965
 4442SOL    HW225206   0.574   0.086   4.017
 4443SOL     OW25207   4.716   1.491   2.823
 4443SOL    HW125208   4.683   1.456   2.905
 4443SOL    HW225209   4.638   1.521   2.776
 4444SOL     OW25210   2.168   1.044   1.230
 4444SOL    HW125211   2.143   1.131   1.262
 4444SOL    HW225212   2.172   0.990   1.309
 4445SOL     OW25213   4.503   0.513   1.967
 4445SOL    HW125214   4.436   0.574   1.938
 4445SOL    HW225215   4.462   0.465   2.039
 4446SOL     OW25216   3.927   3.913  18.723
 4446SOL    HW125217   3.904   4.001  18.752
 4446SOL    HW225218   4.023   3.913  18.722
 4447SOL     OW25219   3.926   0.103   6.795
 4447SOL    HW125220   4.006   0.083   6.843
 4447SOL    HW225221   3.922   0.035   6.727
 4448SOL     OW25222   0.478   4.375  17.635
 4448SOL    HW125223   0.566   4.382  17.598
 4448SOL    HW225224   0.490   4.398  17.727
 4449SOL     OW25225   2.736   4.322   3.864
 4449SOL    HW125226   2.673   4.341   3.795
 4449SOL    HW225227   2.806   4.274   3.820
 4450SOL     OW25228   4.661   1.011   3.230
 4450SOL    HW125229   4.746   1.009   3.186
 4450SOL    HW225230   4.677   1.061   3.310
 4451SOL     OW25231   3.208   0.544   1.565
 4451SOL    HW125232   3.237   0.508   1.481
 4451SOL    HW225233   3.150   0.477   1.600
 4452SOL     OW25234   4.502   3.627  15.164
 4452SOL    HW125235   4.495   3.618  15.069
 4452SOL    HW225236   4.417   3.597  15.197
 4453SOL     OW25237   1.242   0.377   0.669
 4453SOL    HW125238   1.256   0.387   0.763
 4453SOL    HW225239   1.247   0.466   0.635
 4454SOL     OW25240   0.767   3.892  19.920
 4454SOL    HW125241   0.860   3.892  19.899
 4454SOL    HW225242   0.754   3.813  19.971
 4455SOL     OW25243   4.028   0.585   0.794
 4455SOL    HW125244   3.981   0.588   0.878
 4455SOL    HW225245   4.039   0.676   0.770
 4456SOL     OW25246   4.532   3.939   6.540
 4456SOL    HW125247   4.520   3.851   6.577
 4456SOL    HW225248   4.455   3.952   6.484
 4457SOL     OW25249   1.148   4.218  20.283
 4457SOL    HW125250   1.120   4.297  20.238
 4457SOL    HW225251   1.070   4.185  20.327
 4458SOL     OW25252   0.903   4.429  18.407
 4458SOL    HW125253   0.956   4.391  18.477
 4458SOL    HW225254   0.814   4.432  18.443
 4459SOL     OW25255   4.015   2.425  16.034
 4459SOL    HW125256   3.972   2.340  16.033
 4459SOL    HW225257   3.994   2.462  16.120
 4460SOL     OW25258   2.794   1.820   2.223
 4460SOL    HW125259   2.730   1.838   2.292
 4460SOL    HW225260   2.754   1.750   2.171
 4461SOL     OW25261   0.527   2.669   3.983
 4461SOL    HW125262   0.567   2.734   3.925
 4461SOL    HW225263   0.569   2.586   3.960
 4462SOL     OW25264   4.128   0.261  20.610
 4462SOL    HW125265   4.057   0.235  20.550
 4462SOL    HW225266   4.177   0.180  20.625
 4463SOL     OW25267   1.186   2.391  19.507
 4463SOL    HW125268   1.147   2.417  19.424
 4463SOL    HW225269   1.243   2.318  19.486
 4464SOL     OW25270   4.212   2.018   5.956
 4464SOL    HW125271   4.215   2.098   6.010
 4464SOL    HW225272   4.183   1.950   6.017
 4465SOL     OW25273   0.365   3.449   2.232
 4465SOL    HW125274   0.270   3.439   2.230
 4465SOL    HW225275   0.383   3.496   2.313
 4466SOL     OW25276   2.232   4.792   5.117
 4466SOL    HW125277   2.250   4.706   5.156
 4466SOL    HW225278   2.308   0.017   5.062
 4467SOL     OW25279   0.856   3.119   6.317
 4467SOL    HW125280   0.929   3.125   6.256
 4467SOL    HW225281   0.787   3.074   6.269
 4468SOL     OW25282   3.780   4.358   1.775
 4468SOL    HW125283   3.843   4.430   1.769
 4468SOL    HW225284   3.786   4.327   1.866
 4469SOL     OW25285   2.739   4.686   0.506
 4469SOL    HW125286   2.648   4.656   0.515
 4469SOL    HW225287   2.788   4.635   0.570
 4470SOL     OW25288   2.752   2.641   3.444
 4470SOL    HW125289   2.726   2.557   3.406
 4470SOL    HW225290   2.767   2.698   3.368
 4471SOL     OW25291   2.804   0.227  16.964
 4471SOL    HW125292   2.755   0.234  17.045
 4471SOL    HW225293   2.808   0.317  16.931
 4472SOL     OW25294   4.158   1.530   6.576
 4472SOL    HW125295   4.084   1.474   6.599
 4472SOL    HW225296   4.189   1.565   6.659
 4473SOL     OW25297   2.590   0.571  19.750
 4473SOL    HW125298   2.672   0.619  19.738
 4473SOL    HW225299   2.606   0.515  19.826
 4474SOL     OW25300   4.778   1.294  15.868
 4474SOL    HW125301   4.685   1.318  15.874
 4474SOL    HW225302   0.024   1.364  15.816
 4475SOL     OW25303   0.341   2.548  16.591
 4475SOL    HW125304   0.330   2.634  16.551
 4475SOL    HW225305   0.436   2.538  16.598
 4476SOL     OW25306   1.843   1.906   1.956
 4476SOL    HW125307   1.888   1.827   1.985
 4476SOL    HW225308   1.781   1.925   2.026
 4477SOL     OW25309   1.070   3.231   0.472
 4477SOL    HW125310   1.089   3.290   0.399
 4477SOL    HW225311   1.140   3.248   0.535
 4478SOL     OW25312   0.593   4.424  16.404
 4478SOL    HW125313   0.597   4.430  16.499
 4478SOL    HW225314   0.525   4.485  16.378
 4479SOL     OW25315   3.071   2.168  20.771
 4479SOL    HW125316   2.997   2.137  20.719
 4479SOL    HW225317   3.052   2.260  20.786
 4480SOL     OW25318   1.490   1.196   5.888
 4480SOL    HW125319   1.480   1.260   5.959
 4480SOL    HW225320   1.414   1.211   5.832
 4481SOL     OW25321   3.382   0.949   0.822
 4481SOL    HW125322   3.393   0.855   0.837
 4481SOL    HW225323   3.370   0.957   0.728
 4482SOL     OW25324   0.057   0.260   5.154
 4482SOL    HW125325   0.062   0.191   5.088
 4482SOL    HW225326   0.142   0.304   5.150
 4483SOL     OW25327   0.448   2.536   0.674
 4483SOL    HW125328   0.391   2.496   0.739
 4483SOL    HW225329   0.446   2.476   0.600
 4484SOL     OW25330   1.066   3.796   1.822
 4484SOL    HW125331   0.977   3.828   1.840
 4484SOL    HW225332   1.109   3.795   1.907
 4485SOL     OW25333   2.043   1.730   0.379
 4485SOL    HW125334   1.968   1.761   0.429
 4485SOL    HW225335   2.066   1.646   0.420
 4486SOL     OW25336   1.745   4.164   2.697
 4486SOL    HW125337   1.787   4.209   2.770
 4486SOL    HW225338   1.817   4.133   2.642
 4487SOL     OW25339   0.641   0.490   1.417
 4487SOL    HW125340   0.731   0.477   1.387
 4487SOL    HW225341   0.598   0.537   1.346
 4488SOL     OW25342   1.688   0.226  20.890
 4488SOL    HW125343   1.640   0.160  20.941
 4488SOL    HW225344   1.715   0.180  20.811
 4489SOL     OW25345   3.247   0.511   4.089
 4489SOL    HW125346   3.245   0.416   4.099
 4489SOL    HW225347   3.155   0.538   4.097
 4490SOL     OW25348   3.741   2.318   0.600
 4490SOL    HW125349   3.668   2.312   0.538
 4490SOL    HW225350   3.717   2.391   0.658
 4491SOL     OW25351   0.367   1.523   0.406
 4491SOL    HW125352   0.460   1.511   0.425
 4491SOL    HW225353   0.336   1.581   0.476
 4492SOL     OW25354   3.619   3.554  17.698
 4492SOL    HW125355   3.537   3.511  17.676
 4492SOL    HW225356   3.613   3.641  17.657
 4493SOL     OW25357   3.224   2.914   6.436
 4493SOL    HW125358   3.265   2.897   6.521
 4493SOL    HW225359   3.130   2.911   6.454
 4494SOL     OW25360   4.352   4.573   4.693
 4494SOL    HW125361   4.353   4.664   4.722
 4494SOL    HW225362   4.260   4.547   4.697
 4495SOL     OW25363   1.399   1.463  19.404
 4495SOL    HW125364   1.442   1.497  19.326
 4495SOL    HW225365   1.421   1.525  19.473
 4496SOL     OW25366   0.839   1.624   4.111
 4496SOL    HW125367   0.896   1.644   4.186
 4496SOL    HW225368   0.898   1.585   4.047
 4497SOL     OW25369   0.113   0.263   3.415
 4497SOL    HW125370   0.057   0.227   3.484
 4497SOL    HW225371   0.058   0.259   3.336
 4498SOL     OW25372   4.293   1.179   6.674
 4498SOL    HW125373   4.303   1.221   6.589
 4498SOL    HW225374   4.260   1.091   6.654
 4499SOL     OW25375   3.551   4.169   2.798
 4499SOL    HW125376   3.646   4.154   2.804
 4499SOL    HW225377   3.530   4.221   2.875
 4500SOL     OW25378   0.140   4.263   3.726
 4500SOL    HW125379   0.076   4.201   3.759
 4500SOL    HW225380   0.153   4.325   3.798
 4501SOL     OW25381   1.199   0.585  17.638
 4501SOL    HW125382   1.234   0.672  17.656
 4501SOL    HW225383   1.248   0.527  17.696
 4502SOL     OW25384   3.649   0.947   4.943
 4502SOL    HW125385   3.701   0.918   5.017
 4502SOL    HW225386   3.603   0.868   4.913
 4503SOL     OW25387   2.597   1.599  19.725
 4503SOL    HW125388   2.528   1.657  19.758
 4503SOL    HW225389   2.550   1.524  19.690
 4504SOL     OW25390   4.359   2.483   0.855
 4504SOL    HW125391   4.376   2.576   0.867
 4504SOL    HW225392   4.320   2.477   0.768
 4505SOL     OW25393   0.002   2.928  18.660
 4505SOL    HW125394   0.083   2.957  18.703
 4505SOL    HW225395   4.726   2.953  18.720
 4506SOL     OW25396   0.531   3.017  19.042
 4506SOL    HW125397   0.581   2.938  19.058
 4506SOL    HW225398   0.558   3.046  18.954
 4507SOL     OW25399   1.207   2.695   5.644
 4507SOL    HW125400   1.116   2.673   5.665
 4507SOL    HW225401   1.256   2.677   5.724
 4508SOL     OW25402   0.113   0.864  16.093
 4508SOL    HW125403   0.107   0.910  16.010
 4508SOL    HW225404   0.027   0.824  16.105
 4509SOL     OW25405   2.351   0.866   3.733
 4509SOL    HW125406   2.337   0.810   3.656
 4509SOL    HW225407   2.264   0.874   3.773
 4510SOL     OW25408   3.021   3.378  17.646
 4510SOL    HW125409   3.015   3.458  17.698
 4510SOL    HW225410   2.965   3.394  17.570
 4511SOL     OW25411   0.579   1.485   4.768
 4511SOL    HW125412   0.646   1.437   4.720
 4511SOL    HW225413   0.622   1.512   4.849
 4512SOL     OW25414   3.128   3.172   6.887
 4512SOL    HW125415   3.063   3.242   6.892
 4512SOL    HW225416   3.078   3.094   6.863
 4513SOL     OW25417   2.808   2.634  18.268
 4513SOL    HW125418   2.720   2.610  18.239
 4513SOL    HW225419   2.802   2.635  18.364
 4514SOL     OW25420   0.203   1.689   1.885
 4514SOL    HW125421   0.262   1.633   1.935
 4514SOL    HW225422   0.247   1.701   1.800
 4515SOL     OW25423   3.658   3.148  15.170
 4515SOL    HW125424   3.606   3.089  15.116
 4515SOL    HW225425   3.597   3.181  15.236
 4516SOL     OW25426   0.577   4.438   7.290
 4516SOL    HW125427   0.514   4.382   7.334
 4516SOL    HW225428   0.526   4.483   7.222
 4517SOL     OW25429   4.205   4.722  17.208
 4517SOL    HW125430   4.173   4.657  17.146
 4517SOL    HW225431   4.291   4.690  17.234
 4518SOL     OW25432   1.207   0.972   6.356
 4518SOL    HW125433   1.268   0.898   6.352
 4518SOL    HW225434   1.120   0.932   6.354
 4519SOL     OW25435   0.842   1.910   4.690
 4519SOL    HW125436   0.878   1.825   4.666
 4519SOL    HW225437   0.855   1.965   4.612
 4520SOL     OW25438   1.022   1.328  16.066
 4520SOL    HW125439   0.948   1.268  16.069
 4520SOL    HW225440   1.012   1.377  15.984
 4521SOL     OW25441   0.076   4.023  20.956
 4521SOL    HW125442   0.142   4.089  20.979
 4521SOL    HW225443   0.065   4.032  20.861
 4522SOL     OW25444   1.726   0.963   0.732
 4522SOL    HW125445   1.687   1.034   0.783
 4522SOL    HW225446   1.807   0.942   0.779
 4523SOL     OW25447   4.159   2.776   6.099
 4523SOL    HW125448   4.141   2.703   6.158
 4523SOL    HW225449   4.111   2.850   6.136
 4524SOL     OW25450   0.608   2.054   5.069
 4524SOL    HW125451   0.686   2.031   5.120
 4524SOL    HW225452   0.574   1.970   5.037
 4525SOL     OW25453   1.569   3.148   2.963
 4525SOL    HW125454   1.633   3.219   2.963
 4525SOL    HW225455   1.506   3.172   3.031
 4526SOL     OW25456   3.805   1.772   2.942
 4526SOL    HW125457   3.742   1.771   3.015
 4526SOL    HW225458   3.759   1.729   2.870
 4527SOL     OW25459   0.025   3.544  19.038
 4527SOL    HW125460   4.787   3.470  18.986
 4527SOL    HW225461   0.068   3.504  19.113
 4528SOL     OW25462   3.664   3.551  12.532
 4528SOL    HW125463   3.653   3.512  12.445
 4528SOL    HW225464   3.696   3.478  12.586
 4529SOL     OW25465   0.534   0.628  17.783
 4529SOL    HW125466   0.556   0.700  17.724
 4529SOL    HW225467   0.618   0.583  17.797
 4530SOL     OW25468   3.717   1.522   3.642
 4530SOL    HW125469   3.735   1.616   3.630
 4530SOL    HW225470   3.803   1.480   3.634
 4531SOL     OW25471   3.696   0.689   0.912
 4531SOL    HW125472   3.763   0.757   0.908
 4531SOL    HW225473   3.679   0.679   1.006
 4532SOL     OW25474   3.051   1.423   6.463
 4532SOL    HW125475   3.128   1.379   6.427
 4532SOL    HW225476   3.085   1.472   6.538
 4533SOL     OW25477   3.060   2.493   3.908
 4533SOL    HW125478   3.118   2.448   3.970
 4533SOL    HW225479   3.095   2.470   3.822
 4534SOL     OW25480   2.327   0.901   2.150
 4534SOL    HW125481   2.327   0.863   2.062
 4534SOL    HW225482   2.410   0.947   2.157
 4535SOL     OW25483   2.758   3.156  17.862
 4535SOL    HW125484   2.841   3.118  17.891
 4535SOL    HW225485   2.766   3.249  17.884
 4536SOL     OW25486   3.894   3.326   2.886
 4536SOL    HW125487   3.930   3.242   2.917
 4536SOL    HW225488   3.960   3.358   2.824
 4537SOL     OW25489   2.540   1.044  16.187
 4537SOL    HW125490   2.508   1.030  16.276
 4537SOL    HW225491   2.560   1.137  16.183
 4538SOL     OW25492   3.735   0.268   6.882
 4538SOL    HW125493   3.799   0.209   6.841
 4538SOL    HW225494   3.773   0.290   6.967
 4539SOL     OW25495   0.450   3.175  17.118
 4539SOL    HW125496   0.403   3.154  17.198
 4539SOL    HW225497   0.539   3.196  17.147
 4540SOL     OW25498   2.535   1.698   1.866
 4540SOL    HW125499   2.506   1.636   1.934
 4540SOL    HW225500   2.504   1.659   1.784
 4541SOL     OW25501   1.927   3.701   1.465
 4541SOL    HW125502   1.939   3.737   1.377
 4541SOL    HW225503   1.935   3.607   1.454
 4542SOL     OW25504   0.598   3.104  13.755
 4542SOL    HW125505   0.527   3.165  13.775
 4542SOL    HW225506   0.663   3.157  13.709
 4543SOL     OW25507   1.067   3.464   0.944
 4543SOL    HW125508   1.002   3.500   1.005
 4543SOL    HW225509   1.148   3.509   0.966
 4544SOL     OW25510   3.274   4.720  18.333
 4544SOL    HW125511   3.350   4.665  18.310
 4544SOL    HW225512   3.206   4.693  18.272
 4545SOL     OW25513   1.623   4.669  17.442
 4545SOL    HW125514   1.657   4.676  17.532
 4545SOL    HW225515   1.698   4.641  17.390
 4546SOL     OW25516   2.961   4.562  20.960
 4546SOL    HW125517   2.929   4.609  20.883
 4546SOL    HW225518   3.037   4.513  20.928
 4547SOL     OW25519   4.131   3.955   0.718
 4547SOL    HW125520   4.196   4.024   0.705
 4547SOL    HW225521   4.183   3.876   0.732
 4548SOL     OW25522   2.045   2.584   2.800
 4548SOL    HW125523   2.005   2.608   2.717
 4548SOL    HW225524   2.017   2.652   2.861
 4549SOL     OW25525   3.006   2.551  20.571
 4549SOL    HW125526   2.964   2.587  20.493
 4549SOL    HW225527   3.041   2.627  20.617
 4550SOL     OW25528   0.332   0.078  13.374
 4550SOL    HW125529   0.387   0.133  13.319
 4550SOL    HW225530   0.341   0.116  13.462
 4551SOL     OW25531   3.959   0.009  18.275
 4551SOL    HW125532   3.868   4.775  18.282
 4551SOL    HW225533   3.998   4.742  18.211
 4552SOL     OW25534   3.277   0.360   6.802
 4552SOL    HW125535   3.222   0.437   6.817
 4552SOL    HW225536   3.366   0.392   6.817
 4553SOL     OW25537   4.059   1.713  15.408
 4553SOL    HW125538   4.063   1.780  15.477
 4553SOL    HW225539   4.146   1.716  15.367
 4554SOL     OW25540   3.985   1.712   2.025
 4554SOL    HW125541   3.912   1.697   1.965
 4554SOL    HW225542   3.949   1.694   2.112
 4555SOL     OW25543   2.257   3.960  18.561
 4555SOL    HW125544   2.167   3.937  18.536
 4555SOL    HW225545   2.311   3.896  18.516
 4556SOL     OW25546   0.841   0.135  18.815
 4556SOL    HW125547   0.845   0.108  18.907
 4556SOL    HW225548   0.777   0.206  18.813
 4557SOL     OW25549   1.998   3.305  20.595
 4557SOL    HW125550   1.912   3.344  20.576
 4557SOL    HW225551   2.001   3.298  20.690
 4558SOL     OW25552   1.587   2.462  18.652
 4558SOL    HW125553   1.654   2.424  18.709
 4558SOL    HW225554   1.636   2.520  18.593
 4559SOL     OW25555   4.462   2.075  20.803
 4559SOL    HW125556   4.386   2.080  20.861
 4559SOL    HW225557   4.440   2.008  20.739
 4560SOL     OW25558   3.819   1.195   8.034
 4560SOL    HW125559   3.850   1.141   8.106
 4560SOL    HW225560   3.774   1.134   7.975
 4561SOL     OW25561   3.605   2.871   6.718
 4561SOL    HW125562   3.629   2.961   6.738
 4561SOL    HW225563   3.685   2.821   6.734
 4562SOL     OW25564   2.117   4.257   2.123
 4562SOL    HW125565   2.104   4.227   2.033
 4562SOL    HW225566   2.208   4.235   2.143
 4563SOL     OW25567   3.502   3.659   6.068
 4563SOL    HW125568   3.516   3.751   6.090
 4563SOL    HW225569   3.534   3.651   5.978
 4564SOL     OW25570   1.107   4.447   1.146
 4564SOL    HW125571   1.018   4.414   1.139
 4564SOL    HW225572   1.109   4.523   1.087
 4565SOL     OW25573   1.746   3.913  19.158
 4565SOL    HW125574   1.763   3.883  19.068
 4565SOL    HW225575   1.832   3.941  19.190
 4566SOL     OW25576   0.151   2.018   1.594
 4566SOL    HW125577   0.116   2.065   1.670
 4566SOL    HW225578   0.231   2.065   1.571
 4567SOL     OW25579   3.901   2.000  15.380
 4567SOL    HW125580   3.995   2.001  15.362
 4567SOL    HW225581   3.867   2.073  15.330
 4568SOL     OW25582   2.776   0.530  16.854
 4568SOL    HW125583   2.761   0.469  16.782
 4568SOL    HW225584   2.745   0.615  16.820
 4569SOL     OW25585   0.665   2.964   3.055
 4569SOL    HW125586   0.593   2.914   3.017
 4569SOL    HW225587   0.664   2.940   3.148
 4570SOL     OW25588   1.910   2.228   1.032
 4570SOL    HW125589   1.960   2.180   1.097
 4570SOL    HW225590   1.854   2.162   0.991
 4571SOL     OW25591   4.722   0.887   4.353
 4571SOL    HW125592   4.728   0.978   4.382
 4571SOL    HW225593   4.636   0.880   4.311
 4572SOL     OW25594   0.055   2.832   1.183
 4572SOL    HW125595   0.001   2.885   1.125
 4572SOL    HW225596   0.028   2.742   1.165
 4573SOL     OW25597   3.358   3.302   6.942
 4573SOL    HW125598   3.335   3.327   7.031
 4573SOL    HW225599   3.289   3.240   6.917
 4574SOL     OW25600   1.994   1.924   2.991
 4574SOL    HW125601   1.998   1.918   2.895
 4574SOL    HW225602   1.907   1.961   3.009
 4575SOL     OW25603   0.959   2.301  19.980
 4575SOL    HW125604   0.981   2.336  19.894
 4575SOL    HW225605   1.038   2.255  20.008
 4576SOL     OW25606   2.571   0.315  20.819
 4576SOL    HW125607   2.577   0.302  20.914
 4576SOL    HW225608   2.520   0.241  20.788
 4577SOL     OW25609   0.663   4.524  15.325
 4577SOL    HW125610   0.611   4.492  15.251
 4577SOL    HW225611   0.753   4.501  15.301
 4578SOL     OW25612   2.660   0.508  15.435
 4578SOL    HW125613   2.755   0.500  15.439
 4578SOL    HW225614   2.644   0.577  15.371
 4579SOL     OW25615   3.964   0.648   1.060
 4579SOL    HW125616   3.916   0.718   1.105
 4579SOL    HW225617   4.052   0.653   1.097
 4580SOL     OW25618   3.039   3.749   4.548
 4580SOL    HW125619   3.055   3.673   4.493
 4580SOL    HW225620   2.957   3.729   4.594
 4581SOL     OW25621   4.050   3.531   6.751
 4581SOL    HW125622   4.077   3.472   6.822
 4581SOL    HW225623   4.047   3.475   6.674
 4582SOL     OW25624   1.230   1.636  14.160
 4582SOL    HW125625   1.310   1.584  14.160
 4582SOL    HW225626   1.169   1.585  14.214
 4583SOL     OW25627   0.726   0.200  18.183
 4583SOL    HW125628   0.790   0.220  18.115
 4583SOL    HW225629   0.645   0.239  18.152
 4584SOL     OW25630   3.929   4.052  17.429
 4584SOL    HW125631   3.868   3.984  17.458
 4584SOL    HW225632   4.003   4.003  17.393
 4585SOL     OW25633   2.988   2.561   5.553
 4585SOL    HW125634   2.947   2.591   5.472
 4585SOL    HW225635   3.074   2.601   5.552
 4586SOL     OW25636   1.743   0.246  14.067
 4586SOL    HW125637   1.664   0.216  14.022
 4586SOL    HW225638   1.812   0.186  14.038
 4587SOL     OW25639   0.205   3.930  20.229
 4587SOL    HW125640   0.219   3.945  20.323
 4587SOL    HW225641   0.271   3.985  20.186
 4588SOL     OW25642   1.315   4.134  14.278
 4588SOL    HW125643   1.383   4.184  14.233
 4588SOL    HW225644   1.245   4.198  14.294
 4589SOL     OW25645   3.009   3.549  19.002
 4589SOL    HW125646   2.958   3.473  19.029
 4589SOL    HW225647   2.950   3.623  19.013
 4590SOL     OW25648   4.704   0.404   3.660
 4590SOL    HW125649   4.686   0.310   3.661
 4590SOL    HW225650   4.629   0.442   3.615
 4591SOL     OW25651   0.841   3.687  17.098
 4591SOL    HW125652   0.828   3.604  17.144
 4591SOL    HW225653   0.916   3.671  17.040
 4592SOL     OW25654   4.520   1.003   1.099
 4592SOL    HW125655   4.555   0.985   1.186
 4592SOL    HW225656   4.562   1.084   1.072
 4593SOL     OW25657   2.631   4.597  14.785
 4593SOL    HW125658   2.721   4.565  14.780
 4593SOL    HW225659   2.620   4.623  14.876
 4594SOL     OW25660   0.539   3.652   2.872
 4594SOL    HW125661   0.500   3.722   2.820
 4594SOL    HW225662   0.522   3.677   2.963
 4595SOL     OW25663   3.702   0.081  16.715
 4595SOL    HW125664   3.659   0.165  16.735
 4595SOL    HW225665   3.793   0.105  16.697
 4596SOL     OW25666   2.807   4.558  18.601
 4596SOL    HW125667   2.896   4.524  18.600
 4596SOL    HW225668   2.752   4.482  18.617
 4597SOL     OW25669   1.769   0.134  18.068
 4597SOL    HW125670   1.803   0.135  17.979
 4597SOL    HW225671   1.843   0.160  18.123
 4598SOL     OW25672   2.448   1.428   0.631
 4598SOL    HW125673   2.451   1.502   0.569
 4598SOL    HW225674   2.472   1.467   0.715
 4599SOL     OW25675   4.531   2.208   3.669
 4599SOL    HW125676   4.495   2.130   3.713
 4599SOL    HW225677   4.454   2.259   3.645
 4600SOL     OW25678   2.463   3.044  17.355
 4600SOL    HW125679   2.438   2.955  17.328
 4600SOL    HW225680   2.417   3.058  17.437
 4601SOL     OW25681   3.460   2.713  20.823
 4601SOL    HW125682   3.473   2.724  20.729
 4601SOL    HW225683   3.547   2.726  20.861
 4602SOL     OW25684   0.755   3.737   2.202
 4602SOL    HW125685   0.661   3.748   2.186
 4602SOL    HW225686   0.769   3.642   2.196
 4603SOL     OW25687   0.997   4.664   5.669
 4603SOL    HW125688   0.995   4.572   5.693
 4603SOL    HW225689   1.066   4.702   5.723
 4604SOL     OW25690   2.668   0.874   3.490
 4604SOL    HW125691   2.649   0.862   3.583
 4604SOL    HW225692   2.626   0.800   3.447
 4605SOL     OW25693   2.133   0.778   8.834
 4605SOL    HW125694   2.104   0.702   8.884
 4605SOL    HW225695   2.186   0.742   8.763
 4606SOL     OW25696   0.375   0.730   0.100
 4606SOL    HW125697   0.353   0.651   0.050
 4606SOL    HW225698   0.353   0.803   0.042
 4607SOL     OW25699   1.346   1.448  17.311
 4607SOL    HW125700   1.264   1.487  17.282
 4607SOL    HW225701   1.319   1.373  17.365
 4608SOL     OW25702   4.514   4.545  14.392
 4608SOL    HW125703   4.581   4.570  14.329
 4608SOL    HW225704   4.562   4.503  14.463
 4609SOL     OW25705   2.904   0.447  21.179
 4609SOL    HW125706   2.817   0.452  21.140
 4609SOL    HW225707   2.956   0.511  21.131
 4610SOL     OW25708   3.765   0.286  21.178
 4610SOL    HW125709   3.752   0.257  21.268
 4610SOL    HW225710   3.702   0.357  21.166
 4611SOL     OW25711   0.267   0.776  15.390
 4611SOL    HW125712   0.281   0.867  15.418
 4611SOL    HW225713   0.279   0.725  15.470
 4612SOL     OW25714   4.216   0.763   4.328
 4612SOL    HW125715   4.163   0.686   4.346
 4612SOL    HW225716   4.250   0.789   4.413
 4613SOL     OW25717   0.076   4.769   4.073
 4613SOL    HW125718   0.013   4.757   4.002
 4613SOL    HW225719   0.076   0.071   4.089
 4614SOL     OW25720   0.109   1.838   0.755
 4614SOL    HW125721   0.077   1.827   0.665
 4614SOL    HW225722   0.036   1.809   0.810
 4615SOL     OW25723   0.369   4.778  13.716
 4615SOL    HW125724   0.424   0.064  13.715
 4615SOL    HW225725   0.392   4.732  13.635
 4616SOL     OW25726   0.258   1.519   1.021
 4616SOL    HW125727   0.310   1.579   0.968
 4616SOL    HW225728   0.302   1.435   1.013
 4617SOL     OW25729   0.087   4.265   2.104
 4617SOL    HW125730   0.042   4.207   2.166
 4617SOL    HW225731   0.093   4.215   2.023
 4618SOL     OW25732   0.915   4.407  15.223
 4618SOL    HW125733   0.972   4.435  15.151
 4618SOL    HW225734   0.964   4.430  15.302
 4619SOL     OW25735   2.558   1.422   5.827
 4619SOL    HW125736   2.647   1.388   5.840
 4619SOL    HW225737   2.528   1.442   5.916
 4620SOL     OW25738   0.234   3.257   0.078
 4620SOL    HW125739   0.226   3.214  21.266
 4620SOL    HW225740   0.288   3.334   0.061
 4621SOL     OW25741   2.280   4.561  18.512
 4621SOL    HW125742   2.316   4.490  18.460
 4621SOL    HW225743   2.277   4.526  18.601
 4622SOL     OW25744   1.056   4.604  16.043
 4622SOL    HW125745   0.984   4.663  16.066
 4622SOL    HW225746   1.120   4.616  16.113
 4623SOL     OW25747   4.551   2.390  21.066
 4623SOL    HW125748   4.589   2.404  21.153
 4623SOL    HW225749   4.468   2.346  21.083
 4624SOL     OW25750   1.179   3.369  18.641
 4624SOL    HW125751   1.110   3.342  18.702
 4624SOL    HW225752   1.257   3.322  18.670
 4625SOL     OW25753   1.915   3.677   0.754
 4625SOL    HW125754   1.868   3.739   0.810
 4625SOL    HW225755   1.969   3.733   0.697
 4626SOL     OW25756   2.547   1.535   3.708
 4626SOL    HW125757   2.578   1.457   3.661
 4626SOL    HW225758   2.453   1.520   3.719
 4627SOL     OW25759   0.161   0.237   2.265
 4627SOL    HW125760   0.087   0.268   2.317
 4627SOL    HW225761   0.154   0.285   2.183
 4628SOL     OW25762   2.819   0.585   4.846
 4628SOL    HW125763   2.858   0.673   4.847
 4628SOL    HW225764   2.734   0.597   4.804
 4629SOL     OW25765   1.113   2.767  17.832
 4629SOL    HW125766   1.137   2.691  17.779
 4629SOL    HW225767   1.197   2.800  17.865
 4630SOL     OW25768   2.530   2.676  17.527
 4630SOL    HW125769   2.497   2.592  17.496
 4630SOL    HW225770   2.474   2.741  17.485
 4631SOL     OW25771   4.156   0.523   1.564
 4631SOL    HW125772   4.198   0.454   1.616
 4631SOL    HW225773   4.169   0.496   1.473
 4632SOL     OW25774   4.299   1.664  16.051
 4632SOL    HW125775   4.247   1.733  16.008
 4632SOL    HW225776   4.388   1.679  16.021
 4633SOL     OW25777   0.529   4.542   9.049
 4633SOL    HW125778   0.500   4.600   9.120
 4633SOL    HW225779   0.584   4.477   9.093
 4634SOL     OW25780   3.423   3.920  16.952
 4634SOL    HW125781   3.342   3.869  16.956
 4634SOL    HW225782   3.417   3.982  17.024
 4635SOL     OW25783   0.404   0.723   0.495
 4635SOL    HW125784   0.357   0.807   0.504
 4635SOL    HW225785   0.349   0.661   0.543
 4636SOL     OW25786   0.104   4.496   5.957
 4636SOL    HW125787   0.145   4.423   6.003
 4636SOL    HW225788   0.125   4.573   6.010
 4637SOL     OW25789   0.546   2.207   2.313
 4637SOL    HW125790   0.591   2.278   2.358
 4637SOL    HW225791   0.575   2.214   2.222
 4638SOL     OW25792   4.182   3.521   1.067
 4638SOL    HW125793   4.273   3.523   1.037
 4638SOL    HW225794   4.180   3.455   1.135
 4639SOL     OW25795   3.052   3.910  19.686
 4639SOL    HW125796   3.048   3.871  19.773
 4639SOL    HW225797   3.059   4.004  19.703
 4640SOL     OW25798   3.928   0.890   3.729
 4640SOL    HW125799   3.949   0.824   3.663
 4640SOL    HW225800   4.012   0.931   3.748
 4641SOL     OW25801   2.047   0.967   8.638
 4641SOL    HW125802   2.077   0.911   8.709
 4641SOL    HW225803   2.055   0.912   8.560
 4642SOL     OW25804   2.171   3.576  18.983
 4642SOL    HW125805   2.166   3.486  18.950
 4642SOL    HW225806   2.079   3.602  18.996
 4643SOL     OW25807   0.676   0.057  21.130
 4643SOL    HW125808   0.643   4.760  21.136
 4643SOL    HW225809   0.708   0.077  21.218
 4644SOL     OW25810   1.507   4.154   2.297
 4644SOL    HW125811   1.425   4.183   2.256
 4644SOL    HW225812   1.481   4.123   2.384
 4645SOL     OW25813   2.797   4.591  16.331
 4645SOL    HW125814   2.751   4.508  16.329
 4645SOL    HW225815   2.752   4.642  16.399
 4646SOL     OW25816   0.484   2.789   0.503
 4646SOL    HW125817   0.472   2.716   0.564
 4646SOL    HW225818   0.395   2.810   0.474
 4647SOL     OW25819   0.538   1.183   8.970
 4647SOL    HW125820   0.584   1.215   8.893
 4647SOL    HW225821   0.595   1.205   9.044
 4648SOL     OW25822   3.539   1.030   7.183
 4648SOL    HW125823   3.509   1.102   7.238
 4648SOL    HW225824   3.543   1.067   7.095
 4649SOL     OW25825   1.986   0.215   0.943
 4649SOL    HW125826   1.943   0.297   0.968
 4649SOL    HW225827   2.057   0.205   1.007
 4650SOL     OW25828   4.575   1.121   4.488
 4650SOL    HW125829   4.532   1.204   4.511
 4650SOL    HW225830   4.649   1.147   4.433
 4651SOL     OW25831   3.612   2.427  16.344
 4651SOL    HW125832   3.599   2.511  16.388
 4651SOL    HW225833   3.606   2.448  16.251
 4652SOL     OW25834   1.034   0.391   4.060
 4652SOL    HW125835   0.997   0.315   4.015
 4652SOL    HW225836   0.960   0.431   4.104
 4653SOL     OW25837   2.893   0.014   5.659
 4653SOL    HW125838   2.859   0.044   5.575
 4653SOL    HW225839   2.971   0.068   5.674
 4654SOL     OW25840   3.472   3.502  16.115
 4654SOL    HW125841   3.483   3.595  16.092
 4654SOL    HW225842   3.378   3.489  16.119
 4655SOL     OW25843   0.710   2.771   1.699
 4655SOL    HW125844   0.786   2.746   1.750
 4655SOL    HW225845   0.652   2.695   1.701
 4656SOL     OW25846   0.737   1.466  19.826
 4656SOL    HW125847   0.687   1.502  19.898
 4656SOL    HW225848   0.681   1.396  19.791
 4657SOL     OW25849   0.386   3.365   4.185
 4657SOL    HW125850   0.343   3.281   4.203
 4657SOL    HW225851   0.479   3.348   4.202
 4658SOL     OW25852   0.456   3.900   0.644
 4658SOL    HW125853   0.405   3.852   0.709
 4658SOL    HW225854   0.397   3.968   0.612
 4659SOL     OW25855   4.136   3.813  19.019
 4659SOL    HW125856   4.168   3.726  19.041
 4659SOL    HW225857   4.061   3.827  19.077
 4660SOL     OW25858   0.376   3.133   1.833
 4660SOL    HW125859   0.300   3.143   1.776
 4660SOL    HW225860   0.425   3.061   1.796
 4661SOL     OW25861   1.426   0.283   3.938
 4661SOL    HW125862   1.371   0.254   3.865
 4661SOL    HW225863   1.509   0.237   3.926
 4662SOL     OW25864   1.679   0.981  17.484
 4662SOL    HW125865   1.706   0.950  17.397
 4662SOL    HW225866   1.725   0.923  17.545
 4663SOL     OW25867   3.295   3.074   0.500
 4663SOL    HW125868   3.387   3.061   0.525
 4663SOL    HW225869   3.282   3.018   0.424
 4664SOL     OW25870   3.126   2.169   3.567
 4664SOL    HW125871   3.031   2.176   3.561
 4664SOL    HW225872   3.141   2.081   3.599
 4665SOL     OW25873   0.505   0.218  13.606
 4665SOL    HW125874   0.439   0.285  13.593
 4665SOL    HW225875   0.566   0.230  13.533
 4666SOL     OW25876   2.163   3.475   3.566
 4666SOL    HW125877   2.099   3.404   3.568
 4666SOL    HW225878   2.127   3.542   3.625
 4667SOL     OW25879   2.409   0.742   1.267
 4667SOL    HW125880   2.372   0.713   1.350
 4667SOL    HW225881   2.468   0.813   1.290
 4668SOL     OW25882   0.134   4.256  14.857
 4668SOL    HW125883   0.135   4.166  14.889
 4668SOL    HW225884   0.151   4.309  14.936
 4669SOL     OW25885   1.032   1.289   5.925
 4669SOL    HW125886   1.074   1.352   5.984
 4669SOL    HW225887   1.045   1.204   5.967
 4670SOL     OW25888   1.433   0.208  13.268
 4670SOL    HW125889   1.354   0.167  13.304
 4670SOL    HW225890   1.404   0.294  13.237
 4671SOL     OW25891   0.896   4.597  12.958
 4671SOL    HW125892   0.982   4.601  12.916
 4671SOL    HW225893   0.838   4.641  12.896
 4672SOL     OW25894   4.682   3.246   5.503
 4672SOL    HW125895   4.631   3.206   5.433
 4672SOL    HW225896   4.760   3.280   5.460
 4673SOL     OW25897   2.940   0.360   2.425
 4673SOL    HW125898   2.877   0.362   2.497
 4673SOL    HW225899   2.999   0.288   2.446
 4674SOL     OW25900   3.625   2.702   4.788
 4674SOL    HW125901   3.606   2.620   4.742
 4674SOL    HW225902   3.546   2.754   4.777
 4675SOL     OW25903   1.590   1.402   4.287
 4675SOL    HW125904   1.545   1.486   4.286
 4675SOL    HW225905   1.530   1.342   4.243
 4676SOL     OW25906   4.486   3.124   1.205
 4676SOL    HW125907   4.456   3.105   1.294
 4676SOL    HW225908   4.545   3.199   1.215
 4677SOL     OW25909   0.946   3.124  17.499
 4677SOL    HW125910   1.037   3.149  17.485
 4677SOL    HW225911   0.926   3.156  17.587
 4678SOL     OW25912   0.720   0.652  18.949
 4678SOL    HW125913   0.802   0.604  18.957
 4678SOL    HW225914   0.722   0.689  18.861
 4679SOL     OW25915   4.108   1.505  17.581
 4679SOL    HW125916   4.110   1.419  17.540
 4679SOL    HW225917   4.016   1.531  17.581
 4680SOL     OW25918   2.660   2.934   6.088
 4680SOL    HW125919   2.620   2.890   6.163
 4680SOL    HW225920   2.594   2.996   6.058
 4681SOL     OW25921   2.684   0.558  20.205
 4681SOL    HW125922   2.695   0.653  20.218
 4681SOL    HW225923   2.611   0.535  20.262
 4682SOL     OW25924   1.955   3.829   3.300
 4682SOL    HW125925   2.032   3.779   3.325
 4682SOL    HW225926   1.887   3.800   3.362
 4683SOL     OW25927   2.168   4.018  21.223
 4683SOL    HW125928   2.129   3.974  21.147
 4683SOL    HW225929   2.168   3.951   0.019
 4684SOL     OW25930   4.562   4.088  20.690
 4684SOL    HW125931   4.483   4.079  20.637
 4684SOL    HW225932   4.603   4.169  20.658
 4685SOL     OW25933   0.178   0.651  17.935
 4685SOL    HW125934   0.139   0.609  18.012
 4685SOL    HW225935   0.137   0.737  17.931
 4686SOL     OW25936   4.456   0.914  19.212
 4686SOL    HW125937   4.524   0.888  19.275
 4686SOL    HW225938   4.491   0.888  19.127
 4687SOL     OW25939   4.008   1.653   4.504
 4687SOL    HW125940   4.099   1.646   4.533
 4687SOL    HW225941   3.991   1.570   4.460
 4688SOL     OW25942   4.413   0.930   5.436
 4688SOL    HW125943   4.407   0.915   5.530
 4688SOL    HW225944   4.491   0.881   5.409
 4689SOL     OW25945   2.178   0.162  14.487
 4689SOL    HW125946   2.101   0.104  14.481
 4689SOL    HW225947   2.199   0.184  14.397
 4690SOL     OW25948   2.175   1.830  21.213
 4690SOL    HW125949   2.157   1.878   0.021
 4690SOL    HW225950   2.244   1.768  21.236
 4691SOL     OW25951   1.688   2.280   3.553
 4691SOL    HW125952   1.754   2.260   3.486
 4691SOL    HW225953   1.706   2.219   3.624
 4692SOL     OW25954   3.894   3.200   5.280
 4692SOL    HW125955   3.885   3.179   5.373
 4692SOL    HW225956   3.842   3.133   5.235
 4693SOL     OW25957   1.840   3.766  15.152
 4693SOL    HW125958   1.927   3.785  15.116
 4693SOL    HW225959   1.805   3.698  15.095
 4694SOL     OW25960   0.065   4.255  17.999
 4694SOL    HW125961   0.073   4.325  18.065
 4694SOL    HW225962   0.107   4.179  18.040
 4695SOL     OW25963   0.163   1.145  18.954
 4695SOL    HW125964   0.122   1.186  19.031
 4695SOL    HW225965   0.255   1.135  18.978
 4696SOL     OW25966   3.953   4.262   5.814
 4696SOL    HW125967   3.969   4.310   5.733
 4696SOL    HW225968   4.025   4.289   5.872
 4697SOL     OW25969   2.493   3.543  21.032
 4697SOL    HW125970   2.414   3.527  21.084
 4697SOL    HW225971   2.464   3.595  20.958
 4698SOL     OW25972   0.751   2.552   5.824
 4698SOL    HW125973   0.761   2.475   5.880
 4698SOL    HW225974   0.712   2.618   5.881
 4699SOL     OW25975   0.613   2.376  19.547
 4699SOL    HW125976   0.702   2.391  19.516
 4699SOL    HW225977   0.618   2.386  19.642
 4700SOL     OW25978   1.877   3.849   1.196
 4700SOL    HW125979   1.861   3.922   1.257
 4700SOL    HW225980   1.945   3.881   1.137
 4701SOL     OW25981   2.125   2.621  20.408
 4701SOL    HW125982   2.121   2.648  20.316
 4701SOL    HW225983   2.114   2.526  20.405
 4702SOL     OW25984   2.605   0.392   6.649
 4702SOL    HW125985   2.525   0.432   6.615
 4702SOL    HW225986   2.576   0.309   6.687
 4703SOL     OW25987   4.246   1.520   0.053
 4703SOL    HW125988   4.316   1.552  21.268
 4703SOL    HW225989   4.221   1.596   0.105
 4704SOL     OW25990   2.017   0.319   0.557
 4704SOL    HW125991   2.079   0.297   0.487
 4704SOL    HW225992   2.017   0.241   0.613
 4705SOL     OW25993   3.190   0.723   4.402
 4705SOL    HW125994   3.194   0.783   4.477
 4705SOL    HW225995   3.243   0.766   4.335
 4706SOL     OW25996   4.250   1.465   8.234
 4706SOL    HW125997   4.178   1.499   8.288
 4706SOL    HW225998   4.273   1.538   8.176
 4707SOL     OW25999   2.165   3.519   6.753
 4707SOL    HW126000   2.248   3.526   6.800
 4707SOL    HW226001   2.132   3.432   6.776
 4708SOL     OW26002   3.734   1.416   2.231
 4708SOL    HW126003   3.821   1.455   2.230
 4708SOL    HW226004   3.739   1.344   2.169
 4709SOL     OW26005   4.179   1.700   5.896
 4709SOL    HW126006   4.114   1.646   5.941
 4709SOL    HW226007   4.143   1.713   5.809
 4710SOL     OW26008   1.361   0.460  13.207
 4710SOL    HW126009   1.404   0.529  13.156
 4710SOL    HW226010   1.326   0.504  13.284
 4711SOL     OW26011   0.436   2.805  16.512
 4711SOL    HW126012   0.446   2.873  16.578
 4711SOL    HW226013   0.503   2.825  16.447
 4712SOL     OW26014   2.419   2.022  21.171
 4712SOL    HW126015   2.348   1.959  21.163
 4712SOL    HW226016   2.470   2.012  21.091
 4713SOL     OW26017   0.844   3.781   0.804
 4713SOL    HW126018   0.876   3.770   0.894
 4713SOL    HW226019   0.918   3.754   0.750
 4714SOL     OW26020   2.276   0.606  16.203
 4714SOL    HW126021   2.303   0.581  16.114
 4714SOL    HW226022   2.264   0.701  16.198
 4715SOL     OW26023   0.920   0.848  20.170
 4715SOL    HW126024   0.854   0.913  20.144
 4715SOL    HW226025   0.908   0.776  20.109
 4716SOL     OW26026   3.195   4.770   7.266
 4716SOL    HW126027   3.263   4.710   7.298
 4716SOL    HW226028   3.229   0.009   7.183
 4717SOL     OW26029   2.212   2.519   8.456
 4717SOL    HW126030   2.226   2.441   8.402
 4717SOL    HW226031   2.226   2.592   8.396
 4718SOL     OW26032   2.432   0.180  17.930
 4718SOL    HW126033   2.477   0.240  17.872
 4718SOL    HW226034   2.425   0.227  18.013
 4719SOL     OW26035   1.678   2.778   6.475
 4719SOL    HW126036   1.590   2.794   6.442
 4719SOL    HW226037   1.731   2.765   6.397
 4720SOL     OW26038   4.379   4.601  16.801
 4720SOL    HW126039   4.287   4.593  16.778
 4720SOL    HW226040   4.420   4.522  16.765
 4721SOL     OW26041   4.052   4.558  19.491
 4721SOL    HW126042   4.041   4.478  19.543
 4721SOL    HW226043   3.983   4.552  19.424
 4722SOL     OW26044   0.661   1.032   2.474
 4722SOL    HW126045   0.684   1.122   2.449
 4722SOL    HW226046   0.619   1.042   2.560
 4723SOL     OW26047   0.246   3.041  14.923
 4723SOL    HW126048   0.204   2.963  14.959
 4723SOL    HW226049   0.325   3.008  14.879
 4724SOL     OW26050   0.265   1.955  14.398
 4724SOL    HW126051   0.356   1.926  14.400
 4724SOL    HW226052   0.268   2.047  14.424
 4725SOL     OW26053   0.415   2.339  16.347
 4725SOL    HW126054   0.373   2.368  16.266
 4725SOL    HW226055   0.404   2.413  16.408
 4726SOL     OW26056   3.203   1.910  19.234
 4726SOL    HW126057   3.256   1.833  19.211
 4726SOL    HW226058   3.186   1.952  19.150
 4727SOL     OW26059   4.484   0.081   1.169
 4727SOL    HW126060   4.404   0.100   1.217
 4727SOL    HW226061   4.554   0.093   1.233
 4728SOL     OW26062   0.457   4.263   6.262
 4728SOL    HW126063   0.419   4.347   6.290
 4728SOL    HW226064   0.549   4.268   6.288
 4729SOL     OW26065   4.248   0.826   1.042
 4729SOL    HW126066   4.308   0.901   1.046
 4729SOL    HW226067   4.199   0.839   0.961
 4730SOL     OW26068   4.612   0.982   7.387
 4730SOL    HW126069   4.673   1.038   7.435
 4730SOL    HW226070   4.525   1.017   7.409
 4731SOL     OW26071   0.380   4.069  16.431
 4731SOL    HW126072   0.393   4.092  16.523
 4731SOL    HW226073   0.397   3.974  16.427
 4732SOL     OW26074   1.031   2.344   0.710
 4732SOL    HW126075   0.942   2.357   0.678
 4732SOL    HW226076   1.039   2.403   0.785
 4733SOL     OW26077   2.312   2.354  19.885
 4733SOL    HW126078   2.390   2.304  19.909
 4733SOL    HW226079   2.330   2.385  19.797
 4734SOL     OW26080   1.087   2.405  19.251
 4734SOL    HW126081   1.126   2.480  19.206
 4734SOL    HW226082   1.052   2.351  19.181
 4735SOL     OW26083   1.776   2.060   6.670
 4735SOL    HW126084   1.699   2.094   6.714
 4735SOL    HW226085   1.826   2.017   6.739
 4736SOL     OW26086   3.667   0.167   7.820
 4736SOL    HW126087   3.662   0.072   7.803
 4736SOL    HW226088   3.642   0.207   7.736
 4737SOL     OW26089   2.385   4.308  17.634
 4737SOL    HW126090   2.440   4.386  17.637
 4737SOL    HW226091   2.384   4.283  17.542
 4738SOL     OW26092   2.424   4.084   1.219
 4738SOL    HW126093   2.355   4.055   1.279
 4738SOL    HW226094   2.454   4.167   1.256
 4739SOL     OW26095   0.440   3.896   1.219
 4739SOL    HW126096   0.473   3.813   1.255
 4739SOL    HW226097   0.480   3.902   1.132
 4740SOL     OW26098   1.917   4.660   2.638
 4740SOL    HW126099   1.967   4.725   2.590
 4740SOL    HW226100   1.958   4.657   2.724
 4741SOL     OW26101   0.790   3.450  15.625
 4741SOL    HW126102   0.862   3.440  15.563
 4741SOL    HW226103   0.827   3.426  15.710
 4742SOL     OW26104   1.888   2.921   3.325
 4742SOL    HW126105   1.848   2.926   3.238
 4742SOL    HW226106   1.899   2.827   3.340
 4743SOL     OW26107   2.694   2.364   5.150
 4743SOL    HW126108   2.673   2.293   5.210
 4743SOL    HW226109   2.660   2.335   5.065
 4744SOL     OW26110   0.939   3.038  20.022
 4744SOL    HW126111   0.846   3.016  20.012
 4744SOL    HW226112   0.976   2.962  20.067
 4745SOL     OW26113   4.625   2.674  16.973
 4745SOL    HW126114   4.669   2.604  17.022
 4745SOL    HW226115   4.670   2.677  16.889
 4746SOL     OW26116   0.201   1.224  18.440
 4746SOL    HW126117   0.249   1.216  18.358
 4746SOL    HW226118   0.123   1.276  18.418
 4747SOL     OW26119   0.935   4.565  19.658
 4747SOL    HW126120   1.023   4.603  19.650
 4747SOL    HW226121   0.936   4.518  19.742
 4748SOL     OW26122   0.640   0.245   2.476
 4748SOL    HW126123   0.646   0.156   2.442
 4748SOL    HW226124   0.643   0.235   2.571
 4749SOL     OW26125   1.808   0.445  16.052
 4749SOL    HW126126   1.892   0.421  16.012
 4749SOL    HW226127   1.815   0.413  16.142
 4750SOL     OW26128   4.293   1.831   3.510
 4750SOL    HW126129   4.365   1.887   3.480
 4750SOL    HW226130   4.277   1.859   3.600
 4751SOL     OW26131   4.303   3.767  20.640
 4751SOL    HW126132   4.223   3.814  20.662
 4751SOL    HW226133   4.275   3.677  20.626
 4752SOL     OW26134   2.539   2.970   5.686
 4752SOL    HW126135   2.566   3.059   5.711
 4752SOL    HW226136   2.484   2.982   5.609
 4753SOL     OW26137   2.181   0.585  15.500
 4753SOL    HW126138   2.087   0.574  15.485
 4753SOL    HW226139   2.197   0.678  15.482
 4754SOL     OW26140   3.814   4.252   2.803
 4754SOL    HW126141   3.807   4.347   2.813
 4754SOL    HW226142   3.829   4.238   2.710
 4755SOL     OW26143   2.931   4.385   0.023
 4755SOL    HW126144   3.007   4.424  21.253
 4755SOL    HW226145   2.883   4.342  21.225
 4756SOL     OW26146   1.386   0.152  16.269
 4756SOL    HW126147   1.363   0.181  16.357
 4756SOL    HW226148   1.365   0.227  16.213
 4757SOL     OW26149   4.172   0.879   4.564
 4757SOL    HW126150   4.087   0.876   4.608
 4757SOL    HW226151   4.171   0.962   4.515
 4758SOL     OW26152   4.577   2.238   2.840
 4758SOL    HW126153   4.567   2.329   2.811
 4758SOL    HW226154   4.644   2.242   2.908
 4759SOL     OW26155   2.113   1.384  16.147
 4759SOL    HW126156   2.031   1.432  16.157
 4759SOL    HW226157   2.158   1.396  16.231
 4760SOL     OW26158   3.190   0.229   8.698
 4760SOL    HW126159   3.283   0.219   8.680
 4760SOL    HW226160   3.151   0.146   8.671
 4761SOL     OW26161   0.934   1.387   8.510
 4761SOL    HW126162   0.933   1.418   8.600
 4761SOL    HW226163   0.869   1.317   8.508
 4762SOL     OW26164   4.261   3.304  11.189
 4762SOL    HW126165   4.230   3.226  11.142
 4762SOL    HW226166   4.181   3.347  11.219
 4763SOL     OW26167   3.763   0.443   9.961
 4763SOL    HW126168   3.689   0.395   9.997
 4763SOL    HW226169   3.801   0.489  10.037
 4764SOL     OW26170   3.904   0.826  11.607
 4764SOL    HW126171   3.903   0.804  11.700
 4764SOL    HW226172   3.816   0.858  11.588
 4765SOL     OW26173   4.351   0.334   8.264
 4765SOL    HW126174   4.372   0.316   8.355
 4765SOL    HW226175   4.408   0.406   8.239
 4766SOL     OW26176   4.581   0.227   8.765
 4766SOL    HW126177   4.630   0.153   8.799
 4766SOL    HW226178   4.564   0.206   8.673
 4767SOL     OW26179   3.676   2.783  10.250
 4767SOL    HW126180   3.673   2.706  10.194
 4767SOL    HW226181   3.591   2.784  10.294
 4768SOL     OW26182   4.283   0.536   9.389
 4768SOL    HW126183   4.250   0.601   9.327
 4768SOL    HW226184   4.245   0.561   9.473
 4769SOL     OW26185   4.348   0.049   9.721
 4769SOL    HW126186   4.436   0.052   9.758
 4769SOL    HW226187   4.362   0.045   9.627
 4770SOL     OW26188   3.107   1.503  11.500
 4770SOL    HW126189   3.163   1.575  11.470
 4770SOL    HW226190   3.160   1.456  11.564
 4771SOL     OW26191   3.991   1.521  10.701
 4771SOL    HW126192   3.974   1.605  10.660
 4771SOL    HW226193   4.085   1.506  10.687
 4772SOL     OW26194   0.073   0.708   8.428
 4772SOL    HW126195   0.152   0.678   8.471
 4772SOL    HW226196   0.002   0.680   8.486
 4773SOL     OW26197   3.667   0.876   9.409
 4773SOL    HW126198   3.655   0.785   9.381
 4773SOL    HW226199   3.697   0.921   9.330
 4774SOL     OW26200   3.314   4.335   8.924
 4774SOL    HW126201   3.279   4.413   8.966
 4774SOL    HW226202   3.238   4.282   8.902
 4775SOL     OW26203   3.749   2.029  10.128
 4775SOL    HW126204   3.739   2.103  10.068
 4775SOL    HW226205   3.677   2.038  10.190
 4776SOL     OW26206   0.782   4.190  12.906
 4776SOL    HW126207   0.823   4.264  12.952
 4776SOL    HW226208   0.850   4.123  12.904
 4777SOL     OW26209   3.062   0.830  12.325
 4777SOL    HW126210   3.064   0.824  12.229
 4777SOL    HW226211   3.008   0.907  12.343
 4778SOL     OW26212   0.104   0.575  11.176
 4778SOL    HW126213   0.070   0.599  11.263
 4778SOL    HW226214   0.129   0.483  11.185
 4779SOL     OW26215   2.824   1.858  12.327
 4779SOL    HW126216   2.917   1.875  12.345
 4779SOL    HW226217   2.788   1.944  12.306
 4780SOL     OW26218   4.248   1.566  12.380
 4780SOL    HW126219   4.179   1.579  12.445
 4780SOL    HW226220   4.311   1.509  12.423
 4781SOL     OW26221   3.633   2.558  10.104
 4781SOL    HW126222   3.607   2.546  10.013
 4781SOL    HW226223   3.636   2.469  10.139
 4782SOL     OW26224   3.283   0.898  13.841
 4782SOL    HW126225   3.234   0.980  13.838
 4782SOL    HW226226   3.277   0.870  13.932
 4783SOL     OW26227   3.470   2.038  11.083
 4783SOL    HW126228   3.505   2.085  11.008
 4783SOL    HW226229   3.378   2.062  11.086
 4784SOL     OW26230   0.785   1.079  10.861
 4784SOL    HW126231   0.759   1.127  10.940
 4784SOL    HW226232   0.707   1.081  10.806
 4785SOL     OW26233   3.719   0.513  11.938
 4785SOL    HW126234   3.762   0.565  11.870
 4785SOL    HW226235   3.787   0.500  12.004
 4786SOL     OW26236   3.657   1.102  12.276
 4786SOL    HW126237   3.597   1.174  12.256
 4786SOL    HW226238   3.625   1.029  12.223
 4787SOL     OW26239   4.071   1.057  11.592
 4787SOL    HW126240   4.024   0.974  11.602
 4787SOL    HW226241   4.033   1.096  11.513
 4788SOL     OW26242   3.772   2.865  12.266
 4788SOL    HW126243   3.752   2.790  12.322
 4788SOL    HW226244   3.736   2.842  12.181
 4789SOL     OW26245   4.711   0.065  11.549
 4789SOL    HW126246   4.662   4.791  11.595
 4789SOL    HW226247   4.660   0.145  11.562
 4790SOL     OW26248   3.326   0.627  12.664
 4790SOL    HW126249   3.363   0.698  12.716
 4790SOL    HW226250   3.232   0.639  12.670
 4791SOL     OW26251   3.058   0.475  10.489
 4791SOL    HW126252   3.054   0.397  10.433
 4791SOL    HW226253   3.034   0.443  10.576
 4792SOL     OW26254   2.382   2.454  11.451
 4792SOL    HW126255   2.316   2.509  11.409
 4792SOL    HW226256   2.450   2.515  11.479
 4793SOL     OW26257   3.401   2.347  11.452
 4793SOL    HW126258   3.444   2.329  11.535
 4793SOL    HW226259   3.385   2.442  11.453
 4794SOL     OW26260   3.653   0.084  11.051
 4794SOL    HW126261   3.730   0.071  11.106
 4794SOL    HW226262   3.680   0.056  10.964
 4795SOL     OW26263   2.953   2.498  12.905
 4795SOL    HW126264   2.973   2.437  12.976
 4795SOL    HW226265   2.869   2.537  12.930
 4796SOL     OW26266   1.879   3.196  16.270
 4796SOL    HW126267   1.871   3.177  16.176
 4796SOL    HW226268   1.807   3.257  16.287
 4797SOL     OW26269   2.328   4.196  16.596
 4797SOL    HW126270   2.331   4.101  16.590
 4797SOL    HW226271   2.241   4.215  16.632
 4798SOL     OW26272   0.725   2.628  19.957
 4798SOL    HW126273   0.747   2.646  20.049
 4798SOL    HW226274   0.652   2.687  19.938
 4799SOL     OW26275   3.142   0.380  13.893
 4799SOL    HW126276   3.100   0.452  13.846
 4799SOL    HW226277   3.076   0.350  13.955
 4800SOL     OW26278   4.243   0.882  17.799
 4800SOL    HW126279   4.233   0.939  17.723
 4800SOL    HW226280   4.224   0.794  17.765
 4801SOL     OW26281   1.523   1.286  14.898
 4801SOL    HW126282   1.452   1.285  14.962
 4801SOL    HW226283   1.577   1.361  14.923
 4802SOL     OW26284   1.240   1.589  14.471
 4802SOL    HW126285   1.302   1.658  14.450
 4802SOL    HW226286   1.162   1.610  14.420
 4803SOL     OW26287   0.592   1.324   0.340
 4803SOL    HW126288   0.528   1.258   0.311
 4803SOL    HW226289   0.589   1.391   0.272
 4804SOL     OW26290   2.840   2.203  19.442
 4804SOL    HW126291   2.766   2.157  19.404
 4804SOL    HW226292   2.836   2.182  19.535
 4805SOL     OW26293   3.947   3.528  20.625
 4805SOL    HW126294   4.013   3.493  20.684
 4805SOL    HW226295   3.903   3.596  20.677
 4806SOL     OW26296   3.315   0.414   4.378
 4806SOL    HW126297   3.311   0.426   4.283
 4806SOL    HW226298   3.337   0.501   4.412
 4807SOL     OW26299   1.243   4.757  17.662
 4807SOL    HW126300   1.259   0.039  17.719
 4807SOL    HW226301   1.297   4.687  17.698
 4808SOL     OW26302   1.243   1.971  12.207
 4808SOL    HW126303   1.157   1.957  12.169
 4808SOL    HW226304   1.297   1.899  12.175
 4809SOL     OW26305   0.388   4.694   5.760
 4809SOL    HW126306   0.443   4.739   5.696
 4809SOL    HW226307   0.432   4.708   5.843
 4810SOL     OW26308   1.027   4.672   2.515
 4810SOL    HW126309   0.975   4.747   2.546
 4810SOL    HW226310   1.088   4.710   2.451
 4811SOL     OW26311   4.267   4.033   1.882
 4811SOL    HW126312   4.211   3.985   1.821
 4811SOL    HW226313   4.356   4.006   1.859
 4812SOL     OW26314   0.734   0.760   0.597
 4812SOL    HW126315   0.683   0.786   0.673
 4812SOL    HW226316   0.751   0.667   0.610
 4813SOL     OW26317   4.395   0.614  18.498
 4813SOL    HW126318   4.351   0.649  18.421
 4813SOL    HW226319   4.401   0.520  18.482
 4814SOL     OW26320   2.625   0.832   3.745
 4814SOL    HW126321   2.672   0.871   3.819
 4814SOL    HW226322   2.533   0.844   3.766
 4815SOL     OW26323   0.978   2.840   1.963
 4815SOL    HW126324   0.931   2.805   2.039
 4815SOL    HW226325   1.067   2.855   1.995
 4816SOL     OW26326   3.861   1.007  15.907
 4816SOL    HW126327   3.888   1.096  15.928
 4816SOL    HW226328   3.826   0.973  15.989
 4817SOL     OW26329   3.927   3.021   4.559
 4817SOL    HW126330   3.946   3.029   4.653
 4817SOL    HW226331   3.832   3.012   4.555
 4818SOL     OW26332   3.144   2.405  15.003
 4818SOL    HW126333   3.175   2.387  14.914
 4818SOL    HW226334   3.210   2.464  15.039
 4819SOL     OW26335   3.602   1.054  15.558
 4819SOL    HW126336   3.585   1.147  15.572
 4819SOL    HW226337   3.639   1.024  15.641
 4820SOL     OW26338   4.030   2.552   7.554
 4820SOL    HW126339   4.021   2.513   7.467
 4820SOL    HW226340   4.122   2.539   7.578
 4821SOL     OW26341   4.277   4.160   1.375
 4821SOL    HW126342   4.296   4.146   1.282
 4821SOL    HW226343   4.232   4.245   1.377
 4822SOL     OW26344   0.618   3.682   0.973
 4822SOL    HW126345   0.620   3.724   1.060
 4822SOL    HW226346   0.663   3.744   0.916
 4823SOL     OW26347   2.282   2.598  20.025
 4823SOL    HW126348   2.360   2.609  20.080
 4823SOL    HW226349   2.301   2.521  19.971
 4824SOL     OW26350   1.813   1.265   6.148
 4824SOL    HW126351   1.720   1.289   6.151
 4824SOL    HW226352   1.813   1.171   6.127
 4825SOL     OW26353   4.329   4.783  11.550
 4825SOL    HW126354   4.234   4.788  11.557
 4825SOL    HW226355   4.354   0.071  11.506
 4826SOL     OW26356   3.014   3.614  20.236
 4826SOL    HW126357   3.061   3.597  20.318
 4826SOL    HW226358   3.080   3.654  20.179
 4827SOL     OW26359   0.491   1.789  16.864
 4827SOL    HW126360   0.551   1.803  16.790
 4827SOL    HW226361   0.410   1.757  16.823
 4828SOL     OW26362   2.437   3.773   5.652
 4828SOL    HW126363   2.382   3.767   5.574
 4828SOL    HW226364   2.415   3.859   5.690
 4829SOL     OW26365   2.520   0.989  20.484
 4829SOL    HW126366   2.475   0.917  20.440
 4829SOL    HW226367   2.595   0.948  20.527
 4830SOL     OW26368   2.939   3.321   1.586
 4830SOL    HW126369   3.019   3.373   1.595
 4830SOL    HW226370   2.906   3.341   1.499
 4831SOL     OW26371   2.922   2.879  13.044
 4831SOL    HW126372   2.902   2.935  13.119
 4831SOL    HW226373   2.947   2.795  13.082
 4832SOL     OW26374   4.514   2.966  19.100
 4832SOL    HW126375   4.492   2.882  19.142
 4832SOL    HW226376   4.609   2.966  19.095
 4833SOL     OW26377   1.967   0.228  16.758
 4833SOL    HW126378   1.968   0.295  16.690
 4833SOL    HW226379   1.938   0.149  16.714
 4834SOL     OW26380   1.844   0.763  17.948
 4834SOL    HW126381   1.920   0.752  17.889
 4834SOL    HW226382   1.845   0.685  18.002
 4835SOL     OW26383   3.827   2.343   4.981
 4835SOL    HW126384   3.916   2.359   4.950
 4835SOL    HW226385   3.830   2.364   5.075
 4836SOL     OW26386   0.244   0.527  21.180
 4836SOL    HW126387   0.202   0.496  21.100
 4836SOL    HW226388   0.335   0.498  21.173
 4837SOL     OW26389   1.812   1.087  18.584
 4837SOL    HW126390   1.718   1.083  18.604
 4837SOL    HW226391   1.817   1.070  18.490
 4838SOL     OW26392   4.674   1.874   3.591
 4838SOL    HW126393   4.752   1.930   3.584
 4838SOL    HW226394   4.607   1.920   3.541
 4839SOL     OW26395   2.784   0.057   2.339
 4839SOL    HW126396   2.811   0.149   2.338
 4839SOL    HW226397   2.801   0.028   2.428
 4840SOL     OW26398   0.608   1.470  21.062
 4840SOL    HW126399   0.572   1.424  20.986
 4840SOL    HW226400   0.685   1.516  21.028
 4841SOL     OW26401   3.633   4.428   2.165
 4841SOL    HW126402   3.641   4.504   2.107
 4841SOL    HW226403   3.675   4.357   2.118
 4842SOL     OW26404   0.752   1.141  16.387
 4842SOL    HW126405   0.797   1.057  16.396
 4842SOL    HW226406   0.712   1.138  16.300
 4843SOL     OW26407   4.616   4.769   3.333
 4843SOL    HW126408   4.531   4.760   3.376
 4843SOL    HW226409   4.638   4.680   3.303
 4844SOL     OW26410   2.953   2.636   0.528
 4844SOL    HW126411   2.945   2.624   0.623
 4844SOL    HW226412   2.943   2.731   0.515
 4845SOL     OW26413   0.150   0.003  20.808
 4845SOL    HW126414   0.198   0.050  20.739
 4845SOL    HW226415   0.078   0.062  20.831
 4846SOL     OW26416   4.417   4.205   5.223
 4846SOL    HW126417   4.488   4.244   5.171
 4846SOL    HW226418   4.413   4.259   5.301
 4847SOL     OW26419   1.325   0.399  20.129
 4847SOL    HW126420   1.293   0.312  20.105
 4847SOL    HW226421   1.326   0.398  20.224
 4848SOL     OW26422   1.127   1.606   5.173
 4848SOL    HW126423   1.166   1.614   5.086
 4848SOL    HW226424   1.044   1.561   5.158
 4849SOL     OW26425   2.717   4.305   7.346
 4849SOL    HW126426   2.722   4.396   7.319
 4849SOL    HW226427   2.806   4.271   7.338
 4850SOL     OW26428   2.506   3.169   7.922
 4850SOL    HW126429   2.521   3.196   7.831
 4850SOL    HW226430   2.411   3.177   7.934
 4851SOL     OW26431   2.124   2.211   2.135
 4851SOL    HW126432   2.209   2.253   2.149
 4851SOL    HW226433   2.072   2.239   2.210
 4852SOL     OW26434   1.468   0.640  15.429
 4852SOL    HW126435   1.523   0.608  15.358
 4852SOL    HW226436   1.389   0.585  15.425
 4853SOL     OW26437   4.095   4.521  16.027
 4853SOL    HW126438   4.072   4.449  16.086
 4853SOL    HW226439   4.027   4.520  15.960
 4854SOL     OW26440   3.006   1.087  18.187
 4854SOL    HW126441   3.002   1.054  18.276
 4854SOL    HW226442   3.076   1.037  18.146
 4855SOL     OW26443   4.688   3.756  19.174
 4855SOL    HW126444   4.708   3.848  19.193
 4855SOL    HW226445   4.764   3.725  19.125
 4856SOL     OW26446   3.119   3.156  19.214
 4856SOL    HW126447   3.191   3.203  19.255
 4856SOL    HW226448   3.062   3.130  19.287
 4857SOL     OW26449   0.411   2.887   0.266
 4857SOL    HW126450   0.504   2.909   0.274
 4857SOL    HW226451   0.369   2.968   0.240
 4858SOL     OW26452   0.136   0.052   5.781
 4858SOL    HW126453   0.198   4.774   5.794
 4858SOL    HW226454   0.086   0.027   5.704
 4859SOL     OW26455   3.046   4.657   3.041
 4859SOL    HW126456   2.979   4.589   3.047
 4859SOL    HW226457   3.022   4.708   2.964
 4860SOL     OW26458   0.563   2.933  16.244
 4860SOL    HW126459   0.625   3.005  16.252
 4860SOL    HW226460   0.478   2.973  16.260
 4861SOL     OW26461   1.661   1.890  21.068
 4861SOL    HW126462   1.659   1.824  21.137
 4861SOL    HW226463   1.754   1.905  21.052
 4862SOL     OW26464   4.396   4.413   6.767
 4862SOL    HW126465   4.338   4.338   6.778
 4862SOL    HW226466   4.450   4.391   6.691
 4863SOL     OW26467   2.250   1.857   2.270
 4863SOL    HW126468   2.171   1.903   2.242
 4863SOL    HW226469   2.226   1.814   2.352
 4864SOL     OW26470   4.741   0.855   1.938
 4864SOL    HW126471   4.650   0.873   1.963
 4864SOL    HW226472   4.744   0.761   1.921
 4865SOL     OW26473   0.686   3.685  20.982
 4865SOL    HW126474   0.660   3.626  20.911
 4865SOL    HW226475   0.632   3.763  20.969
 4866SOL     OW26476   4.348   0.031   4.750
 4866SOL    HW126477   4.425   0.035   4.806
 4866SOL    HW226478   4.341   0.119   4.711
 4867SOL     OW26479   3.856   0.875  17.393
 4867SOL    HW126480   3.840   0.906  17.304
 4867SOL    HW226481   3.802   0.932  17.448
 4868SOL     OW26482   2.530   2.857   2.828
 4868SOL    HW126483   2.515   2.863   2.923
 4868SOL    HW226484   2.468   2.920   2.791
 4869SOL     OW26485   3.745   0.334  20.498
 4869SOL    HW126486   3.738   0.430  20.498
 4869SOL    HW226487   3.654   0.304  20.506
 4870SOL     OW26488   1.821   0.190   5.785
 4870SOL    HW126489   1.814   0.114   5.843
 4870SOL    HW226490   1.767   0.257   5.826
 4871SOL     OW26491   0.885   4.127   1.298
 4871SOL    HW126492   0.977   4.113   1.277
 4871SOL    HW226493   0.864   4.211   1.258
 4872SOL     OW26494   3.339   0.373   0.105
 4872SOL    HW126495   3.345   0.330   0.190
 4872SOL    HW226496   3.328   0.466   0.126
 4873SOL     OW26497   4.157   0.455   3.470
 4873SOL    HW126498   4.229   0.493   3.419
 4873SOL    HW226499   4.110   0.400   3.408
 4874SOL     OW26500   3.973   0.425  14.151
 4874SOL    HW126501   3.966   0.356  14.216
 4874SOL    HW226502   3.914   0.494  14.183
 4875SOL     OW26503   0.015   2.215  16.900
 4875SOL    HW126504   0.050   2.249  16.817
 4875SOL    HW226505   4.725   2.175  16.875
 4876SOL     OW26506   2.177   3.867  15.687
 4876SOL    HW126507   2.251   3.867  15.747
 4876SOL    HW226508   2.201   3.930  15.619
 4877SOL     OW26509   0.561   2.662   6.927
 4877SOL    HW126510   0.498   2.593   6.907
 4877SOL    HW226511   0.513   2.743   6.911
 4878SOL     OW26512   1.948   3.559   8.775
 4878SOL    HW126513   1.928   3.553   8.869
 4878SOL    HW226514   2.038   3.529   8.768
 4879SOL     OW26515   3.045   4.209  13.595
 4879SOL    HW126516   2.986   4.254  13.655
 4879SOL    HW226517   3.010   4.228  13.508
 4880SOL     OW26518   1.730   3.223  16.695
 4880SOL    HW126519   1.809   3.195  16.649
 4880SOL    HW226520   1.701   3.301  16.646
 4881SOL     OW26521   0.467   3.215   0.306
 4881SOL    HW126522   0.560   3.222   0.282
 4881SOL    HW226523   0.469   3.200   0.401
 4882SOL     OW26524   0.431   2.785   0.024
 4882SOL    HW126525   0.411   2.807   0.115
 4882SOL    HW226526   0.388   2.701   0.010
 4883SOL     OW26527   2.826   3.078   1.674
 4883SOL    HW126528   2.891   3.148   1.676
 4883SOL    HW226529   2.839   3.034   1.590
 4884SOL     OW26530   3.681   1.666   5.822
 4884SOL    HW126531   3.696   1.607   5.897
 4884SOL    HW226532   3.755   1.727   5.825
 4885SOL     OW26533   3.590   1.248   3.921
 4885SOL    HW126534   3.607   1.239   3.827
 4885SOL    HW226535   3.587   1.343   3.936
 4886SOL     OW26536   3.371   3.509  17.621
 4886SOL    HW126537   3.368   3.414  17.607
 4886SOL    HW226538   3.394   3.545  17.536
 4887SOL     OW26539   1.819   1.552   5.626
 4887SOL    HW126540   1.864   1.469   5.610
 4887SOL    HW226541   1.810   1.556   5.722
 4888SOL     OW26542   4.136   4.115   4.682
 4888SOL    HW126543   4.157   4.189   4.625
 4888SOL    HW226544   4.092   4.154   4.757
 4889SOL     OW26545   4.450   2.456  17.998
 4889SOL    HW126546   4.484   2.394  18.063
 4889SOL    HW226547   4.453   2.541  18.042
 4890SOL     OW26548   2.570   1.934  20.122
 4890SOL    HW126549   2.486   1.889  20.136
 4890SOL    HW226550   2.615   1.883  20.055
 4891SOL     OW26551   3.729   1.841   6.157
 4891SOL    HW126552   3.798   1.829   6.092
 4891SOL    HW226553   3.653   1.869   6.107
 4892SOL     OW26554   1.918   3.956  16.907
 4892SOL    HW126555   1.946   4.027  16.965
 4892SOL    HW226556   1.890   4.000  16.826
 4893SOL     OW26557   2.808   4.374   2.214
 4893SOL    HW126558   2.857   4.450   2.247
 4893SOL    HW226559   2.833   4.302   2.272
 4894SOL     OW26560   0.688   1.331  18.553
 4894SOL    HW126561   0.638   1.404  18.517
 4894SOL    HW226562   0.772   1.369  18.578
 4895SOL     OW26563   0.769   1.042   0.217
 4895SOL    HW126564   0.827   1.119   0.215
 4895SOL    HW226565   0.807   0.983   0.152
 4896SOL     OW26566   3.993   3.503  15.152
 4896SOL    HW126567   3.956   3.416  15.164
 4896SOL    HW226568   3.919   3.563  15.168
 4897SOL     OW26569   4.608   2.138  20.440
 4897SOL    HW126570   4.554   2.065  20.407
 4897SOL    HW226571   4.693   2.098  20.456
 4898SOL     OW26572   0.141   1.483  15.748
 4898SOL    HW126573   0.212   1.433  15.788
 4898SOL    HW226574   0.175   1.572  15.741
 4899SOL     OW26575   2.033   4.698  18.493
 4899SOL    HW126576   2.107   4.644  18.523
 4899SOL    HW226577   2.011   4.663  18.407
 4900SOL     OW26578   2.308   3.027  19.055
 4900SOL    HW126579   2.246   2.977  19.109
 4900SOL    HW226580   2.371   3.063  19.117
 4901SOL     OW26581   1.312   4.338  15.867
 4901SOL    HW126582   1.310   4.300  15.779
 4901SOL    HW226583   1.327   4.263  15.925
 4902SOL     OW26584   2.631   3.710   6.068
 4902SOL    HW126585   2.718   3.674   6.082
 4902SOL    HW226586   2.587   3.699   6.153
 4903SOL     OW26587   1.726   2.432  17.896
 4903SOL    HW126588   1.803   2.461  17.846
 4903SOL    HW226589   1.756   2.435  17.988
 4904SOL     OW26590   1.479   1.662   2.095
 4904SOL    HW126591   1.467   1.569   2.116
 4904SOL    HW226592   1.471   1.666   2.000
 4905SOL     OW26593   4.389   2.960  19.435
 4905SOL    HW126594   4.378   2.893  19.502
 4905SOL    HW226595   4.436   2.916  19.364
 4906SOL     OW26596   2.211   2.178   5.061
 4906SOL    HW126597   2.276   2.214   5.001
 4906SOL    HW226598   2.227   2.223   5.144
 4907SOL     OW26599   1.700   1.894  19.617
 4907SOL    HW126600   1.685   1.964  19.552
 4907SOL    HW226601   1.618   1.890  19.666
 4908SOL     OW26602   1.887   3.817  18.948
 4908SOL    HW126603   1.911   3.871  18.872
 4908SOL    HW226604   1.883   3.728  18.914
 4909SOL     OW26605   4.168   1.491   3.825
 4909SOL    HW126606   4.138   1.522   3.910
 4909SOL    HW226607   4.089   1.458   3.782
 4910SOL     OW26608   1.118   4.540  13.471
 4910SOL    HW126609   1.134   4.452  13.438
 4910SOL    HW226610   1.198   4.588  13.452
 4911SOL     OW26611   2.856   1.045  18.921
 4911SOL    HW126612   2.815   1.122  18.961
 4911SOL    HW226613   2.938   1.077  18.885
 4912SOL     OW26614   4.090   4.578   0.631
 4912SOL    HW126615   4.062   4.629   0.555
 4912SOL    HW226616   4.014   4.526   0.654
 4913SOL     OW26617   4.481   2.693  19.863
 4913SOL    HW126618   4.563   2.735  19.889
 4913SOL    HW226619   4.413   2.741  19.911
 4914SOL     OW26620   2.916   2.934   1.460
 4914SOL    HW126621   2.875   2.988   1.393
 4914SOL    HW226622   3.001   2.911   1.424
 4915SOL     OW26623   4.573   3.535   3.500
 4915SOL    HW126624   4.554   3.576   3.415
 4915SOL    HW226625   4.494   3.551   3.552
 4916SOL     OW26626   4.136   1.863   6.169
 4916SOL    HW126627   4.135   1.785   6.224
 4916SOL    HW226628   4.083   1.927   6.216
 4917SOL     OW26629   1.364   1.674  18.212
 4917SOL    HW126630   1.431   1.699  18.149
 4917SOL    HW226631   1.356   1.750  18.270
 4918SOL     OW26632   0.946   2.987  17.183
 4918SOL    HW126633   0.876   3.014  17.242
 4918SOL    HW226634   0.961   3.062  17.126
 4919SOL     OW26635   1.047   0.516  13.806
 4919SOL    HW126636   1.032   0.610  13.808
 4919SOL    HW226637   1.140   0.505  13.828
 4920SOL     OW26638   1.420   2.312   3.538
 4920SOL    HW126639   1.386   2.223   3.524
 4920SOL    HW226640   1.515   2.302   3.533
 4921SOL     OW26641   4.686   0.097   6.023
 4921SOL    HW126642   4.666   0.112   5.930
 4921SOL    HW226643   4.658   0.007   6.038
 4922SOL     OW26644   4.417   1.774  19.764
 4922SOL    HW126645   4.449   1.707  19.824
 4922SOL    HW226646   4.373   1.725  19.694
 4923SOL     OW26647   2.323   0.020  16.100
 4923SOL    HW126648   2.292   4.735  16.056
 4923SOL    HW226649   2.244   0.072  16.116
 4924SOL     OW26650   2.154   3.068  20.555
 4924SOL    HW126651   2.233   3.092  20.507
 4924SOL    HW226652   2.106   3.151  20.564
 4925SOL     OW26653   0.878   1.810  15.981
 4925SOL    HW126654   0.954   1.758  15.953
 4925SOL    HW226655   0.903   1.844  16.067
 4926SOL     OW26656   4.602   0.946  18.965
 4926SOL    HW126657   4.638   0.896  18.892
 4926SOL    HW226658   4.677   0.962  19.022
 4927SOL     OW26659   4.311   1.570  20.106
 4927SOL    HW126660   4.321   1.607  20.194
 4927SOL    HW226661   4.244   1.624  20.065
 4928SOL     OW26662   1.127   4.450  18.139
 4928SOL    HW126663   1.038   4.443  18.175
 4928SOL    HW226664   1.172   4.373  18.172
 4929SOL     OW26665   0.611   1.321  18.822
 4929SOL    HW126666   0.707   1.315  18.824
 4929SOL    HW226667   0.589   1.317  18.729
 4930SOL     OW26668   3.433   4.095   6.121
 4930SOL    HW126669   3.427   4.173   6.176
 4930SOL    HW226670   3.377   4.114   6.045
 4931SOL     OW26671   1.976   4.187   1.517
 4931SOL    HW126672   2.066   4.210   1.541
 4931SOL    HW226673   1.924   4.263   1.543
 4932SOL     OW26674   4.039   1.641   2.982
 4932SOL    HW126675   3.974   1.711   2.984
 4932SOL    HW226676   3.989   1.563   2.957
 4933SOL     OW26677   0.196   2.198  14.512
 4933SOL    HW126678   0.237   2.243  14.586
 4933SOL    HW226679   0.116   2.160  14.549
 4934SOL     OW26680   4.711   0.137  21.159
 4934SOL    HW126681   4.627   0.091  21.158
 4934SOL    HW226682   4.746   0.124  21.071
 4935SOL     OW26683   4.008   3.565   2.364
 4935SOL    HW126684   3.999   3.530   2.275
 4935SOL    HW226685   3.959   3.504   2.419
 4936SOL     OW26686   4.226   1.110   1.330
 4936SOL    HW126687   4.186   1.055   1.398
 4936SOL    HW226688   4.314   1.074   1.319
 4937SOL     OW26689   0.596   0.472   3.483
 4937SOL    HW126690   0.512   0.496   3.445
 4937SOL    HW226691   0.574   0.436   3.569
 4938SOL     OW26692   2.687   3.062   0.381
 4938SOL    HW126693   2.621   3.093   0.319
 4938SOL    HW226694   2.721   3.141   0.422
 4939SOL     OW26695   0.505   1.072   6.382
 4939SOL    HW126696   0.580   1.019   6.410
 4939SOL    HW226697   0.439   1.058   6.450
 4940SOL     OW26698   3.693   0.429   3.505
 4940SOL    HW126699   3.600   0.426   3.486
 4940SOL    HW226700   3.735   0.438   3.419
 4941SOL     OW26701   3.909   2.531  18.983
 4941SOL    HW126702   4.003   2.548  18.988
 4941SOL    HW226703   3.870   2.619  18.986
 4942SOL     OW26704   4.016   0.264   7.701
 4942SOL    HW126705   4.109   0.286   7.692
 4942SOL    HW226706   4.013   0.169   7.695
 4943SOL     OW26707   2.494   0.607  18.175
 4943SOL    HW126708   2.573   0.613  18.121
 4943SOL    HW226709   2.463   0.697  18.183
 4944SOL     OW26710   0.258   0.989   3.777
 4944SOL    HW126711   0.294   0.911   3.819
 4944SOL    HW226712   0.311   1.001   3.698
 4945SOL     OW26713   2.156   1.324  21.044
 4945SOL    HW126714   2.099   1.299  21.117
 4945SOL    HW226715   2.201   1.403  21.075
 4946SOL     OW26716   0.769   1.699  21.245
 4946SOL    HW126717   0.802   1.638  21.179
 4946SOL    HW226718   0.676   1.706  21.227
 4947SOL     OW26719   0.049   1.502   3.203
 4947SOL    HW126720   0.015   1.453   3.128
 4947SOL    HW226721   4.781   1.575   3.214
 4948SOL     OW26722   3.545   3.961   3.126
 4948SOL    HW126723   3.551   3.872   3.092
 4948SOL    HW226724   3.630   4.001   3.104
 4949SOL     OW26725   2.581   4.151   0.817
 4949SOL    HW126726   2.591   4.151   0.722
 4949SOL    HW226727   2.623   4.232   0.846
 4950SOL     OW26728   2.666   0.806  16.370
 4950SOL    HW126729   2.647   0.800  16.276
 4950SOL    HW226730   2.591   0.854  16.406
 4951SOL     OW26731   1.718   0.801   7.905
 4951SOL    HW126732   1.750   0.803   7.815
 4951SOL    HW226733   1.645   0.739   7.903
 4952SOL     OW26734   1.165   1.871   3.936
 4952SOL    HW126735   1.238   1.820   3.970
 4952SOL    HW226736   1.165   1.855   3.842
 4953SOL     OW26737   4.704   4.496   3.295
 4953SOL    HW126738   4.639   4.446   3.246
 4953SOL    HW226739   4.759   4.430   3.337
 4954SOL     OW26740   3.534   3.701  16.359
 4954SOL    HW126741   3.602   3.678  16.422
 4954SOL    HW226742   3.457   3.718  16.414
 4955SOL     OW26743   3.497   4.639  19.944
 4955SOL    HW126744   3.523   4.722  19.984
 4955SOL    HW226745   3.552   4.574  19.987
 4956SOL     OW26746   4.294   1.693   4.411
 4956SOL    HW126747   4.318   1.644   4.490
 4956SOL    HW226748   4.247   1.630   4.357
 4957SOL     OW26749   1.389   0.587  17.871
 4957SOL    HW126750   1.441   0.599  17.951
 4957SOL    HW226751   1.439   0.634  17.804
 4958SOL     OW26752   2.480   4.207  19.702
 4958SOL    HW126753   2.405   4.218  19.644
 4958SOL    HW226754   2.503   4.296  19.729
 4959SOL     OW26755   2.780   0.556   0.346
 4959SOL    HW126756   2.838   0.501   0.294
 4959SOL    HW226757   2.830   0.574   0.426
 4960SOL     OW26758   0.311   0.134   1.524
 4960SOL    HW126759   0.401   0.158   1.548
 4960SOL    HW226760   0.257   0.196   1.572
 4961SOL     OW26761   2.281   1.951   6.430
 4961SOL    HW126762   2.348   1.989   6.488
 4961SOL    HW226763   2.217   1.914   6.490
 4962SOL     OW26764   4.735   0.300   8.526
 4962SOL    HW126765   4.668   0.236   8.498
 4962SOL    HW226766   4.774   0.330   8.444
 4963SOL     OW26767   2.721   4.763   4.226
 4963SOL    HW126768   2.783   0.041   4.237
 4963SOL    HW226769   2.635   0.012   4.229
 4964SOL     OW26770   1.181   2.102  19.287
 4964SOL    HW126771   1.125   2.115  19.364
 4964SOL    HW226772   1.119   2.092  19.214
 4965SOL     OW26773   2.873   1.117   2.352
 4965SOL    HW126774   2.930   1.040   2.351
 4965SOL    HW226775   2.926   1.184   2.395
 4966SOL     OW26776   2.409   2.323   4.917
 4966SOL    HW126777   2.488   2.270   4.917
 4966SOL    HW226778   2.440   2.412   4.936
 4967SOL     OW26779   3.521   1.547   7.102
 4967SOL    HW126780   3.589   1.481   7.115
 4967SOL    HW226781   3.532   1.577   7.012
 4968SOL     OW26782   2.894   2.768   4.144
 4968SOL    HW126783   2.844   2.715   4.082
 4968SOL    HW226784   2.854   2.855   4.140
 4969SOL     OW26785   1.628   2.223   4.866
 4969SOL    HW126786   1.656   2.143   4.911
 4969SOL    HW226787   1.533   2.226   4.879
 4970SOL     OW26788   3.671   1.519  14.959
 4970SOL    HW126789   3.711   1.573  15.026
 4970SOL    HW226790   3.735   1.517  14.888
 4971SOL     OW26791   3.165   0.771  16.569
 4971SOL    HW126792   3.092   0.769  16.507
 4971SOL    HW226793   3.227   0.706  16.536
 4972SOL     OW26794   3.289   2.891  14.477
 4972SOL    HW126795   3.225   2.959  14.459
 4972SOL    HW226796   3.251   2.811  14.439
 4973SOL     OW26797   3.745   4.605   0.202
 4973SOL    HW126798   3.709   4.593   0.289
 4973SOL    HW226799   3.674   4.580   0.143
 4974SOL     OW26800   1.638   3.860   0.512
 4974SOL    HW126801   1.707   3.921   0.486
 4974SOL    HW226802   1.568   3.915   0.545
 4975SOL     OW26803   2.476   4.562  13.760
 4975SOL    HW126804   2.487   4.519  13.845
 4975SOL    HW226805   2.546   4.526  13.706
 4976SOL     OW26806   1.696   1.689  14.041
 4976SOL    HW126807   1.657   1.735  13.967
 4976SOL    HW226808   1.630   1.625  14.067
 4977SOL     OW26809   2.348   1.486   2.434
 4977SOL    HW126810   2.392   1.402   2.446
 4977SOL    HW226811   2.320   1.511   2.522
 4978SOL     OW26812   2.281   2.830   0.272
 4978SOL    HW126813   2.292   2.786   0.357
 4978SOL    HW226814   2.252   2.918   0.294
 4979SOL     OW26815   1.402   3.350   3.091
 4979SOL    HW126816   1.454   3.340   3.170
 4979SOL    HW226817   1.435   3.430   3.050
 4980SOL     OW26818   2.689   2.444   6.826
 4980SOL    HW126819   2.667   2.510   6.892
 4980SOL    HW226820   2.717   2.494   6.750
 4981SOL     OW26821   4.559   0.727  15.770
 4981SOL    HW126822   4.615   0.692  15.839
 4981SOL    HW226823   4.480   0.755  15.815
 4982SOL     OW26824   2.870   1.154  16.764
 4982SOL    HW126825   2.891   1.246  16.746
 4982SOL    HW226826   2.953   1.108  16.753
 4983SOL     OW26827   2.725   4.359   0.943
 4983SOL    HW126828   2.686   4.433   0.989
 4983SOL    HW226829   2.762   4.304   1.012
 4984SOL     OW26830   1.732   4.778   0.790
 4984SOL    HW126831   1.700   4.766   0.701
 4984SOL    HW226832   1.786   0.063   0.786
 4985SOL     OW26833   4.691   4.593   1.443
 4985SOL    HW126834   4.723   4.677   1.476
 4985SOL    HW226835   4.598   4.608   1.426
 4986SOL     OW26836   0.243   1.039   5.699
 4986SOL    HW126837   0.319   1.020   5.645
 4986SOL    HW226838   0.175   0.979   5.668
 4987SOL     OW26839   3.517   1.080   3.474
 4987SOL    HW126840   3.510   1.049   3.384
 4987SOL    HW226841   3.518   1.001   3.527
 4988SOL     OW26842   0.924   0.555  15.826
 4988SOL    HW126843   0.938   0.563  15.921
 4988SOL    HW226844   0.966   0.473  15.802
 4989SOL     OW26845   4.147   1.045  21.160
 4989SOL    HW126846   4.131   0.987  21.234
 4989SOL    HW226847   4.190   1.121  21.199
 4990SOL     OW26848   0.429   4.788  14.000
 4990SOL    HW126849   0.381   0.012  13.919
 4990SOL    HW226850   0.508   4.740  13.971
 4991SOL     OW26851   3.784   2.555  17.272
 4991SOL    HW126852   3.807   2.567  17.180
 4991SOL    HW226853   3.864   2.525  17.314
 4992SOL     OW26854   0.624   3.406  16.047
 4992SOL    HW126855   0.668   3.328  16.079
 4992SOL    HW226856   0.686   3.478  16.063
 4993SOL     OW26857   4.279   3.154   7.392
 4993SOL    HW126858   4.277   3.186   7.302
 4993SOL    HW226859   4.316   3.066   7.385
 4994SOL     OW26860   1.257   4.526  20.844
 4994SOL    HW126861   1.196   4.539  20.916
 4994SOL    HW226862   1.240   4.437  20.813
 4995SOL     OW26863   2.469   0.535  17.011
 4995SOL    HW126864   2.509   0.559  16.928
 4995SOL    HW226865   2.480   0.612  17.067
 4996SOL     OW26866   2.855   1.583   7.832
 4996SOL    HW126867   2.853   1.620   7.920
 4996SOL    HW226868   2.946   1.559   7.817
 4997SOL     OW26869   4.073   0.530   4.401
 4997SOL    HW126870   4.063   0.489   4.487
 4997SOL    HW226871   3.984   0.550   4.373
 4998SOL     OW26872   2.733   3.720  17.283
 4998SOL    HW126873   2.692   3.790  17.232
 4998SOL    HW226874   2.773   3.764  17.358
 4999SOL     OW26875   3.812   2.590   7.732
 4999SOL    HW126876   3.878   2.528   7.699
 4999SOL    HW226877   3.838   2.605   7.823
 5000SOL     OW26878   1.168   4.088   4.407
 5000SOL    HW126879   1.125   4.025   4.350
 5000SOL    HW226880   1.149   4.057   4.496
 5001SOL     OW26881   1.721   1.472  20.259
 5001SOL    HW126882   1.752   1.414  20.328
 5001SOL    HW226883   1.801   1.512  20.224
 5002SOL     OW26884   1.594   2.662   2.450
 5002SOL    HW126885   1.501   2.651   2.430
 5002SOL    HW226886   1.621   2.736   2.395
 5003SOL     OW26887   3.513   0.792   5.408
 5003SOL    HW126888   3.457   0.764   5.480
 5003SOL    HW226889   3.461   0.857   5.361
 5004SOL     OW26890   1.924   0.622  15.409
 5004SOL    HW126891   1.933   0.709  15.370
 5004SOL    HW226892   1.845   0.626  15.461
 5005SOL     OW26893   1.057   4.081  19.603
 5005SOL    HW126894   1.088   4.126  19.525
 5005SOL    HW226895   1.118   4.108  19.672
 5006SOL     OW26896   4.674   4.146  19.653
 5006SOL    HW126897   4.633   4.231  19.637
 5006SOL    HW226898   4.644   4.121  19.740
 5007SOL     OW26899   0.598   3.774  16.959
 5007SOL    HW126900   0.609   3.869  16.959
 5007SOL    HW226901   0.673   3.742  17.010
 5008SOL     OW26902   1.943   2.510   5.095
 5008SOL    HW126903   2.001   2.455   5.042
 5008SOL    HW226904   1.869   2.452   5.115
 5009SOL     OW26905   2.630   1.625   2.608
 5009SOL    HW126906   2.538   1.645   2.626
 5009SOL    HW226907   2.636   1.530   2.613
 5010SOL     OW26908   2.119   2.500  14.615
 5010SOL    HW126909   2.053   2.553  14.571
 5010SOL    HW226910   2.202   2.546  14.598
 5011SOL     OW26911   2.770   3.830  17.632
 5011SOL    HW126912   2.780   3.847  17.726
 5011SOL    HW226913   2.783   3.736  17.624
 5012SOL     OW26914   1.157   4.226   2.474
 5012SOL    HW126915   1.144   4.144   2.428
 5012SOL    HW226916   1.100   4.289   2.430
 5013SOL     OW26917   0.917   1.264   2.553
 5013SOL    HW126918   0.985   1.330   2.538
 5013SOL    HW226919   0.858   1.273   2.479
 5014SOL     OW26920   4.375   0.555  19.101
 5014SOL    HW126921   4.355   0.492  19.171
 5014SOL    HW226922   4.470   0.567  19.105
 5015SOL     OW26923   3.971   0.740  21.013
 5015SOL    HW126924   3.902   0.729  21.078
 5015SOL    HW226925   4.050   0.706  21.056
 5016SOL     OW26926   4.413   1.835   6.163
 5016SOL    HW126927   4.326   1.860   6.133
 5016SOL    HW226928   4.406   1.831   6.258
 5017SOL     OW26929   0.223   3.640  20.132
 5017SOL    HW126930   0.131   3.616  20.144
 5017SOL    HW226931   0.231   3.725  20.175
 5018SOL     OW26932   1.499   1.926   6.634
 5018SOL    HW126933   1.480   1.847   6.685
 5018SOL    HW226934   1.519   1.992   6.699
 5019SOL     OW26935   1.978   3.923  15.478
 5019SOL    HW126936   2.012   3.840  15.511
 5019SOL    HW226937   1.887   3.904  15.455
 5020SOL     OW26938   4.150   3.999  16.196
 5020SOL    HW126939   4.062   4.030  16.175
 5020SOL    HW226940   4.135   3.918  16.244
 5021SOL     OW26941   4.436   3.425   1.700
 5021SOL    HW126942   4.341   3.414   1.701
 5021SOL    HW226943   4.449   3.520   1.709
 5022SOL     OW26944   0.684   3.797   3.078
 5022SOL    HW126945   0.668   3.860   3.008
 5022SOL    HW226946   0.606   3.803   3.134
 5023SOL     OW26947   0.725   1.335  16.959
 5023SOL    HW126948   0.752   1.344  17.050
 5023SOL    HW226949   0.630   1.322  16.963
 5024SOL     OW26950   1.618   0.966   3.667
 5024SOL    HW126951   1.526   0.955   3.643
 5024SOL    HW226952   1.654   0.878   3.667
 5025SOL     OW26953   3.429   4.572  18.871
 5025SOL    HW126954   3.462   4.662  18.877
 5025SOL    HW226955   3.501   4.522  18.833
 5026SOL     OW26956   4.477   1.715  20.801
 5026SOL    HW126957   4.386   1.747  20.796
 5026SOL    HW226958   4.475   1.631  20.756
 5027SOL     OW26959   0.812   3.516  17.531
 5027SOL    HW126960   0.869   3.580  17.574
 5027SOL    HW226961   0.760   3.478  17.602
 5028SOL     OW26962   3.979   1.768  20.258
 5028SOL    HW126963   3.887   1.796  20.259
 5028SOL    HW226964   3.976   1.675  20.281
 5029SOL     OW26965   2.213   0.901  14.141
 5029SOL    HW126966   2.265   0.822  14.155
 5029SOL    HW226967   2.254   0.966  14.198
 5030SOL     OW26968   2.736   3.098  18.511
 5030SOL    HW126969   2.813   3.091  18.455
 5030SOL    HW226970   2.727   3.011  18.551
 5031SOL     OW26971   4.428   3.407   4.793
 5031SOL    HW126972   4.422   3.336   4.857
 5031SOL    HW226973   4.502   3.383   4.737
 5032SOL     OW26974   2.725   3.161  19.042
 5032SOL    HW126975   2.699   3.242  19.086
 5032SOL    HW226976   2.742   3.099  19.113
 5033SOL     OW26977   3.197   1.301  21.213
 5033SOL    HW126978   3.225   1.277  21.125
 5033SOL    HW226979   3.178   1.217  21.256
 5034SOL     OW26980   0.599   1.501   0.111
 5034SOL    HW126981   0.566   1.591   0.109
 5034SOL    HW226982   0.595   1.472   0.020
 5035SOL     OW26983   1.636   0.391  20.098
 5035SOL    HW126984   1.545   0.397  20.069
 5035SOL    HW226985   1.638   0.315  20.156
 5036SOL     OW26986   0.204   4.174  13.955
 5036SOL    HW126987   0.253   4.178  13.873
 5036SOL    HW226988   0.115   4.150  13.929
 5037SOL     OW26989   3.284   4.415   5.982
 5037SOL    HW126990   3.259   4.323   5.979
 5037SOL    HW226991   3.251   4.446   6.067
 5038SOL     OW26992   2.768   0.030   6.087
 5038SOL    HW126993   2.858   0.009   6.110
 5038SOL    HW226994   2.729   0.064   6.168
 5039SOL     OW26995   3.544   2.475  14.876
 5039SOL    HW126996   3.620   2.531  14.859
 5039SOL    HW226997   3.555   2.402  14.814
 5040SOL     OW26998   2.862   2.975  19.215
 5040SOL    HW126999   2.809   2.895  19.210
 5040SOL    HW227000   2.952   2.944  19.208
 5041SOL     OW27001   1.559   3.409  20.381
 5041SOL    HW127002   1.498   3.448  20.444
 5041SOL    HW227003   1.502   3.360  20.321
 5042SOL     OW27004   0.135   0.583   5.768
 5042SOL    HW127005   0.136   0.589   5.672
 5042SOL    HW227006   0.193   0.652   5.797
 5043SOL     OW27007   0.210   4.030  18.114
 5043SOL    HW127008   0.153   3.982  18.054
 5043SOL    HW227009   0.155   4.046  18.191
 5044SOL     OW27010   0.863   4.707   4.967
 5044SOL    HW127011   0.780   4.735   5.006
 5044SOL    HW227012   0.896   4.785   4.922
 5045SOL     OW27013   2.389   0.040   1.064
 5045SOL    HW127014   2.470   4.783   1.079
 5045SOL    HW227015   2.332   4.773   1.016
 5046SOL     OW27016   2.560   3.237   5.787
 5046SOL    HW127017   2.484   3.279   5.828
 5046SOL    HW227018   2.626   3.307   5.782
 5047SOL     OW27019   4.659   3.344   7.736
 5047SOL    HW127020   4.639   3.332   7.829
 5047SOL    HW227021   4.682   3.256   7.705
 5048SOL     OW27022   1.193   3.456  19.899
 5048SOL    HW127023   1.128   3.449  19.830
 5048SOL    HW227024   1.176   3.380  19.956
 5049SOL     OW27025   1.335   2.617   3.907
 5049SOL    HW127026   1.249   2.621   3.866
 5049SOL    HW227027   1.344   2.526   3.937
 5050SOL     OW27028   1.639   0.522  15.263
 5050SOL    HW127029   1.711   0.582  15.246
 5050SOL    HW227030   1.679   0.436  15.265
 5051SOL     OW27031   3.369   0.917  14.441
 5051SOL    HW127032   3.316   0.993  14.465
 5051SOL    HW227033   3.457   0.951  14.429
 5052SOL     OW27034   2.105   0.123   8.946
 5052SOL    HW127035   2.079   0.072   9.022
 5052SOL    HW227036   2.145   0.202   8.981
 5053SOL     OW27037   3.266   3.901  12.212
 5053SOL    HW127038   3.277   3.912  12.117
 5053SOL    HW227039   3.355   3.892  12.246
 5054SOL     OW27040   1.373   1.936   1.569
 5054SOL    HW127041   1.451   1.888   1.596
 5054SOL    HW227042   1.380   1.941   1.474
 5055SOL     OW27043   2.770   1.699  13.685
 5055SOL    HW127044   2.759   1.682  13.591
 5055SOL    HW227045   2.798   1.615  13.721
 5056SOL     OW27046   1.464   3.010  16.149
 5056SOL    HW127047   1.438   2.922  16.122
 5056SOL    HW227048   1.500   2.999  16.237
 5057SOL     OW27049   2.875   1.762   5.167
 5057SOL    HW127050   2.841   1.751   5.078
 5057SOL    HW227051   2.822   1.832   5.204
 5058SOL     OW27052   2.829   1.331  19.774
 5058SOL    HW127053   2.907   1.386  19.775
 5058SOL    HW227054   2.822   1.298  19.864
 5059SOL     OW27055   3.321   1.356  20.229
 5059SOL    HW127056   3.313   1.278  20.174
 5059SOL    HW227057   3.379   1.330  20.300
 5060SOL     OW27058   3.890   3.017  15.488
 5060SOL    HW127059   3.796   3.011  15.476
 5060SOL    HW227060   3.924   2.934  15.455
 5061SOL     OW27061   4.418   4.056   4.814
 5061SOL    HW127062   4.333   4.023   4.784
 5061SOL    HW227063   4.407   4.151   4.814
 5062SOL     OW27064   2.225   1.364   5.463
 5062SOL    HW127065   2.309   1.323   5.441
 5062SOL    HW227066   2.167   1.338   5.392
 5063SOL     OW27067   0.696   4.032  15.165
 5063SOL    HW127068   0.670   3.940  15.169
 5063SOL    HW227069   0.684   4.057  15.074
 5064SOL     OW27070   3.899   3.925   1.350
 5064SOL    HW127071   3.972   3.866   1.333
 5064SOL    HW227072   3.842   3.915   1.273
 5065SOL     OW27073   1.040   2.604   4.219
 5065SOL    HW127074   1.011   2.623   4.309
 5065SOL    HW227075   1.010   2.679   4.168
 5066SOL     OW27076   0.988   1.758  12.920
 5066SOL    HW127077   0.956   1.828  12.863
 5066SOL    HW227078   1.081   1.776  12.931
 5067SOL     OW27079   3.592   3.310   3.127
 5067SOL    HW127080   3.578   3.335   3.218
 5067SOL    HW227081   3.659   3.371   3.095
 5068SOL     OW27082   0.880   4.428  13.890
 5068SOL    HW127083   0.868   4.433  13.795
 5068SOL    HW227084   0.803   4.471  13.926
 5069SOL     OW27085   4.389   1.425   6.799
 5069SOL    HW127086   4.341   1.353   6.759
 5069SOL    HW227087   4.472   1.428   6.753
 5070SOL     OW27088   3.980   3.475  20.367
 5070SOL    HW127089   3.973   3.480  20.462
 5070SOL    HW227090   4.014   3.387  20.351
 5071SOL     OW27091   2.550   4.366   5.132
 5071SOL    HW127092   2.531   4.279   5.098
 5071SOL    HW227093   2.586   4.414   5.057
 5072SOL     OW27094   0.531   4.197   6.599
 5072SOL    HW127095   0.609   4.176   6.548
 5072SOL    HW227096   0.524   4.292   6.596
 5073SOL     OW27097   3.448   1.420   0.274
 5073SOL    HW127098   3.387   1.403   0.345
 5073SOL    HW227099   3.393   1.453   0.203
 5074SOL     OW27100   3.875   2.569   3.429
 5074SOL    HW127101   3.881   2.661   3.454
 5074SOL    HW227102   3.798   2.564   3.373
 5075SOL     OW27103   0.366   2.658  20.442
 5075SOL    HW127104   0.362   2.753  20.455
 5075SOL    HW227105   0.276   2.628  20.460
 5076SOL     OW27106   0.571   3.902  13.578
 5076SOL    HW127107   0.618   3.824  13.547
 5076SOL    HW227108   0.583   3.900  13.673
 5077SOL     OW27109   3.502   3.041  14.446
 5077SOL    HW127110   3.417   3.001  14.461
 5077SOL    HW227111   3.484   3.135  14.446
 5078SOL     OW27112   2.665   1.633  18.421
 5078SOL    HW127113   2.618   1.549  18.430
 5078SOL    HW227114   2.742   1.624  18.477
 5079SOL     OW27115   0.484   2.227  18.568
 5079SOL    HW127116   0.400   2.261  18.599
 5079SOL    HW227117   0.472   2.132  18.566
 5080SOL     OW27118   2.166   1.485   2.100
 5080SOL    HW127119   2.215   1.469   2.019
 5080SOL    HW227120   2.233   1.511   2.163
 5081SOL     OW27121   0.625   1.341   1.850
 5081SOL    HW127122   0.663   1.419   1.892
 5081SOL    HW227123   0.537   1.368   1.824
 5082SOL     OW27124   0.325   2.070  17.583
 5082SOL    HW127125   0.276   1.993  17.554
 5082SOL    HW227126   0.381   2.037  17.653
 5083SOL     OW27127   3.309   4.590   3.112
 5083SOL    HW127128   3.218   4.607   3.085
 5083SOL    HW227129   3.301   4.536   3.190
 5084SOL     OW27130   3.777   4.466  16.728
 5084SOL    HW127131   3.851   4.499  16.677
 5084SOL    HW227132   3.788   4.503  16.815
 5085SOL     OW27133   2.170   3.410   7.815
 5085SOL    HW127134   2.195   3.343   7.879
 5085SOL    HW227135   2.074   3.413   7.820
 5086SOL     OW27136   0.230   2.682  16.329
 5086SOL    HW127137   0.184   2.760  16.300
 5086SOL    HW227138   0.314   2.685  16.284
 5087SOL     OW27139   2.691   1.972   4.261
 5087SOL    HW127140   2.730   1.991   4.346
 5087SOL    HW227141   2.696   2.056   4.213
 5088SOL     OW27142   0.879   3.146   3.113
 5088SOL    HW127143   0.809   3.083   3.098
 5088SOL    HW227144   0.901   3.136   3.206
 5089SOL     OW27145   3.880   3.159  16.945
 5089SOL    HW127146   3.975   3.168  16.943
 5089SOL    HW227147   3.859   3.146  17.037
 5090SOL     OW27148   1.160   4.298  16.753
 5090SOL    HW127149   1.166   4.205  16.777
 5090SOL    HW227150   1.241   4.336  16.788
 5091SOL     OW27151   2.318   3.811  18.916
 5091SOL    HW127152   2.243   3.771  18.958
 5091SOL    HW227153   2.353   3.742  18.859
 5092SOL     OW27154   2.731   4.530   1.992
 5092SOL    HW127155   2.806   4.566   1.945
 5092SOL    HW227156   2.766   4.455   2.040
 5093SOL     OW27157   4.636   0.731  17.218
 5093SOL    HW127158   4.601   0.650  17.255
 5093SOL    HW227159   4.731   0.720  17.223
 5094SOL     OW27160   1.945   0.319  20.403
 5094SOL    HW127161   1.979   0.335  20.316
 5094SOL    HW227162   1.969   0.397  20.453
 5095SOL     OW27163   0.425   1.369  16.696
 5095SOL    HW127164   0.513   1.386  16.663
 5095SOL    HW227165   0.394   1.295  16.643
 5096SOL     OW27166   0.967   3.054  14.265
 5096SOL    HW127167   1.055   3.082  14.238
 5096SOL    HW227168   0.915   3.059  14.184
 5097SOL     OW27169   0.819   3.717  14.606
 5097SOL    HW127170   0.776   3.719  14.691
 5097SOL    HW227171   0.748   3.713  14.543
 5098SOL     OW27172   1.392   3.908  16.287
 5098SOL    HW127173   1.309   3.924  16.243
 5098SOL    HW227174   1.456   3.903  16.217
 5099SOL     OW27175   4.437   1.612   0.610
 5099SOL    HW127176   4.440   1.663   0.529
 5099SOL    HW227177   4.343   1.595   0.624
 5100SOL     OW27178   4.151   0.053  18.480
 5100SOL    HW127179   4.119   0.056  18.390
 5100SOL    HW227180   4.164   4.753  18.498
 5101SOL     OW27181   2.907   2.450   7.055
 5101SOL    HW127182   2.888   2.390   6.983
 5101SOL    HW227183   2.824   2.496   7.069
 5102SOL     OW27184   1.734   1.239   1.542
 5102SOL    HW127185   1.657   1.192   1.509
 5102SOL    HW227186   1.746   1.205   1.631
 5103SOL     OW27187   4.252   0.310   3.682
 5103SOL    HW127188   4.209   0.346   3.605
 5103SOL    HW227189   4.182   0.303   3.747
 5104SOL     OW27190   4.324   0.176   6.376
 5104SOL    HW127191   4.417   0.189   6.360
 5104SOL    HW227192   4.283   0.258   6.346
 5105SOL     OW27193   0.937   2.860   3.371
 5105SOL    HW127194   1.003   2.913   3.417
 5105SOL    HW227195   0.986   2.817   3.301
 5106SOL     OW27196   0.313   1.994  13.835
 5106SOL    HW127197   0.352   2.081  13.830
 5106SOL    HW227198   0.341   1.951  13.754
 5107SOL     OW27199   2.238   1.838  17.922
 5107SOL    HW127200   2.293   1.892  17.865
 5107SOL    HW227201   2.158   1.824  17.871
 5108SOL     OW27202   2.408   3.770   2.674
 5108SOL    HW127203   2.352   3.847   2.668
 5108SOL    HW227204   2.497   3.804   2.660
 5109SOL     OW27205   4.267   2.473   1.747
 5109SOL    HW127206   4.181   2.501   1.718
 5109SOL    HW227207   4.310   2.553   1.776
 5110SOL     OW27208   0.113   3.328   4.703
 5110SOL    HW127209   0.166   3.267   4.650
 5110SOL    HW227210   0.174   3.395   4.732
 5111SOL     OW27211   2.006   3.909   3.963
 5111SOL    HW127212   1.985   3.817   3.980
 5111SOL    HW227213   1.976   3.955   4.041
 5112SOL     OW27214   0.942   3.579   0.626
 5112SOL    HW127215   0.893   3.537   0.555
 5112SOL    HW227216   0.949   3.511   0.693
 5113SOL     OW27217   2.851   1.330  18.937
 5113SOL    HW127218   2.933   1.355  18.981
 5113SOL    HW227219   2.789   1.399  18.962
 5114SOL     OW27220   3.897   1.132   0.674
 5114SOL    HW127221   3.879   1.224   0.655
 5114SOL    HW227222   3.988   1.131   0.702
 5115SOL     OW27223   4.208   2.339   0.266
 5115SOL    HW127224   4.191   2.298   0.181
 5115SOL    HW227225   4.122   2.372   0.294
 5116SOL     OW27226   2.969   3.668   4.209
 5116SOL    HW127227   2.952   3.591   4.263
 5116SOL    HW227228   2.889   3.677   4.156
 5117SOL     OW27229   2.686   3.170   2.600
 5117SOL    HW127230   2.729   3.135   2.678
 5117SOL    HW227231   2.622   3.233   2.633
 5118SOL     OW27232   3.687   3.781  17.310
 5118SOL    HW127233   3.656   3.850  17.370
 5118SOL    HW227234   3.636   3.704  17.334
 5119SOL     OW27235   1.014   0.544   5.698
 5119SOL    HW127236   0.983   0.490   5.770
 5119SOL    HW227237   1.104   0.568   5.722
 5120SOL     OW27238   3.791   2.107   4.732
 5120SOL    HW127239   3.820   2.072   4.816
 5120SOL    HW227240   3.702   2.073   4.722
 5121SOL     OW27241   2.295   1.822  15.679
 5121SOL    HW127242   2.350   1.815  15.601
 5121SOL    HW227243   2.214   1.777  15.655
 5122SOL     OW27244   3.403   4.710   1.531
 5122SOL    HW127245   3.423   0.004   1.496
 5122SOL    HW227246   3.477   4.690   1.588
 5123SOL     OW27247   4.564   4.657  21.088
 5123SOL    HW127248   4.560   4.595  21.161
 5123SOL    HW227249   4.473   4.674  21.066
 5124SOL     OW27250   4.506   0.041  14.708
 5124SOL    HW127251   4.452   0.068  14.783
 5124SOL    HW227252   4.445   0.035  14.635
 5125SOL     OW27253   1.149   0.125  17.126
 5125SOL    HW127254   1.168   0.056  17.189
 5125SOL    HW227255   1.206   0.106  17.051
 5126SOL     OW27256   3.617   2.550   0.755
 5126SOL    HW127257   3.670   2.550   0.675
 5126SOL    HW227258   3.534   2.590   0.729
 5127SOL     OW27259   0.733   0.289  15.944
 5127SOL    HW127260   0.799   0.358  15.948
 5127SOL    HW227261   0.692   0.299  15.858
 5128SOL     OW27262   4.016   0.605   5.563
 5128SOL    HW127263   4.097   0.555   5.553
 5128SOL    HW227264   4.042   0.683   5.612
 5129SOL     OW27265   3.814   2.619   5.573
 5129SOL    HW127266   3.757   2.552   5.535
 5129SOL    HW227267   3.755   2.693   5.590
 5130SOL     OW27268   4.357   4.319   4.853
 5130SOL    HW127269   4.360   4.368   4.772
 5130SOL    HW227270   4.439   4.339   4.897
 5131SOL     OW27271   3.794   4.410  21.262
 5131SOL    HW127272   3.737   4.390  21.188
 5131SOL    HW227273   3.882   4.410  21.225
 5132SOL     OW27274   2.115   2.251  18.510
 5132SOL    HW127275   2.088   2.258  18.601
 5132SOL    HW227276   2.211   2.251  18.514
 5133SOL     OW27277   3.392   2.469   6.147
 5133SOL    HW127278   3.360   2.457   6.237
 5133SOL    HW227279   3.353   2.396   6.098
 5134SOL     OW27280   3.997   4.589  16.565
 5134SOL    HW127281   3.963   4.678  16.555
 5134SOL    HW227282   4.053   4.576  16.488
 5135SOL     OW27283   3.878   2.856  19.771
 5135SOL    HW127284   3.876   2.766  19.740
 5135SOL    HW227285   3.900   2.908  19.694
 5136SOL     OW27286   2.337   0.680   0.257
 5136SOL    HW127287   2.333   0.776   0.260
 5136SOL    HW227288   2.246   0.654   0.242
 5137SOL     OW27289   3.758   1.476   1.689
 5137SOL    HW127290   3.792   1.445   1.605
 5137SOL    HW227291   3.810   1.431   1.755
 5138SOL     OW27292   3.238   1.219   7.025
 5138SOL    HW127293   3.180   1.170   7.083
 5138SOL    HW227294   3.191   1.222   6.941
 5139SOL     OW27295   1.764   1.658   6.505
 5139SOL    HW127296   1.725   1.600   6.571
 5139SOL    HW227297   1.694   1.720   6.484
 5140SOL     OW27298   3.213   4.645  19.131
 5140SOL    HW127299   3.282   4.588  19.164
 5140SOL    HW227300   3.224   4.727  19.179
 5141SOL     OW27301   1.654   3.643   0.337
 5141SOL    HW127302   1.646   3.564   0.391
 5141SOL    HW227303   1.672   3.713   0.401
 5142SOL     OW27304   4.542   2.143   4.471
 5142SOL    HW127305   4.477   2.162   4.538
 5142SOL    HW227306   4.583   2.227   4.452
 5143SOL     OW27307   2.930   1.931  14.290
 5143SOL    HW127308   2.970   2.018  14.290
 5143SOL    HW227309   2.872   1.931  14.365
 5144SOL     OW27310   3.023   1.784   1.562
 5144SOL    HW127311   3.117   1.768   1.553
 5144SOL    HW227312   2.997   1.733   1.638
 5145SOL     OW27313   4.293   4.677  19.584
 5145SOL    HW127314   4.373   4.625  19.585
 5145SOL    HW227315   4.235   4.630  19.524
 5146SOL     OW27316   1.446   4.206  11.175
 5146SOL    HW127317   1.361   4.205  11.131
 5146SOL    HW227318   1.425   4.211  11.268
 5147SOL     OW27319   1.131   1.625  17.924
 5147SOL    HW127320   1.153   1.543  17.880
 5147SOL    HW227321   1.214   1.674  17.924
 5148SOL     OW27322   4.479   3.815  17.671
 5148SOL    HW127323   4.383   3.806  17.676
 5148SOL    HW227324   4.509   3.730  17.639
 5149SOL     OW27325   4.188   2.578  20.023
 5149SOL    HW127326   4.209   2.561  19.932
 5149SOL    HW227327   4.143   2.663  20.022
 5150SOL     OW27328   4.354   0.808   5.672
 5150SOL    HW127329   4.414   0.772   5.738
 5150SOL    HW227330   4.324   0.732   5.623
 5151SOL     OW27331   4.065   2.315   4.078
 5151SOL    HW127332   4.084   2.311   4.172
 5151SOL    HW227333   4.142   2.358   4.040
 5152SOL     OW27334   4.593   4.491  14.996
 5152SOL    HW127335   4.620   4.583  14.998
 5152SOL    HW227336   4.662   4.444  15.044
 5153SOL     OW27337   0.700   3.159   7.936
 5153SOL    HW127338   0.701   3.140   7.842
 5153SOL    HW227339   0.788   3.137   7.966
 5154SOL     OW27340   2.345   3.135   8.768
 5154SOL    HW127341   2.398   3.100   8.839
 5154SOL    HW227342   2.409   3.172   8.707
 5155SOL     OW27343   1.302   0.154  16.551
 5155SOL    HW127344   1.323   0.060  16.552
 5155SOL    HW227345   1.373   0.195  16.600
 5156SOL     OW27346   0.744   2.692  20.542
 5156SOL    HW127347   0.658   2.663  20.571
 5156SOL    HW227348   0.765   2.766  20.600
 5157SOL     OW27349   1.716   2.646  20.991
 5157SOL    HW127350   1.726   2.593  20.911
 5157SOL    HW227351   1.643   2.605  21.037
 5158SOL     OW27352   1.049   1.660  12.280
 5158SOL    HW127353   1.061   1.749  12.247
 5158SOL    HW227354   1.058   1.604  12.203
 5159SOL     OW27355   4.064   2.962   6.252
 5159SOL    HW127356   4.031   2.886   6.301
 5159SOL    HW227357   4.040   3.037   6.305
 5160SOL     OW27358   2.691   1.952  20.958
 5160SOL    HW127359   2.685   1.901  21.039
 5160SOL    HW227360   2.683   1.887  20.888
 5161SOL     OW27361   1.610   2.501  18.186
 5161SOL    HW127362   1.516   2.501  18.202
 5161SOL    HW227363   1.647   2.455  18.262
 5162SOL     OW27364   1.780   0.108  21.228
 5162SOL    HW127365   1.725   0.040  21.189
 5162SOL    HW227366   1.797   0.078   0.044
 5163SOL     OW27367   2.153   0.961  16.396
 5163SOL    HW127368   2.160   0.956  16.301
 5163SOL    HW227369   2.094   1.034  16.412
 5164SOL     OW27370   0.054   2.932   0.852
 5164SOL    HW127371   4.791   2.933   0.929
 5164SOL    HW227372   0.067   2.839   0.833
 5165SOL     OW27373   2.147   0.209   0.350
 5165SOL    HW127374   2.192   0.140   0.399
 5165SOL    HW227375   2.217   0.262   0.312
 5166SOL     OW27376   2.926   2.681   0.804
 5166SOL    HW127377   2.956   2.772   0.806
 5166SOL    HW227378   2.831   2.688   0.801
 5167SOL     OW27379   2.545   3.193  16.286
 5167SOL    HW127380   2.599   3.116  16.299
 5167SOL    HW227381   2.602   3.256  16.242
 5168SOL     OW27382   3.149   3.446  18.136
 5168SOL    HW127383   3.125   3.524  18.186
 5168SOL    HW227384   3.193   3.479  18.058
 5169SOL     OW27385   2.762   1.246   8.029
 5169SOL    HW127386   2.704   1.293   7.970
 5169SOL    HW227387   2.782   1.309   8.098
 5170SOL     OW27388   2.400   3.971   6.475
 5170SOL    HW127389   2.468   3.982   6.408
 5170SOL    HW227390   2.421   4.038   6.541
 5171SOL     OW27391   1.301   1.886   2.173
 5171SOL    HW127392   1.274   1.879   2.264
 5171SOL    HW227393   1.343   1.802   2.153
 5172SOL     OW27394   4.084   0.415   2.203
 5172SOL    HW127395   4.034   0.344   2.162
 5172SOL    HW227396   4.173   0.403   2.171
 5173SOL     OW27397   2.821   2.490   6.596
 5173SOL    HW127398   2.846   2.540   6.518
 5173SOL    HW227399   2.844   2.400   6.576
 5174SOL     OW27400   1.159   4.323   5.025
 5174SOL    HW127401   1.169   4.378   5.103
 5174SOL    HW227402   1.107   4.377   4.965
 5175SOL     OW27403   2.474   3.912  20.114
 5175SOL    HW127404   2.386   3.951  20.109
 5175SOL    HW227405   2.487   3.873  20.028
 5176SOL     OW27406   2.691   0.837  20.627
 5176SOL    HW127407   2.692   0.753  20.674
 5176SOL    HW227408   2.753   0.892  20.675
 5177SOL     OW27409   0.228   2.697   0.340
 5177SOL    HW127410   0.288   2.771   0.323
 5177SOL    HW227411   0.141   2.734   0.327
 5178SOL     OW27412   4.687   1.804   0.136
 5178SOL    HW127413   4.615   1.751   0.101
 5178SOL    HW227414   4.759   1.742   0.147
 5179SOL     OW27415   4.482   1.732   6.811
 5179SOL    HW127416   4.444   1.644   6.803
 5179SOL    HW227417   4.567   1.718   6.852
 5180SOL     OW27418   0.277   3.896   1.852
 5180SOL    HW127419   0.283   3.868   1.760
 5180SOL    HW227420   0.299   3.817   1.902
 5181SOL     OW27421   0.065   0.271   5.603
 5181SOL    HW127422   0.135   0.254   5.666
 5181SOL    HW227423   0.032   0.185   5.579
 5182SOL     OW27424   4.469   2.876   0.256
 5182SOL    HW127425   4.417   2.954   0.277
 5182SOL    HW227426   4.500   2.845   0.341
 5183SOL     OW27427   0.316   1.492  12.170
 5183SOL    HW127428   0.272   1.577  12.167
 5183SOL    HW227429   0.293   1.457  12.256
 5184SOL     OW27430   0.881   0.410  11.088
 5184SOL    HW127431   0.917   0.418  11.000
 5184SOL    HW227432   0.924   0.480  11.137
 5185SOL     OW27433   3.805   2.316   6.250
 5185SOL    HW127434   3.772   2.377   6.183
 5185SOL    HW227435   3.786   2.361   6.333
 5186SOL     OW27436   3.913   2.270  21.061
 5186SOL    HW127437   3.837   2.266  21.119
 5186SOL    HW227438   3.922   2.180  21.028
 5187SOL     OW27439   4.304   1.331  14.977
 5187SOL    HW127440   4.217   1.323  15.016
 5187SOL    HW227441   4.365   1.317  15.050
 5188SOL     OW27442   1.020   1.499   0.407
 5188SOL    HW127443   0.995   1.565   0.343
 5188SOL    HW227444   1.098   1.457   0.370
 5189SOL     OW27445   2.852   0.093  19.595
 5189SOL    HW127446   2.820   0.007  19.623
 5189SOL    HW227447   2.855   0.145  19.675
 5190SOL     OW27448   2.267   3.189  18.834
 5190SOL    HW127449   2.286   3.113  18.889
 5190SOL    HW227450   2.172   3.201  18.841
 5191SOL     OW27451   1.541   2.096   7.096
 5191SOL    HW127452   1.522   2.020   7.151
 5191SOL    HW227453   1.461   2.148   7.097
 5192SOL     OW27454   3.707   2.843  11.998
 5192SOL    HW127455   3.701   2.778  11.928
 5192SOL    HW227456   3.692   2.927  11.955
 5193SOL     OW27457   1.855   3.110  20.278
 5193SOL    HW127458   1.909   3.050  20.328
 5193SOL    HW227459   1.916   3.156  20.220
 5194SOL     OW27460   1.405   0.341   6.106
 5194SOL    HW127461   1.338   0.273   6.119
 5194SOL    HW227462   1.469   0.324   6.174
 5195SOL     OW27463   4.732   1.265  21.057
 5195SOL    HW127464   4.789   1.323  21.006
 5195SOL    HW227465   4.707   1.317  21.133
 5196SOL     OW27466   1.172   2.817   4.894
 5196SOL    HW127467   1.142   2.768   4.971
 5196SOL    HW227468   1.183   2.907   4.926
 5197SOL     OW27469   0.911   2.965   4.252
 5197SOL    HW127470   0.893   2.917   4.171
 5197SOL    HW227471   0.960   3.042   4.223
 5198SOL     OW27472   0.054   3.588  15.432
 5198SOL    HW127473   0.110   3.511  15.425
 5198SOL    HW227474   4.771   3.558  15.481
 5199SOL     OW27475   2.099   1.313  15.852
 5199SOL    HW127476   2.180   1.262  15.854
 5199SOL    HW227477   2.091   1.349  15.940
 5200SOL     OW27478   2.986   4.441   3.952
 5200SOL    HW127479   3.015   4.350   3.942
 5200SOL    HW227480   2.892   4.434   3.970
 5201SOL     OW27481   0.645   2.338   1.016
 5201SOL    HW127482   0.711   2.376   1.075
 5201SOL    HW227483   0.577   2.405   1.010
 5202SOL     OW27484   4.748   1.363  18.311
 5202SOL    HW127485   4.700   1.290  18.273
 5202SOL    HW227486   4.773   1.417  18.236
 5203SOL     OW27487   3.000   4.277   2.439
 5203SOL    HW127488   3.052   4.198   2.423
 5203SOL    HW227489   2.970   4.268   2.529
 5204SOL     OW27490   0.406   1.157  21.008
 5204SOL    HW127491   0.483   1.127  20.960
 5204SOL    HW227492   0.343   1.085  21.000
 5205SOL     OW27493   3.032   1.732   8.013
 5205SOL    HW127494   3.082   1.731   8.095
 5205SOL    HW227495   3.055   1.650   7.970
 5206SOL     OW27496   4.312   4.405   7.976
 5206SOL    HW127497   4.400   4.427   7.946
 5206SOL    HW227498   4.324   4.368   8.064
 5207SOL     OW27499   2.686   2.693  19.943
 5207SOL    HW127500   2.612   2.730  19.896
 5207SOL    HW227501   2.763   2.736  19.905
 5208SOL     OW27502   0.995   1.566  16.700
 5208SOL    HW127503   0.962   1.565  16.610
 5208SOL    HW227504   0.930   1.616  16.749
 5209SOL     OW27505   0.752   4.769  19.663
 5209SOL    HW127506   0.815   0.042  19.691
 5209SOL    HW227507   0.803   4.689  19.657
 5210SOL     OW27508   4.792   3.009   4.420
 5210SOL    HW127509   0.083   3.044   4.393
 5210SOL    HW227510   4.732   3.035   4.350
 5211SOL     OW27511   0.186   1.226   3.006
 5211SOL    HW127512   0.163   1.196   3.094
 5211SOL    HW227513   0.103   1.256   2.969
 5212SOL     OW27514   3.109   1.945   3.719
 5212SOL    HW127515   3.175   1.912   3.779
 5212SOL    HW227516   3.039   1.977   3.776
 5213SOL     OW27517   2.807   2.448   0.902
 5213SOL    HW127518   2.791   2.403   0.819
 5213SOL    HW227519   2.881   2.507   0.883
 5214SOL     OW27520   3.725   4.566  16.985
 5214SOL    HW127521   3.701   4.492  17.041
 5214SOL    HW227522   3.762   4.630  17.045
 5215SOL     OW27523   3.288   0.275   2.922
 5215SOL    HW127524   3.200   0.246   2.945
 5215SOL    HW227525   3.293   0.365   2.954
 5216SOL     OW27526   2.628   4.608  17.222
 5216SOL    HW127527   2.584   4.686  17.187
 5216SOL    HW227528   2.720   4.619  17.196
 5217SOL     OW27529   4.356   2.832  20.738
 5217SOL    HW127530   4.345   2.842  20.832
 5217SOL    HW227531   4.446   2.802  20.727
 5218SOL     OW27532   0.524   3.573   4.411
 5218SOL    HW127533   0.537   3.638   4.342
 5218SOL    HW227534   0.589   3.505   4.393
 5219SOL     OW27535   2.754   4.295  13.744
 5219SOL    HW127536   2.784   4.293  13.835
 5219SOL    HW227537   2.727   4.205  13.726
 5220SOL     OW27538   0.154   2.559   0.604
 5220SOL    HW127539   0.139   2.464   0.605
 5220SOL    HW227540   0.206   2.575   0.526
 5221SOL     OW27541   0.298   3.617  14.849
 5221SOL    HW127542   0.335   3.698  14.883
 5221SOL    HW227543   0.215   3.606  14.897
 5222SOL     OW27544   3.895   0.635   1.613
 5222SOL    HW127545   3.983   0.603   1.592
 5222SOL    HW227546   3.876   0.599   1.699
 5223SOL     OW27547   4.062   2.015   1.699
 5223SOL    HW127548   4.025   1.937   1.659
 5223SOL    HW227549   4.095   1.985   1.784
 5224SOL     OW27550   1.474   4.357   3.425
 5224SOL    HW127551   1.451   4.374   3.517
 5224SOL    HW227552   1.463   4.442   3.382
 5225SOL     OW27553   4.076   0.459  16.913
 5225SOL    HW127554   4.063   0.475  17.006
 5225SOL    HW227555   4.157   0.506  16.892
 5226SOL     OW27556   1.676   0.081   1.129
 5226SOL    HW127557   1.683   0.017   1.058
 5226SOL    HW227558   1.627   0.154   1.090
 5227SOL     OW27559   4.761   1.921   1.989
 5227SOL    HW127560   4.738   1.855   1.923
 5227SOL    HW227561   0.053   1.954   1.960
 5228SOL     OW27562   3.358   4.137  14.953
 5228SOL    HW127563   3.374   4.161  15.044
 5228SOL    HW227564   3.337   4.044  14.956
 5229SOL     OW27565   2.565   2.249   6.140
 5229SOL    HW127566   2.548   2.293   6.057
 5229SOL    HW227567   2.483   2.204   6.160
 5230SOL     OW27568   1.709   0.704  18.700
 5230SOL    HW127569   1.641   0.652  18.742
 5230SOL    HW227570   1.780   0.708  18.765
 5231SOL     OW27571   4.590   2.871  20.200
 5231SOL    HW127572   4.585   2.793  20.256
 5231SOL    HW227573   4.684   2.890  20.195
 5232SOL     OW27574   2.098   4.162  15.532
 5232SOL    HW127575   2.058   4.075  15.534
 5232SOL    HW227576   2.030   4.218  15.494
 5233SOL     OW27577   1.967   4.442   4.760
 5233SOL    HW127578   2.047   4.391   4.766
 5233SOL    HW227579   1.918   4.420   4.839
 5234SOL     OW27580   3.833   3.969   4.829
 5234SOL    HW127581   3.854   3.890   4.879
 5234SOL    HW227582   3.912   4.022   4.835
 5235SOL     OW27583   1.542   0.653   5.140
 5235SOL    HW127584   1.583   0.727   5.096
 5235SOL    HW227585   1.494   0.693   5.213
 5236SOL     OW27586   4.110   2.765   2.802
 5236SOL    HW127587   4.024   2.806   2.799
 5236SOL    HW227588   4.137   2.773   2.894
 5237SOL     OW27589   1.484   0.500  18.799
 5237SOL    HW127590   1.491   0.515  18.704
 5237SOL    HW227591   1.559   0.443  18.819
 5238SOL     OW27592   2.149   4.612   0.417
 5238SOL    HW127593   2.172   4.599   0.325
 5238SOL    HW227594   2.231   4.637   0.459
 5239SOL     OW27595   1.688   2.752  14.282
 5239SOL    HW127596   1.727   2.675  14.241
 5239SOL    HW227597   1.688   2.818  14.213
 5240SOL     OW27598   0.150   0.173  18.856
 5240SOL    HW127599   0.093   0.215  18.791
 5240SOL    HW227600   0.236   0.213  18.842
 5241SOL     OW27601   2.886   3.399   1.042
 5241SOL    HW127602   2.919   3.487   1.025
 5241SOL    HW227603   2.815   3.388   0.979
 5242SOL     OW27604   1.590   0.686   9.580
 5242SOL    HW127605   1.647   0.646   9.513
 5242SOL    HW227606   1.530   0.616   9.605
 5243SOL     OW27607   0.576   1.554   4.240
 5243SOL    HW127608   0.599   1.465   4.265
 5243SOL    HW227609   0.660   1.599   4.231
 5244SOL     OW27610   3.273   2.160  15.158
 5244SOL    HW127611   3.239   2.236  15.111
 5244SOL    HW227612   3.197   2.127  15.207
 5245SOL     OW27613   2.443   4.764   5.882
 5245SOL    HW127614   2.497   4.687   5.901
 5245SOL    HW227615   2.506   0.041   5.869
 5246SOL     OW27616   3.066   1.430   0.553
 5246SOL    HW127617   3.043   1.510   0.599
 5246SOL    HW227618   2.983   1.400   0.515
 5247SOL     OW27619   2.996   4.331  18.366
 5247SOL    HW127620   3.068   4.288  18.320
 5247SOL    HW227621   3.005   4.424  18.345
 5248SOL     OW27622   4.582   3.926   1.328
 5248SOL    HW127623   4.514   3.927   1.261
 5248SOL    HW227624   4.615   4.016   1.331
 5249SOL     OW27625   3.612   2.384   2.915
 5249SOL    HW127626   3.575   2.448   2.854
 5249SOL    HW227627   3.631   2.307   2.861
 5250SOL     OW27628   1.457   2.794  19.620
 5250SOL    HW127629   1.413   2.729  19.566
 5250SOL    HW227630   1.386   2.849  19.654
 5251SOL     OW27631   3.879   3.086  16.618
 5251SOL    HW127632   3.959   3.098  16.669
 5251SOL    HW227633   3.819   3.152  16.654
 5252SOL     OW27634   0.453   2.620   4.279
 5252SOL    HW127635   0.493   2.637   4.194
 5252SOL    HW227636   0.419   2.531   4.272
 5253SOL     OW27637   2.147   0.080   0.733
 5253SOL    HW127638   2.238   0.098   0.754
 5253SOL    HW227639   2.097   0.132   0.796
 5254SOL     OW27640   3.955   3.149  15.798
 5254SOL    HW127641   4.021   3.096  15.753
 5254SOL    HW227642   3.971   3.238  15.768
 5255SOL     OW27643   4.791   1.853   7.887
 5255SOL    HW127644   0.016   1.913   7.814
 5255SOL    HW227645   0.084   1.824   7.916
 5256SOL     OW27646   3.696   0.351   5.155
 5256SOL    HW127647   3.636   0.424   5.146
 5256SOL    HW227648   3.721   0.351   5.247
 5257SOL     OW27649   0.840   4.657  16.279
 5257SOL    HW127650   0.846   4.561  16.278
 5257SOL    HW227651   0.803   4.679  16.194
 5258SOL     OW27652   1.885   4.759   1.983
 5258SOL    HW127653   1.967   4.722   2.016
 5258SOL    HW227654   1.857   0.026   2.051
 5259SOL     OW27655   0.647   0.849  12.589
 5259SOL    HW127656   0.675   0.928  12.543
 5259SOL    HW227657   0.706   0.781  12.557
 5260SOL     OW27658   3.466   0.440   7.181
 5260SOL    HW127659   3.499   0.510   7.124
 5260SOL    HW227660   3.374   0.462   7.195
 5261SOL     OW27661   2.097   0.121  13.536
 5261SOL    HW127662   2.147   0.170  13.471
 5261SOL    HW227663   2.107   0.171  13.617
 5262SOL     OW27664   1.711   3.482  15.507
 5262SOL    HW127665   1.653   3.552  15.479
 5262SOL    HW227666   1.689   3.468  15.599
 5263SOL     OW27667   2.666   3.894   2.020
 5263SOL    HW127668   2.671   3.971   1.963
 5263SOL    HW227669   2.605   3.835   1.976
 5264SOL     OW27670   1.416   1.217   5.482
 5264SOL    HW127671   1.481   1.242   5.416
 5264SOL    HW227672   1.464   1.162   5.544
 5265SOL     OW27673   0.724   3.911   3.988
 5265SOL    HW127674   0.644   3.965   3.987
 5265SOL    HW227675   0.787   3.964   4.036
 5266SOL     OW27676   2.961   3.130  17.041
 5266SOL    HW127677   2.998   3.154  17.126
 5266SOL    HW227678   2.932   3.039  17.053
 5267SOL     OW27679   3.455   0.617  15.898
 5267SOL    HW127680   3.462   0.522  15.883
 5267SOL    HW227681   3.454   0.625  15.993
 5268SOL     OW27682   2.172   4.710  17.981
 5268SOL    HW127683   2.215   4.750  17.905
 5268SOL    HW227684   2.098   4.661  17.944
 5269SOL     OW27685   1.002   0.970  18.990
 5269SOL    HW127686   0.981   0.903  18.925
 5269SOL    HW227687   1.098   0.977  18.988
 5270SOL     OW27688   2.873   1.308  20.206
 5270SOL    HW127689   2.826   1.268  20.279
 5270SOL    HW227690   2.902   1.393  20.239
 5271SOL     OW27691   3.582   3.888  20.684
 5271SOL    HW127692   3.662   3.922  20.643
 5271SOL    HW227693   3.555   3.958  20.744
 5272SOL     OW27694   3.459   2.731   2.276
 5272SOL    HW127695   3.444   2.792   2.204
 5272SOL    HW227696   3.526   2.671   2.243
 5273SOL     OW27697   2.946   3.206   6.234
 5273SOL    HW127698   3.003   3.282   6.218
 5273SOL    HW227699   2.862   3.244   6.259
 5274SOL     OW27700   3.929   2.531   6.909
 5274SOL    HW127701   3.901   2.568   6.993
 5274SOL    HW227702   3.912   2.601   6.846
 5275SOL     OW27703   2.790   0.741  14.950
 5275SOL    HW127704   2.743   0.763  14.869
 5275SOL    HW227705   2.801   0.825  14.994
 5276SOL     OW27706   1.473   1.497  16.529
 5276SOL    HW127707   1.395   1.551  16.516
 5276SOL    HW227708   1.532   1.523  16.458
 5277SOL     OW27709   0.606   1.607  19.031
 5277SOL    HW127710   0.566   1.522  19.048
 5277SOL    HW227711   0.561   1.667  19.091
 5278SOL     OW27712   1.746   1.226   3.600
 5278SOL    HW127713   1.816   1.198   3.540
 5278SOL    HW227714   1.681   1.157   3.595
 5279SOL     OW27715   3.067   2.787   5.917
 5279SOL    HW127716   3.029   2.817   5.999
 5279SOL    HW227717   3.143   2.735   5.944
 5280SOL     OW27718   2.813   1.823  19.388
 5280SOL    HW127719   2.831   1.744  19.439
 5280SOL    HW227720   2.877   1.821  19.316
 5281SOL     OW27721   0.755   2.075  12.112
 5281SOL    HW127722   0.779   2.069  12.020
 5281SOL    HW227723   0.663   2.051  12.115
 5282SOL     OW27724   1.682   0.092  17.091
 5282SOL    HW127725   1.766   0.138  17.085
 5282SOL    HW227726   1.647   0.118  17.177
 5283SOL     OW27727   3.294   1.996   5.799
 5283SOL    HW127728   3.234   1.936   5.755
 5283SOL    HW227729   3.286   1.974   5.892
 5284SOL     OW27730   0.345   2.193   2.871
 5284SOL    HW127731   0.336   2.140   2.792
 5284SOL    HW227732   0.367   2.280   2.839
 5285SOL     OW27733   2.589   4.355  18.543
 5285SOL    HW127734   2.512   4.363  18.487
 5285SOL    HW227735   2.553   4.344  18.631
 5286SOL     OW27736   1.061   1.957  17.495
 5286SOL    HW127737   1.138   1.902  17.478
 5286SOL    HW227738   1.000   1.935  17.425
 5287SOL     OW27739   2.675   0.185   2.893
 5287SOL    HW127740   2.691   0.194   2.987
 5287SOL    HW227741   2.757   0.212   2.852
 5288SOL     OW27742   0.287   3.566  13.805
 5288SOL    HW127743   0.243   3.650  13.793
 5288SOL    HW227744   0.328   3.572  13.892
 5289SOL     OW27745   0.526   0.162  19.011
 5289SOL    HW127746   0.615   0.161  19.047
 5289SOL    HW227747   0.536   0.196  18.922
 5290SOL     OW27748   4.401   4.583   1.380
 5290SOL    HW127749   4.351   4.625   1.449
 5290SOL    HW227750   4.344   4.513   1.348
 5291SOL     OW27751   3.265   3.778  15.473
 5291SOL    HW127752   3.268   3.750  15.564
 5291SOL    HW227753   3.198   3.847  15.470
 5292SOL     OW27754   0.784   0.192   6.541
 5292SOL    HW127755   0.853   0.173   6.477
 5292SOL    HW227756   0.831   0.233   6.614
 5293SOL     OW27757   4.220   0.303   4.674
 5293SOL    HW127758   4.267   0.352   4.741
 5293SOL    HW227759   4.270   0.320   4.593
 5294SOL     OW27760   1.834   0.315   1.278
 5294SOL    HW127761   1.843   0.375   1.204
 5294SOL    HW227762   1.796   0.236   1.240
 5295SOL     OW27763   1.860   3.584   5.822
 5295SOL    HW127764   1.822   3.547   5.902
 5295SOL    HW227765   1.951   3.605   5.846
 5296SOL     OW27766   1.531   4.698  19.855
 5296SOL    HW127767   1.616   4.741  19.861
 5296SOL    HW227768   1.498   4.697  19.945
 5297SOL     OW27769   2.416   0.617  18.470
 5297SOL    HW127770   2.334   0.574  18.447
 5297SOL    HW227771   2.448   0.654  18.388
 5298SOL     OW27772   1.653   0.803   4.957
 5298SOL    HW127773   1.699   0.721   4.940
 5298SOL    HW227774   1.610   0.823   4.874
 5299SOL     OW27775   1.593   3.057  20.147
 5299SOL    HW127776   1.615   3.033  20.056
 5299SOL    HW227777   1.678   3.069  20.189
 5300SOL     OW27778   4.656   2.278  19.693
 5300SOL    HW127779   4.671   2.371  19.676
 5300SOL    HW227780   4.591   2.253  19.627
 5301SOL     OW27781   0.848   4.171  20.059
 5301SOL    HW127782   0.883   4.113  20.126
 5301SOL    HW227783   0.765   4.132  20.034
 5302SOL     OW27784   2.386   1.898  13.687
 5302SOL    HW127785   2.298   1.923  13.715
 5302SOL    HW227786   2.443   1.965  13.724
 5303SOL     OW27787   2.900   3.850  18.749
 5303SOL    HW127788   2.974   3.857  18.809
 5303SOL    HW227789   2.931   3.891  18.668
 5304SOL     OW27790   3.233   3.450   1.229
 5304SOL    HW127791   3.155   3.454   1.174
 5304SOL    HW227792   3.221   3.520   1.293
 5305SOL     OW27793   1.069   0.571   6.016
 5305SOL    HW127794   1.161   0.581   6.044
 5305SOL    HW227795   1.056   0.477   6.008
 5306SOL     OW27796   4.038   1.679  19.635
 5306SOL    HW127797   4.068   1.589  19.631
 5306SOL    HW227798   3.942   1.672  19.638
 5307SOL     OW27799   4.592   4.329   5.025
 5307SOL    HW127800   4.658   4.386   5.063
 5307SOL    HW227801   4.641   4.274   4.963
 5308SOL     OW27802   4.528   2.980   3.564
 5308SOL    HW127803   4.570   3.065   3.572
 5308SOL    HW227804   4.589   2.919   3.607
 5309SOL     OW27805   0.291   1.395  14.872
 5309SOL    HW127806   0.245   1.370  14.792
 5309SOL    HW227807   0.238   1.464  14.910
 5310SOL     OW27808   0.359   2.116   9.666
 5310SOL    HW127809   0.398   2.162   9.592
 5310SOL    HW227810   0.328   2.033   9.630
 5311SOL     OW27811   1.939   1.306   5.636
 5311SOL    HW127812   1.957   1.215   5.616
 5311SOL    HW227813   2.025   1.346   5.650
 5312SOL     OW27814   0.030   4.407   4.721
 5312SOL    HW127815   0.116   4.447   4.736
 5312SOL    HW227816   0.028   4.332   4.780
 5313SOL     OW27817   3.887   3.490   1.662
 5313SOL    HW127818   3.847   3.575   1.681
 5313SOL    HW227819   3.863   3.473   1.571
 5314SOL     OW27820   3.967   4.201  16.850
 5314SOL    HW127821   3.995   4.171  16.937
 5314SOL    HW227822   3.872   4.213  16.858
 5315SOL     OW27823   4.630   1.264  17.113
 5315SOL    HW127824   4.722   1.289  17.122
 5315SOL    HW227825   4.633   1.180  17.067
 5316SOL     OW27826   0.709   3.958  19.587
 5316SOL    HW127827   0.781   3.900  19.612
 5316SOL    HW227828   0.725   4.038  19.637
 5317SOL     OW27829   4.075   4.784  19.283
 5317SOL    HW127830   4.157   0.033  19.258
 5317SOL    HW227831   4.035   0.053  19.344
 5318SOL     OW27832   3.066   0.697  12.771
 5318SOL    HW127833   3.005   0.651  12.829
 5318SOL    HW227834   3.020   0.701  12.687
 5319SOL     OW27835   4.032   4.165   3.408
 5319SOL    HW127836   4.078   4.090   3.371
 5319SOL    HW227837   4.003   4.136   3.494
 5320SOL     OW27838   0.456   2.048  15.654
 5320SOL    HW127839   0.507   2.089  15.584
 5320SOL    HW227840   0.519   2.030  15.723
 5321SOL     OW27841   2.285   0.038   5.676
 5321SOL    HW127842   2.271   0.090   5.755
 5321SOL    HW227843   2.325   4.749   5.707
 5322SOL     OW27844   4.383   4.434   8.524
 5322SOL    HW127845   4.422   4.390   8.599
 5322SOL    HW227846   4.392   4.371   8.452
 5323SOL     OW27847   3.989   2.537   0.996
 5323SOL    HW127848   3.959   2.481   1.068
 5323SOL    HW227849   3.923   2.605   0.990
 5324SOL     OW27850   1.426   1.585   7.109
 5324SOL    HW127851   1.407   1.573   7.202
 5324SOL    HW227852   1.462   1.501   7.080
 5325SOL     OW27853   3.153   4.559  14.067
 5325SOL    HW127854   3.128   4.634  14.012
 5325SOL    HW227855   3.069   4.525  14.099
 5326SOL     OW27856   4.642   1.737   0.778
 5326SOL    HW127857   4.576   1.698   0.721
 5326SOL    HW227858   4.591   1.794   0.837
 5327SOL     OW27859   4.103   1.558  18.668
 5327SOL    HW127860   4.152   1.487  18.625
 5327SOL    HW227861   4.040   1.513  18.725
 5328SOL     OW27862   2.643   1.065   1.225
 5328SOL    HW127863   2.663   0.977   1.192
 5328SOL    HW227864   2.634   1.053   1.319
 5329SOL     OW27865   2.234   0.184   2.604
 5329SOL    HW127866   2.299   0.194   2.673
 5329SOL    HW227867   2.269   0.115   2.547
 5330SOL     OW27868   2.952   1.727   1.300
 5330SOL    HW127869   2.883   1.791   1.315
 5330SOL    HW227870   2.993   1.715   1.386
 5331SOL     OW27871   3.714   1.978  18.027
 5331SOL    HW127872   3.693   2.068  18.004
 5331SOL    HW227873   3.809   1.976  18.038
 5332SOL     OW27874   1.540   1.984   2.775
 5332SOL    HW127875   1.532   2.071   2.737
 5332SOL    HW227876   1.453   1.945   2.766
 5333SOL     OW27877   2.678   0.202  18.789
 5333SOL    HW127878   2.762   0.243  18.770
 5333SOL    HW227879   2.691   0.110  18.770
 5334SOL     OW27880   2.730   1.864   3.997
 5334SOL    HW127881   2.765   1.775   3.998
 5334SOL    HW227882   2.751   1.900   4.084
 5335SOL     OW27883   2.365   3.765  17.586
 5335SOL    HW127884   2.415   3.840  17.555
 5335SOL    HW227885   2.395   3.692  17.532
 5336SOL     OW27886   1.786   2.287  18.776
 5336SOL    HW127887   1.785   2.264  18.869
 5336SOL    HW227888   1.878   2.285  18.752
 5337SOL     OW27889   2.231   0.397  16.989
 5337SOL    HW127890   2.300   0.462  16.974
 5337SOL    HW227891   2.233   0.342  16.911
 5338SOL     OW27892   1.359   0.968  19.886
 5338SOL    HW127893   1.439   0.926  19.853
 5338SOL    HW227894   1.349   0.933  19.975
 5339SOL     OW27895   2.928   2.751   1.122
 5339SOL    HW127896   2.994   2.732   1.189
 5339SOL    HW227897   2.978   2.770   1.043
 5340SOL     OW27898   4.418   3.551   8.188
 5340SOL    HW127899   4.488   3.598   8.234
 5340SOL    HW227900   4.358   3.619   8.160
 5341SOL     OW27901   1.241   2.192  20.043
 5341SOL    HW127902   1.320   2.151  20.078
 5341SOL    HW227903   1.273   2.267  19.993
 5342SOL     OW27904   0.382   4.707   3.764
 5342SOL    HW127905   0.393   4.717   3.670
 5342SOL    HW227906   0.461   4.661   3.792
 5343SOL     OW27907   0.967   4.366   0.090
 5343SOL    HW127908   0.982   4.460   0.083
 5343SOL    HW227909   0.958   4.349   0.183
 5344SOL     OW27910   3.083   0.974  21.147
 5344SOL    HW127911   3.050   1.042  21.088
 5344SOL    HW227912   3.174   0.960  21.118
 5345SOL     OW27913   1.285   2.601  15.844
 5345SOL    HW127914   1.296   2.508  15.862
 5345SOL    HW227915   1.200   2.623  15.880
 5346SOL     OW27916   0.824   2.591  18.375
 5346SOL    HW127917   0.890   2.654  18.403
 5346SOL    HW227918   0.777   2.568  18.455
 5347SOL     OW27919   0.540   0.031   6.302
 5347SOL    HW127920   0.621   4.774   6.309
 5347SOL    HW227921   0.487   4.793   6.376
 5348SOL     OW27922   1.974   1.031   5.434
 5348SOL    HW127923   2.066   1.049   5.454
 5348SOL    HW227924   1.949   1.100   5.373
 5349SOL     OW27925   0.986   1.770  18.692
 5349SOL    HW127926   0.917   1.786  18.755
 5349SOL    HW227927   0.979   1.843  18.630
 5350SOL     OW27928   1.676   0.612   1.221
 5350SOL    HW127929   1.680   0.671   1.146
 5350SOL    HW227930   1.623   0.539   1.191
 5351SOL     OW27931   4.396   2.001  19.602
 5351SOL    HW127932   4.302   2.007  19.623
 5351SOL    HW227933   4.427   1.928  19.655
 5352SOL     OW27934   2.407   1.783  19.527
 5352SOL    HW127935   2.485   1.833  19.503
 5352SOL    HW227936   2.409   1.706  19.470
 5353SOL     OW27937   3.869   1.251  17.577
 5353SOL    HW127938   3.796   1.204  17.536
 5353SOL    HW227939   3.892   1.197  17.653
 5354SOL     OW27940   0.223   2.379   3.301
 5354SOL    HW127941   0.253   2.468   3.279
 5354SOL    HW227942   0.267   2.359   3.383
 5355SOL     OW27943   3.045   0.425  19.076
 5355SOL    HW127944   2.978   0.360  19.099
 5355SOL    HW227945   3.020   0.454  18.988
 5356SOL     OW27946   0.880   4.566   3.677
 5356SOL    HW127947   0.915   4.583   3.589
 5356SOL    HW227948   0.940   4.610   3.736
 5357SOL     OW27949   1.488   2.026   4.006
 5357SOL    HW127950   1.406   2.063   4.038
 5357SOL    HW227951   1.551   2.098   4.010
 5358SOL     OW27952   3.552   0.908   0.285
 5358SOL    HW127953   3.551   1.001   0.306
 5358SOL    HW227954   3.539   0.904   0.191
 5359SOL     OW27955   0.361   2.343   5.880
 5359SOL    HW127956   0.304   2.402   5.930
 5359SOL    HW227957   0.372   2.386   5.795
 5360SOL     OW27958   4.574   2.113   4.942
 5360SOL    HW127959   4.619   2.107   4.858
 5360SOL    HW227960   4.618   2.049   4.997
 5361SOL     OW27961   2.694   3.434   1.859
 5361SOL    HW127962   2.710   3.474   1.773
 5361SOL    HW227963   2.656   3.348   1.838
 5362SOL     OW27964   3.829   0.859   3.007
 5362SOL    HW127965   3.805   0.920   3.077
 5362SOL    HW227966   3.798   0.900   2.927
 5363SOL     OW27967   0.262   3.844  20.515
 5363SOL    HW127968   0.171   3.816  20.512
 5363SOL    HW227969   0.307   3.777  20.567
 5364SOL     OW27970   1.109   4.545   0.545
 5364SOL    HW127971   1.162   4.619   0.516
 5364SOL    HW227972   1.156   4.468   0.512
 5365SOL     OW27973   1.168   4.293  20.760
 5365SOL    HW127974   1.199   4.252  20.679
 5365SOL    HW227975   1.126   4.222  20.809
 5366SOL     OW27976   3.268   2.897  19.401
 5366SOL    HW127977   3.178   2.923  19.383
 5366SOL    HW227978   3.262   2.803  19.421
 5367SOL     OW27979   1.574   4.527   1.384
 5367SOL    HW127980   1.667   4.547   1.393
 5367SOL    HW227981   1.531   4.577   1.453
 5368SOL     OW27982   3.976   2.695   1.351
 5368SOL    HW127983   4.031   2.635   1.401
 5368SOL    HW227984   3.889   2.656   1.353
 5369SOL     OW27985   3.318   2.834  16.248
 5369SOL    HW127986   3.245   2.887  16.219
 5369SOL    HW227987   3.396   2.887  16.229
 5370SOL     OW27988   2.007   2.928  19.863
 5370SOL    HW127989   2.064   2.999  19.832
 5370SOL    HW227990   2.046   2.900  19.946
 5371SOL     OW27991   1.079   3.052  13.858
 5371SOL    HW127992   1.084   3.145  13.880
 5371SOL    HW227993   1.154   3.013  13.905
 5372SOL     OW27994   3.411   3.106   6.385
 5372SOL    HW127995   3.497   3.064   6.393
 5372SOL    HW227996   3.348   3.034   6.397
 5373SOL     OW27997   3.370   2.441   7.534
 5373SOL    HW127998   3.431   2.409   7.600
 5373SOL    HW227999   3.388   2.535   7.527
 5374SOL     OW28000   4.369   4.522   3.281
 5374SOL    HW128001   4.376   4.617   3.275
 5374SOL    HW228002   4.321   4.506   3.362
 5375SOL     OW28003   0.085   2.633   8.308
 5375SOL    HW128004   0.157   2.688   8.338
 5375SOL    HW228005   0.046   2.598   8.389
 5376SOL     OW28006   4.197   1.407  15.379
 5376SOL    HW128007   4.111   1.368  15.393
 5376SOL    HW228008   4.178   1.495  15.348
 5377SOL     OW28009   1.914   1.974   4.034
 5377SOL    HW128010   1.932   1.969   4.128
 5377SOL    HW228011   1.971   2.044   4.003
 5378SOL     OW28012   4.389   2.755  19.599
 5378SOL    HW128013   4.338   2.738  19.678
 5378SOL    HW228014   4.395   2.670  19.556
 5379SOL     OW28015   3.029   4.468  12.565
 5379SOL    HW128016   2.996   4.493  12.652
 5379SOL    HW228017   3.087   4.394  12.582
 5380SOL     OW28018   1.501   0.518   4.873
 5380SOL    HW128019   1.519   0.538   4.965
 5380SOL    HW228020   1.586   0.491   4.837
 5381SOL     OW28021   1.422   2.084  18.537
 5381SOL    HW128022   1.463   2.091  18.623
 5381SOL    HW228023   1.491   2.110  18.476
 5382SOL     OW28024   3.755   2.335   4.013
 5382SOL    HW128025   3.803   2.265   4.058
 5382SOL    HW228026   3.813   2.361   3.941
 5383SOL     OW28027   0.661   3.338   4.317
 5383SOL    HW128028   0.747   3.309   4.347
 5383SOL    HW228029   0.599   3.284   4.366
 5384SOL     OW28030   3.213   1.352   0.807
 5384SOL    HW128031   3.174   1.375   0.722
 5384SOL    HW228032   3.303   1.327   0.786
 5385SOL     OW28033   4.084   0.308   5.390
 5385SOL    HW128034   4.108   0.342   5.304
 5385SOL    HW228035   3.989   0.302   5.388
 5386SOL     OW28036   2.518   0.736   4.999
 5386SOL    HW128037   2.449   0.796   5.028
 5386SOL    HW228038   2.515   0.664   5.061
 5387SOL     OW28039   0.150   4.774  15.823
 5387SOL    HW128040   0.149   4.757  15.917
 5387SOL    HW228041   0.154   0.076  15.816
 5388SOL     OW28042   4.395   3.519   2.737
 5388SOL    HW128043   4.379   3.600   2.785
 5388SOL    HW228044   4.463   3.474   2.788
 5389SOL     OW28045   0.330   4.337   5.005
 5389SOL    HW128046   0.358   4.376   5.088
 5389SOL    HW228047   0.408   4.292   4.972
 5390SOL     OW28048   2.217   3.245   6.171
 5390SOL    HW128049   2.188   3.244   6.263
 5390SOL    HW228050   2.278   3.318   6.166
 5391SOL     OW28051   2.088   2.150   3.929
 5391SOL    HW128052   2.096   2.090   3.854
 5391SOL    HW228053   2.161   2.127   3.986
 5392SOL     OW28054   3.279   2.253  12.325
 5392SOL    HW128055   3.222   2.192  12.278
 5392SOL    HW228056   3.335   2.196  12.378
 5393SOL     OW28057   4.065   1.215   1.900
 5393SOL    HW128058   3.974   1.244   1.898
 5393SOL    HW228059   4.114   1.287   1.859
 5394SOL     OW28060   4.254   1.025   4.124
 5394SOL    HW128061   4.337   0.993   4.159
 5394SOL    HW228062   4.190   0.957   4.147
 5395SOL     OW28063   4.778   0.884   1.215
 5395SOL    HW128064   0.002   0.863   1.123
 5395SOL    HW228065   0.037   0.961   1.233
 5396SOL     OW28066   0.485   2.407   3.903
 5396SOL    HW128067   0.564   2.361   3.933
 5396SOL    HW228068   0.419   2.387   3.969
 5397SOL     OW28069   1.649   3.386   5.481
 5397SOL    HW128070   1.609   3.400   5.567
 5397SOL    HW228071   1.742   3.410   5.493
 5398SOL     OW28072   3.512   3.970  18.893
 5398SOL    HW128073   3.559   3.954  18.811
 5398SOL    HW228074   3.481   3.884  18.920
 5399SOL     OW28075   3.749   2.534   1.322
 5399SOL    HW128076   3.745   2.494   1.235
 5399SOL    HW228077   3.661   2.525   1.357
 5400SOL     OW28078   1.576   4.096   3.322
 5400SOL    HW128079   1.529   4.173   3.354
 5400SOL    HW228080   1.594   4.044   3.400
 5401SOL     OW28081   0.813   0.286   0.473
 5401SOL    HW128082   0.739   0.345   0.465
 5401SOL    HW228083   0.789   0.209   0.422
 5402SOL     OW28084   1.642   4.088  16.192
 5402SOL    HW128085   1.632   3.997  16.164
 5402SOL    HW228086   1.719   4.087  16.249
 5403SOL     OW28087   4.465   1.778  17.909
 5403SOL    HW128088   4.439   1.862  17.871
 5403SOL    HW228089   4.480   1.721  17.834
 5404SOL     OW28090   4.600   1.705   4.622
 5404SOL    HW128091   4.620   1.664   4.537
 5404SOL    HW228092   4.616   1.635   4.686
 5405SOL     OW28093   3.721   2.953   2.194
 5405SOL    HW128094   3.811   2.953   2.160
 5405SOL    HW228095   3.675   2.891   2.138
 5406SOL     OW28096   3.850   1.010   3.411
 5406SOL    HW128097   3.838   1.032   3.319
 5406SOL    HW228098   3.925   1.063   3.439
 5407SOL     OW28099   4.461   0.784  17.572
 5407SOL    HW128100   4.408   0.725  17.626
 5407SOL    HW228101   4.412   0.792  17.490
 5408SOL     OW28102   0.362   1.411   2.527
 5408SOL    HW128103   0.358   1.338   2.465
 5408SOL    HW228104   0.455   1.426   2.541
 5409SOL     OW28105   0.987   1.895  12.177
 5409SOL    HW128106   0.931   1.972  12.170
 5409SOL    HW228107   0.957   1.836  12.108
 5410SOL     OW28108   1.927   3.125  15.317
 5410SOL    HW128109   1.941   3.183  15.392
 5410SOL    HW228110   1.996   3.149  15.255
 5411SOL     OW28111   0.610   4.568   2.684
 5411SOL    HW128112   0.592   4.484   2.642
 5411SOL    HW228113   0.552   4.570   2.760
 5412SOL     OW28114   3.476   3.714  13.319
 5412SOL    HW128115   3.394   3.740  13.277
 5412SOL    HW228116   3.503   3.791  13.369
 5413SOL     OW28117   1.859   3.819  19.470
 5413SOL    HW128118   1.819   3.905  19.455
 5413SOL    HW228119   1.911   3.803  19.392
 5414SOL     OW28120   3.628   0.776  18.633
 5414SOL    HW128121   3.639   0.729  18.716
 5414SOL    HW228122   3.559   0.728  18.587
 5415SOL     OW28123   4.162   0.068   6.075
 5415SOL    HW128124   4.165   4.776   6.118
 5415SOL    HW228125   4.250   0.104   6.087
 5416SOL     OW28126   1.368   4.076  17.890
 5416SOL    HW128127   1.275   4.072  17.909
 5416SOL    HW228128   1.382   4.162  17.851
 5417SOL     OW28129   0.297   1.160  18.199
 5417SOL    HW128130   0.361   1.140  18.130
 5417SOL    HW228131   0.237   1.086  18.198
 5418SOL     OW28132   3.965   0.573  19.202
 5418SOL    HW128133   3.969   0.542  19.111
 5418SOL    HW228134   3.897   0.640  19.201
 5419SOL     OW28135   2.404   1.067   3.953
 5419SOL    HW128136   2.381   1.074   3.860
 5419SOL    HW228137   2.349   1.132   3.997
 5420SOL     OW28138   1.181   0.786  20.722
 5420SOL    HW128139   1.224   0.840  20.655
 5420SOL    HW228140   1.242   0.788  20.796
 5421SOL     OW28141   4.259   0.542  15.435
 5421SOL    HW128142   4.265   0.631  15.470
 5421SOL    HW228143   4.178   0.542  15.383
 5422SOL     OW28144   3.035   1.847   3.480
 5422SOL    HW128145   3.070   1.898   3.553
 5422SOL    HW228146   2.974   1.786   3.521
 5423SOL     OW28147   4.359   1.569   3.437
 5423SOL    HW128148   4.333   1.657   3.464
 5423SOL    HW228149   4.351   1.516   3.516
 5424SOL     OW28150   0.839   3.711  13.778
 5424SOL    HW128151   0.885   3.794  13.785
 5424SOL    HW228152   0.762   3.731  13.724
 5425SOL     OW28153   0.959   0.856  19.706
 5425SOL    HW128154   1.017   0.858  19.630
 5425SOL    HW228155   0.994   0.923  19.765
 5426SOL     OW28156   1.930   3.423  17.918
 5426SOL    HW128157   1.862   3.485  17.893
 5426SOL    HW228158   1.975   3.403  17.836
 5427SOL     OW28159   2.202   1.568  19.386
 5427SOL    HW128160   2.290   1.569  19.348
 5427SOL    HW228161   2.143   1.556  19.312
 5428SOL     OW28162   2.177   1.905   0.196
 5428SOL    HW128163   2.123   1.840   0.241
 5428SOL    HW228164   2.160   1.987   0.242
 5429SOL     OW28165   2.370   0.761  20.391
 5429SOL    HW128166   2.297   0.727  20.340
 5429SOL    HW228167   2.417   0.683  20.421
 5430SOL     OW28168   2.366   4.008   5.806
 5430SOL    HW128169   2.433   4.011   5.875
 5430SOL    HW228170   2.313   4.086   5.821
 5431SOL     OW28171   3.477   1.011   2.460
 5431SOL    HW128172   3.513   1.096   2.433
 5431SOL    HW228173   3.508   0.999   2.550
 5432SOL     OW28174   3.723   1.159  18.882
 5432SOL    HW128175   3.652   1.115  18.837
 5432SOL    HW228176   3.798   1.151  18.823
 5433SOL     OW28177   0.011   0.041   2.956
 5433SOL    HW128178   0.099   0.050   2.919
 5433SOL    HW228179   4.778   0.130   2.978
 5434SOL     OW28180   1.877   0.800   4.269
 5434SOL    HW128181   1.958   0.809   4.220
 5434SOL    HW228182   1.904   0.795   4.360
 5435SOL     OW28183   1.860   2.485  20.266
 5435SOL    HW128184   1.821   2.540  20.334
 5435SOL    HW228185   1.935   2.535  20.235
 5436SOL     OW28186   2.980   0.483  17.037
 5436SOL    HW128187   2.918   0.521  16.975
 5436SOL    HW228188   3.058   0.464  16.984
 5437SOL     OW28189   1.244   1.018  19.091
 5437SOL    HW128190   1.280   0.948  19.144
 5437SOL    HW228191   1.208   1.080  19.154
 5438SOL     OW28192   0.811   4.754  20.644
 5438SOL    HW128193   0.762   4.672  20.635
 5438SOL    HW228194   0.745   0.030  20.637
 5439SOL     OW28195   3.355   4.330   7.661
 5439SOL    HW128196   3.311   4.246   7.658
 5439SOL    HW228197   3.422   4.324   7.592
 5440SOL     OW28198   2.920   1.983   2.034
 5440SOL    HW128199   2.894   1.921   2.102
 5440SOL    HW228200   2.891   1.942   1.953
 5441SOL     OW28201   4.495   1.572   5.343
 5441SOL    HW128202   4.409   1.556   5.382
 5441SOL    HW228203   4.543   1.621   5.409
 5442SOL     OW28204   3.131   0.828  19.710
 5442SOL    HW128205   3.088   0.773  19.645
 5442SOL    HW228206   3.058   0.872  19.755
 5443SOL     OW28207   1.829   3.037   3.075
 5443SOL    HW128208   1.884   3.028   2.997
 5443SOL    HW228209   1.741   3.053   3.041
 5444SOL     OW28210   3.258   1.174   3.876
 5444SOL    HW128211   3.272   1.185   3.782
 5444SOL    HW228212   3.330   1.117   3.905
 5445SOL     OW28213   4.407   1.060   3.179
 5445SOL    HW128214   4.500   1.050   3.198
 5445SOL    HW228215   4.384   0.979   3.132
 5446SOL     OW28216   2.057   4.555  13.988
 5446SOL    HW128217   2.143   4.595  13.974
 5446SOL    HW228218   2.003   4.587  13.916
 5447SOL     OW28219   3.416   0.987   4.573
 5447SOL    HW128220   3.466   0.980   4.492
 5447SOL    HW228221   3.479   1.020   4.637
 5448SOL     OW28222   3.174   4.503  18.908
 5448SOL    HW128223   3.266   4.507  18.881
 5448SOL    HW228224   3.169   4.555  18.988
 5449SOL     OW28225   4.557   2.495   1.276
 5449SOL    HW128226   4.501   2.501   1.353
 5449SOL    HW228227   4.522   2.560   1.215
 5450SOL     OW28228   2.481   4.650  20.973
 5450SOL    HW128229   2.496   4.735  20.932
 5450SOL    HW228230   2.564   4.629  21.016
 5451SOL     OW28231   0.979   4.278  18.975
 5451SOL    HW128232   1.033   4.220  19.028
 5451SOL    HW228233   0.920   4.320  19.038
 5452SOL     OW28234   3.637   2.473   5.343
 5452SOL    HW128235   3.600   2.470   5.255
 5452SOL    HW228236   3.594   2.549   5.384
 5453SOL     OW28237   1.532   3.980  19.720
 5453SOL    HW128238   1.581   3.967  19.639
 5453SOL    HW228239   1.460   3.918  19.716
 5454SOL     OW28240   0.993   1.410  15.556
 5454SOL    HW128241   0.947   1.327  15.564
 5454SOL    HW228242   1.001   1.424  15.461
 5455SOL     OW28243   1.856   4.180  20.025
 5455SOL    HW128244   1.837   4.087  20.012
 5455SOL    HW228245   1.895   4.209  19.942
 5456SOL     OW28246   2.271   2.905   8.622
 5456SOL    HW128247   2.298   2.984   8.669
 5456SOL    HW228248   2.295   2.922   8.531
 5457SOL     OW28249   1.339   3.377   2.728
 5457SOL    HW128250   1.246   3.379   2.707
 5457SOL    HW228251   1.351   3.447   2.793
 5458SOL     OW28252   1.339   1.259   0.468
 5458SOL    HW128253   1.351   1.178   0.418
 5458SOL    HW228254   1.428   1.287   0.490
 5459SOL     OW28255   3.173   4.737   3.439
 5459SOL    HW128256   3.208   4.648   3.441
 5459SOL    HW228257   3.178   4.763   3.347
 5460SOL     OW28258   3.542   0.684   4.877
 5460SOL    HW128259   3.629   0.648   4.864
 5460SOL    HW228260   3.484   0.608   4.877
 5461SOL     OW28261   0.445   0.970   5.534
 5461SOL    HW128262   0.523   0.914   5.536
 5461SOL    HW228263   0.457   1.024   5.455
 5462SOL     OW28264   4.562   2.498   2.782
 5462SOL    HW128265   4.584   2.538   2.867
 5462SOL    HW228266   4.484   2.547   2.753
 5463SOL     OW28267   0.487   0.652   1.244
 5463SOL    HW128268   0.530   0.737   1.250
 5463SOL    HW228269   0.396   0.673   1.220
 5464SOL     OW28270   2.951   2.601   6.319
 5464SOL    HW128271   3.040   2.625   6.293
 5464SOL    HW228272   2.896   2.631   6.247
 5465SOL     OW28273   2.002   4.793   3.551
 5465SOL    HW128274   2.006   4.700   3.576
 5465SOL    HW228275   2.071   0.041   3.602
 5466SOL     OW28276   2.726   0.488   5.670
 5466SOL    HW128277   2.797   0.424   5.659
 5466SOL    HW228278   2.733   0.544   5.593
 5467SOL     OW28279   1.773   2.693  18.591
 5467SOL    HW128280   1.807   2.779  18.616
 5467SOL    HW228281   1.837   2.660  18.527
 5468SOL     OW28282   1.560   1.597  18.855
 5468SOL    HW128283   1.584   1.522  18.801
 5468SOL    HW228284   1.465   1.592  18.864
 5469SOL     OW28285   1.758   4.250   3.157
 5469SOL    HW128286   1.686   4.211   3.206
 5469SOL    HW228287   1.809   4.296   3.223
 5470SOL     OW28288   0.781   1.847   0.581
 5470SOL    HW128289   0.700   1.899   0.581
 5470SOL    HW228290   0.843   1.899   0.532
 5471SOL     OW28291   4.491   2.008  14.273
 5471SOL    HW128292   4.512   2.099  14.252
 5471SOL    HW228293   4.575   1.962  14.268
 5472SOL     OW28294   0.829   4.315  20.844
 5472SOL    HW128295   0.884   4.252  20.797
 5472SOL    HW228296   0.859   4.310  20.935
 5473SOL     OW28297   4.425   2.959   3.049
 5473SOL    HW128298   4.495   2.949   2.984
 5473SOL    HW228299   4.392   3.048   3.036
 5474SOL     OW28300   2.162   1.459   5.703
 5474SOL    HW128301   2.193   1.421   5.621
 5474SOL    HW228302   2.240   1.497   5.743
 5475SOL     OW28303   0.514   1.374  15.379
 5475SOL    HW128304   0.482   1.326  15.303
 5475SOL    HW228305   0.608   1.357  15.381
 5476SOL     OW28306   0.576   3.228  20.423
 5476SOL    HW128307   0.537   3.256  20.340
 5476SOL    HW228308   0.503   3.190  20.471
 5477SOL     OW28309   3.809   0.757  15.127
 5477SOL    HW128310   3.782   0.780  15.216
 5477SOL    HW228311   3.902   0.779  15.124
 5478SOL     OW28312   3.945   4.278  19.656
 5478SOL    HW128313   3.878   4.274  19.724
 5478SOL    HW228314   3.914   4.218  19.588
 5479SOL     OW28315   2.105   1.430   0.892
 5479SOL    HW128316   2.136   1.469   0.974
 5479SOL    HW228317   2.177   1.375   0.862
 5480SOL     OW28318   3.802   1.843   9.594
 5480SOL    HW128319   3.824   1.768   9.649
 5480SOL    HW228320   3.872   1.847   9.529
 5481SOL     OW28321   4.317   3.771  21.228
 5481SOL    HW128322   4.273   3.691  21.256
 5481SOL    HW228323   4.385   3.742  21.167
 5482SOL     OW28324   1.976   3.027  21.214
 5482SOL    HW128325   1.951   2.935  21.225
 5482SOL    HW228326   1.894   3.072  21.198
 5483SOL     OW28327   2.121   1.646  14.302
 5483SOL    HW128328   2.167   1.728  14.319
 5483SOL    HW228329   2.083   1.657  14.215
 5484SOL     OW28330   1.379   3.191   0.940
 5484SOL    HW128331   1.338   3.225   1.020
 5484SOL    HW228332   1.421   3.109   0.968
 5485SOL     OW28333   3.285   0.546   2.423
 5485SOL    HW128334   3.357   0.495   2.386
 5485SOL    HW228335   3.282   0.520   2.515
 5486SOL     OW28336   2.442   2.594   3.799
 5486SOL    HW128337   2.449   2.674   3.851
 5486SOL    HW228338   2.354   2.596   3.764
 5487SOL     OW28339   0.020   0.316   0.767
 5487SOL    HW128340   0.114   0.301   0.780
 5487SOL    HW228341   4.793   0.390   0.824
 5488SOL     OW28342   3.693   3.078  19.076
 5488SOL    HW128343   3.605   3.044  19.063
 5488SOL    HW228344   3.680   3.168  19.105
 5489SOL     OW28345   3.917   3.377   0.968
 5489SOL    HW128346   3.908   3.295   1.017
 5489SOL    HW228347   4.002   3.412   0.995
 5490SOL     OW28348   2.986   3.752   1.315
 5490SOL    HW128349   2.903   3.735   1.361
 5490SOL    HW228350   2.970   3.833   1.266
 5491SOL     OW28351   3.204   1.576   6.121
 5491SOL    HW128352   3.274   1.516   6.097
 5491SOL    HW228353   3.146   1.577   6.044
 5492SOL     OW28354   3.750   0.088   0.446
 5492SOL    HW128355   3.735   0.029   0.520
 5492SOL    HW228356   3.703   0.168   0.470
 5493SOL     OW28357   4.189   0.192  17.928
 5493SOL    HW128358   4.131   0.218  17.999
 5493SOL    HW228359   4.214   0.102  17.948
 5494SOL     OW28360   2.047   4.091  17.891
 5494SOL    HW128361   2.081   4.157  17.831
 5494SOL    HW228362   1.952   4.095  17.881
 5495SOL     OW28363   2.871   2.233   6.839
 5495SOL    HW128364   2.818   2.186   6.903
 5495SOL    HW228365   2.822   2.313   6.821
 5496SOL     OW28366   1.133   4.393   1.671
 5496SOL    HW128367   1.171   4.481   1.675
 5496SOL    HW228368   1.049   4.401   1.716
 5497SOL     OW28369   1.264   1.685   4.516
 5497SOL    HW128370   1.360   1.693   4.516
 5497SOL    HW228371   1.233   1.771   4.489
 5498SOL     OW28372   4.525   4.046  16.416
 5498SOL    HW128373   4.588   4.110  16.382
 5498SOL    HW228374   4.440   4.087  16.401
 5499SOL     OW28375   4.082   0.346  17.422
 5499SOL    HW128376   4.165   0.344  17.468
 5499SOL    HW228377   4.016   0.345  17.491
 5500SOL     OW28378   0.317   1.908  16.458
 5500SOL    HW128379   0.266   1.828  16.443
 5500SOL    HW228380   0.386   1.881  16.519
 5501SOL     OW28381   0.315   1.851  17.183
 5501SOL    HW128382   0.286   1.941  17.171
 5501SOL    HW228383   0.405   1.858  17.214
 5502SOL     OW28384   3.352   3.131  15.638
 5502SOL    HW128385   3.443   3.158  15.646
 5502SOL    HW228386   3.335   3.079  15.717
 5503SOL     OW28387   3.545   0.911  18.149
 5503SOL    HW128388   3.509   0.829  18.184
 5503SOL    HW228389   3.538   0.973  18.221
 5504SOL     OW28390   1.207   0.403  17.078
 5504SOL    HW128391   1.242   0.413  16.989
 5504SOL    HW228392   1.190   0.309  17.086
 5505SOL     OW28393   0.343   3.104   2.804
 5505SOL    HW128394   0.337   3.009   2.815
 5505SOL    HW228395   0.403   3.133   2.873
 5506SOL     OW28396   3.430   0.287   0.919
 5506SOL    HW128397   3.463   0.218   0.977
 5506SOL    HW228398   3.505   0.344   0.904
 5507SOL     OW28399   1.999   4.571   5.448
 5507SOL    HW128400   1.920   4.598   5.496
 5507SOL    HW228401   1.999   4.627   5.370
 5508SOL     OW28402   2.593   2.660   0.372
 5508SOL    HW128403   2.587   2.598   0.445
 5508SOL    HW228404   2.519   2.636   0.315
 5509SOL     OW28405   4.378   3.626   4.569
 5509SOL    HW128406   4.285   3.601   4.568
 5509SOL    HW228407   4.419   3.561   4.626
 5510SOL     OW28408   4.683   1.262  17.624
 5510SOL    HW128409   4.621   1.199  17.588
 5510SOL    HW228410   4.628   1.332  17.660
 5511SOL     OW28411   4.088   2.195   1.125
 5511SOL    HW128412   4.159   2.191   1.189
 5511SOL    HW228413   4.074   2.104   1.100
 5512SOL     OW28414   3.968   0.836  19.497
 5512SOL    HW128415   4.016   0.848  19.415
 5512SOL    HW228416   4.035   0.813  19.561
 5513SOL     OW28417   3.809   2.967   9.285
 5513SOL    HW128418   3.868   2.897   9.256
 5513SOL    HW228419   3.722   2.932   9.272
 5514SOL     OW28420   3.259   4.711  19.491
 5514SOL    HW128421   3.304   4.652  19.551
 5514SOL    HW228422   3.180   4.664  19.466
 5515SOL     OW28423   2.549   2.824  18.363
 5515SOL    HW128424   2.581   2.742  18.324
 5515SOL    HW228425   2.612   2.842  18.433
 5516SOL     OW28426   3.316   1.282   5.202
 5516SOL    HW128427   3.291   1.332   5.125
 5516SOL    HW228428   3.319   1.346   5.273
 5517SOL     OW28429   3.565   4.763  20.456
 5517SOL    HW128430   3.567   4.688  20.515
 5517SOL    HW228431   3.559   4.725  20.368
 5518SOL     OW28432   3.323   2.938  16.558
 5518SOL    HW128433   3.385   3.007  16.534
 5518SOL    HW228434   3.327   2.876  16.485
 5519SOL     OW28435   0.250   4.515  14.387
 5519SOL    HW128436   0.224   4.604  14.410
 5519SOL    HW228437   0.341   4.509  14.416
 5520SOL     OW28438   3.660   3.671   1.102
 5520SOL    HW128439   3.706   3.635   1.177
 5520SOL    HW228440   3.578   3.621   1.098
 5521SOL     OW28441   3.825   2.916   2.703
 5521SOL    HW128442   3.780   2.888   2.623
 5521SOL    HW228443   3.761   2.906   2.772
 5522SOL     OW28444   0.226   3.296   3.284
 5522SOL    HW128445   0.224   3.201   3.292
 5522SOL    HW228446   0.197   3.313   3.195
 5523SOL     OW28447   3.597   1.648   2.269
 5523SOL    HW128448   3.644   1.565   2.269
 5523SOL    HW228449   3.517   1.631   2.219
 5524SOL     OW28450   1.888   1.635  17.274
 5524SOL    HW128451   1.823   1.614  17.207
 5524SOL    HW228452   1.854   1.595  17.354
 5525SOL     OW28453   3.168   0.183   7.488
 5525SOL    HW128454   3.137   0.114   7.429
 5525SOL    HW228455   3.177   0.260   7.433
 5526SOL     OW28456   3.229   1.661  17.638
 5526SOL    HW128457   3.207   1.596  17.705
 5526SOL    HW228458   3.311   1.629  17.600
 5527SOL     OW28459   3.646   0.547  21.173
 5527SOL    HW128460   3.556   0.577  21.187
 5527SOL    HW228461   3.680   0.532  21.261
 5528SOL     OW28462   3.270   0.951   0.569
 5528SOL    HW128463   3.189   1.002   0.569
 5528SOL    HW228464   3.241   0.861   0.550
 5529SOL     OW28465   0.924   1.441   5.242
 5529SOL    HW128466   0.961   1.433   5.330
 5529SOL    HW228467   0.867   1.364   5.234
 5530SOL     OW28468   1.325   1.210   1.777
 5530SOL    HW128469   1.357   1.200   1.687
 5530SOL    HW228470   1.253   1.273   1.769
 5531SOL     OW28471   3.063   2.170   2.133
 5531SOL    HW128472   3.027   2.084   2.112
 5531SOL    HW228473   2.998   2.231   2.097
 5532SOL     OW28474   2.575   1.447  16.817
 5532SOL    HW128475   2.506   1.385  16.842
 5532SOL    HW228476   2.531   1.532  16.820
 5533SOL     OW28477   4.129   3.212   3.947
 5533SOL    HW128478   4.150   3.221   3.854
 5533SOL    HW228479   4.183   3.139   3.976
 5534SOL     OW28480   1.212   0.822  13.091
 5534SOL    HW128481   1.156   0.770  13.034
 5534SOL    HW228482   1.290   0.768  13.104
 5535SOL     OW28483   0.044   0.447   4.431
 5535SOL    HW128484   0.075   0.357   4.445
 5535SOL    HW228485   0.033   0.454   4.337
 5536SOL     OW28486   1.942   4.396  12.368
 5536SOL    HW128487   1.984   4.401  12.282
 5536SOL    HW228488   1.938   4.487  12.398
 5537SOL     OW28489   4.429   4.254  15.342
 5537SOL    HW128490   4.399   4.345  15.345
 5537SOL    HW228491   4.416   4.228  15.251
 5538SOL     OW28492   1.376   0.490   0.293
 5538SOL    HW128493   1.453   0.536   0.325
 5538SOL    HW228494   1.309   0.506   0.360
 5539SOL     OW28495   3.473   0.695  15.372
 5539SOL    HW128496   3.404   0.672  15.435
 5539SOL    HW228497   3.456   0.638  15.297
 5540SOL     OW28498   0.918   2.777  14.870
 5540SOL    HW128499   0.878   2.837  14.934
 5540SOL    HW228500   0.867   2.697  14.876
 5541SOL     OW28501   4.114   2.650   3.284
 5541SOL    HW128502   4.187   2.658   3.346
 5541SOL    HW228503   4.038   2.629   3.339
 5542SOL     OW28504   3.289   0.505   3.029
 5542SOL    HW128505   3.252   0.593   3.020
 5542SOL    HW228506   3.317   0.500   3.120
 5543SOL     OW28507   1.730   4.053  16.517
 5543SOL    HW128508   1.793   4.008  16.460
 5543SOL    HW228509   1.785   4.095  16.584
 5544SOL     OW28510   0.431   0.329   1.066
 5544SOL    HW128511   0.502   0.389   1.086
 5544SOL    HW228512   0.432   0.266   1.139
 5545SOL     OW28513   3.721   2.014  17.116
 5545SOL    HW128514   3.704   1.988  17.207
 5545SOL    HW228515   3.783   2.086  17.123
 5546SOL     OW28516   1.801   2.446  15.110
 5546SOL    HW128517   1.791   2.541  15.104
 5546SOL    HW228518   1.888   2.428  15.076
 5547SOL     OW28519   3.041   2.043   8.337
 5547SOL    HW128520   3.037   2.035   8.241
 5547SOL    HW228521   3.074   2.131   8.352
 5548SOL     OW28522   0.491   3.178   3.212
 5548SOL    HW128523   0.500   3.147   3.302
 5548SOL    HW228524   0.548   3.121   3.161
 5549SOL     OW28525   0.362   0.766  20.026
 5549SOL    HW128526   0.324   0.745  20.112
 5549SOL    HW228527   0.454   0.743  20.034
 5550SOL     OW28528   2.841   4.649  19.886
 5550SOL    HW128529   2.844   4.740  19.914
 5550SOL    HW228530   2.931   4.617  19.898
 5551SOL     OW28531   3.252   3.374   4.766
 5551SOL    HW128532   3.290   3.458   4.794
 5551SOL    HW228533   3.160   3.395   4.747
 5552SOL     OW28534   4.731   1.426   5.886
 5552SOL    HW128535   4.771   1.350   5.845
 5552SOL    HW228536   4.688   1.392   5.964
 5553SOL     OW28537   0.664   0.819  17.086
 5553SOL    HW128538   0.710   0.738  17.063
 5553SOL    HW228539   0.708   0.887  17.034
 5554SOL     OW28540   2.998   4.200   0.199
 5554SOL    HW128541   2.967   4.265   0.136
 5554SOL    HW228542   3.042   4.251   0.266
 5555SOL     OW28543   4.700   0.541   3.322
 5555SOL    HW128544   4.657   0.523   3.405
 5555SOL    HW228545   4.654   0.617   3.287
 5556SOL     OW28546   3.148   1.427  19.003
 5556SOL    HW128547   3.224   1.369  19.004
 5556SOL    HW228548   3.185   1.514  18.987
 5557SOL     OW28549   3.169   2.058  18.417
 5557SOL    HW128550   3.202   2.027  18.333
 5557SOL    HW228551   3.248   2.080  18.467
 5558SOL     OW28552   1.537   3.585  17.964
 5558SOL    HW128553   1.486   3.510  17.996
 5558SOL    HW228554   1.480   3.626  17.899
 5559SOL     OW28555   3.918   0.323  18.209
 5559SOL    HW128556   3.933   0.232  18.234
 5559SOL    HW228557   3.865   0.359  18.280
 5560SOL     OW28558   3.102   4.776   5.406
 5560SOL    HW128559   3.066   4.694   5.441
 5560SOL    HW228560   3.185   4.751   5.366
 5561SOL     OW28561   0.500   3.990   4.332
 5561SOL    HW128562   0.434   4.059   4.347
 5561SOL    HW228563   0.545   3.981   4.416
 5562SOL     OW28564   1.986   2.859   4.738
 5562SOL    HW128565   1.939   2.791   4.786
 5562SOL    HW228566   1.917   2.909   4.695
 5563SOL     OW28567   1.575   4.367   2.604
 5563SOL    HW128568   1.514   4.366   2.678
 5563SOL    HW228569   1.632   4.291   2.619
 5564SOL     OW28570   3.062   2.617  18.121
 5564SOL    HW128571   3.088   2.708  18.108
 5564SOL    HW228572   2.986   2.622  18.180
 5565SOL     OW28573   0.183   0.852   2.450
 5565SOL    HW128574   0.235   0.839   2.371
 5565SOL    HW228575   0.247   0.870   2.519
 5566SOL     OW28576   1.791   1.728  17.862
 5566SOL    HW128577   1.757   1.733  17.773
 5566SOL    HW228578   1.837   1.644  17.866
 5567SOL     OW28579   2.994   4.433  19.267
 5567SOL    HW128580   2.946   4.352  19.285
 5567SOL    HW228581   3.079   4.404  19.235
 5568SOL     OW28582   3.938   4.755   3.531
 5568SOL    HW128583   3.859   0.012   3.552
 5568SOL    HW228584   3.989   4.756   3.612
 5569SOL     OW28585   2.816   0.932   5.719
 5569SOL    HW128586   2.768   0.923   5.637
 5569SOL    HW228587   2.846   0.843   5.739
 5570SOL     OW28588   1.082   4.344   4.678
 5570SOL    HW128589   1.080   4.408   4.749
 5570SOL    HW228590   1.012   4.372   4.618
 5571SOL     OW28591   3.366   0.111   1.189
 5571SOL    HW128592   3.321   0.030   1.168
 5571SOL    HW228593   3.298   0.178   1.188
 5572SOL     OW28594   2.525   3.931  19.057
 5572SOL    HW128595   2.602   3.914  19.003
 5572SOL    HW228596   2.461   3.865  19.028
 5573SOL     OW28597   3.271   1.795   6.714
 5573SOL    HW128598   3.181   1.824   6.699
 5573SOL    HW228599   3.295   1.833   6.798
 5574SOL     OW28600   1.739   1.485   3.527
 5574SOL    HW128601   1.825   1.486   3.569
 5574SOL    HW228602   1.713   1.393   3.529
 5575SOL     OW28603   4.150   2.341  20.344
 5575SOL    HW128604   4.126   2.395  20.420
 5575SOL    HW228605   4.229   2.382  20.309
 5576SOL     OW28606   0.119   0.851  18.902
 5576SOL    HW128607   0.147   0.939  18.925
 5576SOL    HW228608   0.194   0.795  18.922
 5577SOL     OW28609   2.970   1.774   4.594
 5577SOL    HW128610   2.984   1.759   4.687
 5577SOL    HW228611   3.056   1.760   4.554
 5578SOL     OW28612   4.297   1.291  19.795
 5578SOL    HW128613   4.329   1.335  19.874
 5578SOL    HW228614   4.219   1.244  19.825
 5579SOL     OW28615   2.412   1.469  16.350
 5579SOL    HW128616   2.403   1.422  16.268
 5579SOL    HW228617   2.372   1.412  16.416
 5580SOL     OW28618   3.974   1.421   3.174
 5580SOL    HW128619   3.931   1.493   3.220
 5580SOL    HW228620   3.925   1.413   3.092
 5581SOL     OW28621   4.221   0.633  17.695
 5581SOL    HW128622   4.161   0.663  17.627
 5581SOL    HW228623   4.205   0.538  17.701
 5582SOL     OW28624   1.769   1.542  12.963
 5582SOL    HW128625   1.693   1.486  12.945
 5582SOL    HW228626   1.761   1.614  12.901
 5583SOL     OW28627   1.869   4.248  14.169
 5583SOL    HW128628   1.782   4.244  14.128
 5583SOL    HW228629   1.930   4.245  14.096
 5584SOL     OW28630   0.928   2.951  20.614
 5584SOL    HW128631   0.907   2.991  20.530
 5584SOL    HW228632   0.846   2.948  20.662
 5585SOL     OW28633   2.303   4.544   5.477
 5585SOL    HW128634   2.213   4.513   5.479
 5585SOL    HW228635   2.341   4.515   5.560
 5586SOL     OW28636   0.630   4.587   1.981
 5586SOL    HW128637   0.622   4.499   1.945
 5586SOL    HW228638   0.645   4.643   1.905
 5587SOL     OW28639   1.355   0.101  20.146
 5587SOL    HW128640   1.392   0.014  20.156
 5587SOL    HW228641   1.312   0.119  20.230
 5588SOL     OW28642   2.985   2.045  16.920
 5588SOL    HW128643   2.927   2.085  16.985
 5588SOL    HW228644   2.976   2.099  16.842
 5589SOL     OW28645   4.404   1.244   2.746
 5589SOL    HW128646   4.371   1.237   2.836
 5589SOL    HW228647   4.494   1.212   2.751
 5590SOL     OW28648   2.769   0.948  18.654
 5590SOL    HW128649   2.794   0.990  18.736
 5590SOL    HW228650   2.754   0.856  18.678
 5591SOL     OW28651   2.741   0.648  18.032
 5591SOL    HW128652   2.772   0.692  18.111
 5591SOL    HW228653   2.821   0.627  17.983
 5592SOL     OW28654   2.497   3.925   1.722
 5592SOL    HW128655   2.522   3.841   1.759
 5592SOL    HW228656   2.547   3.989   1.771
 5593SOL     OW28657   1.788   0.710  18.411
 5593SOL    HW128658   1.719   0.768  18.379
 5593SOL    HW228659   1.780   0.713  18.506
 5594SOL     OW28660   1.344   2.410   4.706
 5594SOL    HW128661   1.398   2.478   4.746
 5594SOL    HW228662   1.294   2.373   4.779
 5595SOL     OW28663   3.783   3.700   5.745
 5595SOL    HW128664   3.785   3.769   5.812
 5595SOL    HW228665   3.690   3.678   5.736
 5596SOL     OW28666   0.599   2.764   5.953
 5596SOL    HW128667   0.577   2.857   5.955
 5596SOL    HW228668   0.654   2.749   6.030
 5597SOL     OW28669   2.056   3.442  15.074
 5597SOL    HW128670   1.990   3.447  15.144
 5597SOL    HW228671   2.131   3.399  15.115
 5598SOL     OW28672   1.740   3.041  20.824
 5598SOL    HW128673   1.730   2.945  20.824
 5598SOL    HW228674   1.700   3.069  20.742
 5599SOL     OW28675   4.355   0.007   4.021
 5599SOL    HW128676   4.395   0.080   4.070
 5599SOL    HW228677   4.403   4.723   4.051
 5600SOL     OW28678   2.477   3.824   2.343
 5600SOL    HW128679   2.383   3.843   2.340
 5600SOL    HW228680   2.499   3.826   2.436
 5601SOL     OW28681   0.715   3.542   6.238
 5601SOL    HW128682   0.794   3.591   6.261
 5601SOL    HW228683   0.745   3.474   6.178
 5602SOL     OW28684   0.657   3.482  21.208
 5602SOL    HW128685   0.730   3.500  21.268
 5602SOL    HW228686   0.652   3.559  21.152
 5603SOL     OW28687   3.416   0.592   4.559
 5603SOL    HW128688   3.446   0.528   4.623
 5603SOL    HW228689   3.422   0.677   4.604
 5604SOL     OW28690   2.403   3.236   4.239
 5604SOL    HW128691   2.420   3.270   4.327
 5604SOL    HW228692   2.420   3.310   4.181
 5605SOL     OW28693   2.345   4.718  17.623
 5605SOL    HW128694   2.288   4.681  17.555
 5605SOL    HW228695   2.397   4.644  17.653
 5606SOL     OW28696   2.581   4.251  16.724
 5606SOL    HW128697   2.585   4.345  16.740
 5606SOL    HW228698   2.504   4.240  16.668
 5607SOL     OW28699   1.309   0.571   5.452
 5607SOL    HW128700   1.275   0.658   5.469
 5607SOL    HW228701   1.401   0.575   5.477
 5608SOL     OW28702   0.777   4.652   6.286
 5608SOL    HW128703   0.842   4.605   6.338
 5608SOL    HW228704   0.818   4.664   6.201
 5609SOL     OW28705   3.304   4.368  13.951
 5609SOL    HW128706   3.236   4.302  13.937
 5609SOL    HW228707   3.258   4.439  13.998
 5610SOL     OW28708   1.020   1.509   3.930
 5610SOL    HW128709   1.106   1.541   3.960
 5610SOL    HW228710   1.038   1.470   3.844
 5611SOL     OW28711   3.061   4.284   5.351
 5611SOL    HW128712   3.001   4.307   5.280
 5611SOL    HW228713   3.009   4.233   5.412
 5612SOL     OW28714   0.566   0.262   1.554
 5612SOL    HW128715   0.575   0.347   1.510
 5612SOL    HW228716   0.646   0.215   1.532
 5613SOL     OW28717   1.328   3.303   4.112
 5613SOL    HW128718   1.379   3.224   4.131
 5613SOL    HW228719   1.346   3.320   4.019
 5614SOL     OW28720   0.271   3.129  19.473
 5614SOL    HW128721   0.336   3.137  19.403
 5614SOL    HW228722   0.273   3.036  19.497
 5615SOL     OW28723   3.793   3.720  16.075
 5615SOL    HW128724   3.770   3.693  16.164
 5615SOL    HW228725   3.806   3.638  16.027
 5616SOL     OW28726   4.013   3.797  21.042
 5616SOL    HW128727   4.033   3.758  21.127
 5616SOL    HW228728   4.010   3.891  21.060
 5617SOL     OW28729   1.635   3.701   1.487
 5617SOL    HW128730   1.621   3.657   1.403
 5617SOL    HW228731   1.728   3.689   1.505
 5618SOL     OW28732   3.144   4.316  16.980
 5618SOL    HW128733   3.149   4.372  17.058
 5618SOL    HW228734   3.235   4.306  16.952
 5619SOL     OW28735   0.969   0.184  20.019
 5619SOL    HW128736   0.934   0.267  20.050
 5619SOL    HW228737   0.921   0.118  20.069
 5620SOL     OW28738   1.069   4.429   5.830
 5620SOL    HW128739   1.109   4.473   5.905
 5620SOL    HW228740   1.123   4.351   5.818
 5621SOL     OW28741   4.525   3.194   6.880
 5621SOL    HW128742   4.597   3.233   6.830
 5621SOL    HW228743   4.458   3.174   6.814
 5622SOL     OW28744   0.880   2.254  15.634
 5622SOL    HW128745   0.885   2.222  15.544
 5622SOL    HW228746   0.800   2.215  15.669
 5623SOL     OW28747   2.171   2.169   1.859
 5623SOL    HW128748   2.228   2.092   1.859
 5623SOL    HW228749   2.154   2.186   1.952
 5624SOL     OW28750   0.703   2.910   0.268
 5624SOL    HW128751   0.746   2.926   0.183
 5624SOL    HW228752   0.769   2.934   0.332
 5625SOL     OW28753   0.738   2.813  20.779
 5625SOL    HW128754   0.703   2.862  20.853
 5625SOL    HW228755   0.754   2.725  20.814
 5626SOL     OW28756   1.241   1.113  15.472
 5626SOL    HW128757   1.228   1.133  15.565
 5626SOL    HW228758   1.325   1.068  15.468
 5627SOL     OW28759   2.301   2.477  16.624
 5627SOL    HW128760   2.294   2.535  16.548
 5627SOL    HW228761   2.358   2.406  16.595
 5628SOL     OW28762   4.086   4.255  15.872
 5628SOL    HW128763   4.163   4.291  15.915
 5628SOL    HW228764   4.087   4.295  15.785
 5629SOL     OW28765   1.961   4.411   3.305
 5629SOL    HW128766   1.899   4.483   3.295
 5629SOL    HW228767   1.952   4.385   3.396
 5630SOL     OW28768   2.654   3.303   0.884
 5630SOL    HW128769   2.652   3.218   0.842
 5630SOL    HW228770   2.584   3.353   0.842
 5631SOL     OW28771   0.886   3.538   2.573
 5631SOL    HW128772   0.971   3.544   2.616
 5631SOL    HW228773   0.861   3.629   2.557
 5632SOL     OW28774   0.343   4.078   4.650
 5632SOL    HW128775   0.345   4.073   4.746
 5632SOL    HW228776   0.297   3.998   4.623
 5633SOL     OW28777   2.851   2.881  17.016
 5633SOL    HW128778   2.788   2.811  16.996
 5633SOL    HW228779   2.922   2.837  17.063
 5634SOL     OW28780   4.337   1.537  18.222
 5634SOL    HW128781   4.421   1.583  18.220
 5634SOL    HW228782   4.286   1.584  18.289
 5635SOL     OW28783   2.229   2.429   4.734
 5635SOL    HW128784   2.227   2.392   4.646
 5635SOL    HW228785   2.305   2.389   4.776
 5636SOL     OW28786   4.606   3.821  15.342
 5636SOL    HW128787   4.623   3.756  15.275
 5636SOL    HW228788   4.613   3.773  15.425
 5637SOL     OW28789   2.685   1.576   2.166
 5637SOL    HW128790   2.596   1.612   2.167
 5637SOL    HW228791   2.682   1.504   2.229
 5638SOL     OW28792   1.850   4.014   4.167
 5638SOL    HW128793   1.901   3.957   4.224
 5638SOL    HW228794   1.759   3.995   4.191
 5639SOL     OW28795   0.437   3.082  18.561
 5639SOL    HW128796   0.347   3.064  18.589
 5639SOL    HW228797   0.434   3.081  18.465
 5640SOL     OW28798   3.235   4.437  17.259
 5640SOL    HW128799   3.239   4.532  17.259
 5640SOL    HW228800   3.325   4.409  17.273
 5641SOL     OW28801   4.470   0.969   4.716
 5641SOL    HW128802   4.501   1.008   4.634
 5641SOL    HW228803   4.484   1.037   4.782
 5642SOL     OW28804   4.327   3.143   6.687
 5642SOL    HW128805   4.363   3.078   6.626
 5642SOL    HW228806   4.234   3.121   6.692
 5643SOL     OW28807   4.645   4.430  15.754
 5643SOL    HW128808   4.724   4.484  15.747
 5643SOL    HW228809   4.654   4.384  15.838
 5644SOL     OW28810   2.171   1.450  19.634
 5644SOL    HW128811   2.173   1.502  19.554
 5644SOL    HW228812   2.129   1.507  19.699
 5645SOL     OW28813   3.829   4.775   6.104
 5645SOL    HW128814   3.766   0.011   6.170
 5645SOL    HW228815   3.779   4.770   6.023
 5646SOL     OW28816   1.628   2.724  17.973
 5646SOL    HW128817   1.644   2.649  18.030
 5646SOL    HW228818   1.610   2.796  18.033
 5647SOL     OW28819   1.520   3.956  14.314
 5647SOL    HW128820   1.572   3.969  14.393
 5647SOL    HW228821   1.469   4.037  14.306
 5648SOL     OW28822   2.245   3.205   1.015
 5648SOL    HW128823   2.252   3.289   0.969
 5648SOL    HW228824   2.243   3.229   1.108
 5649SOL     OW28825   3.485   2.929   1.995
 5649SOL    HW128826   3.402   2.882   1.986
 5649SOL    HW228827   3.483   2.995   1.926
 5650SOL     OW28828   0.156   0.845   2.140
 5650SOL    HW128829   0.089   0.842   2.071
 5650SOL    HW228830   0.237   0.865   2.094
 5651SOL     OW28831   3.475   3.050   6.110
 5651SOL    HW128832   3.548   3.097   6.151
 5651SOL    HW228833   3.424   3.016   6.183
 5652SOL     OW28834   2.560   0.534   2.633
 5652SOL    HW128835   2.578   0.600   2.699
 5652SOL    HW228836   2.601   0.568   2.553
 5653SOL     OW28837   2.683   0.604  19.103
 5653SOL    HW128838   2.590   0.628  19.107
 5653SOL    HW228839   2.682   0.512  19.077
 5654SOL     OW28840   4.120   2.234   8.901
 5654SOL    HW128841   4.033   2.233   8.941
 5654SOL    HW228842   4.161   2.152   8.931
 5655SOL     OW28843   3.738   0.520   0.172
 5655SOL    HW128844   3.647   0.545   0.187
 5655SOL    HW228845   3.775   0.510   0.260
 5656SOL     OW28846   3.697   3.737   6.380
 5656SOL    HW128847   3.778   3.787   6.390
 5656SOL    HW228848   3.647   3.785   6.315
 5657SOL     OW28849   3.983   2.424  12.502
 5657SOL    HW128850   3.934   2.505  12.485
 5657SOL    HW228851   3.916   2.356  12.506
 5658SOL     OW28852   1.577   3.477  16.635
 5658SOL    HW128853   1.584   3.559  16.683
 5658SOL    HW228854   1.503   3.431  16.676
 5659SOL     OW28855   3.536   0.228   1.986
 5659SOL    HW128856   3.467   0.205   1.924
 5659SOL    HW228857   3.544   0.323   1.978
 5660SOL     OW28858   2.262   0.160  19.124
 5660SOL    HW128859   2.283   0.226  19.190
 5660SOL    HW228860   2.346   0.135  19.087
 5661SOL     OW28861   0.233   4.233  15.308
 5661SOL    HW128862   0.315   4.186  15.323
 5661SOL    HW228863   0.165   4.167  15.324
 5662SOL     OW28864   1.063   3.058   5.004
 5662SOL    HW128865   0.994   3.019   4.950
 5662SOL    HW228866   1.021   3.131   5.048
 5663SOL     OW28867   1.097   2.629   3.085
 5663SOL    HW128868   1.184   2.627   3.125
 5663SOL    HW228869   1.113   2.643   2.992
 5664SOL     OW28870   3.671   3.840  18.208
 5664SOL    HW128871   3.755   3.857  18.251
 5664SOL    HW228872   3.615   3.912  18.235
 5665SOL     OW28873   2.292   4.419   2.584
 5665SOL    HW128874   2.198   4.432   2.577
 5665SOL    HW228875   2.317   4.468   2.662
 5666SOL     OW28876   4.633   4.773  15.654
 5666SOL    HW128877   4.698   4.720  15.608
 5666SOL    HW228878   4.609   0.048  15.591
 5667SOL     OW28879   3.137   2.741  20.720
 5667SOL    HW128880   3.117   2.782  20.805
 5667SOL    HW228881   3.201   2.800  20.680
 5668SOL     OW28882   1.597   1.676   0.499
 5668SOL    HW128883   1.531   1.642   0.439
 5668SOL    HW228884   1.547   1.724   0.565
 5669SOL     OW28885   4.711   4.023  20.240
 5669SOL    HW128886   0.012   4.019  20.222
 5669SOL    HW228887   4.689   4.116  20.228
 5670SOL     OW28888   3.162   3.932  18.876
 5670SOL    HW128889   3.248   3.930  18.916
 5670SOL    HW228890   3.129   4.020  18.892
 5671SOL     OW28891   4.585   1.045   0.711
 5671SOL    HW128892   4.537   1.127   0.704
 5671SOL    HW228893   4.571   1.001   0.628
 5672SOL     OW28894   3.751   1.116   3.161
 5672SOL    HW128895   3.782   1.195   3.116
 5672SOL    HW228896   3.656   1.129   3.168
 5673SOL     OW28897   0.762   0.874  19.521
 5673SOL    HW128898   0.780   0.938  19.452
 5673SOL    HW228899   0.838   0.879  19.578
 5674SOL     OW28900   3.765   2.775  18.963
 5674SOL    HW128901   3.791   2.860  18.998
 5674SOL    HW228902   3.697   2.744  19.022
 5675SOL     OW28903   4.331   2.011  18.411
 5675SOL    HW128904   4.342   2.020  18.316
 5675SOL    HW228905   4.353   1.920  18.430
 5676SOL     OW28906   1.085   0.718   3.183
 5676SOL    HW128907   1.089   0.745   3.275
 5676SOL    HW228908   1.012   0.657   3.179
 5677SOL     OW28909   2.530   0.378  17.213
 5677SOL    HW128910   2.509   0.443  17.145
 5677SOL    HW228911   2.470   0.398  17.285
 5678SOL     OW28912   4.347   0.054  19.897
 5678SOL    HW128913   4.302   0.099  19.825
 5678SOL    HW228914   4.440   0.071  19.881
 5679SOL     OW28915   0.666   4.375  20.430
 5679SOL    HW128916   0.677   4.370  20.335
 5679SOL    HW228917   0.734   4.317  20.465
 5680SOL     OW28918   4.501   4.544  18.171
 5680SOL    HW128919   4.563   4.515  18.238
 5680SOL    HW228920   4.505   4.477  18.103
 5681SOL     OW28921   2.889   1.693  20.829
 5681SOL    HW128922   2.951   1.653  20.890
 5681SOL    HW228923   2.932   1.686  20.743
 5682SOL     OW28924   3.806   1.239   6.130
 5682SOL    HW128925   3.845   1.247   6.217
 5682SOL    HW228926   3.878   1.209   6.074
 5683SOL     OW28927   4.206   1.479   1.747
 5683SOL    HW128928   4.234   1.439   1.665
 5683SOL    HW228929   4.193   1.572   1.725
 5684SOL     OW28930   3.830   4.177  15.925
 5684SOL    HW128931   3.827   4.099  15.870
 5684SOL    HW228932   3.920   4.207  15.920
 5685SOL     OW28933   1.292   1.886   4.994
 5685SOL    HW128934   1.297   1.965   5.047
 5685SOL    HW228935   1.199   1.876   4.975
 5686SOL     OW28936   2.923   0.220   3.388
 5686SOL    HW128937   2.855   0.183   3.444
 5686SOL    HW228938   3.003   0.215   3.441
 5687SOL     OW28939   0.898   0.581  17.642
 5687SOL    HW128940   0.993   0.572  17.632
 5687SOL    HW228941   0.865   0.590  17.553
 5688SOL     OW28942   4.782   0.887  20.672
 5688SOL    HW128943   4.768   0.939  20.751
 5688SOL    HW228944   4.788   0.797  20.703
 5689SOL     OW28945   1.060   3.560  16.577
 5689SOL    HW128946   1.127   3.623  16.549
 5689SOL    HW228947   1.000   3.555  16.503
 5690SOL     OW28948   4.647   0.430  12.923
 5690SOL    HW128949   4.635   0.438  12.828
 5690SOL    HW228950   4.558   0.432  12.958
 5691SOL     OW28951   3.664   3.314   5.575
 5691SOL    HW128952   3.693   3.227   5.546
 5691SOL    HW228953   3.659   3.308   5.670
 5692SOL     OW28954   2.331   4.548   5.194
 5692SOL    HW128955   2.333   4.527   5.287
 5692SOL    HW228956   2.423   4.556   5.169
 5693SOL     OW28957   3.334   0.208  16.527
 5693SOL    HW128958   3.384   0.155  16.465
 5693SOL    HW228959   3.248   0.165  16.531
 5694SOL     OW28960   1.850   3.358  21.080
 5694SOL    HW128961   1.843   3.266  21.104
 5694SOL    HW228962   1.760   3.390  21.081
 5695SOL     OW28963   2.154   2.825   1.632
 5695SOL    HW128964   2.108   2.819   1.548
 5695SOL    HW228965   2.129   2.911   1.667
 5696SOL     OW28966   2.372   4.604  19.624
 5696SOL    HW128967   2.286   4.646  19.631
 5696SOL    HW228968   2.376   4.574  19.534
 5697SOL     OW28969   0.903   1.704  15.643
 5697SOL    HW128970   0.982   1.727  15.691
 5697SOL    HW228971   0.926   1.625  15.594
 5698SOL     OW28972   0.735   3.936  20.641
 5698SOL    HW128973   0.787   3.922  20.720
 5698SOL    HW228974   0.773   3.876  20.576
 5699SOL     OW28975   2.073   3.157  18.254
 5699SOL    HW128976   2.108   3.183  18.339
 5699SOL    HW228977   2.002   3.219  18.237
 5700SOL     OW28978   3.812   1.124   2.131
 5700SOL    HW128979   3.800   1.050   2.071
 5700SOL    HW228980   3.892   1.103   2.179
 5701SOL     OW28981   1.362   3.134   1.932
 5701SOL    HW128982   1.424   3.196   1.971
 5701SOL    HW228983   1.365   3.153   1.839
 5702SOL     OW28984   0.792   3.944   5.795
 5702SOL    HW128985   0.786   3.850   5.775
 5702SOL    HW228986   0.884   3.965   5.782
 5703SOL     OW28987   2.330   0.965   0.209
 5703SOL    HW128988   2.313   1.008   0.125
 5703SOL    HW228989   2.377   1.030   0.260
 5704SOL     OW28990   2.104   0.406   4.104
 5704SOL    HW128991   2.098   0.421   4.198
 5704SOL    HW228992   2.013   0.396   4.075
 5705SOL     OW28993   1.719   3.062  17.308
 5705SOL    HW128994   1.804   3.017  17.306
 5705SOL    HW228995   1.730   3.136  17.248
 5706SOL     OW28996   0.739   2.838  17.745
 5706SOL    HW128997   0.788   2.861  17.824
 5706SOL    HW228998   0.732   2.743  17.749
 5707SOL     OW28999   2.612   3.855  21.239
 5707SOL    HW129000   2.547   3.825   0.029
 5707SOL    HW229001   2.677   3.785  21.235
 5708SOL     OW29002   2.231   1.721  13.991
 5708SOL    HW129003   2.138   1.734  14.005
 5708SOL    HW229004   2.269   1.809  13.995
 5709SOL     OW29005   0.148   2.136  17.839
 5709SOL    HW129006   0.191   2.187  17.771
 5709SOL    HW229007   0.211   2.132  17.911
 5710SOL     OW29008   2.677   4.478  15.499
 5710SOL    HW129009   2.612   4.515  15.438
 5710SOL    HW229010   2.627   4.421  15.556
 5711SOL     OW29011   4.270   3.209  20.201
 5711SOL    HW129012   4.326   3.136  20.174
 5711SOL    HW229013   4.263   3.263  20.122
 5712SOL     OW29014   1.468   1.166  17.448
 5712SOL    HW129015   1.537   1.105  17.421
 5712SOL    HW229016   1.423   1.120  17.519
 5713SOL     OW29017   2.525   4.164  20.361
 5713SOL    HW129018   2.449   4.188  20.414
 5713SOL    HW229019   2.489   4.113  20.289
 5714SOL     OW29020   2.290   0.604  20.768
 5714SOL    HW129021   2.301   0.699  20.761
 5714SOL    HW229022   2.375   0.568  20.744
 5715SOL     OW29023   2.956   3.081  15.887
 5715SOL    HW129024   2.951   3.175  15.869
 5715SOL    HW229025   2.865   3.052  15.889
 5716SOL     OW29026   2.872   3.750   5.240
 5716SOL    HW129027   2.880   3.655   5.243
 5716SOL    HW229028   2.945   3.782   5.292
 5717SOL     OW29029   3.391   2.215  14.556
 5717SOL    HW129030   3.410   2.230  14.649
 5717SOL    HW229031   3.421   2.125  14.540
 5718SOL     OW29032   2.469   2.621  21.170
 5718SOL    HW129033   2.545   2.675  21.150
 5718SOL    HW229034   2.399   2.684  21.188
 5719SOL     OW29035   1.583   3.314   0.785
 5719SOL    HW129036   1.501   3.293   0.829
 5719SOL    HW229037   1.614   3.394   0.827
 5720SOL     OW29038   0.193   1.656  19.863
 5720SOL    HW129039   0.267   1.650  19.803
 5720SOL    HW229040   0.126   1.703  19.814
 5721SOL     OW29041   1.224   0.188   2.982
 5721SOL    HW129042   1.280   0.116   3.009
 5721SOL    HW229043   1.203   0.169   2.890
 5722SOL     OW29044   1.367   2.756  16.054
 5722SOL    HW129045   1.412   2.719  16.130
 5722SOL    HW229046   1.359   2.682  15.993
 5723SOL     OW29047   0.712   4.438  20.165
 5723SOL    HW129048   0.729   4.532  20.162
 5723SOL    HW229049   0.771   4.401  20.099
 5724SOL     OW29050   1.520   2.199  17.359
 5724SOL    HW129051   1.509   2.189  17.264
 5724SOL    HW229052   1.588   2.136  17.382
 5725SOL     OW29053   1.823   4.199   0.136
 5725SOL    HW129054   1.863   4.250   0.066
 5725SOL    HW229055   1.731   4.228   0.137
 5726SOL     OW29056   2.406   4.424  12.428
 5726SOL    HW129057   2.322   4.382  12.447
 5726SOL    HW229058   2.394   4.515  12.455
 5727SOL     OW29059   3.439   4.054   0.823
 5727SOL    HW129060   3.365   3.995   0.839
 5727SOL    HW229061   3.464   4.035   0.732
 5728SOL     OW29062   4.190   0.934   6.598
 5728SOL    HW129063   4.231   0.851   6.624
 5728SOL    HW229064   4.188   0.930   6.502
 5729SOL     OW29065   2.618   1.184  14.766
 5729SOL    HW129066   2.680   1.135  14.820
 5729SOL    HW229067   2.666   1.261  14.737
 5730SOL     OW29068   3.925   2.478  20.169
 5730SOL    HW129069   3.925   2.546  20.235
 5730SOL    HW229070   4.017   2.467  20.144
 5731SOL     OW29071   3.339   1.023  15.458
 5731SOL    HW129072   3.404   1.071  15.509
 5731SOL    HW229073   3.348   0.932  15.487
 5732SOL     OW29074   1.245   0.112   1.469
 5732SOL    HW129075   1.217   0.034   1.421
 5732SOL    HW229076   1.179   0.124   1.537
 5733SOL     OW29077   2.122   3.364  18.491
 5733SOL    HW129078   2.168   3.281  18.475
 5733SOL    HW229079   2.192   3.429  18.496
 5734SOL     OW29080   0.310   4.749   2.500
 5734SOL    HW129081   0.391   4.791   2.529
 5734SOL    HW229082   0.315   4.751   2.405
 5735SOL     OW29083   3.763   0.175   4.960
 5735SOL    HW129084   3.836   0.212   4.911
 5735SOL    HW229085   3.755   0.231   5.037
 5736SOL     OW29086   4.493   2.005   3.431
 5736SOL    HW129087   4.499   2.092   3.471
 5736SOL    HW229088   4.528   2.017   3.343
 5737SOL     OW29089   2.996   1.438  16.750
 5737SOL    HW129090   3.016   1.515  16.803
 5737SOL    HW229091   2.945   1.472  16.676
 5738SOL     OW29092   4.592   2.178  17.241
 5738SOL    HW129093   4.676   2.167  17.286
 5738SOL    HW229094   4.573   2.092  17.205
 5739SOL     OW29095   0.878   3.810   5.456
 5739SOL    HW129096   0.892   3.716   5.469
 5739SOL    HW229097   0.956   3.851   5.494
 5740SOL     OW29098   0.166   3.094  18.316
 5740SOL    HW129099   0.089   3.053  18.277
 5740SOL    HW229100   0.148   3.188  18.313
 5741SOL     OW29101   2.038   1.754  19.516
 5741SOL    HW129102   2.046   1.733  19.609
 5741SOL    HW229103   2.080   1.681  19.471
 5742SOL     OW29104   4.570   0.089   0.887
 5742SOL    HW129105   4.558   0.174   0.846
 5742SOL    HW229106   4.547   0.103   0.979
 5743SOL     OW29107   3.904   3.642   6.049
 5743SOL    HW129108   3.954   3.592   5.984
 5743SOL    HW229109   3.968   3.666   6.116
 5744SOL     OW29110   1.838   1.316  15.039
 5744SOL    HW129111   1.899   1.304  14.966
 5744SOL    HW229112   1.759   1.269  15.012
 5745SOL     OW29113   3.292   0.805   2.356
 5745SOL    HW129114   3.313   0.723   2.399
 5745SOL    HW229115   3.359   0.867   2.386
 5746SOL     OW29116   0.564   0.268   2.964
 5746SOL    HW129117   0.524   0.326   3.029
 5746SOL    HW229118   0.639   0.318   2.931
 5747SOL     OW29119   1.821   4.630   6.780
 5747SOL    HW129120   1.896   4.620   6.839
 5747SOL    HW229121   1.763   4.691   6.826
 5748SOL     OW29122   3.703   4.022   4.154
 5748SOL    HW129123   3.645   4.093   4.128
 5748SOL    HW229124   3.675   3.947   4.100
 5749SOL     OW29125   1.770   1.760  20.180
 5749SOL    HW129126   1.681   1.789  20.156
 5749SOL    HW229127   1.809   1.733  20.097
 5750SOL     OW29128   3.402   4.391  20.717
 5750SOL    HW129129   3.420   4.338  20.639
 5750SOL    HW229130   3.308   4.384  20.730
 5751SOL     OW29131   3.261   0.619   7.066
 5751SOL    HW129132   3.193   0.611   6.999
 5751SOL    HW229133   3.243   0.703   7.108
 5752SOL     OW29134   1.967   4.078  19.658
 5752SOL    HW129135   1.875   4.093  19.634
 5752SOL    HW229136   1.979   3.984  19.650
 5753SOL     OW29137   0.465   3.629   2.469
 5753SOL    HW129138   0.521   3.705   2.453
 5753SOL    HW229139   0.456   3.625   2.564
 5754SOL     OW29140   2.540   1.853  18.327
 5754SOL    HW129141   2.469   1.850  18.391
 5754SOL    HW229142   2.591   1.774  18.343
 5755SOL     OW29143   3.929   1.741  19.283
 5755SOL    HW129144   3.851   1.697  19.251
 5755SOL    HW229145   3.996   1.672  19.286
 5756SOL     OW29146   1.800   2.186  17.015
 5756SOL    HW129147   1.844   2.129  16.953
 5756SOL    HW229148   1.870   2.231  17.062
 5757SOL     OW29149   3.992   1.926  16.743
 5757SOL    HW129150   3.978   1.852  16.684
 5757SOL    HW229151   4.034   1.887  16.820
 5758SOL     OW29152   2.986   1.366  15.950
 5758SOL    HW129153   3.032   1.449  15.934
 5758SOL    HW229154   3.037   1.300  15.903
 5759SOL     OW29155   3.715   4.665  18.915
 5759SOL    HW129156   3.647   4.732  18.909
 5759SOL    HW229157   3.773   4.695  18.985
 5760SOL     OW29158   2.476   0.958  19.785
 5760SOL    HW129159   2.412   0.927  19.721
 5760SOL    HW229160   2.432   0.948  19.870
 5761SOL     OW29161   1.434   4.064   6.943
 5761SOL    HW129162   1.519   4.096   6.974
 5761SOL    HW229163   1.445   3.969   6.938
 5762SOL     OW29164   3.302   2.621   3.284
 5762SOL    HW129165   3.363   2.596   3.214
 5762SOL    HW229166   3.221   2.575   3.262
 5763SOL     OW29167   2.582   0.878   0.823
 5763SOL    HW129168   2.587   0.961   0.872
 5763SOL    HW229169   2.491   0.874   0.793
 5764SOL     OW29170   4.312   2.267  15.710
 5764SOL    HW129171   4.302   2.200  15.777
 5764SOL    HW229172   4.243   2.331  15.728
 5765SOL     OW29173   2.065   3.662  20.432
 5765SOL    HW129174   2.040   3.751  20.456
 5765SOL    HW229175   1.984   3.612  20.436
 5766SOL     OW29176   2.280   1.719   6.607
 5766SOL    HW129177   2.192   1.757   6.601
 5766SOL    HW229178   2.335   1.776   6.554
 5767SOL     OW29179   2.441   1.085  15.183
 5767SOL    HW129180   2.372   1.133  15.229
 5767SOL    HW229181   2.402   1.062  15.098
 5768SOL     OW29182   0.374   1.356   1.707
 5768SOL    HW129183   0.374   1.451   1.713
 5768SOL    HW229184   0.350   1.338   1.616
 5769SOL     OW29185   2.752   2.400   3.343
 5769SOL    HW129186   2.810   2.369   3.273
 5769SOL    HW229187   2.674   2.344   3.336
 5770SOL     OW29188   1.345   1.211   3.574
 5770SOL    HW129189   1.372   1.193   3.664
 5770SOL    HW229190   1.419   1.183   3.521
 5771SOL     OW29191   3.655   1.939  13.602
 5771SOL    HW129192   3.597   2.006  13.638
 5771SOL    HW229193   3.736   1.947  13.653
 5772SOL     OW29194   0.254   1.772  19.062
 5772SOL    HW129195   0.328   1.822  19.096
 5772SOL    HW229196   0.264   1.777  18.967
 5773SOL     OW29197   4.722   2.576   3.637
 5773SOL    HW129198   4.684   2.584   3.549
 5773SOL    HW229199   4.786   2.506   3.630
 5774SOL     OW29200   0.464   3.149   4.404
 5774SOL    HW129201   0.405   3.136   4.479
 5774SOL    HW229202   0.494   3.061   4.381
 5775SOL     OW29203   0.401   0.883  20.464
 5775SOL    HW129204   0.446   0.909  20.384
 5775SOL    HW229205   0.412   0.957  20.523
 5776SOL     OW29206   0.697   0.647  18.663
 5776SOL    HW129207   0.730   0.734  18.687
 5776SOL    HW229208   0.632   0.663  18.595
 5777SOL     OW29209   2.976   0.567   3.523
 5777SOL    HW129210   2.966   0.648   3.572
 5777SOL    HW229211   2.926   0.502   3.573
 5778SOL     OW29212   3.391   1.121  19.219
 5778SOL    HW129213   3.480   1.112  19.254
 5778SOL    HW229214   3.334   1.102  19.293
 5779SOL     OW29215   2.118   0.125  19.814
 5779SOL    HW129216   2.108   0.219  19.797
 5779SOL    HW229217   2.088   0.083  19.733
 5780SOL     OW29218   0.548   2.897   4.368
 5780SOL    HW129219   0.512   2.808   4.374
 5780SOL    HW229220   0.642   2.886   4.382
 5781SOL     OW29221   3.276   0.151   2.282
 5781SOL    HW129222   3.351   0.095   2.263
 5781SOL    HW229223   3.313   0.225   2.330
 5782SOL     OW29224   0.880   0.408   1.316
 5782SOL    HW129225   0.961   0.389   1.362
 5782SOL    HW229226   0.841   0.321   1.300
 5783SOL     OW29227   3.025   4.118  20.687
 5783SOL    HW129228   2.944   4.164  20.666
 5783SOL    HW229229   3.001   4.057  20.757
 5784SOL     OW29230   3.968   3.813   7.238
 5784SOL    HW129231   3.925   3.815   7.152
 5784SOL    HW229232   4.024   3.891   7.238
 5785SOL     OW29233   2.181   2.339  17.917
 5785SOL    HW129234   2.196   2.257  17.963
 5785SOL    HW229235   2.210   2.407  17.978
 5786SOL     OW29236   3.936   0.666   2.532
 5786SOL    HW129237   3.869   0.730   2.553
 5786SOL    HW229238   3.899   0.582   2.560
 5787SOL     OW29239   0.934   2.986   0.778
 5787SOL    HW129240   0.960   3.064   0.827
 5787SOL    HW229241   0.979   2.914   0.822
 5788SOL     OW29242   0.929   3.545   3.107
 5788SOL    HW129243   0.896   3.560   3.018
 5788SOL    HW229244   1.006   3.489   3.095
 5789SOL     OW29245   3.397   2.237   5.200
 5789SOL    HW129246   3.338   2.262   5.272
 5789SOL    HW229247   3.365   2.287   5.125
 5790SOL     OW29248   4.647   2.427   0.565
 5790SOL    HW129249   4.692   2.509   0.546
 5790SOL    HW229250   4.638   2.426   0.660
 5791SOL     OW29251   3.766   2.659  14.816
 5791SOL    HW129252   3.821   2.664  14.738
 5791SOL    HW229253   3.827   2.667  14.889
 5792SOL     OW29254   4.709   1.715   1.790
 5792SOL    HW129255   4.670   1.642   1.742
 5792SOL    HW229256   4.785   1.678   1.833
 5793SOL     OW29257   3.847   1.104   7.153
 5793SOL    HW129258   3.840   1.033   7.088
 5793SOL    HW229259   3.941   1.112   7.169
 5794SOL     OW29260   1.518   2.979  19.340
 5794SOL    HW129261   1.540   3.002  19.250
 5794SOL    HW229262   1.579   2.909  19.362
 5795SOL     OW29263   0.584   1.612  16.401
 5795SOL    HW129264   0.587   1.623  16.306
 5795SOL    HW229265   0.550   1.523  16.413
 5796SOL     OW29266   4.399   1.916  16.547
 5796SOL    HW129267   4.396   1.865  16.628
 5796SOL    HW229268   4.413   2.006  16.577
 5797SOL     OW29269   2.806   4.209  16.508
 5797SOL    HW129270   2.769   4.122  16.524
 5797SOL    HW229271   2.736   4.258  16.465
 5798SOL     OW29272   1.160   1.895  16.547
 5798SOL    HW129273   1.182   1.940  16.629
 5798SOL    HW229274   1.068   1.915  16.533
 5799SOL     OW29275   2.594   0.879   4.515
 5799SOL    HW129276   2.522   0.829   4.553
 5799SOL    HW229277   2.561   0.907   4.430
 5800SOL     OW29278   0.119   1.975   4.434
 5800SOL    HW129279   0.099   1.933   4.518
 5800SOL    HW229280   0.109   2.069   4.452
 5801SOL     OW29281   3.349   3.891  11.720
 5801SOL    HW129282   3.350   3.807  11.675
 5801SOL    HW229283   3.355   3.956  11.650
 5802SOL     OW29284   4.378   3.534  16.344
 5802SOL    HW129285   4.309   3.512  16.407
 5802SOL    HW229286   4.342   3.606  16.293
 5803SOL     OW29287   3.149   3.288  15.493
 5803SOL    HW129288   3.216   3.268  15.558
 5803SOL    HW229289   3.187   3.260  15.410
 5804SOL     OW29290   3.479   4.415   6.686
 5804SOL    HW129291   3.396   4.378   6.717
 5804SOL    HW229292   3.539   4.406   6.761
 5805SOL     OW29293   3.117   2.038  18.977
 5805SOL    HW129294   3.036   2.057  18.930
 5805SOL    HW229295   3.184   2.036  18.909
 5806SOL     OW29296   3.290   2.362   6.394
 5806SOL    HW129297   3.270   2.434   6.454
 5806SOL    HW229298   3.207   2.339   6.354
 5807SOL     OW29299   1.381   1.423   2.967
 5807SOL    HW129300   1.354   1.380   3.048
 5807SOL    HW229301   1.388   1.516   2.989
 5808SOL     OW29302   2.617   3.344   6.478
 5808SOL    HW129303   2.703   3.382   6.499
 5808SOL    HW229304   2.625   3.314   6.388
 5809SOL     OW29305   0.410   0.272   0.499
 5809SOL    HW129306   0.315   0.272   0.510
 5809SOL    HW229307   0.424   0.246   0.408
 5810SOL     OW29308   2.253   2.091   2.625
 5810SOL    HW129309   2.321   2.023   2.618
 5810SOL    HW229310   2.296   2.163   2.671
 5811SOL     OW29311   3.281   2.610   5.912
 5811SOL    HW129312   3.336   2.594   5.836
 5811SOL    HW229313   3.335   2.586   5.987
 5812SOL     OW29314   1.741   4.417   3.639
 5812SOL    HW129315   1.835   4.404   3.625
 5812SOL    HW229316   1.714   4.470   3.564
 5813SOL     OW29317   1.408   4.792  17.981
 5813SOL    HW129318   1.484   4.734  17.992
 5813SOL    HW229319   1.427   0.073  18.038
 5814SOL     OW29320   0.490   0.141   1.250
 5814SOL    HW129321   0.431   0.172   1.318
 5814SOL    HW229322   0.469   0.048   1.240
 5815SOL     OW29323   1.059   3.924   4.171
 5815SOL    HW129324   0.978   3.880   4.196
 5815SOL    HW229325   1.031   3.993   4.111
 5816SOL     OW29326   3.011   1.582  19.223
 5816SOL    HW129327   3.044   1.530  19.150
 5816SOL    HW229328   2.951   1.645  19.184
 5817SOL     OW29329   2.166   1.104   2.686
 5817SOL    HW129330   2.168   1.075   2.594
 5817SOL    HW229331   2.257   1.128   2.704
 5818SOL     OW29332   3.315   1.709   1.221
 5818SOL    HW129333   3.411   1.714   1.220
 5818SOL    HW229334   3.286   1.795   1.192
 5819SOL     OW29335   1.683   1.715  16.091
 5819SOL    HW129336   1.679   1.721  15.996
 5819SOL    HW229337   1.775   1.729  16.112
 5820SOL     OW29338   3.341   2.974   5.597
 5820SOL    HW129339   3.255   2.938   5.620
 5820SOL    HW229340   3.397   2.950   5.671
 5821SOL     OW29341   4.538   4.651  15.879
 5821SOL    HW129342   4.560   4.708  15.805
 5821SOL    HW229343   4.547   4.562  15.845
 5822SOL     OW29344   1.546   3.521   3.664
 5822SOL    HW129345   1.463   3.519   3.712
 5822SOL    HW229346   1.558   3.432   3.633
 5823SOL     OW29347   0.945   4.430  16.842
 5823SOL    HW129348   0.907   4.389  16.920
 5823SOL    HW229349   1.015   4.370  16.815
 5824SOL     OW29350   0.977   4.091  21.145
 5824SOL    HW129351   0.999   4.128  21.231
 5824SOL    HW229352   0.933   4.009  21.165
 5825SOL     OW29353   2.977   3.830  19.442
 5825SOL    HW129354   2.881   3.825  19.437
 5825SOL    HW229355   2.995   3.862  19.531
 5826SOL     OW29356   2.314   0.145   1.460
 5826SOL    HW129357   2.344   0.228   1.422
 5826SOL    HW229358   2.230   0.166   1.501
 5827SOL     OW29359   3.226   1.011  16.334
 5827SOL    HW129360   3.251   1.065  16.409
 5827SOL    HW229361   3.131   1.026  16.325
 5828SOL     OW29362   3.059   3.961  16.744
 5828SOL    HW129363   3.090   4.047  16.715
 5828SOL    HW229364   3.030   3.975  16.834
 5829SOL     OW29365   2.395   3.554  18.460
 5829SOL    HW129366   2.420   3.475  18.411
 5829SOL    HW229367   2.431   3.626  18.408
 5830SOL     OW29368   1.277   4.146   0.663
 5830SOL    HW129369   1.189   4.119   0.691
 5830SOL    HW229370   1.308   4.203   0.734
 5831SOL     OW29371   1.428   4.317   5.586
 5831SOL    HW129372   1.387   4.399   5.559
 5831SOL    HW229373   1.506   4.309   5.532
 5832SOL     OW29374   3.003   1.196   6.212
 5832SOL    HW129375   2.921   1.224   6.171
 5832SOL    HW229376   3.009   1.102   6.192
 5833SOL     OW29377   0.045   2.802   2.981
 5833SOL    HW129378   0.066   2.738   2.913
 5833SOL    HW229379   0.117   2.795   3.044
 5834SOL     OW29380   3.889   1.262  20.219
 5834SOL    HW129381   3.827   1.322  20.177
 5834SOL    HW229382   3.834   1.194  20.258
 5835SOL     OW29383   0.078   4.558   2.018
 5835SOL    HW129384   0.077   4.466   1.992
 5835SOL    HW229385   0.098   4.556   2.112
 5836SOL     OW29386   0.210   2.997   6.819
 5836SOL    HW129387   0.182   2.946   6.742
 5836SOL    HW229388   0.129   3.010   6.869
 5837SOL     OW29389   0.450   4.059  17.967
 5837SOL    HW129390   0.514   4.039  18.036
 5837SOL    HW229391   0.369   4.079  18.015
 5838SOL     OW29392   2.195   1.907  14.399
 5838SOL    HW129393   2.244   1.972  14.349
 5838SOL    HW229394   2.103   1.931  14.386
 5839SOL     OW29395   0.129   0.893  18.220
 5839SOL    HW129396   0.068   0.862  18.152
 5839SOL    HW229397   0.080   0.883  18.302
 5840SOL     OW29398   1.955   0.359  19.403
 5840SOL    HW129399   1.944   0.289  19.340
 5840SOL    HW229400   1.912   0.328  19.482
 5841SOL     OW29401   2.989   1.191  21.001
 5841SOL    HW129402   3.022   1.270  21.043
 5841SOL    HW229403   2.949   1.222  20.920
 5842SOL     OW29404   1.296   1.621   5.577
 5842SOL    HW129405   1.391   1.627   5.563
 5842SOL    HW229406   1.269   1.545   5.526
 5843SOL     OW29407   2.707   0.858  20.189
 5843SOL    HW129408   2.751   0.849  20.105
 5843SOL    HW229409   2.621   0.895  20.168
 5844SOL     OW29410   3.499   1.099   3.038
 5844SOL    HW129411   3.444   1.168   3.001
 5844SOL    HW229412   3.468   1.018   2.996
 5845SOL     OW29413   3.469   0.008  16.123
 5845SOL    HW129414   3.384   4.793  16.081
 5845SOL    HW229415   3.491   4.713  16.152
 5846SOL     OW29416   1.200   3.097  18.299
 5846SOL    HW129417   1.194   3.192  18.299
 5846SOL    HW229418   1.222   3.074  18.209
 5847SOL     OW29419   1.355   3.096   5.642
 5847SOL    HW129420   1.355   3.189   5.621
 5847SOL    HW229421   1.325   3.092   5.733
 5848SOL     OW29422   3.664   0.660   3.055
 5848SOL    HW129423   3.717   0.737   3.037
 5848SOL    HW229424   3.643   0.624   2.969
 5849SOL     OW29425   0.623   4.443  13.742
 5849SOL    HW129426   0.545   4.408  13.699
 5849SOL    HW229427   0.668   4.493  13.674
 5850SOL     OW29428   0.814   2.143  19.251
 5850SOL    HW129429   0.771   2.067  19.292
 5850SOL    HW229430   0.744   2.208  19.244
 5851SOL     OW29431   1.526   3.663   5.870
 5851SOL    HW129432   1.590   3.664   5.799
 5851SOL    HW229433   1.560   3.725   5.934
 5852SOL     OW29434   1.402   1.830  16.897
 5852SOL    HW129435   1.438   1.752  16.854
 5852SOL    HW229436   1.471   1.859  16.956
 5853SOL     OW29437   4.079   4.025   1.053
 5853SOL    HW129438   4.009   4.072   1.098
 5853SOL    HW229439   4.035   3.972   0.988
 5854SOL     OW29440   3.941   1.127  17.798
 5854SOL    HW129441   3.893   1.084  17.869
 5854SOL    HW229442   3.997   1.191  17.842
 5855SOL     OW29443   3.024   1.425  14.791
 5855SOL    HW129444   3.096   1.367  14.767
 5855SOL    HW229445   2.984   1.383  14.867
 5856SOL     OW29446   1.576   3.866  16.059
 5856SOL    HW129447   1.601   3.776  16.079
 5856SOL    HW229448   1.584   3.873  15.964
 5857SOL     OW29449   2.170   0.439   3.834
 5857SOL    HW129450   2.161   0.403   3.923
 5857SOL    HW229451   2.098   0.399   3.785
 5858SOL     OW29452   4.560   3.975   1.036
 5858SOL    HW129453   4.572   3.885   1.005
 5858SOL    HW229454   4.649   4.010   1.043
 5859SOL     OW29455   4.263   2.265  16.426
 5859SOL    HW129456   4.210   2.328  16.378
 5859SOL    HW229457   4.200   2.205  16.466
 5860SOL     OW29458   3.817   4.324   5.341
 5860SOL    HW129459   3.788   4.341   5.252
 5860SOL    HW229460   3.910   4.303   5.333
 5861SOL     OW29461   1.433   3.979   0.959
 5861SOL    HW129462   1.410   3.893   0.996
 5861SOL    HW229463   1.463   4.030   1.034
 5862SOL     OW29464   0.728   3.394   4.774
 5862SOL    HW129465   0.790   3.413   4.845
 5862SOL    HW229466   0.656   3.455   4.789
 5863SOL     OW29467   3.856   2.851   3.087
 5863SOL    HW129468   3.936   2.832   3.138
 5863SOL    HW229469   3.887   2.869   2.999
 5864SOL     OW29470   1.780   1.779   1.404
 5864SOL    HW129471   1.836   1.790   1.327
 5864SOL    HW229472   1.786   1.862   1.451
 5865SOL     OW29473   1.973   2.676   2.285
 5865SOL    HW129474   2.050   2.731   2.301
 5865SOL    HW229475   1.901   2.739   2.276
 5866SOL     OW29476   2.614   2.160   4.982
 5866SOL    HW129477   2.602   2.085   5.040
 5866SOL    HW229478   2.671   2.128   4.912
 5867SOL     OW29479   4.607   0.771  18.517
 5867SOL    HW129480   4.587   0.861  18.494
 5867SOL    HW229481   4.522   0.728  18.525
 5868SOL     OW29482   3.223   1.414   4.666
 5868SOL    HW129483   3.223   1.363   4.585
 5868SOL    HW229484   3.303   1.388   4.711
 5869SOL     OW29485   3.845   2.075   0.859
 5869SOL    HW129486   3.776   2.099   0.920
 5869SOL    HW229487   3.821   2.118   0.777
 5870SOL     OW29488   2.190   1.394  17.894
 5870SOL    HW129489   2.264   1.454  17.907
 5870SOL    HW229490   2.229   1.317  17.853
 5871SOL     OW29491   1.757   3.526  16.955
 5871SOL    HW129492   1.741   3.620  16.968
 5871SOL    HW229493   1.816   3.521  16.881
 5872SOL     OW29494   3.651   1.139  19.591
 5872SOL    HW129495   3.569   1.123  19.637
 5872SOL    HW229496   3.719   1.121  19.657
 5873SOL     OW29497   3.617   3.669  15.405
 5873SOL    HW129498   3.623   3.575  15.422
 5873SOL    HW229499   3.527   3.692  15.428
 5874SOL     OW29500   0.344   1.070   1.826
 5874SOL    HW129501   0.252   1.055   1.803
 5874SOL    HW229502   0.360   1.161   1.800
 5875SOL     OW29503   3.304   3.734   0.582
 5875SOL    HW129504   3.348   3.774   0.507
 5875SOL    HW229505   3.374   3.721   0.647
 5876SOL     OW29506   2.805   1.145  18.023
 5876SOL    HW129507   2.885   1.122  18.071
 5876SOL    HW229508   2.835   1.164  17.934
 5877SOL     OW29509   1.190   4.139  19.844
 5877SOL    HW129510   1.233   4.128  19.928
 5877SOL    HW229511   1.192   4.233  19.828
 5878SOL     OW29512   4.338   0.569  15.945
 5878SOL    HW129513   4.336   0.547  16.038
 5878SOL    HW229514   4.363   0.486  15.902
 5879SOL     OW29515   1.666   1.661  19.919
 5879SOL    HW129516   1.606   1.587  19.908
 5879SOL    HW229517   1.610   1.732  19.951
 5880SOL     OW29518   4.523   3.160   0.510
 5880SOL    HW129519   4.612   3.129   0.496
 5880SOL    HW229520   4.474   3.081   0.533
 5881SOL     OW29521   4.391   3.944  19.443
 5881SOL    HW129522   4.301   3.962  19.416
 5881SOL    HW229523   4.402   3.850  19.426
 5882SOL     OW29524   3.087   3.722   3.957
 5882SOL    HW129525   3.043   3.679   4.030
 5882SOL    HW229526   3.101   3.812   3.987
 5883SOL     OW29527   4.331   1.749   4.879
 5883SOL    HW129528   4.403   1.703   4.922
 5883SOL    HW229529   4.373   1.798   4.808
 5884SOL     OW29530   3.547   2.698  17.051
 5884SOL    HW129531   3.578   2.787  17.067
 5884SOL    HW229532   3.523   2.696  16.958
 5885SOL     OW29533   2.827   2.917  17.477
 5885SOL    HW129534   2.843   2.994  17.532
 5885SOL    HW229535   2.905   2.863  17.488
 5886SOL     OW29536   4.660   2.387   4.466
 5886SOL    HW129537   4.658   2.447   4.392
 5886SOL    HW229538   4.665   2.444   4.543
 5887SOL     OW29539   1.674   1.446   4.791
 5887SOL    HW129540   1.627   1.365   4.810
 5887SOL    HW229541   1.672   1.454   4.696
 5888SOL     OW29542   1.614   3.683  18.301
 5888SOL    HW129543   1.551   3.731  18.247
 5888SOL    HW229544   1.572   3.598  18.316
 5889SOL     OW29545   2.224   3.204  15.469
 5889SOL    HW129546   2.201   3.220  15.377
 5889SOL    HW229547   2.141   3.212  15.516
 5890SOL     OW29548   2.396   3.826  13.091
 5890SOL    HW129549   2.464   3.827  13.024
 5890SOL    HW229550   2.394   3.736  13.122
 5891SOL     OW29551   0.808   3.764  15.672
 5891SOL    HW129552   0.800   3.679  15.631
 5891SOL    HW229553   0.744   3.819  15.627
 5892SOL     OW29554   2.971   2.125   2.939
 5892SOL    HW129555   2.977   2.035   2.906
 5892SOL    HW229556   3.061   2.156   2.939
 5893SOL     OW29557   3.900   1.951  18.253
 5893SOL    HW129558   3.879   2.019  18.317
 5893SOL    HW229559   3.857   1.873  18.287
 5894SOL     OW29560   3.228   4.156   5.940
 5894SOL    HW129561   3.146   4.108   5.936
 5894SOL    HW229562   3.272   4.135   5.857
 5895SOL     OW29563   0.686   3.799  20.236
 5895SOL    HW129564   0.642   3.826  20.316
 5895SOL    HW229565   0.627   3.825  20.166
 5896SOL     OW29566   3.385   2.933   2.657
 5896SOL    HW129567   3.480   2.941   2.652
 5896SOL    HW229568   3.365   2.856   2.605
 5897SOL     OW29569   1.712   4.733   0.466
 5897SOL    HW129570   1.802   4.766   0.470
 5897SOL    HW229571   1.719   4.640   0.485
 5898SOL     OW29572   0.601   2.363  20.247
 5898SOL    HW129573   0.530   2.323  20.197
 5898SOL    HW229574   0.593   2.456  20.229
 5899SOL     OW29575   1.548   1.035  16.387
 5899SOL    HW129576   1.575   1.008  16.475
 5899SOL    HW229577   1.526   0.953  16.342
 5900SOL     OW29578   2.168   0.384  18.696
 5900SOL    HW129579   2.220   0.447  18.745
 5900SOL    HW229580   2.189   0.300  18.735
 5901SOL     OW29581   2.460   2.280   1.770
 5901SOL    HW129582   2.533   2.283   1.832
 5901SOL    HW229583   2.392   2.231   1.815
 5902SOL     OW29584   0.494   1.389  17.345
 5902SOL    HW129585   0.427   1.446  17.381
 5902SOL    HW229586   0.451   1.305  17.332
 5903SOL     OW29587   1.400   0.087  14.896
 5903SOL    HW129588   1.405   0.116  14.805
 5903SOL    HW229589   1.447   0.154  14.945
 5904SOL     OW29590   2.503   0.954  19.297
 5904SOL    HW129591   2.552   0.874  19.280
 5904SOL    HW229592   2.563   1.025  19.275
 5905SOL     OW29593   1.893   4.020  16.268
 5905SOL    HW129594   1.916   3.949  16.209
 5905SOL    HW229595   1.961   4.086  16.253
 5906SOL     OW29596   1.192   2.134   0.052
 5906SOL    HW129597   1.220   2.184  21.248
 5906SOL    HW229598   1.273   2.113   0.099
 5907SOL     OW29599   1.684   3.435   7.648
 5907SOL    HW129600   1.637   3.418   7.729
 5907SOL    HW229601   1.684   3.531   7.639
 5908SOL     OW29602   2.289   4.462  19.848
 5908SOL    HW129603   2.280   4.462  19.753
 5908SOL    HW229604   2.370   4.509  19.865
 5909SOL     OW29605   4.087   1.937   4.101
 5909SOL    HW129606   4.114   1.903   4.186
 5909SOL    HW229607   4.066   1.860   4.049
 5910SOL     OW29608   3.992   1.475   2.230
 5910SOL    HW129609   4.062   1.479   2.165
 5910SOL    HW229610   4.037   1.473   2.314
 5911SOL     OW29611   1.041   1.860   8.853
 5911SOL    HW129612   1.128   1.899   8.850
 5911SOL    HW229613   0.984   1.932   8.881
 5912SOL     OW29614   3.038   1.657  15.953
 5912SOL    HW129615   3.118   1.707  15.940
 5912SOL    HW229616   2.968   1.720  15.936
 5913SOL     OW29617   4.711   1.415   1.310
 5913SOL    HW129618   4.704   1.357   1.234
 5913SOL    HW229619   4.749   1.360   1.378
 5914SOL     OW29620   3.232   0.795   0.059
 5914SOL    HW129621   3.167   0.844   0.008
 5914SOL    HW229622   3.274   0.861   0.114
 5915SOL     OW29623   0.937   0.348   0.013
 5915SOL    HW129624   0.906   0.438   0.006
 5915SOL    HW229625   0.921   0.310  21.200
 5916SOL     OW29626   3.301   3.769  18.676
 5916SOL    HW129627   3.232   3.792  18.738
 5916SOL    HW229628   3.373   3.737  18.730
 5917SOL     OW29629   2.720   3.439   5.752
 5917SOL    HW129630   2.704   3.459   5.660
 5917SOL    HW229631   2.713   3.524   5.796
 5918SOL     OW29632   2.856   0.672  19.644
 5918SOL    HW129633   2.830   0.677  19.552
 5918SOL    HW229634   2.941   0.628  19.643
 5919SOL     OW29635   0.599   2.205  20.494
 5919SOL    HW129636   0.601   2.254  20.412
 5919SOL    HW229637   0.589   2.272  20.561
 5920SOL     OW29638   0.374   1.910  18.335
 5920SOL    HW129639   0.447   1.882  18.391
 5920SOL    HW229640   0.407   1.898  18.246
 5921SOL     OW29641   3.675   1.410   6.714
 5921SOL    HW129642   3.667   1.373   6.802
 5921SOL    HW229643   3.656   1.503   6.725
 5922SOL     OW29644   0.164   3.846  14.191
 5922SOL    HW129645   0.201   3.770  14.237
 5922SOL    HW229646   0.076   3.856  14.228
 5923SOL     OW29647   4.225   2.490   5.050
 5923SOL    HW129648   4.258   2.422   5.110
 5923SOL    HW229649   4.176   2.442   4.984
 5924SOL     OW29650   0.486   3.679  20.037
 5924SOL    HW129651   0.527   3.665  19.951
 5924SOL    HW229652   0.393   3.663  20.021
 5925SOL     OW29653   2.185   3.178   5.903
 5925SOL    HW129654   2.191   3.083   5.900
 5925SOL    HW229655   2.174   3.199   5.996
 5926SOL     OW29656   1.985   4.215   3.529
 5926SOL    HW129657   1.969   4.139   3.584
 5926SOL    HW229658   2.075   4.205   3.498
 5927SOL     OW29659   4.498   1.212  19.632
 5927SOL    HW129660   4.423   1.244  19.683
 5927SOL    HW229661   4.461   1.194  19.545
 5928SOL     OW29662   3.482   1.403  16.885
 5928SOL    HW129663   3.394   1.411  16.848
 5928SOL    HW229664   3.484   1.314  16.921
 5929SOL     OW29665   0.408   4.568  15.644
 5929SOL    HW129666   0.326   4.550  15.597
 5929SOL    HW229667   0.462   4.615  15.581
 5930SOL     OW29668   2.993   4.348  17.706
 5930SOL    HW129669   3.045   4.339  17.626
 5930SOL    HW229670   2.908   4.310  17.684
 5931SOL     OW29671   3.668   2.542   0.132
 5931SOL    HW129672   3.758   2.511   0.141
 5931SOL    HW229673   3.619   2.466   0.103
 5932SOL     OW29674   0.412   1.517   5.963
 5932SOL    HW129675   0.331   1.529   5.913
 5932SOL    HW229676   0.411   1.425   5.990
 5933SOL     OW29677   0.355   2.823   3.508
 5933SOL    HW129678   0.300   2.869   3.445
 5933SOL    HW229679   0.403   2.893   3.553
 5934SOL     OW29680   2.859   2.659   4.890
 5934SOL    HW129681   2.898   2.577   4.861
 5934SOL    HW229682   2.805   2.635   4.965
 5935SOL     OW29683   1.945   3.667  19.186
 5935SOL    HW129684   2.007   3.734  19.215
 5935SOL    HW229685   1.913   3.700  19.102
 5936SOL     OW29686   3.668   2.482   6.080
 5936SOL    HW129687   3.684   2.406   6.024
 5936SOL    HW229688   3.572   2.488   6.085
 5937SOL     OW29689   2.158   1.607  17.221
 5937SOL    HW129690   2.180   1.688  17.175
 5937SOL    HW229691   2.067   1.618  17.247
 5938SOL     OW29692   2.650   2.856   1.918
 5938SOL    HW129693   2.639   2.949   1.901
 5938SOL    HW229694   2.735   2.834   1.881
 5939SOL     OW29695   4.579   3.935   0.495
 5939SOL    HW129696   4.588   4.009   0.556
 5939SOL    HW229697   4.551   3.862   0.549
 5940SOL     OW29698   4.007   2.381   5.955
 5940SOL    HW129699   3.999   2.396   5.860
 5940SOL    HW229700   3.928   2.331   5.978
 5941SOL     OW29701   3.744   0.775  15.655
 5941SOL    HW129702   3.747   0.679  15.666
 5941SOL    HW229703   3.761   0.809  15.743
 5942SOL     OW29704   1.584   2.197   2.116
 5942SOL    HW129705   1.580   2.292   2.125
 5942SOL    HW229706   1.609   2.165   2.203
 5943SOL     OW29707   3.935   4.607  20.396
 5943SOL    HW129708   3.997   4.590  20.326
 5943SOL    HW229709   3.937   4.702  20.407
 5944SOL     OW29710   0.445   0.568   3.719
 5944SOL    HW129711   0.420   0.634   3.784
 5944SOL    HW229712   0.362   0.536   3.683
 5945SOL     OW29713   3.889   3.582  20.928
 5945SOL    HW129714   3.945   3.519  20.973
 5945SOL    HW229715   3.922   3.668  20.955
 5946SOL     OW29716   3.634   4.494   6.242
 5946SOL    HW129717   3.615   4.514   6.150
 5946SOL    HW229718   3.552   4.512   6.287
 5947SOL     OW29719   1.928   0.120  19.271
 5947SOL    HW129720   1.834   0.134  19.283
 5947SOL    HW229721   1.944   0.034  19.309
 5948SOL     OW29722   2.254   3.672   7.717
 5948SOL    HW129723   2.230   3.579   7.716
 5948SOL    HW229724   2.211   3.706   7.796
 5949SOL     OW29725   0.110   1.874  15.786
 5949SOL    HW129726   0.135   1.965  15.805
 5949SOL    HW229727   0.156   1.822  15.852
 5950SOL     OW29728   3.736   3.274   7.687
 5950SOL    HW129729   3.825   3.249   7.714
 5950SOL    HW229730   3.695   3.306   7.768
 5951SOL     OW29731   4.100   4.712   4.129
 5951SOL    HW129732   4.068   4.779   4.190
 5951SOL    HW229733   4.192   4.735   4.114
 5952SOL     OW29734   2.998   0.347   1.378
 5952SOL    HW129735   3.025   0.413   1.442
 5952SOL    HW229736   3.001   0.264   1.426
 5953SOL     OW29737   4.085   4.789   9.104
 5953SOL    HW129738   4.142   4.755   9.173
 5953SOL    HW229739   4.006   4.736   9.110
 5954SOL     OW29740   3.870   3.642  18.832
 5954SOL    HW129741   3.882   3.736  18.816
 5954SOL    HW229742   3.776   3.628  18.820
 5955SOL     OW29743   0.860   1.339  20.676
 5955SOL    HW129744   0.889   1.341  20.767
 5955SOL    HW229745   0.911   1.407  20.633
 5956SOL     OW29746   1.712   1.366   7.475
 5956SOL    HW129747   1.720   1.440   7.414
 5956SOL    HW229748   1.646   1.310   7.436
 5957SOL     OW29749   0.034   2.529   3.991
 5957SOL    HW129750   0.118   2.558   3.956
 5957SOL    HW229751   4.763   2.557   3.925
 5958SOL     OW29752   1.114   1.789  17.036
 5958SOL    HW129753   1.158   1.848  17.096
 5958SOL    HW229754   1.181   1.767  16.971
 5959SOL     OW29755   4.508   4.581   5.381
 5959SOL    HW129756   4.603   4.584   5.381
 5959SOL    HW229757   4.482   4.610   5.294
 5960SOL     OW29758   3.357   3.218   7.760
 5960SOL    HW129759   3.386   3.309   7.754
 5960SOL    HW229760   3.428   3.168   7.718
 5961SOL     OW29761   4.230   4.217  20.742
 5961SOL    HW129762   4.233   4.294  20.798
 5961SOL    HW229763   4.261   4.248  20.657
 5962SOL     OW29764   1.212   0.377   3.624
 5962SOL    HW129765   1.284   0.417   3.576
 5962SOL    HW229766   1.251   0.303   3.670
 5963SOL     OW29767   0.194   0.295   0.116
 5963SOL    HW129768   0.203   0.391   0.117
 5963SOL    HW229769   0.102   0.280   0.097
 5964SOL     OW29770   2.701   1.714   4.927
 5964SOL    HW129771   2.690   1.625   4.960
 5964SOL    HW229772   2.653   1.716   4.844
 5965SOL     OW29773   3.648   3.832   2.315
 5965SOL    HW129774   3.610   3.748   2.289
 5965SOL    HW229775   3.695   3.862   2.237
 5966SOL     OW29776   4.575   2.459   2.252
 5966SOL    HW129777   4.632   2.444   2.177
 5966SOL    HW229778   4.594   2.549   2.278
 5967SOL     OW29779   0.112   2.356   2.890
 5967SOL    HW129780   0.126   2.419   2.819
 5967SOL    HW229781   0.150   2.274   2.856
 5968SOL     OW29782   1.732   1.617   2.982
 5968SOL    HW129783   1.694   1.581   3.063
 5968SOL    HW229784   1.826   1.617   2.999
 5969SOL     OW29785   4.126   1.264  15.155
 5969SOL    HW129786   4.138   1.170  15.162
 5969SOL    HW229787   4.165   1.299  15.236
 5970SOL     OW29788   1.714   4.100   1.075
 5970SOL    HW129789   1.771   4.056   1.137
 5970SOL    HW229790   1.657   4.155   1.129
 5971SOL     OW29791   0.782   2.893   7.718
 5971SOL    HW129792   0.807   2.842   7.641
 5971SOL    HW229793   0.739   2.829   7.775
 5972SOL     OW29794   3.400   2.933   1.023
 5972SOL    HW129795   3.351   3.010   1.051
 5972SOL    HW229796   3.451   2.962   0.947
 5973SOL     OW29797   3.777   0.890   8.119
 5973SOL    HW129798   3.804   0.798   8.114
 5973SOL    HW229799   3.760   0.916   8.029
 5974SOL     OW29800   4.165   3.164   7.027
 5974SOL    HW129801   4.249   3.177   7.072
 5974SOL    HW229802   4.116   3.244   7.045
 5975SOL     OW29803   0.732   1.116  17.538
 5975SOL    HW129804   0.642   1.148  17.548
 5975SOL    HW229805   0.736   1.082  17.449
 5976SOL     OW29806   1.476   3.221   4.450
 5976SOL    HW129807   1.457   3.130   4.428
 5976SOL    HW229808   1.557   3.240   4.403
 5977SOL     OW29809   0.379   1.078  19.911
 5977SOL    HW129810   0.358   0.985  19.916
 5977SOL    HW229811   0.294   1.121  19.905
 5978SOL     OW29812   4.424   3.267   8.235
 5978SOL    HW129813   4.478   3.268   8.156
 5978SOL    HW229814   4.398   3.358   8.248
 5979SOL     OW29815   0.347   4.194   5.621
 5979SOL    HW129816   0.323   4.252   5.693
 5979SOL    HW229817   0.422   4.236   5.580
 5980SOL     OW29818   2.295   4.708   1.868
 5980SOL    HW129819   2.378   4.665   1.891
 5980SOL    HW229820   2.230   4.639   1.875
 5981SOL     OW29821   1.564   2.125   6.802
 5981SOL    HW129822   1.536   2.120   6.893
 5981SOL    HW229823   1.532   2.209   6.771
 5982SOL     OW29824   2.108   2.226   5.676
 5982SOL    HW129825   2.116   2.231   5.580
 5982SOL    HW229826   2.195   2.200   5.706
 5983SOL     OW29827   3.122   3.669   2.648
 5983SOL    HW129828   3.111   3.589   2.699
 5983SOL    HW229829   3.183   3.644   2.579
 5984SOL     OW29830   4.262   0.610   1.946
 5984SOL    HW129831   4.238   0.590   2.036
 5984SOL    HW229832   4.248   0.704   1.938
 5985SOL     OW29833   2.489   4.669   0.628
 5985SOL    HW129834   2.424   4.604   0.656
 5985SOL    HW229835   2.507   4.721   0.706
 5986SOL     OW29836   2.589   3.480  17.288
 5986SOL    HW129837   2.606   3.451  17.377
 5986SOL    HW229838   2.636   3.563  17.281
 5987SOL     OW29839   2.281   2.435   4.258
 5987SOL    HW129840   2.247   2.414   4.171
 5987SOL    HW229841   2.368   2.470   4.242
 5988SOL     OW29842   2.874   3.159   4.748
 5988SOL    HW129843   2.935   3.132   4.817
 5988SOL    HW229844   2.787   3.153   4.788
 5989SOL     OW29845   3.217   3.752  16.850
 5989SOL    HW129846   3.152   3.811  16.812
 5989SOL    HW229847   3.297   3.769  16.801
 5990SOL     OW29848   1.731   2.478  17.189
 5990SOL    HW129849   1.663   2.425  17.231
 5990SOL    HW229850   1.683   2.533  17.127
 5991SOL     OW29851   4.233   2.820  14.575
 5991SOL    HW129852   4.321   2.853  14.555
 5991SOL    HW229853   4.174   2.877  14.527
 5992SOL     OW29854   1.174   1.649  17.526
 5992SOL    HW129855   1.235   1.722  17.510
 5992SOL    HW229856   1.134   1.632  17.441
 5993SOL     OW29857   3.077   1.217   2.613
 5993SOL    HW129858   2.999   1.215   2.668
 5993SOL    HW229859   3.122   1.135   2.633
 5994SOL     OW29860   0.789   4.693  18.694
 5994SOL    HW129861   0.800   4.608  18.738
 5994SOL    HW229862   0.828   4.756  18.754
 5995SOL     OW29863   3.308   0.893  19.917
 5995SOL    HW129864   3.218   0.868  19.939
 5995SOL    HW229865   3.312   0.885  19.821
 5996SOL     OW29866   0.423   2.996   8.490
 5996SOL    HW129867   0.489   3.050   8.448
 5996SOL    HW229868   0.453   2.906   8.478
 5997SOL     OW29869   0.564   4.361  19.948
 5997SOL    HW129870   0.587   4.269  19.965
 5997SOL    HW229871   0.603   4.410  20.020
 5998SOL     OW29872   3.609   3.808  12.541
 5998SOL    HW129873   3.643   3.833  12.627
 5998SOL    HW229874   3.598   3.713  12.545
 5999SOL     OW29875   4.209   0.093   6.605
 5999SOL    HW129876   4.128   0.054   6.574
 5999SOL    HW229877   4.251   0.129   6.527
 6000SOL     OW29878   3.604   3.159   6.726
 6000SOL    HW129879   3.518   3.197   6.709
 6000SOL    HW229880   3.631   3.197   6.810
 6001SOL     OW29881   0.058   4.482  18.577
 6001SOL    HW129882   0.043   4.388  18.588
 6001SOL    HW229883   0.075   4.514  18.666
 6002SOL     OW29884   4.013   3.325   3.300
 6002SOL    HW129885   3.966   3.319   3.217
 6002SOL    HW229886   4.020   3.419   3.317
 6003SOL     OW29887   1.565   2.689   4.169
 6003SOL    HW129888   1.488   2.673   4.224
 6003SOL    HW229889   1.543   2.650   4.085
 6004SOL     OW29890   3.651   0.314   2.933
 6004SOL    HW129891   3.747   0.314   2.933
 6004SOL    HW229892   3.627   0.380   2.867
 6005SOL     OW29893   4.200   1.375   5.477
 6005SOL    HW129894   4.219   1.430   5.553
 6005SOL    HW229895   4.140   1.308   5.511
 6006SOL     OW29896   2.689   1.666   1.307
 6006SOL    HW129897   2.746   1.646   1.233
 6006SOL    HW229898   2.737   1.634   1.383
 6007SOL     OW29899   3.207   2.408   2.219
 6007SOL    HW129900   3.182   2.478   2.159
 6007SOL    HW229901   3.179   2.327   2.176
 6008SOL     OW29902   0.030   4.297   3.457
 6008SOL    HW129903   4.734   4.291   3.492
 6008SOL    HW229904   0.085   4.261   3.527
 6009SOL     OW29905   0.393   3.453  17.119
 6009SOL    HW129906   0.411   3.359  17.118
 6009SOL    HW229907   0.311   3.463  17.072
 6010SOL     OW29908   3.575   3.730  21.052
 6010SOL    HW129909   3.623   3.750  20.972
 6010SOL    HW229910   3.591   3.637  21.066
 6011SOL     OW29911   1.565   0.347   1.036
 6011SOL    HW129912   1.495   0.281   1.038
 6011SOL    HW229913   1.581   0.361   0.942
 6012SOL     OW29914   3.518   3.098  19.739
 6012SOL    HW129915   3.437   3.046  19.733
 6012SOL    HW229916   3.488   3.187  19.759
 6013SOL     OW29917   3.786   0.255   9.250
 6013SOL    HW129918   3.842   0.332   9.238
 6013SOL    HW229919   3.826   0.187   9.198
 6014SOL     OW29920   1.221   2.195   7.777
 6014SOL    HW129921   1.253   2.166   7.691
 6014SOL    HW229922   1.266   2.278   7.793
 6015SOL     OW29923   2.128   2.501   5.847
 6015SOL    HW129924   2.214   2.539   5.863
 6015SOL    HW229925   2.140   2.407   5.863
 6016SOL     OW29926   1.025   1.944   9.839
 6016SOL    HW129927   0.987   2.031   9.848
 6016SOL    HW229928   0.983   1.907   9.761
 6017SOL     OW29929   0.239   1.852  10.100
 6017SOL    HW129930   0.260   1.944  10.092
 6017SOL    HW229931   0.159   1.841  10.048
 6018SOL     OW29932   1.212   2.054   8.563
 6018SOL    HW129933   1.193   2.008   8.481
 6018SOL    HW229934   1.208   2.147   8.540
 6019SOL     OW29935   0.549   2.245   8.150
 6019SOL    HW129936   0.545   2.185   8.225
 6019SOL    HW229937   0.457   2.265   8.131
 6020SOL     OW29938   1.625   2.329   8.556
 6020SOL    HW129939   1.689   2.288   8.614
 6020SOL    HW229940   1.612   2.265   8.486
 6021SOL     OW29941   0.720   1.175   9.164
 6021SOL    HW129942   0.670   1.104   9.205
 6021SOL    HW229943   0.810   1.162   9.196
 6022SOL     OW29944   1.013   2.856   9.865
 6022SOL    HW129945   1.012   2.833   9.772
 6022SOL    HW229946   1.033   2.774   9.910
 6023SOL     OW29947   0.765   0.985   7.673
 6023SOL    HW129948   0.729   0.958   7.588
 6023SOL    HW229949   0.712   0.938   7.737
 6024SOL     OW29950   4.750   4.374   0.778
 6024SOL    HW129951   0.027   4.413   0.830
 6024SOL    HW229952   4.692   4.447   0.757
 6025SOL     OW29953   1.347   0.497   7.521
 6025SOL    HW129954   1.359   0.573   7.577
 6025SOL    HW229955   1.256   0.471   7.535
 6026SOL     OW29956   1.661   2.348   7.957
 6026SOL    HW129957   1.568   2.362   7.977
 6026SOL    HW229958   1.707   2.385   8.032
 6027SOL     OW29959   0.098   2.171   9.958
 6027SOL    HW129960   0.050   2.179  10.041
 6027SOL    HW229961   0.187   2.147   9.984
 6028SOL     OW29962   1.534   3.381   9.558
 6028SOL    HW129963   1.603   3.315   9.567
 6028SOL    HW229964   1.454   3.336   9.585
 6029SOL     OW29965   4.728   1.588   8.422
 6029SOL    HW129966   4.643   1.545   8.428
 6029SOL    HW229967   4.731   1.622   8.332
 6030SOL     OW29968   4.598   4.732  16.409
 6030SOL    HW129969   4.562   4.692  16.329
 6030SOL    HW229970   4.680   4.685  16.424
 6031SOL     OW29971   0.928   2.204   8.284
 6031SOL    HW129972   1.013   2.161   8.289
 6031SOL    HW229973   0.880   2.171   8.359
 6032SOL     OW29974   0.995   3.231   8.822
 6032SOL    HW129975   1.066   3.206   8.763
 6032SOL    HW229976   1.039   3.259   8.903
 6033SOL     OW29977   0.627   3.178   8.361
 6033SOL    HW129978   0.718   3.200   8.384
 6033SOL    HW229979   0.590   3.260   8.329
 6034SOL     OW29980   0.319   3.142  15.236
 6034SOL    HW129981   0.241   3.111  15.189
 6034SOL    HW229982   0.352   3.214  15.183
 6035SOL     OW29983   2.305   0.654   8.655
 6035SOL    HW129984   2.341   0.579   8.703
 6035SOL    HW229985   2.352   0.653   8.572
 6036SOL     OW29986   0.410   1.408   8.000
 6036SOL    HW129987   0.488   1.353   8.011
 6036SOL    HW229988   0.409   1.465   8.077
 6037SOL     OW29989   0.611   2.710  11.274
 6037SOL    HW129990   0.627   2.790  11.324
 6037SOL    HW229991   0.585   2.645  11.339
 6038SOL     OW29992   0.292   2.184  10.554
 6038SOL    HW129993   0.252   2.222  10.631
 6038SOL    HW229994   0.386   2.194  10.568
 6039SOL     OW29995   4.633   3.045  10.174
 6039SOL    HW129996   4.639   2.951  10.156
 6039SOL    HW229997   4.609   3.084  10.091
 6040SOL     OW29998   0.784   1.585  11.154
 6040SOL    HW129999   0.774   1.679  11.138
 6040SOL    HW230000   0.842   1.555  11.084
 6041SOL     OW30001   0.646   2.739  10.272
 6041SOL    HW130002   0.631   2.733  10.366
 6041SOL    HW230003   0.734   2.777  10.265
 6042SOL     OW30004   4.659   1.529  10.556
 6042SOL    HW130005   4.706   1.527  10.472
 6042SOL    HW230006   4.681   1.615  10.593
 6043SOL     OW30007   0.865   1.856  11.519
 6043SOL    HW130008   0.876   1.805  11.439
 6043SOL    HW230009   0.834   1.942  11.488
 6044SOL     OW30010   1.350   1.570  12.261
 6044SOL    HW130011   1.368   1.652  12.215
 6044SOL    HW230012   1.255   1.565  12.265
 6045SOL     OW30013   4.487   0.379   9.656
 6045SOL    HW130014   4.437   0.307   9.693
 6045SOL    HW230015   4.561   0.389   9.715
 6046SOL     OW30016   0.820   2.130   9.792
 6046SOL    HW130017   0.789   2.207   9.745
 6046SOL    HW230018   0.744   2.071   9.793
 6047SOL     OW30019   1.461   2.446   9.642
 6047SOL    HW130020   1.463   2.353   9.665
 6047SOL    HW230021   1.430   2.489   9.722
 6048SOL     OW30022   1.441   2.360  11.558
 6048SOL    HW130023   1.429   2.357  11.463
 6048SOL    HW230024   1.468   2.271  11.581
 6049SOL     OW30025   3.638   1.292   6.429
 6049SOL    HW130026   3.616   1.378   6.465
 6049SOL    HW230027   3.733   1.294   6.418
 6050SOL     OW30028   3.725   1.413  10.722
 6050SOL    HW130029   3.674   1.467  10.782
 6050SOL    HW230030   3.809   1.460  10.713
 6051SOL     OW30031   3.799   1.489  13.595
 6051SOL    HW130032   3.754   1.408  13.619
 6051SOL    HW230033   3.746   1.558  13.634
 6052SOL     OW30034   0.530   3.301  10.371
 6052SOL    HW130035   0.620   3.302  10.403
 6052SOL    HW230036   0.535   3.256  10.287
 6053SOL     OW30037   1.561   2.164   9.385
 6053SOL    HW130038   1.539   2.142   9.475
 6053SOL    HW230039   1.492   2.224   9.357
 6054SOL     OW30040   1.323   1.698  10.525
 6054SOL    HW130041   1.233   1.729  10.524
 6054SOL    HW230042   1.374   1.774  10.555
 6055SOL     OW30043   0.017   2.143  10.473
 6055SOL    HW130044   4.778   2.076  10.533
 6055SOL    HW230045   0.110   2.154  10.496
 6056SOL     OW30046   1.315   1.728  13.886
 6056SOL    HW130047   1.392   1.780  13.863
 6056SOL    HW230048   1.332   1.697  13.975
 6057SOL     OW30049   0.774   3.248  11.563
 6057SOL    HW130050   0.760   3.343  11.564
 6057SOL    HW230051   0.856   3.235  11.610
 6058SOL     OW30052   3.832   1.363  10.430
 6058SOL    HW130053   3.927   1.354  10.420
 6058SOL    HW230054   3.805   1.417  10.356
 6059SOL     OW30055   2.730   1.240  11.625
 6059SOL    HW130056   2.644   1.203  11.605
 6059SOL    HW230057   2.746   1.216  11.716
 6060SOL     OW30058   2.229   1.329  12.212
 6060SOL    HW130059   2.282   1.364  12.284
 6060SOL    HW230060   2.139   1.351  12.236
 6061SOL     OW30061   1.132   2.491  11.341
 6061SOL    HW130062   1.155   2.573  11.385
 6061SOL    HW230063   1.037   2.493  11.334
 6062SOL     OW30064   0.707   2.878  10.873
 6062SOL    HW130065   0.789   2.911  10.837
 6062SOL    HW230066   0.655   2.957  10.887
 6063SOL     OW30067   0.471   3.467  12.201
 6063SOL    HW130068   0.526   3.428  12.133
 6063SOL    HW230069   0.456   3.556  12.171
 6064SOL     OW30070   4.561   1.280  12.285
 6064SOL    HW130071   4.508   1.303  12.361
 6064SOL    HW230072   4.519   1.201  12.250
 6065SOL     OW30073   2.528   1.998  11.973
 6065SOL    HW130074   2.502   2.071  12.029
 6065SOL    HW230075   2.447   1.950  11.957
 6066SOL     OW30076   1.077   2.555  12.710
 6066SOL    HW130077   1.038   2.623  12.766
 6066SOL    HW230078   1.072   2.475  12.762
 6067SOL     OW30079   3.555   2.042   5.318
 6067SOL    HW130080   3.481   2.103   5.315
 6067SOL    HW230081   3.571   2.020   5.226
 6068SOL     OW30082   0.834   4.467  12.085
 6068SOL    HW130083   0.898   4.411  12.043
 6068SOL    HW230084   0.758   4.410  12.100
 6069SOL     OW30085   1.570   3.815  12.542
 6069SOL    HW130086   1.600   3.868  12.616
 6069SOL    HW230087   1.497   3.764  12.578
 6070SOL     OW30088   1.759   1.975  11.708
 6070SOL    HW130089   1.743   2.009  11.620
 6070SOL    HW230090   1.712   2.034  11.766
 6071SOL     OW30091   4.232   0.649  11.949
 6071SOL    HW130092   4.321   0.651  11.915
 6071SOL    HW230093   4.229   0.569  12.002
 6072SOL     OW30094   3.976   3.015  12.355
 6072SOL    HW130095   3.908   2.955  12.326
 6072SOL    HW230096   3.945   3.101  12.329
 6073SOL     OW30097   0.205   2.707  10.816
 6073SOL    HW130098   0.127   2.720  10.761
 6073SOL    HW230099   0.177   2.732  10.904
 6074SOL     OW30100   4.780   2.131  11.975
 6074SOL    HW130101   0.012   2.193  12.044
 6074SOL    HW230102   0.057   2.066  11.975
 6075SOL     OW30103   0.530   2.212  11.715
 6075SOL    HW130104   0.481   2.293  11.700
 6075SOL    HW230105   0.463   2.145  11.726
 6076SOL     OW30106   1.837   1.905  10.869
 6076SOL    HW130107   1.907   1.892  10.805
 6076SOL    HW230108   1.853   1.838  10.936
 6077SOL     OW30109   1.381   1.087  11.964
 6077SOL    HW130110   1.404   0.998  11.937
 6077SOL    HW230111   1.384   1.085  12.059
 6078SOL     OW30112   0.858   2.750  11.054
 6078SOL    HW130113   0.829   2.663  11.082
 6078SOL    HW230114   0.796   2.775  10.986
 6079SOL     OW30115   3.057   1.899  12.855
 6079SOL    HW130116   2.994   1.827  12.848
 6079SOL    HW230117   3.009   1.968  12.901
 6080SOL     OW30118   0.366   3.277  13.720
 6080SOL    HW130119   0.349   3.367  13.748
 6080SOL    HW230120   0.288   3.253  13.669
 6081SOL     OW30121   4.245   2.442  12.618
 6081SOL    HW130122   4.172   2.483  12.571
 6081SOL    HW230123   4.298   2.401  12.549
 6082SOL     OW30124   1.414   1.930  10.633
 6082SOL    HW130125   1.357   1.973  10.570
 6082SOL    HW230126   1.498   1.976  10.627
 6083SOL     OW30127   3.939   1.148  16.609
 6083SOL    HW130128   4.017   1.121  16.659
 6083SOL    HW230129   3.920   1.073  16.553
 6084SOL     OW30130   2.182   2.472   0.693
 6084SOL    HW130131   2.175   2.473   0.789
 6084SOL    HW230132   2.099   2.509   0.663
 6085SOL     OW30133   3.993   3.156   0.768
 6085SOL    HW130134   3.953   3.235   0.805
 6085SOL    HW230135   4.087   3.168   0.782
 6086SOL     OW30136   3.866   1.399   1.118
 6086SOL    HW130137   3.955   1.368   1.101
 6086SOL    HW230138   3.842   1.356   1.200
 6087SOL     OW30139   1.121   3.666  20.360
 6087SOL    HW130140   1.092   3.711  20.280
 6087SOL    HW230141   1.214   3.685  20.365
 6088SOL     OW30142   4.443   2.921  18.089
 6088SOL    HW130143   4.468   2.962  18.006
 6088SOL    HW230144   4.359   2.879  18.071
 6089SOL     OW30145   2.872   3.009   6.835
 6089SOL    HW130146   2.798   2.980   6.889
 6089SOL    HW230147   2.850   2.979   6.747
 6090SOL     OW30148   4.044   2.037  18.499
 6090SOL    HW130149   4.126   2.058  18.456
 6090SOL    HW230150   4.070   1.989  18.578
 6091SOL     OW30151   2.381   4.726   2.552
 6091SOL    HW130152   2.320   4.671   2.503
 6091SOL    HW230153   2.467   4.704   2.515
 6092SOL     OW30154   0.029   0.233  16.328
 6092SOL    HW130155   0.116   0.206  16.299
 6092SOL    HW230156   0.033   0.232  16.423
 6093SOL     OW30157   3.614   1.505   0.640
 6093SOL    HW130158   3.646   1.564   0.571
 6093SOL    HW230159   3.528   1.540   0.663
 6094SOL     OW30160   3.393   2.024   4.180
 6094SOL    HW130161   3.300   2.046   4.186
 6094SOL    HW230162   3.438   2.101   4.215
 6095SOL     OW30163   4.692   2.409  12.373
 6095SOL    HW130164   4.642   2.334  12.404
 6095SOL    HW230165   4.743   2.436  12.449
 6096SOL     OW30166   3.171   3.418   2.282
 6096SOL    HW130167   3.097   3.478   2.281
 6096SOL    HW230168   3.161   3.369   2.363
 6097SOL     OW30169   0.486   2.205  13.746
 6097SOL    HW130170   0.453   2.288  13.712
 6097SOL    HW230171   0.574   2.197  13.710
 6098SOL     OW30172   0.825   4.658  12.285
 6098SOL    HW130173   0.822   4.594  12.213
 6098SOL    HW230174   0.808   4.605  12.363
 6099SOL     OW30175   2.525   1.230  19.784
 6099SOL    HW130176   2.588   1.249  19.854
 6099SOL    HW230177   2.516   1.135  19.786
 6100SOL     OW30178   1.033   4.393  15.542
 6100SOL    HW130179   0.980   4.445  15.602
 6100SOL    HW230180   1.119   4.434  15.544
 6101SOL     OW30181   1.032   4.781  15.768
 6101SOL    HW130182   1.102   4.716  15.756
 6101SOL    HW230183   1.052   0.029  15.851
 6102SOL     OW30184   3.269   1.001   5.740
 6102SOL    HW130185   3.197   1.031   5.796
 6102SOL    HW230186   3.341   0.984   5.800
 6103SOL     OW30187   1.021   0.928   2.060
 6103SOL    HW130188   1.054   0.934   2.150
 6103SOL    HW230189   0.927   0.945   2.068
 6104SOL     OW30190   2.661   2.069   7.649
 6104SOL    HW130191   2.734   2.106   7.600
 6104SOL    HW230192   2.702   2.017   7.718
 6105SOL     OW30193   0.203   1.757  18.003
 6105SOL    HW130194   0.276   1.701  17.977
 6105SOL    HW230195   0.172   1.796  17.921
 6106SOL     OW30196   0.061   2.422  12.154
 6106SOL    HW130197   4.789   2.421  12.225
 6106SOL    HW230198   0.132   2.367  12.185
 6107SOL     OW30199   3.082   4.198  13.951
 6107SOL    HW130200   3.068   4.113  13.910
 6107SOL    HW230201   2.995   4.224  13.982
 6108SOL     OW30202   0.990   2.264  12.400
 6108SOL    HW130203   0.984   2.358  12.418
 6108SOL    HW230204   0.905   2.229  12.425
 6109SOL     OW30205   2.733   1.876   2.771
 6109SOL    HW130206   2.794   1.885   2.845
 6109SOL    HW230207   2.735   1.783   2.750
 6110SOL     OW30208   1.432   2.634  13.286
 6110SOL    HW130209   1.472   2.568  13.343
 6110SOL    HW230210   1.338   2.615  13.289
 6111SOL     OW30211   1.208   4.643  15.065
 6111SOL    HW130212   1.181   4.551  15.075
 6111SOL    HW230213   1.130   4.688  15.034
 6112SOL     OW30214   0.532   1.947  14.532
 6112SOL    HW130215   0.514   1.934  14.625
 6112SOL    HW230216   0.495   1.869  14.489
 6113SOL     OW30217   0.530   4.513  19.138
 6113SOL    HW130218   0.595   4.556  19.195
 6113SOL    HW230219   0.446   4.534  19.177
 6114SOL     OW30220   1.131   1.567  13.767
 6114SOL    HW130221   1.064   1.569  13.834
 6114SOL    HW230222   1.199   1.626  13.799
 6115SOL     OW30223   2.682   0.973  15.134
 6115SOL    HW130224   2.731   1.024  15.068
 6115SOL    HW230225   2.600   1.020  15.144
 6116SOL     OW30226   2.490   3.004   4.136
 6116SOL    HW130227   2.575   3.041   4.112
 6116SOL    HW230228   2.428   3.076   4.126
 6117SOL     OW30229   0.903   2.884  18.226
 6117SOL    HW130230   0.974   2.867  18.288
 6117SOL    HW230231   0.828   2.838  18.262
 6118SOL     OW30232   1.931   3.484   1.257
 6118SOL    HW130233   1.931   3.388   1.255
 6118SOL    HW230234   1.950   3.510   1.167
 6119SOL     OW30235   0.142   2.210  12.775
 6119SOL    HW130236   0.063   2.264  12.781
 6119SOL    HW230237   0.176   2.206  12.865
 6120SOL     OW30238   1.045   2.846  16.613
 6120SOL    HW130239   1.109   2.797  16.561
 6120SOL    HW230240   1.068   2.826  16.704
 6121SOL     OW30241   3.932   3.265   8.598
 6121SOL    HW130242   3.884   3.347   8.616
 6121SOL    HW230243   3.864   3.203   8.571
 6122SOL     OW30244   0.982   1.005   3.508
 6122SOL    HW130245   0.996   1.026   3.415
 6122SOL    HW230246   1.017   0.917   3.517
 6123SOL     OW30247   0.496   0.363  14.120
 6123SOL    HW130248   0.574   0.325  14.082
 6123SOL    HW230249   0.425   0.337  14.061
 6124SOL     OW30250   4.661   4.022  17.707
 6124SOL    HW130251   4.684   4.052  17.619
 6124SOL    HW230252   4.605   3.946  17.693
 6125SOL     OW30253   0.795   0.991   1.004
 6125SOL    HW130254   0.877   0.987   1.053
 6125SOL    HW230255   0.750   1.069   1.038
 6126SOL     OW30256   0.992   2.215   0.226
 6126SOL    HW130257   1.005   2.310   0.234
 6126SOL    HW230258   1.060   2.187   0.165
 6127SOL     OW30259   0.864   1.086   5.549
 6127SOL    HW130260   0.782   1.080   5.499
 6127SOL    HW230261   0.887   0.995   5.568
 6128SOL     OW30262   0.911   2.499  17.951
 6128SOL    HW130263   1.003   2.502  17.974
 6128SOL    HW230264   0.869   2.451  18.023
 6129SOL     OW30265   0.431   0.596   5.164
 6129SOL    HW130266   0.502   0.652   5.196
 6129SOL    HW230267   0.393   0.645   5.091
 6130SOL     OW30268   3.694   0.649   4.519
 6130SOL    HW130269   3.736   0.628   4.435
 6130SOL    HW230270   3.602   0.626   4.506
 6131SOL     OW30271   4.593   2.074   6.520
 6131SOL    HW130272   4.572   2.076   6.614
 6131SOL    HW230273   4.642   1.993   6.508
 6132SOL     OW30274   3.629   0.875  11.597
 6132SOL    HW130275   3.556   0.907  11.650
 6132SOL    HW230276   3.607   0.784  11.578
 6133SOL     OW30277   3.710   1.781  20.216
 6133SOL    HW130278   3.708   1.821  20.129
 6133SOL    HW230279   3.627   1.807  20.256
 6134SOL     OW30280   0.674   4.172  18.628
 6134SOL    HW130281   0.675   4.255  18.580
 6134SOL    HW230282   0.613   4.188  18.701
 6135SOL     OW30283   0.254   2.673   3.907
 6135SOL    HW130284   0.343   2.663   3.942
 6135SOL    HW230285   0.261   2.645   3.816
 6136SOL     OW30286   0.334   0.355  17.388
 6136SOL    HW130287   0.352   0.286  17.453
 6136SOL    HW230288   0.377   0.433  17.424
 6137SOL     OW30289   0.596   1.941  18.711
 6137SOL    HW130290   0.667   1.976  18.658
 6137SOL    HW230291   0.636   1.872  18.763
 6138SOL     OW30292   1.743   2.517  14.161
 6138SOL    HW130293   1.703   2.455  14.222
 6138SOL    HW230294   1.714   2.487  14.074
 6139SOL     OW30295   4.464   3.249  19.163
 6139SOL    HW130296   4.470   3.158  19.135
 6139SOL    HW230297   4.449   3.244  19.257
 6140SOL     OW30298   2.193   3.272   7.088
 6140SOL    HW130299   2.272   3.218   7.086
 6140SOL    HW230300   2.131   3.222   7.140
 6141SOL     OW30301   3.819   0.295  17.071
 6141SOL    HW130302   3.880   0.244  17.018
 6141SOL    HW230303   3.741   0.305  17.016
 6142SOL     OW30304   0.544   4.614   1.370
 6142SOL    HW130305   0.606   4.560   1.419
 6142SOL    HW230306   0.460   4.599   1.414
 6143SOL     OW30307   4.066   3.350  21.089
 6143SOL    HW130308   4.002   3.365  21.159
 6143SOL    HW230309   4.151   3.363  21.131
 6144SOL     OW30310   4.319   1.572  17.772
 6144SOL    HW130311   4.239   1.536  17.734
 6144SOL    HW230312   4.290   1.614  17.853
 6145SOL     OW30313   1.761   4.721  20.278
 6145SOL    HW130314   1.811   4.702  20.357
 6145SOL    HW230315   1.748   0.022  20.280
 6146SOL     OW30316   3.715   4.768   4.195
 6146SOL    HW130317   3.775   4.694   4.188
 6146SOL    HW230318   3.750   0.027   4.267
 6147SOL     OW30319   1.202   1.408  17.790
 6147SOL    HW130320   1.294   1.381  17.795
 6147SOL    HW230321   1.191   1.436  17.699
 6148SOL     OW30322   1.503   1.867   7.237
 6148SOL    HW130323   1.452   1.801   7.189
 6148SOL    HW230324   1.559   1.816   7.295
 6149SOL     OW30325   3.951   4.657  18.740
 6149SOL    HW130326   3.995   4.587  18.788
 6149SOL    HW230327   3.867   4.667  18.785
 6150SOL     OW30328   3.839   4.787   1.032
 6150SOL    HW130329   3.807   4.716   0.976
 6150SOL    HW230330   3.933   4.769   1.043
 6151SOL     OW30331   2.055   4.530  15.872
 6151SOL    HW130332   2.006   4.476  15.934
 6151SOL    HW230333   2.024   4.619  15.887
 6152SOL     OW30334   0.899   2.695   0.556
 6152SOL    HW130335   0.878   2.603   0.541
 6152SOL    HW230336   0.825   2.728   0.607
 6153SOL     OW30337   4.639   2.563  19.660
 6153SOL    HW130338   4.633   2.587  19.752
 6153SOL    HW230339   4.676   2.641  19.617
 6154SOL     OW30340   2.101   1.839   1.172
 6154SOL    HW130341   2.052   1.920   1.188
 6154SOL    HW230342   2.107   1.833   1.077
 6155SOL     OW30343   0.552   4.136   4.931
 6155SOL    HW130344   0.489   4.068   4.957
 6155SOL    HW230345   0.619   4.134   4.999
 6156SOL     OW30346   2.868   0.005  21.268
 6156SOL    HW130347   2.827   4.783   0.080
 6156SOL    HW230348   2.796   4.791  21.205
 6157SOL     OW30349   3.510   0.068  20.147
 6157SOL    HW130350   3.480   4.772  20.164
 6157SOL    HW230351   3.475   0.120  20.219
 6158SOL     OW30352   2.661   4.203  14.734
 6158SOL    HW130353   2.664   4.119  14.779
 6158SOL    HW230354   2.717   4.192  14.657
 6159SOL     OW30355   2.458   3.730   0.203
 6159SOL    HW130356   2.478   3.648   0.158
 6159SOL    HW230357   2.532   3.743   0.262
 6160SOL     OW30358   1.765   2.859   2.248
 6160SOL    HW130359   1.784   2.915   2.174
 6160SOL    HW230360   1.684   2.894   2.285
 6161SOL     OW30361   1.046   0.967   2.345
 6161SOL    HW130362   0.975   0.986   2.407
 6161SOL    HW230363   1.122   0.948   2.400
 6162SOL     OW30364   1.659   0.975   5.450
 6162SOL    HW130365   1.652   1.031   5.527
 6162SOL    HW230366   1.753   0.972   5.431
 6163SOL     OW30367   1.973   1.920  17.751
 6163SOL    HW130368   1.905   1.865  17.791
 6163SOL    HW230369   1.926   1.996  17.717
 6164SOL     OW30370   3.364   3.835   2.102
 6164SOL    HW130371   3.279   3.795   2.084
 6164SOL    HW230372   3.416   3.765   2.140
 6165SOL     OW30373   2.265   0.480   2.922
 6165SOL    HW130374   2.328   0.427   2.874
 6165SOL    HW230375   2.207   0.516   2.854
 6166SOL     OW30376   1.283   0.005  18.685
 6166SOL    HW130377   1.353   4.740  18.654
 6166SOL    HW230378   1.225   4.741  18.736
 6167SOL     OW30379   2.063   3.485   3.279
 6167SOL    HW130380   2.102   3.468   3.365
 6167SOL    HW230381   2.086   3.576   3.261
 6168SOL     OW30382   3.649   3.320   1.532
 6168SOL    HW130383   3.674   3.234   1.566
 6168SOL    HW230384   3.566   3.306   1.488
 6169SOL     OW30385   4.028   3.180   4.266
 6169SOL    HW130386   4.049   3.132   4.186
 6169SOL    HW230387   3.950   3.136   4.300
 6170SOL     OW30388   0.245   2.369   1.278
 6170SOL    HW130389   0.178   2.413   1.329
 6170SOL    HW230390   0.290   2.312   1.340
 6171SOL     OW30391   4.557   0.094  17.968
 6171SOL    HW130392   4.622   0.128  18.030
 6171SOL    HW230393   4.488   0.056  18.023
 6172SOL     OW30394   3.001   1.994   8.071
 6172SOL    HW130395   3.013   1.900   8.054
 6172SOL    HW230396   3.087   2.032   8.056
 6173SOL     OW30397   3.651   4.590   3.154
 6173SOL    HW130398   3.745   4.574   3.167
 6173SOL    HW230399   3.625   4.639   3.232
 6174SOL     OW30400   3.454   4.364   0.470
 6174SOL    HW130401   3.394   4.429   0.507
 6174SOL    HW230402   3.419   4.346   0.383
 6175SOL     OW30403   1.149   4.683   1.006
 6175SOL    HW130404   1.058   4.706   1.027
 6175SOL    HW230405   1.173   4.745   0.938
 6176SOL     OW30406   2.455   2.792  15.620
 6176SOL    HW130407   2.445   2.869  15.564
 6176SOL    HW230408   2.454   2.718  15.559
 6177SOL     OW30409   4.635   3.501  17.141
 6177SOL    HW130410   4.687   3.552  17.205
 6177SOL    HW230411   4.693   3.491  17.066
 6178SOL     OW30412   0.861   2.058   6.287
 6178SOL    HW130413   0.941   2.108   6.302
 6178SOL    HW230414   0.794   2.125   6.270
 6179SOL     OW30415   1.612   1.906   6.365
 6179SOL    HW130416   1.683   1.970   6.371
 6179SOL    HW230417   1.550   1.933   6.432
 6180SOL     OW30418   2.137   3.422   2.722
 6180SOL    HW130419   2.179   3.491   2.671
 6180SOL    HW230420   2.044   3.442   2.718
 6181SOL     OW30421   4.312   2.301   7.477
 6181SOL    HW130422   4.257   2.327   7.403
 6181SOL    HW230423   4.290   2.363   7.546
 6182SOL     OW30424   4.229   0.063   0.637
 6182SOL    HW130425   4.162   0.077   0.570
 6182SOL    HW230426   4.221   4.763   0.659
 6183SOL     OW30427   0.675   2.244   0.423
 6183SOL    HW130428   0.719   2.168   0.386
 6183SOL    HW230429   0.606   2.264   0.360
 6184SOL     OW30430   1.401   2.022   0.280
 6184SOL    HW130431   1.406   2.117   0.292
 6184SOL    HW230432   1.492   1.993   0.280
 6185SOL     OW30433   0.647   1.043  15.618
 6185SOL    HW130434   0.616   0.960  15.580
 6185SOL    HW230435   0.567   1.093  15.633
 6186SOL     OW30436   4.027   2.887   5.057
 6186SOL    HW130437   4.024   2.800   5.095
 6186SOL    HW230438   3.936   2.915   5.053
 6187SOL     OW30439   1.619   4.032   2.919
 6187SOL    HW130440   1.641   4.062   2.830
 6187SOL    HW230441   1.699   4.042   2.969
 6188SOL     OW30442   3.260   1.966   2.045
 6188SOL    HW130443   3.244   2.044   2.098
 6188SOL    HW230444   3.355   1.955   2.045
 6189SOL     OW30445   4.292   3.842   4.099
 6189SOL    HW130446   4.234   3.885   4.161
 6189SOL    HW230447   4.365   3.810   4.153
 6190SOL     OW30448   0.064   3.439  18.730
 6190SOL    HW130449   0.004   3.386  18.783
 6190SOL    HW230450   0.129   3.471  18.793
 6191SOL     OW30451   4.043   2.655   3.861
 6191SOL    HW130452   4.095   2.682   3.936
 6191SOL    HW230453   4.063   2.718   3.792
 6192SOL     OW30454   1.700   0.937  15.594
 6192SOL    HW130455   1.640   0.911  15.524
 6192SOL    HW230456   1.695   1.033  15.596
 6193SOL     OW30457   4.273   0.099   3.196
 6193SOL    HW130458   4.212   0.173   3.202
 6193SOL    HW230459   4.232   0.041   3.133
 6194SOL     OW30460   3.192   0.972   2.681
 6194SOL    HW130461   3.190   0.886   2.722
 6194SOL    HW230462   3.286   0.991   2.670
 6195SOL     OW30463   1.522   2.104   1.859
 6195SOL    HW130464   1.442   2.120   1.809
 6195SOL    HW230465   1.502   2.134   1.947
 6196SOL     OW30466   2.614   4.394  16.426
 6196SOL    HW130467   2.571   4.414  16.344
 6196SOL    HW230468   2.552   4.419  16.494
 6197SOL     OW30469   3.019   0.985   0.164
 6197SOL    HW130470   3.031   0.965   0.071
 6197SOL    HW230471   2.943   0.933   0.190
 6198SOL     OW30472   0.457   4.097  20.271
 6198SOL    HW130473   0.487   4.065  20.186
 6198SOL    HW230474   0.495   4.036  20.334
 6199SOL     OW30475   0.715   4.713  16.536
 6199SOL    HW130476   0.745   4.689  16.448
 6199SOL    HW230477   0.792   4.702  16.592
 6200SOL     OW30478   1.849   0.113   0.260
 6200SOL    HW130479   1.924   0.075   0.305
 6200SOL    HW230480   1.821   0.185   0.316
 6201SOL     OW30481   1.895   2.280  18.343
 6201SOL    HW130482   1.975   2.288  18.394
 6201SOL    HW230483   1.916   2.217  18.274
 6202SOL     OW30484   4.276   3.841   5.869
 6202SOL    HW130485   4.318   3.864   5.786
 6202SOL    HW230486   4.311   3.754   5.891
 6203SOL     OW30487   2.771   0.894   0.517
 6203SOL    HW130488   2.791   0.926   0.605
 6203SOL    HW230489   2.676   0.880   0.519
 6204SOL     OW30490   3.277   1.722  11.493
 6204SOL    HW130491   3.317   1.773  11.423
 6204SOL    HW230492   3.321   1.752  11.573
 6205SOL     OW30493   2.407   3.788  17.306
 6205SOL    HW130494   2.455   3.851  17.252
 6205SOL    HW230495   2.406   3.708  17.255
 6206SOL     OW30496   1.556   0.605  18.084
 6206SOL    HW130497   1.544   0.624  18.177
 6206SOL    HW230498   1.647   0.578  18.076
 6207SOL     OW30499   0.481   4.446  15.109
 6207SOL    HW130500   0.439   4.522  15.148
 6207SOL    HW230501   0.466   4.455  15.015
 6208SOL     OW30502   1.957   2.219  14.006
 6208SOL    HW130503   1.884   2.175  14.051
 6208SOL    HW230504   2.027   2.222  14.070
 6209SOL     OW30505   2.143   4.434   5.024
 6209SOL    HW130506   2.209   4.454   5.091
 6209SOL    HW230507   2.063   4.419   5.073
 6210SOL     OW30508   1.155   3.652   7.100
 6210SOL    HW130509   1.225   3.672   7.163
 6210SOL    HW230510   1.109   3.735   7.089
 6211SOL     OW30511   4.734   4.083   5.541
 6211SOL    HW130512   4.792   4.006   5.542
 6211SOL    HW230513   4.684   4.074   5.459
 6212SOL     OW30514   2.666   3.211   3.685
 6212SOL    HW130515   2.711   3.295   3.684
 6212SOL    HW230516   2.628   3.202   3.598
 6213SOL     OW30517   3.101   3.426   6.203
 6213SOL    HW130518   3.127   3.516   6.186
 6213SOL    HW230519   3.172   3.390   6.256
 6214SOL     OW30520   2.891   4.622  18.080
 6214SOL    HW130521   2.885   4.638  18.174
 6214SOL    HW230522   2.843   4.695  18.041
 6215SOL     OW30523   3.447   0.098   2.552
 6215SOL    HW130524   3.497   0.082   2.632
 6215SOL    HW230525   3.398   0.017   2.537
 6216SOL     OW30526   2.242   1.915   3.975
 6216SOL    HW130527   2.298   1.950   4.045
 6216SOL    HW230528   2.298   1.853   3.929
 6217SOL     OW30529   2.511   2.532   2.595
 6217SOL    HW130530   2.498   2.626   2.586
 6217SOL    HW230531   2.551   2.521   2.681
 6218SOL     OW30532   0.681   1.044  18.565
 6218SOL    HW130533   0.684   1.131  18.525
 6218SOL    HW230534   0.657   0.986  18.493
 6219SOL     OW30535   4.785   4.078   0.355
 6219SOL    HW130536   4.733   4.011   0.400
 6219SOL    HW230537   4.722   4.125   0.301
 6220SOL     OW30538   1.895   2.204   0.309
 6220SOL    HW130539   1.968   2.245   0.262
 6220SOL    HW230540   1.817   2.241   0.268
 6221SOL     OW30541   2.291   3.475   1.296
 6221SOL    HW130542   2.375   3.474   1.250
 6221SOL    HW230543   2.273   3.567   1.313
 6222SOL     OW30544   0.178   0.191  14.034
 6222SOL    HW130545   0.106   0.242  13.997
 6222SOL    HW230546   0.256   0.221  13.986
 6223SOL     OW30547   3.311   0.971  17.127
 6223SOL    HW130548   3.321   1.058  17.089
 6223SOL    HW230549   3.286   0.915  17.053
 6224SOL     OW30550   0.702   0.892   9.639
 6224SOL    HW130551   0.666   0.847   9.716
 6224SOL    HW230552   0.651   0.972   9.631
 6225SOL     OW30553   0.803   1.674   3.591
 6225SOL    HW130554   0.897   1.677   3.571
 6225SOL    HW230555   0.761   1.709   3.513
 6226SOL     OW30556   2.180   1.647  16.369
 6226SOL    HW130557   2.270   1.615  16.372
 6226SOL    HW230558   2.127   1.573  16.398
 6227SOL     OW30559   2.675   3.113  19.711
 6227SOL    HW130560   2.632   3.197  19.727
 6227SOL    HW230561   2.722   3.125  19.629
 6228SOL     OW30562   1.704   2.577   4.607
 6228SOL    HW130563   1.619   2.606   4.640
 6228SOL    HW230564   1.728   2.641   4.541
 6229SOL     OW30565   3.153   3.159  18.129
 6229SOL    HW130566   3.141   3.253  18.112
 6229SOL    HW230567   3.078   3.117  18.087
 6230SOL     OW30568   3.869   3.615  16.523
 6230SOL    HW130569   3.812   3.589  16.596
 6230SOL    HW230570   3.914   3.693  16.555
 6231SOL     OW30571   4.419   2.979  21.250
 6231SOL    HW130572   4.456   2.956   0.063
 6231SOL    HW230573   4.441   3.071  21.238
 6232SOL     OW30574   3.791   3.177   2.661
 6232SOL    HW130575   3.802   3.228   2.742
 6232SOL    HW230576   3.792   3.086   2.689
 6233SOL     OW30577   2.959   1.120  17.335
 6233SOL    HW130578   2.955   1.156  17.424
 6233SOL    HW230579   2.927   1.030  17.344
 6234SOL     OW30580   4.687   4.223  16.306
 6234SOL    HW130581   4.753   4.154  16.311
 6234SOL    HW230582   4.738   4.305  16.302
 6235SOL     OW30583   2.367   4.349  18.894
 6235SOL    HW130584   2.450   4.310  18.866
 6235SOL    HW230585   2.318   4.276  18.933
 6236SOL     OW30586   0.409   2.076   3.805
 6236SOL    HW130587   0.495   2.047   3.774
 6236SOL    HW230588   0.425   2.111   3.892
 6237SOL     OW30589   1.659   1.502   1.646
 6237SOL    HW130590   1.674   1.410   1.624
 6237SOL    HW230591   1.573   1.522   1.607
 6238SOL     OW30592   2.408   1.865   2.582
 6238SOL    HW130593   2.343   1.801   2.554
 6238SOL    HW230594   2.427   1.843   2.673
 6239SOL     OW30595   0.647   3.184  21.210
 6239SOL    HW130596   0.656   3.279  21.213
 6239SOL    HW230597   0.553   3.169  21.222
 6240SOL     OW30598   0.092   1.170   6.213
 6240SOL    HW130599   0.103   1.081   6.181
 6240SOL    HW230600   0.059   1.159   6.303
 6241SOL     OW30601   2.146   3.130  17.166
 6241SOL    HW130602   2.155   3.144  17.072
 6241SOL    HW230603   2.219   3.179  17.205
 6242SOL     OW30604   2.752   2.311   1.107
 6242SOL    HW130605   2.662   2.331   1.131
 6242SOL    HW230606   2.772   2.370   1.035
 6243SOL     OW30607   4.093   0.291   3.237
 6243SOL    HW130608   4.064   0.372   3.195
 6243SOL    HW230609   4.021   0.229   3.223
 6244SOL     OW30610   3.470   2.953  19.233
 6244SOL    HW130611   3.451   3.047  19.238
 6244SOL    HW230612   3.404   2.912  19.289
 6245SOL     OW30613   3.671   1.916  17.368
 6245SOL    HW130614   3.622   1.980  17.419
 6245SOL    HW230615   3.761   1.922  17.402
 6246SOL     OW30616   1.413   3.047  20.433
 6246SOL    HW130617   1.375   3.124  20.393
 6246SOL    HW230618   1.360   3.032  20.512
 6247SOL     OW30619   3.878   2.647  14.534
 6247SOL    HW130620   3.805   2.709  14.532
 6247SOL    HW230621   3.877   2.606  14.448
 6248SOL     OW30622   0.011   4.165   4.524
 6248SOL    HW130623   4.746   4.111   4.576
 6248SOL    HW230624   0.032   4.239   4.581
 6249SOL     OW30625   3.968   0.054   2.888
 6249SOL    HW130626   3.972   0.038   2.982
 6249SOL    HW230627   4.039   0.001   2.851
 6250SOL     OW30628   3.235   1.240   4.453
 6250SOL    HW130629   3.266   1.173   4.514
 6250SOL    HW230630   3.191   1.190   4.383
 6251SOL     OW30631   1.203   2.396  18.964
 6251SOL    HW130632   1.120   2.439  18.944
 6251SOL    HW230633   1.188   2.304  18.940
 6252SOL     OW30634   4.630   0.288  18.990
 6252SOL    HW130635   4.639   0.238  19.071
 6252SOL    HW230636   4.542   0.266  18.958
 6253SOL     OW30637   3.150   3.138   5.428
 6253SOL    HW130638   3.111   3.188   5.501
 6253SOL    HW230639   3.237   3.113   5.460
 6254SOL     OW30640   3.516   2.078   5.632
 6254SOL    HW130641   3.525   2.049   5.541
 6254SOL    HW230642   3.429   2.049   5.658
 6255SOL     OW30643   0.349   1.916   2.444
 6255SOL    HW130644   0.274   1.857   2.433
 6255SOL    HW230645   0.370   1.944   2.355
 6256SOL     OW30646   2.792   3.715   3.435
 6256SOL    HW130647   2.743   3.716   3.353
 6256SOL    HW230648   2.884   3.720   3.408
 6257SOL     OW30649   1.573   0.431   9.044
 6257SOL    HW130650   1.595   0.396   8.958
 6257SOL    HW230651   1.533   0.358   9.091
 6258SOL     OW30652   2.192   4.090   6.772
 6258SOL    HW130653   2.139   4.159   6.733
 6258SOL    HW230654   2.281   4.107   6.740
 6259SOL     OW30655   0.752   4.682   4.103
 6259SOL    HW130656   0.751   4.777   4.112
 6259SOL    HW230657   0.828   4.654   4.155
 6260SOL     OW30658   3.647   1.955   0.334
 6260SOL    HW130659   3.669   1.891   0.266
 6260SOL    HW230660   3.689   2.036   0.306
 6261SOL     OW30661   3.054   2.224   6.640
 6261SOL    HW130662   3.052   2.129   6.654
 6261SOL    HW230663   3.045   2.261   6.727
 6262SOL     OW30664   0.052   4.327   2.573
 6262SOL    HW130665   4.784   4.254   2.576
 6262SOL    HW230666   0.092   4.329   2.660
 6263SOL     OW30667   0.006   2.538  15.534
 6263SOL    HW130668   4.718   2.517  15.579
 6263SOL    HW230669   0.012   2.475  15.462
 6264SOL     OW30670   2.727   1.033   1.810
 6264SOL    HW130671   2.782   1.103   1.845
 6264SOL    HW230672   2.787   0.959   1.799
 6265SOL     OW30673   3.744   3.383  16.350
 6265SOL    HW130674   3.783   3.429  16.424
 6265SOL    HW230675   3.674   3.440  16.320
 6266SOL     OW30676   2.139   1.804   4.575
 6266SOL    HW130677   2.070   1.838   4.517
 6266SOL    HW230678   2.215   1.858   4.556
 6267SOL     OW30679   0.695   0.445  10.294
 6267SOL    HW130680   0.780   0.456  10.250
 6267SOL    HW230681   0.630   0.462  10.226
 6268SOL     OW30682   1.570   2.818   1.206
 6268SOL    HW130683   1.545   2.795   1.116
 6268SOL    HW230684   1.643   2.760   1.226
 6269SOL     OW30685   0.090   3.320   3.509
 6269SOL    HW130686   0.116   3.240   3.555
 6269SOL    HW230687   0.150   3.325   3.435
 6270SOL     OW30688   3.510   1.812   0.842
 6270SOL    HW130689   3.605   1.803   0.850
 6270SOL    HW230690   3.490   1.894   0.888
 6271SOL     OW30691   4.404   1.942   4.031
 6271SOL    HW130692   4.461   1.964   4.104
 6271SOL    HW230693   4.334   2.008   4.035
 6272SOL     OW30694   2.028   3.656   8.482
 6272SOL    HW130695   2.061   3.678   8.569
 6272SOL    HW230696   1.935   3.636   8.496
 6273SOL     OW30697   1.525   3.355  12.842
 6273SOL    HW130698   1.590   3.288  12.822
 6273SOL    HW230699   1.477   3.320  12.917
 6274SOL     OW30700   0.725   0.757   1.955
 6274SOL    HW130701   0.684   0.812   1.889
 6274SOL    HW230702   0.736   0.814   2.031
 6275SOL     OW30703   4.453   0.768  14.990
 6275SOL    HW130704   4.532   0.804  14.951
 6275SOL    HW230705   4.394   0.842  14.999
 6276SOL     OW30706   4.525   3.336   2.872
 6276SOL    HW130707   4.598   3.298   2.821
 6276SOL    HW230708   4.567   3.403   2.926
 6277SOL     OW30709   2.101   0.519   5.101
 6277SOL    HW130710   2.139   0.452   5.157
 6277SOL    HW230711   2.177   0.558   5.057
 6278SOL     OW30712   3.281   2.000  19.511
 6278SOL    HW130713   3.287   1.909  19.540
 6278SOL    HW230714   3.255   1.993  19.419
 6279SOL     OW30715   0.351   3.398   4.918
 6279SOL    HW130716   0.277   3.444   4.957
 6279SOL    HW230717   0.407   3.467   4.883
 6280SOL     OW30718   0.014   0.929   5.220
 6280SOL    HW130719   0.024   0.987   5.296
 6280SOL    HW230720   4.719   0.892   5.230
 6281SOL     OW30721   0.564   2.585  19.295
 6281SOL    HW130722   0.568   2.680  19.299
 6281SOL    HW230723   0.614   2.556  19.372
 6282SOL     OW30724   3.999   0.442  18.616
 6282SOL    HW130725   3.935   0.450  18.545
 6282SOL    HW230726   3.968   0.368  18.668
 6283SOL     OW30727   2.074   4.273  14.690
 6283SOL    HW130728   2.003   4.336  14.699
 6283SOL    HW230729   2.124   4.304  14.614
 6284SOL     OW30730   0.152   1.398   0.286
 6284SOL    HW130731   0.091   1.452   0.337
 6284SOL    HW230732   0.239   1.428   0.313
 6285SOL     OW30733   2.672   3.291  19.298
 6285SOL    HW130734   2.727   3.253  19.367
 6285SOL    HW230735   2.713   3.375  19.279
 6286SOL     OW30736   4.753   4.238   5.754
 6286SOL    HW130737   4.784   4.190   5.831
 6286SOL    HW230738   4.740   4.171   5.687
 6287SOL     OW30739   2.161   2.708   3.646
 6287SOL    HW130740   2.131   2.704   3.556
 6287SOL    HW230741   2.114   2.782   3.684
 6288SOL     OW30742   1.479   3.064   0.166
 6288SOL    HW130743   1.402   3.025   0.207
 6288SOL    HW230744   1.515   2.995   0.110
 6289SOL     OW30745   2.513   1.751  18.060
 6289SOL    HW130746   2.465   1.791  17.988
 6289SOL    HW230747   2.507   1.814  18.131
 6290SOL     OW30748   2.208   1.646   8.800
 6290SOL    HW130749   2.250   1.592   8.866
 6290SOL    HW230750   2.268   1.719   8.785
 6291SOL     OW30751   3.720   1.567  20.385
 6291SOL    HW130752   3.792   1.520  20.344
 6291SOL    HW230753   3.710   1.647  20.332
 6292SOL     OW30754   1.798   3.361   2.449
 6292SOL    HW130755   1.824   3.407   2.529
 6292SOL    HW230756   1.708   3.332   2.467
 6293SOL     OW30757   4.695   0.090  20.011
 6293SOL    HW130758   4.634   0.112  20.081
 6293SOL    HW230759   4.696   0.167  19.955
 6294SOL     OW30760   2.467   0.101   4.333
 6294SOL    HW130761   2.386   0.109   4.283
 6294SOL    HW230762   2.497   0.191   4.344
 6295SOL     OW30763   1.631   2.094  14.252
 6295SOL    HW130764   1.552   2.044  14.231
 6295SOL    HW230765   1.600   2.167  14.305
 6296SOL     OW30766   3.269   2.030  13.272
 6296SOL    HW130767   3.314   2.073  13.199
 6296SOL    HW230768   3.197   1.982  13.231
 6297SOL     OW30769   4.430   0.159   1.947
 6297SOL    HW130770   4.485   0.085   1.974
 6297SOL    HW230771   4.353   0.118   1.908
 6298SOL     OW30772   0.377   3.053  15.928
 6298SOL    HW130773   0.355   3.026  16.017
 6298SOL    HW230774   0.304   3.108  15.900
 6299SOL     OW30775   4.542   3.055  18.771
 6299SOL    HW130776   4.514   3.129  18.824
 6299SOL    HW230777   4.572   3.094  18.689
 6300SOL     OW30778   2.704   1.571   2.899
 6300SOL    HW130779   2.764   1.559   2.825
 6300SOL    HW230780   2.761   1.599   2.971
 6301SOL     OW30781   2.910   3.665  15.426
 6301SOL    HW130782   2.822   3.702  15.417
 6301SOL    HW230783   2.966   3.739  15.448
 6302SOL     OW30784   2.110   1.498  12.578
 6302SOL    HW130785   2.060   1.430  12.535
 6302SOL    HW230786   2.186   1.512  12.521
 6303SOL     OW30787   0.071   0.414  20.986
 6303SOL    HW130788   0.109   0.326  20.990
 6303SOL    HW230789   4.793   0.412  21.050
 6304SOL     OW30790   2.030   4.757  18.988
 6304SOL    HW130791   2.064   4.791  18.906
 6304SOL    HW230792   2.046   0.034  19.052
 6305SOL     OW30793   1.814   4.365   1.815
 6305SOL    HW130794   1.758   4.292   1.841
 6305SOL    HW230795   1.898   4.347   1.857
 6306SOL     OW30796   4.614   0.702  18.814
 6306SOL    HW130797   4.638   0.682  18.724
 6306SOL    HW230798   4.680   0.657  18.867
 6307SOL     OW30799   3.980   2.156  16.868
 6307SOL    HW130800   3.922   2.210  16.814
 6307SOL    HW230801   3.986   2.073  16.821
 6308SOL     OW30802   3.129   2.571  16.516
 6308SOL    HW130803   3.091   2.611  16.438
 6308SOL    HW230804   3.094   2.623  16.589
 6309SOL     OW30805   2.272   1.271   4.079
 6309SOL    HW130806   2.255   1.362   4.054
 6309SOL    HW230807   2.290   1.276   4.173
 6310SOL     OW30808   1.616   4.411  11.813
 6310SOL    HW130809   1.615   4.503  11.841
 6310SOL    HW230810   1.644   4.363  11.891
 6311SOL     OW30811   0.775   1.824   2.382
 6311SOL    HW130812   0.841   1.878   2.425
 6311SOL    HW230813   0.709   1.808   2.450
 6312SOL     OW30814   4.152   1.087   4.776
 6312SOL    HW130815   4.167   1.041   4.694
 6312SOL    HW230816   4.182   1.177   4.760
 6313SOL     OW30817   0.951   3.204   0.068
 6313SOL    HW130818   0.900   3.154   0.004
 6313SOL    HW230819   1.042   3.190   0.043
 6314SOL     OW30820   1.987   0.325  19.058
 6314SOL    HW130821   1.980   0.263  18.986
 6314SOL    HW230822   1.998   0.271  19.136
 6315SOL     OW30823   0.962   4.188   6.301
 6315SOL    HW130824   0.889   4.190   6.239
 6315SOL    HW230825   0.956   4.102   6.343
 6316SOL     OW30826   3.683   3.432   0.821
 6316SOL    HW130827   3.756   3.414   0.881
 6316SOL    HW230828   3.722   3.480   0.749
 6317SOL     OW30829   3.484   2.242   3.922
 6317SOL    HW130830   3.576   2.244   3.949
 6317SOL    HW230831   3.486   2.203   3.835
 6318SOL     OW30832   3.012   3.039  19.479
 6318SOL    HW130833   2.950   3.106  19.506
 6318SOL    HW230834   2.962   2.957  19.479
 6319SOL     OW30835   1.995   2.930  17.298
 6319SOL    HW130836   2.025   2.886  17.378
 6319SOL    HW230837   2.069   2.984  17.271
 6320SOL     OW30838   3.968   0.194   6.206
 6320SOL    HW130839   3.883   0.154   6.191
 6320SOL    HW230840   4.030   0.139   6.159
 6321SOL     OW30841   3.578   2.544  19.303
 6321SOL    HW130842   3.520   2.473  19.276
 6321SOL    HW230843   3.665   2.517  19.275
 6322SOL     OW30844   0.190   2.178   6.851
 6322SOL    HW130845   0.189   2.123   6.773
 6322SOL    HW230846   0.281   2.206   6.860
 6323SOL     OW30847   0.224   4.095  19.402
 6323SOL    HW130848   0.160   4.063  19.339
 6323SOL    HW230849   0.307   4.057  19.373
 6324SOL     OW30850   1.119   1.739   1.030
 6324SOL    HW130851   1.032   1.721   0.995
 6324SOL    HW230852   1.125   1.834   1.034
 6325SOL     OW30853   0.225   1.281  14.244
 6325SOL    HW130854   0.205   1.189  14.225
 6325SOL    HW230855   0.204   1.291  14.337
 6326SOL     OW30856   1.200   4.567  11.347
 6326SOL    HW130857   1.134   4.635  11.357
 6326SOL    HW230858   1.274   4.611  11.305
 6327SOL     OW30859   0.149   0.009  13.146
 6327SOL    HW130860   0.219   0.073  13.155
 6327SOL    HW230861   0.074   0.060  13.116
 6328SOL     OW30862   2.652   0.213  20.544
 6328SOL    HW130863   2.565   0.250  20.535
 6328SOL    HW230864   2.649   0.130  20.496
 6329SOL     OW30865   1.608   0.688  13.904
 6329SOL    HW130866   1.594   0.688  13.809
 6329SOL    HW230867   1.535   0.740  13.938
 6330SOL     OW30868   0.314   2.597   3.654
 6330SOL    HW130869   0.328   2.676   3.601
 6330SOL    HW230870   0.394   2.546   3.643
 6331SOL     OW30871   1.006   4.061   0.169
 6331SOL    HW130872   0.918   4.099   0.170
 6331SOL    HW230873   1.022   4.037   0.260
 6332SOL     OW30874   0.545   2.281  17.108
 6332SOL    HW130875   0.528   2.205  17.052
 6332SOL    HW230876   0.587   2.344  17.049
 6333SOL     OW30877   3.663   2.165   7.838
 6333SOL    HW130878   3.668   2.106   7.914
 6333SOL    HW230879   3.638   2.109   7.765
 6334SOL     OW30880   1.069   3.034  11.833
 6334SOL    HW130881   1.063   3.066  11.923
 6334SOL    HW230882   1.044   2.942  11.838
 6335SOL     OW30883   0.554   0.589  19.754
 6335SOL    HW130884   0.614   0.659  19.728
 6335SOL    HW230885   0.567   0.521  19.688
 6336SOL     OW30886   2.918   2.834  14.027
 6336SOL    HW130887   2.952   2.921  14.047
 6336SOL    HW230888   2.969   2.805  13.952
 6337SOL     OW30889   0.300   3.031  16.198
 6337SOL    HW130890   0.291   3.125  16.184
 6337SOL    HW230891   0.214   3.002  16.228
 6338SOL     OW30892   2.979   4.292  19.538
 6338SOL    HW130893   2.969   4.378  19.496
 6338SOL    HW230894   2.942   4.230  19.476
 6339SOL     OW30895   1.690   2.398  17.510
 6339SOL    HW130896   1.770   2.359  17.546
 6339SOL    HW230897   1.658   2.333  17.447
 6340SOL     OW30898   0.900   3.017   0.479
 6340SOL    HW130899   0.912   2.995   0.571
 6340SOL    HW230900   0.962   3.088   0.463
 6341SOL     OW30901   0.661   2.731  15.732
 6341SOL    HW130902   0.700   2.814  15.706
 6341SOL    HW230903   0.645   2.740  15.826
 6342SOL     OW30904   3.592   3.042   4.046
 6342SOL    HW130905   3.674   3.037   3.997
 6342SOL    HW230906   3.538   2.971   4.010
 6343SOL     OW30907   4.340   3.128   4.877
 6343SOL    HW130908   4.303   3.085   4.955
 6343SOL    HW230909   4.265   3.171   4.836
 6344SOL     OW30910   3.076   4.599   4.297
 6344SOL    HW130911   3.040   4.588   4.385
 6344SOL    HW230912   3.138   4.527   4.286
 6345SOL     OW30913   0.812   4.206  19.665
 6345SOL    HW130914   0.856   4.237  19.744
 6345SOL    HW230915   0.882   4.189  19.602
 6346SOL     OW30916   1.193   1.450  10.977
 6346SOL    HW130917   1.202   1.419  10.887
 6346SOL    HW230918   1.098   1.460  10.989
 6347SOL     OW30919   3.211   0.363   5.837
 6347SOL    HW130920   3.192   0.453   5.860
 6347SOL    HW230921   3.297   0.345   5.875
 6348SOL     OW30922   4.346   0.085   5.330
 6348SOL    HW130923   4.265   0.134   5.342
 6348SOL    HW230924   4.365   0.048   5.416
 6349SOL     OW30925   1.975   2.867  20.445
 6349SOL    HW130926   2.013   2.787  20.410
 6349SOL    HW230927   2.050   2.916  20.481
 6350SOL     OW30928   1.017   1.666   4.616
 6350SOL    HW130929   0.990   1.598   4.678
 6350SOL    HW230930   1.103   1.637   4.585
 6351SOL     OW30931   4.113   0.866  20.724
 6351SOL    HW130932   4.078   0.778  20.736
 6351SOL    HW230933   4.177   0.876  20.795
 6352SOL     OW30934   4.037   1.942  19.643
 6352SOL    HW130935   4.049   1.848  19.652
 6352SOL    HW230936   4.052   1.959  19.549
 6353SOL     OW30937   2.712   2.229  19.079
 6353SOL    HW130938   2.737   2.136  19.075
 6353SOL    HW230939   2.617   2.229  19.067
 6354SOL     OW30940   2.424   3.452  20.285
 6354SOL    HW130941   2.373   3.498  20.219
 6354SOL    HW230942   2.366   3.383  20.318
 6355SOL     OW30943   3.474   1.995  17.005
 6355SOL    HW130944   3.441   1.926  17.063
 6355SOL    HW230945   3.559   2.019  17.042
 6356SOL     OW30946   1.012   0.872   6.108
 6356SOL    HW130947   1.038   0.793   6.062
 6356SOL    HW230948   0.931   0.849   6.153
 6357SOL     OW30949   0.913   2.946  19.086
 6357SOL    HW130950   0.855   3.000  19.031
 6357SOL    HW230951   0.991   2.933  19.032
 6358SOL     OW30952   3.943   3.815   4.094
 6358SOL    HW130953   4.019   3.757   4.094
 6358SOL    HW230954   3.912   3.814   4.184
 6359SOL     OW30955   4.122   2.478  16.316
 6359SOL    HW130956   4.195   2.539  16.303
 6359SOL    HW230957   4.062   2.526  16.373
 6360SOL     OW30958   0.903   0.908   0.435
 6360SOL    HW130959   0.837   0.955   0.384
 6360SOL    HW230960   0.852   0.857   0.499
 6361SOL     OW30961   2.263   3.900  18.195
 6361SOL    HW130962   2.246   3.817  18.152
 6361SOL    HW230963   2.178   3.926  18.231
 6362SOL     OW30964   4.775   0.544   1.886
 6362SOL    HW130965   4.687   0.523   1.915
 6362SOL    HW230966   0.037   0.476   1.925
 6363SOL     OW30967   1.580   1.165  17.052
 6363SOL    HW130968   1.498   1.203  17.080
 6363SOL    HW230969   1.635   1.165  17.131
 6364SOL     OW30970   0.498   4.269   4.137
 6364SOL    HW130971   0.527   4.222   4.059
 6364SOL    HW230972   0.505   4.205   4.208
 6365SOL     OW30973   3.363   3.814   3.815
 6365SOL    HW130974   3.292   3.785   3.871
 6365SOL    HW230975   3.340   3.905   3.794
 6366SOL     OW30976   2.248   0.519   0.547
 6366SOL    HW130977   2.341   0.507   0.525
 6366SOL    HW230978   2.205   0.527   0.462
 6367SOL     OW30979   2.655   3.662   3.158
 6367SOL    HW130980   2.698   3.577   3.169
 6367SOL    HW230981   2.706   3.706   3.089
 6368SOL     OW30982   1.644   0.918  16.605
 6368SOL    HW130983   1.673   0.949  16.691
 6368SOL    HW230984   1.566   0.866  16.623
 6369SOL     OW30985   1.587   2.833   1.673
 6369SOL    HW130986   1.682   2.831   1.659
 6369SOL    HW230987   1.576   2.819   1.767
 6370SOL     OW30988   3.889   2.513   8.862
 6370SOL    HW130989   3.863   2.436   8.913
 6370SOL    HW230990   3.819   2.576   8.875
 6371SOL     OW30991   2.257   3.102   5.371
 6371SOL    HW130992   2.233   3.167   5.305
 6371SOL    HW230993   2.269   3.153   5.451
 6372SOL     OW30994   0.662   0.998  13.402
 6372SOL    HW130995   0.640   1.086  13.374
 6372SOL    HW230996   0.579   0.950  13.399
 6373SOL     OW30997   4.477   3.360  15.406
 6373SOL    HW130998   4.478   3.279  15.355
 6373SOL    HW230999   4.459   3.429  15.341
 6374SOL     OW31000   3.031   1.362   2.127
 6374SOL    HW131001   3.116   1.331   2.095
 6374SOL    HW231002   3.043   1.373   2.221
 6375SOL     OW31003   4.327   4.357   5.466
 6375SOL    HW131004   4.396   4.421   5.487
 6375SOL    HW231005   4.276   4.350   5.547
 6376SOL     OW31006   4.693   3.034  16.729
 6376SOL    HW131007   4.750   3.110  16.728
 6376SOL    HW231008   4.679   3.013  16.637
 6377SOL     OW31009   0.434   2.475  19.763
 6377SOL    HW131010   0.412   2.416  19.690
 6377SOL    HW231011   0.501   2.428  19.812
 6378SOL     OW31012   4.435   4.703   5.126
 6378SOL    HW131013   4.390   4.778   5.164
 6378SOL    HW231014   4.364   4.647   5.094
 6379SOL     OW31015   2.232   1.102  21.261
 6379SOL    HW131016   2.306   1.113  21.201
 6379SOL    HW231017   2.182   1.183  21.253
 6380SOL     OW31018   4.644   0.333  16.024
 6380SOL    HW131019   4.629   0.417  16.067
 6380SOL    HW231020   4.577   0.275  16.059
 6381SOL     OW31021   2.983   4.511  16.782
 6381SOL    HW131022   2.959   4.551  16.698
 6381SOL    HW231023   3.012   4.584  16.836
 6382SOL     OW31024   3.970   2.146   2.403
 6382SOL    HW131025   3.940   2.235   2.421
 6382SOL    HW231026   3.908   2.112   2.339
 6383SOL     OW31027   1.006   1.888  20.500
 6383SOL    HW131028   0.993   1.980  20.478
 6383SOL    HW231029   0.993   1.885  20.595
 6384SOL     OW31030   4.459   1.329   4.644
 6384SOL    HW131031   4.527   1.376   4.691
 6384SOL    HW231032   4.383   1.332   4.703
 6385SOL     OW31033   1.712   2.089  19.381
 6385SOL    HW131034   1.685   2.060  19.294
 6385SOL    HW231035   1.649   2.157  19.404
 6386SOL     OW31036   4.510   4.020  17.136
 6386SOL    HW131037   4.502   4.112  17.164
 6386SOL    HW231038   4.485   4.020  17.044
 6387SOL     OW31039   3.388   0.491   3.307
 6387SOL    HW131040   3.367   0.454   3.393
 6387SOL    HW231041   3.415   0.581   3.325
 6388SOL     OW31042   1.972   1.222  19.678
 6388SOL    HW131043   2.022   1.304  19.684
 6388SOL    HW231044   1.892   1.239  19.728
 6389SOL     OW31045   3.989   4.250   4.893
 6389SOL    HW131046   3.904   4.273   4.931
 6389SOL    HW231047   4.039   4.217   4.968
 6390SOL     OW31048   4.258   3.192   2.244
 6390SOL    HW131049   4.218   3.247   2.177
 6390SOL    HW231050   4.303   3.123   2.195
 6391SOL     OW31051   1.452   2.746  20.504
 6391SOL    HW131052   1.363   2.711  20.512
 6391SOL    HW231053   1.441   2.831  20.463
 6392SOL     OW31054   2.678   2.962  19.436
 6392SOL    HW131055   2.749   2.951  19.373
 6392SOL    HW231056   2.603   2.990  19.383
 6393SOL     OW31057   2.534   3.703   1.863
 6393SOL    HW131058   2.554   3.655   1.783
 6393SOL    HW231059   2.488   3.639   1.918
 6394SOL     OW31060   4.557   4.489   7.999
 6394SOL    HW131061   4.640   4.442   7.990
 6394SOL    HW231062   4.570   4.545   8.076
 6395SOL     OW31063   0.289   2.180  19.729
 6395SOL    HW131064   0.217   2.117  19.727
 6395SOL    HW231065   0.271   2.239  19.656
 6396SOL     OW31066   2.140   1.789   4.216
 6396SOL    HW131067   2.078   1.831   4.275
 6396SOL    HW231068   2.143   1.846   4.139
 6397SOL     OW31069   3.942   3.005  19.561
 6397SOL    HW131070   3.962   3.099  19.561
 6397SOL    HW231071   3.970   2.975  19.474
 6398SOL     OW31072   3.611   3.469   4.510
 6398SOL    HW131073   3.569   3.530   4.449
 6398SOL    HW231074   3.689   3.438   4.464
 6399SOL     OW31075   4.476   3.350  16.575
 6399SOL    HW131076   4.464   3.314  16.487
 6399SOL    HW231077   4.538   3.422  16.563
 6400SOL     OW31078   1.178   3.712   5.213
 6400SOL    HW131079   1.246   3.743   5.274
 6400SOL    HW231080   1.126   3.651   5.264
 6401SOL     OW31081   3.867   2.238  17.107
 6401SOL    HW131082   3.931   2.202  17.046
 6401SOL    HW231083   3.815   2.298  17.055
 6402SOL     OW31084   0.298   1.183  17.711
 6402SOL    HW131085   0.354   1.237  17.766
 6402SOL    HW231086   0.272   1.110  17.768
 6403SOL     OW31087   1.159   0.921   5.017
 6403SOL    HW131088   1.187   0.942   4.929
 6403SOL    HW231089   1.169   0.826   5.024
 6404SOL     OW31090   1.957   1.309   0.363
 6404SOL    HW131091   2.024   1.365   0.401
 6404SOL    HW231092   1.935   1.248   0.434
 6405SOL     OW31093   2.090   0.229   1.590
 6405SOL    HW131094   2.023   0.279   1.542
 6405SOL    HW231095   2.069   0.243   1.682
 6406SOL     OW31096   2.340   1.499   5.069
 6406SOL    HW131097   2.391   1.554   5.129
 6406SOL    HW231098   2.249   1.524   5.086
 6407SOL     OW31099   1.151   3.685   0.493
 6407SOL    HW131100   1.230   3.643   0.525
 6407SOL    HW231101   1.079   3.631   0.526
 6408SOL     OW31102   3.227   1.730  19.500
 6408SOL    HW131103   3.189   1.744  19.586
 6408SOL    HW231104   3.152   1.729  19.440
 6409SOL     OW31105   3.241   0.905   5.047
 6409SOL    HW131106   3.292   0.951   4.980
 6409SOL    HW231107   3.195   0.836   4.999
 6410SOL     OW31108   1.450   2.392  18.377
 6410SOL    HW131109   1.471   2.390  18.470
 6410SOL    HW231110   1.395   2.315  18.364
 6411SOL     OW31111   0.282   4.262   7.373
 6411SOL    HW131112   0.302   4.218   7.290
 6411SOL    HW231113   0.240   4.344   7.347
 6412SOL     OW31114   3.529   1.085   6.639
 6412SOL    HW131115   3.559   1.080   6.730
 6412SOL    HW231116   3.589   1.146   6.597
 6413SOL     OW31117   2.495   3.431  20.659
 6413SOL    HW131118   2.460   3.343  20.647
 6413SOL    HW231119   2.420   3.489  20.645
 6414SOL     OW31120   2.050   4.059   3.757
 6414SOL    HW131121   2.023   4.016   3.838
 6414SOL    HW231122   2.096   3.992   3.708
 6415SOL     OW31123   1.112   2.585   2.776
 6415SOL    HW131124   1.103   2.673   2.738
 6415SOL    HW231125   1.205   2.564   2.768
 6416SOL     OW31126   2.674   3.491  16.878
 6416SOL    HW131127   2.609   3.459  16.815
 6416SOL    HW231128   2.647   3.454  16.962
 6417SOL     OW31129   3.547   2.003  12.701
 6417SOL    HW131130   3.529   2.063  12.774
 6417SOL    HW231131   3.635   1.970  12.717
 6418SOL     OW31132   1.718   3.425  20.664
 6418SOL    HW131133   1.662   3.426  20.586
 6418SOL    HW231134   1.663   3.387  20.733
 6419SOL     OW31135   0.338   2.261  17.419
 6419SOL    HW131136   0.361   2.185  17.474
 6419SOL    HW231137   0.252   2.287  17.450
 6420SOL     OW31138   2.538   1.040   2.022
 6420SOL    HW131139   2.468   1.099   1.993
 6420SOL    HW231140   2.585   1.018   1.942
 6421SOL     OW31141   3.339   1.566   2.970
 6421SOL    HW131142   3.271   1.626   3.002
 6421SOL    HW231143   3.342   1.582   2.875
 6422SOL     OW31144   0.055   2.495  16.942
 6422SOL    HW131145   0.134   2.462  16.985
 6422SOL    HW231146   4.785   2.423  16.950
 6423SOL     OW31147   3.160   1.508   1.134
 6423SOL    HW131148   3.232   1.564   1.164
 6423SOL    HW231149   3.090   1.569   1.110
 6424SOL     OW31150   1.455   1.201   2.470
 6424SOL    HW131151   1.383   1.260   2.448
 6424SOL    HW231152   1.464   1.210   2.565
 6425SOL     OW31153   0.491   0.049  19.311
 6425SOL    HW131154   0.570   0.004  19.282
 6425SOL    HW231155   0.427   0.031  19.243
 6426SOL     OW31156   3.615   2.052   5.897
 6426SOL    HW131157   3.563   1.984   5.939
 6426SOL    HW231158   3.588   2.050   5.805
 6427SOL     OW31159   0.534   0.861   2.291
 6427SOL    HW131160   0.563   0.921   2.360
 6427SOL    HW231161   0.502   0.784   2.338
 6428SOL     OW31162   1.462   1.469  17.924
 6428SOL    HW131163   1.432   1.422  18.001
 6428SOL    HW231164   1.455   1.562  17.948
 6429SOL     OW31165   2.947   0.426   0.156
 6429SOL    HW131166   2.926   0.439   0.064
 6429SOL    HW231167   3.032   0.467   0.168
 6430SOL     OW31168   2.414   4.493  16.900
 6430SOL    HW131169   2.505   4.514  16.879
 6430SOL    HW231170   2.415   4.398  16.916
 6431SOL     OW31171   3.059   4.321  16.062
 6431SOL    HW131172   2.964   4.314  16.069
 6431SOL    HW231173   3.081   4.400  16.112
 6432SOL     OW31174   3.285   1.573  18.339
 6432SOL    HW131175   3.299   1.622  18.420
 6432SOL    HW231176   3.194   1.591  18.316
 6433SOL     OW31177   1.179   1.135  19.335
 6433SOL    HW131178   1.262   1.117  19.379
 6433SOL    HW231179   1.140   1.206  19.387
 6434SOL     OW31180   4.570   1.594  15.922
 6434SOL    HW131181   4.619   1.621  16.000
 6434SOL    HW231182   4.569   1.672  15.866
 6435SOL     OW31183   3.153   3.789   2.922
 6435SOL    HW131184   3.180   3.881   2.925
 6435SOL    HW231185   3.137   3.772   2.829
 6436SOL     OW31186   3.971   2.675   0.309
 6436SOL    HW131187   3.951   2.619   0.234
 6436SOL    HW231188   4.063   2.699   0.297
 6437SOL     OW31189   3.778   4.782  17.431
 6437SOL    HW131190   3.821   4.768  17.516
 6437SOL    HW231191   3.816   0.070  17.398
 6438SOL     OW31192   2.779   0.559   7.684
 6438SOL    HW131193   2.797   0.584   7.774
 6438SOL    HW231194   2.798   0.465   7.680
 6439SOL     OW31195   0.465   4.254  16.263
 6439SOL    HW131196   0.521   4.317  16.308
 6439SOL    HW231197   0.441   4.190  16.330
 6440SOL     OW31198   0.982   4.480   6.333
 6440SOL    HW131199   0.944   4.409   6.281
 6440SOL    HW231200   1.009   4.437   6.415
 6441SOL     OW31201   2.672   2.665   1.169
 6441SOL    HW131202   2.712   2.683   1.255
 6441SOL    HW231203   2.743   2.679   1.107
 6442SOL     OW31204   2.282   0.597  17.858
 6442SOL    HW131205   2.327   0.515  17.838
 6442SOL    HW231206   2.353   0.662  17.864
 6443SOL     OW31207   1.273   4.127   3.243
 6443SOL    HW131208   1.294   4.130   3.336
 6443SOL    HW231209   1.350   4.085   3.203
 6444SOL     OW31210   1.827   4.221  18.627
 6444SOL    HW131211   1.810   4.159  18.698
 6444SOL    HW231212   1.778   4.187  18.552
 6445SOL     OW31213   2.585   0.927   4.108
 6445SOL    HW131214   2.666   0.977   4.101
 6445SOL    HW231215   2.526   0.968   4.045
 6446SOL     OW31216   1.203   0.698   1.944
 6446SOL    HW131217   1.144   0.770   1.963
 6446SOL    HW231218   1.286   0.740   1.922
 6447SOL     OW31219   3.794   1.704  20.652
 6447SOL    HW131220   3.764   1.668  20.569
 6447SOL    HW231221   3.847   1.780  20.628
 6448SOL     OW31222   4.554   1.263   8.289
 6448SOL    HW131223   4.649   1.262   8.280
 6448SOL    HW231224   4.527   1.343   8.244
 6449SOL     OW31225   0.781   0.438  12.014
 6449SOL    HW131226   0.690   0.457  11.994
 6449SOL    HW231227   0.831   0.487  11.948
 6450SOL     OW31228   4.445   3.786  14.430
 6450SOL    HW131229   4.388   3.824  14.364
 6450SOL    HW231230   4.400   3.802  14.513
 6451SOL     OW31231   1.722   3.750   3.856
 6451SOL    HW131232   1.673   3.815   3.907
 6451SOL    HW231233   1.656   3.686   3.830
 6452SOL     OW31234   1.883   3.641  20.654
 6452SOL    HW131235   1.809   3.700  20.642
 6452SOL    HW231236   1.844   3.555  20.671
 6453SOL     OW31237   0.244   0.895  17.250
 6453SOL    HW131238   0.272   0.840  17.177
 6453SOL    HW231239   0.159   0.930  17.223
 6454SOL     OW31240   1.764   3.816  15.825
 6454SOL    HW131241   1.736   3.813  15.733
 6454SOL    HW231242   1.830   3.885  15.827
 6455SOL     OW31243   3.009   2.017  13.478
 6455SOL    HW131244   2.970   1.944  13.526
 6455SOL    HW231245   3.063   1.975  13.411
 6456SOL     OW31246   3.074   4.769   8.252
 6456SOL    HW131247   3.130   0.032   8.305
 6456SOL    HW231248   3.002   4.745   8.311
 6457SOL     OW31249   2.190   3.476   8.344
 6457SOL    HW131250   2.243   3.552   8.322
 6457SOL    HW231251   2.122   3.510   8.402
 6458SOL     OW31252   3.091   4.456  18.596
 6458SOL    HW131253   3.142   4.447  18.676
 6458SOL    HW231254   3.062   4.367  18.576
 6459SOL     OW31255   1.778   3.919   1.934
 6459SOL    HW131256   1.710   3.862   1.969
 6459SOL    HW231257   1.822   3.866   1.867
 6460SOL     OW31258   2.417   4.785   5.454
 6460SOL    HW131259   2.364   0.020   5.529
 6460SOL    HW231260   2.388   4.695   5.437
 6461SOL     OW31261   1.543   1.084  18.636
 6461SOL    HW131262   1.484   1.082  18.712
 6461SOL    HW231263   1.499   1.142  18.573
 6462SOL     OW31264   4.728   3.007  16.457
 6462SOL    HW131265   4.749   3.092  16.419
 6462SOL    HW231266   0.019   2.970  16.483
 6463SOL     OW31267   2.077   0.374  17.782
 6463SOL    HW131268   2.123   0.293  17.804
 6463SOL    HW231269   2.115   0.440  17.840
 6464SOL     OW31270   3.969   4.484   5.525
 6464SOL    HW131271   3.875   4.470   5.533
 6464SOL    HW231272   3.993   4.442   5.442
 6465SOL     OW31273   3.753   2.305   4.544
 6465SOL    HW131274   3.782   2.255   4.620
 6465SOL    HW231275   3.767   2.396   4.568
 6466SOL     OW31276   0.047   4.649  15.044
 6466SOL    HW131277   0.109   4.577  15.056
 6466SOL    HW231278   0.095   4.714  14.992
 6467SOL     OW31279   2.157   3.889   2.081
 6467SOL    HW131280   2.123   3.803   2.055
 6467SOL    HW231281   2.204   3.921   2.004
 6468SOL     OW31282   3.426   1.318  18.245
 6468SOL    HW131283   3.459   1.270  18.321
 6468SOL    HW231284   3.363   1.380  18.282
 6469SOL     OW31285   0.870   1.413  17.557
 6469SOL    HW131286   0.877   1.320  17.536
 6469SOL    HW231287   0.957   1.448  17.538
 6470SOL     OW31288   1.134   4.711   6.233
 6470SOL    HW131289   1.134   4.619   6.210
 6470SOL    HW231290   1.109   4.713   6.326
 6471SOL     OW31291   4.622   4.169   0.645
 6471SOL    HW131292   4.573   4.235   0.598
 6471SOL    HW231293   4.681   4.218   0.703
 6472SOL     OW31294   4.045   4.727  20.890
 6472SOL    HW131295   3.975   4.792  20.901
 6472SOL    HW231296   4.006   4.658  20.837
 6473SOL     OW31297   0.749   4.269   3.113
 6473SOL    HW131298   0.821   4.292   3.172
 6473SOL    HW231299   0.671   4.303   3.157
 6474SOL     OW31300   2.828   4.160  15.217
 6474SOL    HW131301   2.911   4.127  15.184
 6474SOL    HW231302   2.772   4.168  15.140
 6475SOL     OW31303   2.367   0.610  18.773
 6475SOL    HW131304   2.378   0.616  18.678
 6475SOL    HW231305   2.412   0.688  18.806
 6476SOL     OW31306   1.998   3.593  16.256
 6476SOL    HW131307   1.988   3.675  16.207
 6476SOL    HW231308   2.073   3.608  16.313
 6477SOL     OW31309   0.191   3.355  17.793
 6477SOL    HW131310   0.253   3.421  17.823
 6477SOL    HW231311   0.106   3.399  17.798
 6478SOL     OW31312   3.153   3.813   3.512
 6478SOL    HW131313   3.215   3.837   3.443
 6478SOL    HW231314   3.194   3.842   3.593
 6479SOL     OW31315   1.958   4.321  20.653
 6479SOL    HW131316   1.949   4.408  20.614
 6479SOL    HW231317   1.868   4.290  20.661
 6480SOL     OW31318   0.850   2.522  14.957
 6480SOL    HW131319   0.761   2.545  14.984
 6480SOL    HW231320   0.854   2.427  14.966
 6481SOL     OW31321   2.859   2.321  17.896
 6481SOL    HW131322   2.826   2.281  17.816
 6481SOL    HW231323   2.785   2.318  17.956
 6482SOL     OW31324   2.861   2.850   2.752
 6482SOL    HW131325   2.837   2.943   2.751
 6482SOL    HW231326   2.781   2.805   2.779
 6483SOL     OW31327   3.773   0.494   4.925
 6483SOL    HW131328   3.869   0.499   4.924
 6483SOL    HW231329   3.753   0.454   5.010
 6484SOL     OW31330   1.174   3.551  19.123
 6484SOL    HW131331   1.234   3.539  19.196
 6484SOL    HW231332   1.215   3.505  19.050
 6485SOL     OW31333   3.200   1.308  17.580
 6485SOL    HW131334   3.233   1.294  17.669
 6485SOL    HW231335   3.254   1.252  17.525
 6486SOL     OW31336   4.264   4.495   0.376
 6486SOL    HW131337   4.169   4.485   0.369
 6486SOL    HW231338   4.292   4.529   0.291
 6487SOL     OW31339   2.109   4.271  17.677
 6487SOL    HW131340   2.200   4.296  17.661
 6487SOL    HW231341   2.069   4.270  17.590
 6488SOL     OW31342   2.233   2.385   1.161
 6488SOL    HW131343   2.187   2.454   1.209
 6488SOL    HW231344   2.325   2.409   1.167
 6489SOL     OW31345   1.878   2.164   3.377
 6489SOL    HW131346   1.858   2.195   3.289
 6489SOL    HW231347   1.969   2.135   3.372
 6490SOL     OW31348   4.778   4.029   6.524
 6490SOL    HW131349   4.686   4.004   6.519
 6490SOL    HW231350   0.001   4.041   6.617
 6491SOL     OW31351   1.735   1.041  18.326
 6491SOL    HW131352   1.741   0.992  18.244
 6491SOL    HW231353   1.657   1.006  18.369
 6492SOL     OW31354   2.888   0.162   4.342
 6492SOL    HW131355   2.842   0.143   4.424
 6492SOL    HW231356   2.981   0.158   4.365
 6493SOL     OW31357   3.596   2.999  16.049
 6493SOL    HW131358   3.665   2.957  15.997
 6493SOL    HW231359   3.608   3.093  16.033
 6494SOL     OW31360   2.548   0.313  14.379
 6494SOL    HW131361   2.464   0.298  14.335
 6494SOL    HW231362   2.557   0.238  14.439
 6495SOL     OW31363   4.376   2.157  18.631
 6495SOL    HW131364   4.302   2.217  18.634
 6495SOL    HW231365   4.371   2.117  18.544
 6496SOL     OW31366   3.562   3.174   0.882
 6496SOL    HW131367   3.628   3.136   0.940
 6496SOL    HW231368   3.604   3.253   0.848
 6497SOL     OW31369   3.319   0.179   1.800
 6497SOL    HW131370   3.256   0.251   1.803
 6497SOL    HW231371   3.374   0.197   1.724
 6498SOL     OW31372   0.687   0.442   1.105
 6498SOL    HW131373   0.729   0.507   1.161
 6498SOL    HW231374   0.746   0.368   1.105
 6499SOL     OW31375   1.987   3.962  15.835
 6499SOL    HW131376   2.052   3.931  15.771
 6499SOL    HW231377   1.951   4.041  15.795
 6500SOL     OW31378   3.675   2.925  13.544
 6500SOL    HW131379   3.672   2.831  13.561
 6500SOL    HW231380   3.630   2.965  13.618
 6501SOL     OW31381   3.048   2.713  18.427
 6501SOL    HW131382   3.102   2.655  18.373
 6501SOL    HW231383   3.109   2.754  18.488
 6502SOL     OW31384   0.767   4.102   6.484
 6502SOL    HW131385   0.780   4.043   6.559
 6502SOL    HW231386   0.738   4.044   6.413
 6503SOL     OW31387   4.160   4.609  13.369
 6503SOL    HW131388   4.105   4.614  13.447
 6503SOL    HW231389   4.230   4.548  13.392
 6504SOL     OW31390   3.179   4.477  21.223
 6504SOL    HW131391   3.174   4.572  21.222
 6504SOL    HW231392   3.255   4.457   0.005
 6505SOL     OW31393   2.499   0.013  17.094
 6505SOL    HW131394   2.442   0.052  17.161
 6505SOL    HW231395   2.454   0.031  17.011
 6506SOL     OW31396   1.991   1.627   0.006
 6506SOL    HW131397   2.041   1.709   0.013
 6506SOL    HW231398   1.948   1.617   0.090
 6507SOL     OW31399   4.091   3.917  17.250
 6507SOL    HW131400   4.143   3.851  17.297
 6507SOL    HW231401   4.155   3.966  17.198
 6508SOL     OW31402   4.703   1.378   5.397
 6508SOL    HW131403   4.660   1.407   5.477
 6508SOL    HW231404   4.649   1.413   5.326
 6509SOL     OW31405   0.086   1.033  14.181
 6509SOL    HW131406   0.083   1.029  14.086
 6509SOL    HW231407   0.039   0.955  14.211
 6510SOL     OW31408   1.935   4.306   6.803
 6510SOL    HW131409   1.905   4.376   6.862
 6510SOL    HW231410   2.019   4.338   6.770
 6511SOL     OW31411   3.507   4.744  17.621
 6511SOL    HW131412   3.442   4.674  17.624
 6511SOL    HW231413   3.541   4.750  17.710
 6512SOL     OW31414   2.236   3.495  17.341
 6512SOL    HW131415   2.151   3.507  17.300
 6512SOL    HW231416   2.276   3.423  17.293
 6513SOL     OW31417   3.034   3.905  14.866
 6513SOL    HW131418   3.005   3.891  14.956
 6513SOL    HW231419   3.097   3.977  14.872
 6514SOL     OW31420   2.947   3.324   0.479
 6514SOL    HW131421   2.966   3.416   0.499
 6514SOL    HW231422   3.003   3.303   0.405
 6515SOL     OW31423   2.259   2.793   5.139
 6515SOL    HW131424   2.282   2.863   5.078
 6515SOL    HW231425   2.177   2.757   5.104
 6516SOL     OW31426   0.080   1.371  17.432
 6516SOL    HW131427   0.022   1.339  17.502
 6516SOL    HW231428   0.020   1.390  17.359
 6517SOL     OW31429   3.300   2.925  19.715
 6517SOL    HW131430   3.309   2.883  19.630
 6517SOL    HW231431   3.230   2.877  19.758
 6518SOL     OW31432   2.757   0.917  16.637
 6518SOL    HW131433   2.804   0.977  16.695
 6518SOL    HW231434   2.824   0.886  16.575
 6519SOL     OW31435   1.001   2.488   0.935
 6519SOL    HW131436   0.997   2.484   1.030
 6519SOL    HW231437   0.910   2.500   0.907
 6520SOL     OW31438   3.397   1.650  20.773
 6520SOL    HW131439   3.327   1.710  20.800
 6520SOL    HW231440   3.476   1.685  20.813
 6521SOL     OW31441   0.339   1.062   5.230
 6521SOL    HW131442   0.275   1.131   5.213
 6521SOL    HW231443   0.286   0.982   5.234
 6522SOL     OW31444   0.767   4.728   2.177
 6522SOL    HW131445   0.850   4.681   2.167
 6522SOL    HW231446   0.707   4.682   2.119
 6523SOL     OW31447   1.622   4.688  13.711
 6523SOL    HW131448   1.528   4.685  13.691
 6523SOL    HW231449   1.661   4.727  13.632
 6524SOL     OW31450   1.719   3.169  15.608
 6524SOL    HW131451   1.739   3.079  15.635
 6524SOL    HW231452   1.658   3.200  15.674
 6525SOL     OW31453   4.187   1.144   0.677
 6525SOL    HW131454   4.177   1.193   0.596
 6525SOL    HW231455   4.221   1.209   0.740
 6526SOL     OW31456   1.106   2.082  20.753
 6526SOL    HW131457   1.150   2.044  20.677
 6526SOL    HW231458   1.156   2.051  20.828
 6527SOL     OW31459   2.469   3.442  17.979
 6527SOL    HW131460   2.471   3.527  17.937
 6527SOL    HW231461   2.383   3.437  18.021
 6528SOL     OW31462   1.099   1.365  18.840
 6528SOL    HW131463   1.082   1.430  18.907
 6528SOL    HW231464   1.187   1.333  18.859
 6529SOL     OW31465   1.444   3.739  13.045
 6529SOL    HW131466   1.365   3.685  13.054
 6529SOL    HW231467   1.505   3.703  13.109
 6530SOL     OW31468   1.284   0.966   4.173
 6530SOL    HW131469   1.333   0.906   4.229
 6530SOL    HW231470   1.278   0.921   4.089
 6531SOL     OW31471   2.144   1.872   1.817
 6531SOL    HW131472   2.144   1.800   1.881
 6531SOL    HW231473   2.054   1.876   1.785
 6532SOL     OW31474   1.706   1.772   0.816
 6532SOL    HW131475   1.622   1.741   0.784
 6532SOL    HW231476   1.763   1.694   0.815
 6533SOL     OW31477   0.746   2.551   0.848
 6533SOL    HW131478   0.673   2.516   0.797
 6533SOL    HW231479   0.759   2.639   0.814
 6534SOL     OW31480   3.955   0.862   0.666
 6534SOL    HW131481   3.921   0.952   0.661
 6534SOL    HW231482   3.891   0.810   0.619
 6535SOL     OW31483   3.755   1.532  20.945
 6535SOL    HW131484   3.801   1.594  20.888
 6535SOL    HW231485   3.807   1.452  20.941
 6536SOL     OW31486   3.283   1.766  15.955
 6536SOL    HW131487   3.294   1.789  16.047
 6536SOL    HW231488   3.325   1.838  15.907
 6537SOL     OW31489   3.402   3.804  16.655
 6537SOL    HW131490   3.354   3.813  16.573
 6537SOL    HW231491   3.438   3.716  16.653
 6538SOL     OW31492   1.317   4.178  19.286
 6538SOL    HW131493   1.382   4.223  19.231
 6538SOL    HW231494   1.249   4.243  19.302
 6539SOL     OW31495   3.182   4.521   4.598
 6539SOL    HW131496   3.135   4.437   4.594
 6539SOL    HW231497   3.235   4.515   4.677
 6540SOL     OW31498   2.482   1.125  18.778
 6540SOL    HW131499   2.387   1.125  18.795
 6540SOL    HW231500   2.507   1.033  18.782
 6541SOL     OW31501   3.991   4.078  21.176
 6541SOL    HW131502   4.032   4.162  21.156
 6541SOL    HW231503   3.942   4.056  21.096
 6542SOL     OW31504   0.447   4.555   2.185
 6542SOL    HW131505   0.507   4.548   2.111
 6542SOL    HW231506   0.407   4.641   2.175
 6543SOL     OW31507   1.614   0.419   3.054
 6543SOL    HW131508   1.700   0.403   3.014
 6543SOL    HW231509   1.552   0.407   2.983
 6544SOL     OW31510   2.462   3.867  15.837
 6544SOL    HW131511   2.435   3.958  15.852
 6544SOL    HW231512   2.501   3.868  15.749
 6545SOL     OW31513   1.123   2.129  13.296
 6545SOL    HW131514   1.073   2.058  13.255
 6545SOL    HW231515   1.097   2.124  13.389
 6546SOL     OW31516   4.186   4.386   5.686
 6546SOL    HW131517   4.136   4.468   5.684
 6546SOL    HW231518   4.223   4.383   5.774
 6547SOL     OW31519   3.944   3.476  18.412
 6547SOL    HW131520   3.903   3.445  18.331
 6547SOL    HW231521   3.894   3.433  18.481
 6548SOL     OW31522   4.727   3.316  15.185
 6548SOL    HW131523   4.789   3.382  15.155
 6548SOL    HW231524   4.744   3.308  15.279
 6549SOL     OW31525   4.407   0.340   4.466
 6549SOL    HW131526   4.451   0.419   4.434
 6549SOL    HW231527   4.473   0.271   4.458
 6550SOL     OW31528   1.183   2.821   6.025
 6550SOL    HW131529   1.257   2.763   6.007
 6550SOL    HW231530   1.122   2.767   6.075
 6551SOL     OW31531   2.476   4.180  16.289
 6551SOL    HW131532   2.473   4.186  16.384
 6551SOL    HW231533   2.566   4.153  16.270
 6552SOL     OW31534   2.669   4.692  16.558
 6552SOL    HW131535   2.678   4.755  16.630
 6552SOL    HW231536   2.577   4.667  16.559
 6553SOL     OW31537   0.049   4.539  13.953
 6553SOL    HW131538   0.116   4.561  13.888
 6553SOL    HW231539   0.095   4.489  14.020
 6554SOL     OW31540   4.632   0.151   4.682
 6554SOL    HW131541   4.621   0.235   4.725
 6554SOL    HW231542   4.616   0.086   4.751
 6555SOL     OW31543   1.484   0.045  15.819
 6555SOL    HW131544   1.541   4.783  15.872
 6555SOL    HW231545   1.415   4.779  15.790
 6556SOL     OW31546   4.447   0.383   6.699
 6556SOL    HW131547   4.445   0.443   6.773
 6556SOL    HW231548   4.518   0.416   6.644
 6557SOL     OW31549   2.846   2.212  20.629
 6557SOL    HW131550   2.868   2.304  20.614
 6557SOL    HW231551   2.755   2.204  20.601
 6558SOL     OW31552   4.398   3.368   3.293
 6558SOL    HW131553   4.326   3.362   3.231
 6558SOL    HW231554   4.461   3.303   3.264
 6559SOL     OW31555   0.497   2.368  15.658
 6559SOL    HW131556   0.500   2.311  15.581
 6559SOL    HW231557   0.404   2.380  15.676
 6560SOL     OW31558   3.168   1.097   1.241
 6560SOL    HW131559   3.147   1.167   1.179
 6560SOL    HW231560   3.206   1.028   1.188
 6561SOL     OW31561   1.969   1.349   6.382
 6561SOL    HW131562   1.939   1.437   6.360
 6561SOL    HW231563   1.926   1.292   6.318
 6562SOL     OW31564   1.734   3.235   1.701
 6562SOL    HW131565   1.806   3.175   1.720
 6562SOL    HW231566   1.692   3.250   1.786
 6563SOL     OW31567   3.531   0.889   6.314
 6563SOL    HW131568   3.445   0.908   6.352
 6563SOL    HW231569   3.553   0.966   6.263
 6564SOL     OW31570   0.238   2.100  14.157
 6564SOL    HW131571   0.148   2.069  14.149
 6564SOL    HW231572   0.277   2.043  14.224
 6565SOL     OW31573   1.976   3.926  20.555
 6565SOL    HW131574   1.996   4.001  20.499
 6565SOL    HW231575   1.993   3.958  20.644
 6566SOL     OW31576   2.382   2.867   7.221
 6566SOL    HW131577   2.477   2.866   7.239
 6566SOL    HW231578   2.347   2.794   7.272
 6567SOL     OW31579   2.650   4.649   1.090
 6567SOL    HW131580   2.587   4.597   1.139
 6567SOL    HW231581   2.718   4.670   1.154
 6568SOL     OW31582   3.175   2.905   2.830
 6568SOL    HW131583   3.254   2.907   2.776
 6568SOL    HW231584   3.103   2.905   2.766
 6569SOL     OW31585   1.431   4.781   8.639
 6569SOL    HW131586   1.452   4.688   8.648
 6569SOL    HW231587   1.429   0.021   8.729
 6570SOL     OW31588   2.682   2.878   4.978
 6570SOL    HW131589   2.605   2.872   4.922
 6570SOL    HW231590   2.755   2.847   4.923
 6571SOL     OW31591   2.174   3.132   0.291
 6571SOL    HW131592   2.157   3.219   0.326
 6571SOL    HW231593   2.091   3.085   0.299
 6572SOL     OW31594   3.140   0.099   5.733
 6572SOL    HW131595   3.180   0.164   5.790
 6572SOL    HW231596   3.210   0.073   5.673
 6573SOL     OW31597   1.769   2.507   1.520
 6573SOL    HW131598   1.831   2.562   1.569
 6573SOL    HW231599   1.771   2.543   1.432
 6574SOL     OW31600   2.301   2.966   1.354
 6574SOL    HW131601   2.260   3.050   1.333
 6574SOL    HW231602   2.235   2.900   1.333
 6575SOL     OW31603   4.118   3.153  18.784
 6575SOL    HW131604   4.074   3.182  18.864
 6575SOL    HW231605   4.179   3.224  18.763
 6576SOL     OW31606   4.608   4.749  16.824
 6576SOL    HW131607   4.657   4.686  16.877
 6576SOL    HW231608   4.534   4.699  16.790
 6577SOL     OW31609   3.793   0.389  20.853
 6577SOL    HW131610   3.839   0.329  20.911
 6577SOL    HW231611   3.744   0.332  20.794
 6578SOL     OW31612   3.504   0.619   5.179
 6578SOL    HW131613   3.528   0.683   5.112
 6578SOL    HW231614   3.544   0.652   5.259
 6579SOL     OW31615   2.742   3.875   4.576
 6579SOL    HW131616   2.717   3.964   4.598
 6579SOL    HW231617   2.709   3.862   4.487
 6580SOL     OW31618   3.689   0.515  17.654
 6580SOL    HW131619   3.594   0.511  17.648
 6580SOL    HW231620   3.714   0.439  17.706
 6581SOL     OW31621   1.551   4.367  20.176
 6581SOL    HW131622   1.551   4.271  20.177
 6581SOL    HW231623   1.619   4.392  20.238
 6582SOL     OW31624   2.274   2.177   0.751
 6582SOL    HW131625   2.267   2.272   0.737
 6582SOL    HW231626   2.216   2.139   0.686
 6583SOL     OW31627   0.456   3.820   3.774
 6583SOL    HW131628   0.394   3.793   3.841
 6583SOL    HW231629   0.413   3.892   3.728
 6584SOL     OW31630   2.599   3.800   4.306
 6584SOL    HW131631   2.534   3.757   4.250
 6584SOL    HW231632   2.673   3.817   4.248
 6585SOL     OW31633   4.308   0.469   3.033
 6585SOL    HW131634   4.232   0.449   2.979
 6585SOL    HW231635   4.365   0.521   2.976
 6586SOL     OW31636   0.813   2.327   3.109
 6586SOL    HW131637   0.722   2.328   3.079
 6586SOL    HW231638   0.841   2.236   3.100
 6587SOL     OW31639   4.210   3.782   4.784
 6587SOL    HW131640   4.193   3.699   4.739
 6587SOL    HW231641   4.141   3.788   4.850
 6588SOL     OW31642   4.499   2.371  15.292
 6588SOL    HW131643   4.466   2.393  15.379
 6588SOL    HW231644   4.445   2.423  15.232
 6589SOL     OW31645   4.554   0.105  15.405
 6589SOL    HW131646   4.592   0.068  15.325
 6589SOL    HW231647   4.460   0.106  15.389
 6590SOL     OW31648   0.985   0.229   2.609
 6590SOL    HW131649   0.990   0.324   2.610
 6590SOL    HW231650   0.901   0.208   2.648
 6591SOL     OW31651   0.542   4.096  15.540
 6591SOL    HW131652   0.503   4.142  15.466
 6591SOL    HW231653   0.610   4.041  15.501
 6592SOL     OW31654   2.573   4.522  17.660
 6592SOL    HW131655   2.664   4.548  17.645
 6592SOL    HW231656   2.570   4.497  17.753
 6593SOL     OW31657   3.666   2.394  14.322
 6593SOL    HW131658   3.687   2.472  14.270
 6593SOL    HW231659   3.573   2.379  14.305
 6594SOL     OW31660   0.173   1.325   0.020
 6594SOL    HW131661   0.221   1.243   0.023
 6594SOL    HW231662   0.176   1.359   0.109
 6595SOL     OW31663   3.645   0.980  17.167
 6595SOL    HW131664   3.646   1.017  17.079
 6595SOL    HW231665   3.575   0.914  17.164
 6596SOL     OW31666   0.832   0.514   1.806
 6596SOL    HW131667   0.787   0.432   1.825
 6596SOL    HW231668   0.763   0.580   1.807
 6597SOL     OW31669   0.659   3.682   0.619
 6597SOL    HW131670   0.730   3.714   0.675
 6597SOL    HW231671   0.588   3.745   0.632
 6598SOL     OW31672   3.061   1.045   4.006
 6598SOL    HW131673   3.135   1.099   3.976
 6598SOL    HW231674   3.079   0.958   3.970
 6599SOL     OW31675   1.045   2.837   0.054
 6599SOL    HW131676   0.956   2.872   0.051
 6599SOL    HW231677   1.056   2.807   0.144
 6600SOL     OW31678   3.811   0.095  20.927
 6600SOL    HW131679   3.741   0.108  20.863
 6600SOL    HW231680   3.768   0.064  21.006
 6601SOL     OW31681   2.364   1.548  17.692
 6601SOL    HW131682   2.366   1.514  17.603
 6601SOL    HW231683   2.321   1.633  17.684
 6602SOL     OW31684   2.352   2.686   3.131
 6602SOL    HW131685   2.447   2.686   3.129
 6602SOL    HW231686   2.326   2.768   3.090
 6603SOL     OW31687   1.272   3.996  20.677
 6603SOL    HW131688   1.309   3.949  20.602
 6603SOL    HW231689   1.344   4.051  20.709
 6604SOL     OW31690   2.662   0.969   6.217
 6604SOL    HW131691   2.568   0.976   6.201
 6604SOL    HW231692   2.691   0.897   6.161
 6605SOL     OW31693   1.156   0.552  16.341
 6605SOL    HW131694   1.154   0.615  16.414
 6605SOL    HW231695   1.118   0.472  16.379
 6606SOL     OW31696   4.648   1.811  18.394
 6606SOL    HW131697   4.590   1.789  18.321
 6606SOL    HW231698   4.735   1.820  18.354
 6607SOL     OW31699   3.527   0.018  17.258
 6607SOL    HW131700   3.484   0.099  17.231
 6607SOL    HW231701   3.603   0.048  17.308
 6608SOL     OW31702   0.454   0.611   2.805
 6608SOL    HW131703   0.538   0.591   2.765
 6608SOL    HW231704   0.390   0.561   2.755
 6609SOL     OW31705   1.282   2.165   4.286
 6609SOL    HW131706   1.256   2.214   4.208
 6609SOL    HW231707   1.253   2.220   4.360
 6610SOL     OW31708   1.116   4.620   0.146
 6610SOL    HW131709   1.138   4.707   0.113
 6610SOL    HW231710   1.184   4.600   0.210
 6611SOL     OW31711   4.131   3.949   0.106
 6611SOL    HW131712   4.221   3.949   0.071
 6611SOL    HW231713   4.078   3.983   0.034
 6612SOL     OW31714   0.314   0.399  13.531
 6612SOL    HW131715   0.243   0.450  13.571
 6612SOL    HW231716   0.332   0.443  13.448
 6613SOL     OW31717   1.555   0.240  15.095
 6613SOL    HW131718   1.623   0.175  15.110
 6613SOL    HW231719   1.539   0.278  15.182
 6614SOL     OW31720   0.733   1.372   1.520
 6614SOL    HW131721   0.799   1.350   1.586
 6614SOL    HW231722   0.664   1.306   1.532
 6615SOL     OW31723   3.165   2.619  17.640
 6615SOL    HW131724   3.227   2.549  17.620
 6615SOL    HW231725   3.130   2.597  17.726
 6616SOL     OW31726   3.393   0.629   0.628
 6616SOL    HW131727   3.325   0.660   0.688
 6616SOL    HW231728   3.398   0.535   0.644
 6617SOL     OW31729   0.459   0.425  19.956
 6617SOL    HW131730   0.486   0.471  19.877
 6617SOL    HW231731   0.534   0.432  20.015
 6618SOL     OW31732   3.237   3.745  13.204
 6618SOL    HW131733   3.229   3.713  13.114
 6618SOL    HW231734   3.163   3.706  13.250
 6619SOL     OW31735   2.281   2.105   0.370
 6619SOL    HW131736   2.206   2.160   0.391
 6619SOL    HW231737   2.353   2.167   0.355
 6620SOL     OW31738   3.620   3.091  20.797
 6620SOL    HW131739   3.614   3.119  20.705
 6620SOL    HW231740   3.647   2.999  20.793
 6621SOL     OW31741   4.438   3.665   2.980
 6621SOL    HW131742   4.373   3.729   3.010
 6621SOL    HW231743   4.502   3.716   2.932
 6622SOL     OW31744   1.811   3.377   2.978
 6622SOL    HW131745   1.889   3.322   2.978
 6622SOL    HW231746   1.828   3.443   3.044
 6623SOL     OW31747   1.097   1.476   7.929
 6623SOL    HW131748   1.053   1.554   7.961
 6623SOL    HW231749   1.133   1.502   7.844
 6624SOL     OW31750   3.019   2.049  13.887
 6624SOL    HW131751   3.015   1.954  13.898
 6624SOL    HW231752   2.928   2.075  13.867
 6625SOL     OW31753   0.859   4.285   2.653
 6625SOL    HW131754   0.764   4.287   2.666
 6625SOL    HW231755   0.894   4.324   2.733
 6626SOL     OW31756   4.748   3.980   3.058
 6626SOL    HW131757   0.046   4.000   3.079
 6626SOL    HW231758   4.699   4.055   3.092
 6627SOL     OW31759   3.178   0.363   1.186
 6627SOL    HW131760   3.115   0.382   1.257
 6627SOL    HW231761   3.127   0.373   1.106
 6628SOL     OW31762   1.877   4.058   4.922
 6628SOL    HW131763   1.808   4.018   4.976
 6628SOL    HW231764   1.949   4.074   4.984
 6629SOL     OW31765   2.723   0.965  12.667
 6629SOL    HW131766   2.727   0.872  12.647
 6629SOL    HW231767   2.809   0.999  12.641
 6630SOL     OW31768   0.861   4.082   4.708
 6630SOL    HW131769   0.863   4.169   4.667
 6630SOL    HW231770   0.918   4.091   4.785
 6631SOL     OW31771   0.658   2.994   5.547
 6631SOL    HW131772   0.678   2.997   5.454
 6631SOL    HW231773   0.742   2.974   5.589
 6632SOL     OW31774   2.012   2.628  14.164
 6632SOL    HW131775   2.048   2.594  14.082
 6632SOL    HW231776   1.936   2.573  14.182
 6633SOL     OW31777   1.995   3.219   3.341
 6633SOL    HW131778   2.032   3.272   3.271
 6633SOL    HW231779   2.006   3.128   3.312
 6634SOL     OW31780   0.250   1.866   3.715
 6634SOL    HW131781   0.241   1.959   3.696
 6634SOL    HW231782   0.222   1.857   3.806
 6635SOL     OW31783   1.338   1.355  17.049
 6635SOL    HW131784   1.255   1.338  17.095
 6635SOL    HW231785   1.391   1.402  17.114
 6636SOL     OW31786   2.913   2.595  20.315
 6636SOL    HW131787   2.994   2.558  20.282
 6636SOL    HW231788   2.844   2.546  20.271
 6637SOL     OW31789   0.220   2.392  15.721
 6637SOL    HW131790   0.171   2.419  15.643
 6637SOL    HW231791   0.203   2.461  15.785
 6638SOL     OW31792   4.103   4.069  15.649
 6638SOL    HW131793   4.089   4.111  15.734
 6638SOL    HW231794   4.191   4.097  15.623
 6639SOL     OW31795   3.924   0.538  15.854
 6639SOL    HW131796   3.993   0.475  15.833
 6639SOL    HW231797   3.842   0.489  15.841
 6640SOL     OW31798   1.978   2.447  17.079
 6640SOL    HW131799   1.903   2.451  17.137
 6640SOL    HW231800   1.969   2.524  17.023
 6641SOL     OW31801   0.204   1.768   1.505
 6641SOL    HW131802   0.264   1.787   1.432
 6641SOL    HW231803   0.183   1.854   1.542
 6642SOL     OW31804   0.435   0.458   1.699
 6642SOL    HW131805   0.354   0.416   1.670
 6642SOL    HW231806   0.505   0.402   1.666
 6643SOL     OW31807   3.147   2.983   3.568
 6643SOL    HW131808   3.241   3.002   3.562
 6643SOL    HW231809   3.143   2.891   3.594
 6644SOL     OW31810   3.393   0.044  19.291
 6644SOL    HW131811   3.373   0.138  19.291
 6644SOL    HW231812   3.354   0.011  19.372
 6645SOL     OW31813   4.138   3.155   3.630
 6645SOL    HW131814   4.183   3.239   3.624
 6645SOL    HW231815   4.207   3.091   3.645
 6646SOL     OW31816   4.413   1.819   6.426
 6646SOL    HW131817   4.344   1.819   6.493
 6646SOL    HW231818   4.478   1.756   6.458
 6647SOL     OW31819   2.939   3.587   2.285
 6647SOL    HW131820   2.856   3.614   2.247
 6647SOL    HW231821   2.916   3.539   2.364
 6648SOL     OW31822   0.894   2.261   5.321
 6648SOL    HW131823   0.929   2.172   5.330
 6648SOL    HW231824   0.801   2.253   5.343
 6649SOL     OW31825   0.364   1.622   1.661
 6649SOL    HW131826   0.303   1.647   1.592
 6649SOL    HW231827   0.421   1.698   1.672
 6650SOL     OW31828   2.342   1.788  17.381
 6650SOL    HW131829   2.280   1.827  17.443
 6650SOL    HW231830   2.294   1.714  17.343
 6651SOL     OW31831   3.641   4.323  18.331
 6651SOL    HW131832   3.671   4.274  18.254
 6651SOL    HW231833   3.640   4.258  18.402
 6652SOL     OW31834   2.958   3.259   4.147
 6652SOL    HW131835   3.000   3.200   4.210
 6652SOL    HW231836   3.031   3.308   4.108
 6653SOL     OW31837   0.392   3.456  21.253
 6653SOL    HW131838   0.487   3.454  21.247
 6653SOL    HW231839   0.366   3.533  21.202
 6654SOL     OW31840   4.778   3.387   0.026
 6654SOL    HW131841   0.056   3.324   0.037
 6654SOL    HW231842   0.003   3.456   0.089
 6655SOL     OW31843   4.672   2.294   0.823
 6655SOL    HW131844   4.677   2.339   0.907
 6655SOL    HW231845   4.639   2.207   0.844
 6656SOL     OW31846   0.786   1.358   4.622
 6656SOL    HW131847   0.875   1.341   4.654
 6656SOL    HW231848   0.790   1.336   4.529
 6657SOL     OW31849   2.013   0.784   8.004
 6657SOL    HW131850   2.012   0.691   7.981
 6657SOL    HW231851   1.920   0.807   8.016
 6658SOL     OW31852   0.032   3.126   6.345
 6658SOL    HW131853   0.098   3.075   6.299
 6658SOL    HW231854   0.067   3.137   6.433
 6659SOL     OW31855   3.493   1.391  19.794
 6659SOL    HW131856   3.584   1.419  19.804
 6659SOL    HW231857   3.464   1.432  19.712
 6660SOL     OW31858   0.850   1.965  18.059
 6660SOL    HW131859   0.877   1.892  18.004
 6660SOL    HW231860   0.923   1.978  18.119
 6661SOL     OW31861   0.951   2.819  16.127
 6661SOL    HW131862   0.855   2.814  16.125
 6661SOL    HW231863   0.971   2.859  16.212
 6662SOL     OW31864   0.317   1.613   4.331
 6662SOL    HW131865   0.378   1.674   4.289
 6662SOL    HW231866   0.353   1.526   4.311
 6663SOL     OW31867   3.840   4.562   6.424
 6663SOL    HW131868   3.757   4.556   6.377
 6663SOL    HW231869   3.839   4.486   6.483
 6664SOL     OW31870   3.087   4.546   3.703
 6664SOL    HW131871   3.053   4.501   3.780
 6664SOL    HW231872   3.147   4.611   3.737
 6665SOL     OW31873   2.756   3.451   4.006
 6665SOL    HW131874   2.683   3.400   3.971
 6665SOL    HW231875   2.815   3.385   4.043
 6666SOL     OW31876   1.382   0.150   1.037
 6666SOL    HW131877   1.389   0.084   1.106
 6666SOL    HW231878   1.306   0.124   0.985
 6667SOL     OW31879   3.488   4.396   2.989
 6667SOL    HW131880   3.431   4.471   3.007
 6667SOL    HW231881   3.572   4.420   3.029
 6668SOL     OW31882   1.915   4.729   4.735
 6668SOL    HW131883   1.982   4.773   4.788
 6668SOL    HW231884   1.933   4.636   4.747
 6669SOL     OW31885   1.769   4.275   6.203
 6669SOL    HW131886   1.784   4.182   6.223
 6669SOL    HW231887   1.768   4.318   6.288
 6670SOL     OW31888   1.297   1.326  18.552
 6670SOL    HW131889   1.203   1.306  18.557
 6670SOL    HW231890   1.302   1.408  18.504
 6671SOL     OW31891   2.227   1.073  18.867
 6671SOL    HW131892   2.200   0.981  18.875
 6671SOL    HW231893   2.174   1.119  18.931
 6672SOL     OW31894   3.391   2.781  13.619
 6672SOL    HW131895   3.418   2.787  13.527
 6672SOL    HW231896   3.415   2.692  13.645
 6673SOL     OW31897   2.350   4.120   2.114
 6673SOL    HW131898   2.445   4.125   2.117
 6673SOL    HW231899   2.329   4.031   2.140
 6674SOL     OW31900   0.421   2.270   4.472
 6674SOL    HW131901   0.496   2.274   4.414
 6674SOL    HW231902   0.459   2.270   4.560
 6675SOL     OW31903   1.682   1.171   5.672
 6675SOL    HW131904   1.628   1.176   5.750
 6675SOL    HW231905   1.728   1.255   5.669
 6676SOL     OW31906   3.094   3.444   6.646
 6676SOL    HW131907   3.174   3.487   6.618
 6676SOL    HW231908   3.111   3.351   6.634
 6677SOL     OW31909   1.058   4.710   3.837
 6677SOL    HW131910   1.011   4.792   3.825
 6677SOL    HW231911   1.150   4.732   3.822
 6678SOL     OW31912   0.063   2.871   5.273
 6678SOL    HW131913   0.080   2.850   5.365
 6678SOL    HW231914   0.012   2.797   5.240
 6679SOL     OW31915   1.653   3.572  16.144
 6679SOL    HW131916   1.623   3.563  16.234
 6679SOL    HW231917   1.746   3.552  16.148
 6680SOL     OW31918   2.274   2.772   1.953
 6680SOL    HW131919   2.222   2.691   1.951
 6680SOL    HW231920   2.355   2.749   1.906
 6681SOL     OW31921   1.791   2.656  17.431
 6681SOL    HW131922   1.701   2.670  17.403
 6681SOL    HW231923   1.790   2.570  17.474
 6682SOL     OW31924   0.427   2.121  20.895
 6682SOL    HW131925   0.383   2.193  20.850
 6682SOL    HW231926   0.360   2.053  20.903
 6683SOL     OW31927   2.265   0.200   1.906
 6683SOL    HW131928   2.332   0.225   1.843
 6683SOL    HW231929   2.256   0.105   1.895
 6684SOL     OW31930   4.295   0.464   4.875
 6684SOL    HW131931   4.201   0.451   4.890
 6684SOL    HW231932   4.301   0.550   4.834
 6685SOL     OW31933   4.202   2.339  18.619
 6685SOL    HW131934   4.143   2.370  18.550
 6685SOL    HW231935   4.144   2.319  18.693
 6686SOL     OW31936   4.540   4.121  17.942
 6686SOL    HW131937   4.584   4.080  17.868
 6686SOL    HW231938   4.448   4.098  17.931
 6687SOL     OW31939   4.469   0.952   0.209
 6687SOL    HW131940   4.379   0.986   0.216
 6687SOL    HW231941   4.508   1.003   0.139
 6688SOL     OW31942   3.393   2.774  15.922
 6688SOL    HW131943   3.349   2.846  15.877
 6688SOL    HW231944   3.434   2.814  15.998
 6689SOL     OW31945   3.799   2.049  16.178
 6689SOL    HW131946   3.880   2.000  16.164
 6689SOL    HW231947   3.827   2.133  16.213
 6690SOL     OW31948   0.366   2.195  16.732
 6690SOL    HW131949   0.405   2.276  16.701
 6690SOL    HW231950   0.283   2.189  16.684
 6691SOL     OW31951   2.693   0.813  14.344
 6691SOL    HW131952   2.765   0.849  14.397
 6691SOL    HW231953   2.647   0.755  14.404
 6692SOL     OW31954   2.160   1.034  20.914
 6692SOL    HW131955   2.077   1.057  20.873
 6692SOL    HW231956   2.186   0.953  20.870
 6693SOL     OW31957   1.952   1.737   5.474
 6693SOL    HW131958   2.018   1.690   5.425
 6693SOL    HW231959   1.919   1.674   5.538
 6694SOL     OW31960   1.436   1.119  16.000
 6694SOL    HW131961   1.427   1.027  16.027
 6694SOL    HW231962   1.393   1.169  16.070
 6695SOL     OW31963   2.994   4.150   4.279
 6695SOL    HW131964   2.929   4.106   4.225
 6695SOL    HW231965   3.030   4.081   4.335
 6696SOL     OW31966   3.962   4.747   2.172
 6696SOL    HW131967   3.955   4.652   2.176
 6696SOL    HW231968   4.024   4.770   2.241
 6697SOL     OW31969   1.197   4.332   3.846
 6697SOL    HW131970   1.191   4.367   3.757
 6697SOL    HW231971   1.123   4.370   3.892
 6698SOL     OW31972   3.640   4.659  14.654
 6698SOL    HW131973   3.724   4.650  14.608
 6698SOL    HW231974   3.578   4.685  14.586
 6699SOL     OW31975   0.656   4.572  21.122
 6699SOL    HW131976   0.562   4.577  21.138
 6699SOL    HW231977   0.680   4.482  21.143
 6700SOL     OW31978   0.953   2.967   4.532
 6700SOL    HW131979   0.938   2.991   4.441
 6700SOL    HW231980   0.938   3.048   4.581
 6701SOL     OW31981   1.777   0.583   5.810
 6701SOL    HW131982   1.825   0.552   5.733
 6701SOL    HW231983   1.758   0.675   5.791
 6702SOL     OW31984   2.670   2.230   8.595
 6702SOL    HW131985   2.752   2.257   8.636
 6702SOL    HW231986   2.609   2.222   8.668
 6703SOL     OW31987   2.993   1.110  14.676
 6703SOL    HW131988   2.979   1.027  14.630
 6703SOL    HW231989   3.077   1.142  14.644
 6704SOL     OW31990   3.115   0.282  18.209
 6704SOL    HW131991   3.140   0.370  18.181
 6704SOL    HW231992   3.057   0.296  18.284
 6705SOL     OW31993   1.797   3.304  17.179
 6705SOL    HW131994   1.723   3.314  17.119
 6705SOL    HW231995   1.874   3.303  17.122
 6706SOL     OW31996   1.094   0.725   0.326
 6706SOL    HW131997   1.027   0.786   0.355
 6706SOL    HW231998   1.048   0.642   0.313
 6707SOL     OW31999   4.610   0.467  21.115
 6707SOL    HW132000   4.554   0.405  21.162
 6707SOL    HW232001   4.548   0.525  21.069
 6708SOL     OW32002   3.673   2.893  21.071
 6708SOL    HW132003   3.588   2.928  21.099
 6708SOL    HW232004   3.675   2.803  21.106
 6709SOL     OW32005   2.330   2.985   4.928
 6709SOL    HW132006   2.352   2.933   4.852
 6709SOL    HW232007   2.239   3.013   4.913
 6710SOL     OW32008   1.880   2.657   7.272
 6710SOL    HW132009   1.819   2.720   7.310
 6710SOL    HW232010   1.828   2.578   7.258
 6711SOL     OW32011   1.350   1.238  15.725
 6711SOL    HW132012   1.264   1.197  15.736
 6711SOL    HW232013   1.396   1.222  15.807
 6712SOL     OW32014   4.701   3.150   2.145
 6712SOL    HW132015   4.696   3.058   2.120
 6712SOL    HW232016   4.647   3.196   2.081
 6713SOL     OW32017   0.541   3.567   4.871
 6713SOL    HW132018   0.558   3.652   4.832
 6713SOL    HW232019   0.578   3.573   4.959
 6714SOL     OW32020   2.796   2.746   2.462
 6714SOL    HW132021   2.816   2.775   2.373
 6714SOL    HW232022   2.791   2.650   2.456
 6715SOL     OW32023   0.620   2.433   4.837
 6715SOL    HW132024   0.527   2.440   4.858
 6715SOL    HW232025   0.628   2.472   4.750
 6716SOL     OW32026   2.755   1.243   3.099
 6716SOL    HW132027   2.815   1.174   3.128
 6716SOL    HW232028   2.762   1.311   3.166
 6717SOL     OW32029   2.027   4.610   3.928
 6717SOL    HW132030   2.031   4.523   3.888
 6717SOL    HW232031   1.996   4.595   4.017
 6718SOL     OW32032   0.419   4.069  12.750
 6718SOL    HW132033   0.450   3.983  12.777
 6718SOL    HW232034   0.362   4.097  12.821
 6719SOL     OW32035   0.364   4.680   7.430
 6719SOL    HW132036   0.279   4.724   7.436
 6719SOL    HW232037   0.425   4.741   7.470
 6720SOL     OW32038   0.948   4.163   1.577
 6720SOL    HW132039   0.909   4.228   1.636
 6720SOL    HW232040   0.892   4.164   1.499
 6721SOL     OW32041   4.194   2.474   2.972
 6721SOL    HW132042   4.237   2.475   2.886
 6721SOL    HW232043   4.120   2.414   2.961
 6722SOL     OW32044   4.300   1.260   8.383
 6722SOL    HW132045   4.263   1.320   8.317
 6722SOL    HW232046   4.393   1.255   8.361
 6723SOL     OW32047   0.893   1.723  17.913
 6723SOL    HW132048   0.911   1.752  17.824
 6723SOL    HW232049   0.958   1.656  17.930
 6724SOL     OW32050   0.526   4.128  20.798
 6724SOL    HW132051   0.564   4.213  20.820
 6724SOL    HW232052   0.496   4.138  20.708
 6725SOL     OW32053   1.616   0.549   0.455
 6725SOL    HW132054   1.556   0.491   0.503
 6725SOL    HW232055   1.605   0.634   0.497
 6726SOL     OW32056   4.735   4.365  20.122
 6726SOL    HW132057   4.666   4.397  20.181
 6726SOL    HW232058   4.768   4.444  20.078
 6727SOL     OW32059   3.045   4.235  16.702
 6727SOL    HW132060   2.971   4.230  16.641
 6727SOL    HW232061   3.038   4.322  16.740
 6728SOL     OW32062   1.715   1.209   0.859
 6728SOL    HW132063   1.638   1.263   0.877
 6728SOL    HW232064   1.784   1.245   0.914
 6729SOL     OW32065   2.297   2.604  13.603
 6729SOL    HW132066   2.256   2.681  13.644
 6729SOL    HW232067   2.312   2.544  13.675
 6730SOL     OW32068   2.779   4.490   5.428
 6730SOL    HW132069   2.837   4.469   5.355
 6730SOL    HW232070   2.740   4.574   5.404
 6731SOL     OW32071   2.026   0.638   2.708
 6731SOL    HW132072   1.967   0.651   2.633
 6731SOL    HW232073   2.113   0.633   2.669
 6732SOL     OW32074   0.312   3.726  19.767
 6732SOL    HW132075   0.402   3.699  19.753
 6732SOL    HW232076   0.285   3.762  19.682
 6733SOL     OW32077   0.950   0.481   3.653
 6733SOL    HW132078   1.035   0.437   3.657
 6733SOL    HW232079   0.887   0.411   3.640
 6734SOL     OW32080   3.626   0.191  14.537
 6734SOL    HW132081   3.708   0.226  14.572
 6734SOL    HW232082   3.612   0.241  14.457
 6735SOL     OW32083   2.530   4.303   5.394
 6735SOL    HW132084   2.609   4.353   5.415
 6735SOL    HW232085   2.511   4.325   5.303
 6736SOL     OW32086   4.275   0.558   5.506
 6736SOL    HW132087   4.287   0.587   5.415
 6736SOL    HW232088   4.353   0.505   5.524
 6737SOL     OW32089   3.395   1.916  16.480
 6737SOL    HW132090   3.468   1.975  16.462
 6737SOL    HW232091   3.433   1.847  16.534
 6738SOL     OW32092   3.920   4.535   3.093
 6738SOL    HW132093   3.983   4.465   3.108
 6738SOL    HW232094   3.893   4.525   3.002
 6739SOL     OW32095   4.170   0.025   1.879
 6739SOL    HW132096   4.220   4.774   1.948
 6739SOL    HW232097   4.110   4.752   1.847
 6740SOL     OW32098   2.079   0.017   1.289
 6740SOL    HW132099   2.071   0.080   1.217
 6740SOL    HW232100   2.164   0.037   1.329
 6741SOL     OW32101   3.163   1.418  19.462
 6741SOL    HW132102   3.143   1.325  19.470
 6741SOL    HW232103   3.114   1.447  19.385
 6742SOL     OW32104   3.608   1.781  15.776
 6742SOL    HW132105   3.527   1.817  15.739
 6742SOL    HW232106   3.677   1.831  15.733
 6743SOL     OW32107   3.841   1.117   4.411
 6743SOL    HW132108   3.915   1.167   4.377
 6743SOL    HW232109   3.791   1.092   4.333
 6744SOL     OW32110   2.659   0.676   3.303
 6744SOL    HW132111   2.590   0.688   3.238
 6744SOL    HW232112   2.739   0.706   3.260
 6745SOL     OW32113   0.863   1.463  18.277
 6745SOL    HW132114   0.881   1.400  18.347
 6745SOL    HW232115   0.949   1.480  18.238
 6746SOL     OW32116   4.475   2.038   1.874
 6746SOL    HW132117   4.496   2.060   1.783
 6746SOL    HW232118   4.397   2.089   1.894
 6747SOL     OW32119   1.124   0.268   3.300
 6747SOL    HW132120   1.114   0.251   3.206
 6747SOL    HW232121   1.086   0.354   3.314
 6748SOL     OW32122   2.017   0.637  19.394
 6748SOL    HW132123   1.981   0.550  19.409
 6748SOL    HW232124   2.031   0.673  19.482
 6749SOL     OW32125   0.516   2.628  17.450
 6749SOL    HW132126   0.599   2.675  17.461
 6749SOL    HW232127   0.531   2.569  17.376
 6750SOL     OW32128   4.766   1.025  20.931
 6750SOL    HW132129   4.754   1.111  20.972
 6750SOL    HW232130   4.708   0.966  20.980
 6751SOL     OW32131   3.649   3.918  16.780
 6751SOL    HW132132   3.627   3.910  16.688
 6751SOL    HW232133   3.566   3.909  16.826
 6752SOL     OW32134   1.275   3.660  17.606
 6752SOL    HW132135   1.180   3.646  17.605
 6752SOL    HW232136   1.312   3.573  17.621
 6753SOL     OW32137   2.699   2.769  18.050
 6753SOL    HW132138   2.771   2.824  18.081
 6753SOL    HW232139   2.698   2.782  17.955
 6754SOL     OW32140   4.125   4.417   1.025
 6754SOL    HW132141   4.040   4.373   1.015
 6754SOL    HW232142   4.189   4.349   1.004
 6755SOL     OW32143   2.265   3.527   8.641
 6755SOL    HW132144   2.336   3.517   8.704
 6755SOL    HW232145   2.302   3.581   8.571
 6756SOL     OW32146   4.676   3.793  16.923
 6756SOL    HW132147   4.744   3.851  16.887
 6756SOL    HW232148   4.712   3.762  17.006
 6757SOL     OW32149   4.407   1.612  20.368
 6757SOL    HW132150   4.323   1.586  20.405
 6757SOL    HW232151   4.460   1.532  20.370
 6758SOL     OW32152   2.132   4.524   1.572
 6758SOL    HW132153   2.062   4.545   1.633
 6758SOL    HW232154   2.181   4.453   1.615
 6759SOL     OW32155   2.901   1.904   0.093
 6759SOL    HW132156   2.829   1.953   0.055
 6759SOL    HW232157   2.898   1.923   0.186
 6760SOL     OW32158   2.735   3.588  20.744
 6760SOL    HW132159   2.646   3.556  20.755
 6760SOL    HW232160   2.773   3.534  20.675
 6761SOL     OW32161   2.850   2.355  16.388
 6761SOL    HW132162   2.939   2.356  16.424
 6761SOL    HW232163   2.793   2.350  16.465
 6762SOL     OW32164   1.811   4.427  15.690
 6762SOL    HW132165   1.841   4.517  15.672
 6762SOL    HW232166   1.757   4.435  15.768
 6763SOL     OW32167   0.911   0.594  20.510
 6763SOL    HW132168   0.843   0.530  20.492
 6763SOL    HW232169   0.924   0.591  20.605
 6764SOL     OW32170   2.092   3.606  17.574
 6764SOL    HW132171   2.149   3.575  17.504
 6764SOL    HW232172   2.047   3.527  17.605
 6765SOL     OW32173   2.265   1.261  18.635
 6765SOL    HW132174   2.217   1.186  18.598
 6765SOL    HW232175   2.258   1.249  18.729
 6766SOL     OW32176   0.804   1.839  15.168
 6766SOL    HW132177   0.793   1.850  15.073
 6766SOL    HW232178   0.739   1.773  15.192
 6767SOL     OW32179   2.544   1.226   1.643
 6767SOL    HW132180   2.637   1.250   1.649
 6767SOL    HW232181   2.532   1.162   1.713
 6768SOL     OW32182   3.526   1.072  20.533
 6768SOL    HW132183   3.592   1.073  20.464
 6768SOL    HW232184   3.551   0.999  20.589
 6769SOL     OW32185   4.727   1.477   0.428
 6769SOL    HW132186   4.673   1.484   0.507
 6769SOL    HW232187   4.673   1.428   0.367
 6770SOL     OW32188   0.946   0.487  11.574
 6770SOL    HW132189   0.875   0.438  11.531
 6770SOL    HW232190   1.026   0.447  11.540
 6771SOL     OW32191   3.619   0.975  14.445
 6771SOL    HW132192   3.658   0.994  14.530
 6771SOL    HW232193   3.686   1.001  14.382
 6772SOL     OW32194   0.907   3.358   5.416
 6772SOL    HW132195   0.844   3.385   5.483
 6772SOL    HW232196   0.935   3.271   5.443
 6773SOL     OW32197   4.036   1.395  16.535
 6773SOL    HW132198   4.036   1.300  16.548
 6773SOL    HW232199   3.972   1.428  16.599
 6774SOL     OW32200   4.536   4.474  19.126
 6774SOL    HW132201   4.568   4.519  19.204
 6774SOL    HW232202   4.501   4.544  19.071
 6775SOL     OW32203   3.339   1.915  17.906
 6775SOL    HW132204   3.287   1.930  17.985
 6775SOL    HW232205   3.413   1.862  17.936
 6776SOL     OW32206   0.124   0.565  17.393
 6776SOL    HW132207   0.170   0.649  17.402
 6776SOL    HW232208   0.194   0.500  17.387
 6777SOL     OW32209   4.035   1.619   8.588
 6777SOL    HW132210   4.031   1.585   8.498
 6777SOL    HW232211   4.112   1.576   8.626
 6778SOL     OW32212   1.125   3.406   4.761
 6778SOL    HW132213   1.109   3.491   4.804
 6778SOL    HW232214   1.203   3.421   4.708
 6779SOL     OW32215   0.680   4.231   0.921
 6779SOL    HW132216   0.721   4.199   0.841
 6779SOL    HW232217   0.605   4.174   0.934
 6780SOL     OW32218   4.315   3.260   5.203
 6780SOL    HW132219   4.310   3.165   5.187
 6780SOL    HW232220   4.225   3.291   5.189
 6781SOL     OW32221   2.615   0.997  18.427
 6781SOL    HW132222   2.686   0.994  18.492
 6781SOL    HW232223   2.535   1.002  18.479
 6782SOL     OW32224   0.748   0.191   1.261
 6782SOL    HW132225   0.655   0.169   1.262
 6782SOL    HW232226   0.791   0.116   1.303
 6783SOL     OW32227   0.301   1.542  15.153
 6783SOL    HW132228   0.227   1.574  15.102
 6783SOL    HW232229   0.302   1.448  15.138
 6784SOL     OW32230   1.318   1.951  18.018
 6784SOL    HW132231   1.306   2.007  17.941
 6784SOL    HW232232   1.352   1.868  17.982
 6785SOL     OW32233   3.235   4.739   0.724
 6785SOL    HW132234   3.324   4.741   0.691
 6785SOL    HW232235   3.199   0.032   0.703
 6786SOL     OW32236   4.513   3.295  16.934
 6786SOL    HW132237   4.499   3.201  16.944
 6786SOL    HW232238   4.526   3.327  17.023
 6787SOL     OW32239   4.649   3.393  19.357
 6787SOL    HW132240   4.580   3.354  19.303
 6787SOL    HW232241   4.617   3.386  19.447
 6788SOL     OW32242   3.888   0.714   8.374
 6788SOL    HW132243   3.886   0.638   8.432
 6788SOL    HW232244   3.869   0.677   8.287
 6789SOL     OW32245   3.777   3.068   1.035
 6789SOL    HW132246   3.804   3.019   0.958
 6789SOL    HW232247   3.839   3.041   1.103
 6790SOL     OW32248   2.818   0.164  17.563
 6790SOL    HW132249   2.806   0.252  17.528
 6790SOL    HW232250   2.729   0.133  17.580
 6791SOL     OW32251   2.879   4.363   5.707
 6791SOL    HW132252   2.827   4.321   5.640
 6791SOL    HW232253   2.848   4.324   5.789
 6792SOL     OW32254   4.250   2.325   6.805
 6792SOL    HW132255   4.155   2.318   6.814
 6792SOL    HW232256   4.271   2.274   6.726
 6793SOL     OW32257   3.086   2.838   5.643
 6793SOL    HW132258   3.001   2.869   5.611
 6793SOL    HW232259   3.072   2.820   5.736
 6794SOL     OW32260   2.588   3.329  17.084
 6794SOL    HW132261   2.584   3.396  17.153
 6794SOL    HW232262   2.658   3.270  17.113
 6795SOL     OW32263   2.829   4.452  12.376
 6795SOL    HW132264   2.763   4.508  12.416
 6795SOL    HW232265   2.903   4.456  12.436
 6796SOL     OW32266   4.104   3.961   4.297
 6796SOL    HW132267   4.152   3.920   4.369
 6796SOL    HW232268   4.016   3.975   4.332
 6797SOL     OW32269   1.882   0.328  19.952
 6797SOL    HW132270   1.809   0.366  20.003
 6797SOL    HW232271   1.959   0.341  20.007
 6798SOL     OW32272   4.447   0.947   1.430
 6798SOL    HW132273   4.380   0.892   1.472
 6798SOL    HW232274   4.526   0.893   1.431
 6799SOL     OW32275   0.853   1.652   0.263
 6799SOL    HW132276   0.774   1.669   0.315
 6799SOL    HW232277   0.826   1.671   0.173
 6800SOL     OW32278   2.207   0.142  18.832
 6800SOL    HW132279   2.284   0.094  18.802
 6800SOL    HW232280   2.227   0.168  18.922
 6801SOL     OW32281   3.686   4.208  20.718
 6801SOL    HW132282   3.645   4.255  20.791
 6801SOL    HW232283   3.622   4.214  20.647
 6802SOL     OW32284   3.414   2.969  21.126
 6802SOL    HW132285   3.364   2.889  21.110
 6802SOL    HW232286   3.389   3.028  21.055
 6803SOL     OW32287   4.540   2.374  15.626
 6803SOL    HW132288   4.458   2.332  15.650
 6803SOL    HW232289   4.607   2.326  15.675
 6804SOL     OW32290   1.594   4.607  12.913
 6804SOL    HW132291   1.672   4.627  12.963
 6804SOL    HW232292   1.594   4.671  12.842
 6805SOL     OW32293   3.009   0.324  16.534
 6805SOL    HW132294   3.032   0.237  16.566
 6805SOL    HW232295   2.919   0.338  16.565
 6806SOL     OW32296   1.630   3.651   0.700
 6806SOL    HW132297   1.624   3.730   0.646
 6806SOL    HW232298   1.724   3.636   0.711
 6807SOL     OW32299   2.126   0.769  15.822
 6807SOL    HW132300   2.165   0.802  15.741
 6807SOL    HW232301   2.031   0.774  15.807
 6808SOL     OW32302   2.216   3.216   1.310
 6808SOL    HW132303   2.124   3.219   1.337
 6808SOL    HW232304   2.242   3.308   1.307
 6809SOL     OW32305   0.134   1.322   3.397
 6809SOL    HW132306   0.097   1.392   3.345
 6809SOL    HW232307   0.194   1.366   3.457
 6810SOL     OW32308   1.187   3.688   4.795
 6810SOL    HW132309   1.211   3.694   4.703
 6810SOL    HW232310   1.144   3.771   4.814
 6811SOL     OW32311   4.003   2.470   6.341
 6811SOL    HW132312   3.992   2.405   6.272
 6811SOL    HW232313   3.955   2.434   6.416
 6812SOL     OW32314   2.912   1.644   2.633
 6812SOL    HW132315   2.959   1.646   2.550
 6812SOL    HW232316   2.820   1.642   2.608
 6813SOL     OW32317   1.301   4.019   3.927
 6813SOL    HW132318   1.240   4.087   3.901
 6813SOL    HW232319   1.356   4.005   3.850
 6814SOL     OW32320   1.965   4.306   5.932
 6814SOL    HW132321   1.946   4.236   5.868
 6814SOL    HW232322   2.055   4.332   5.913
 6815SOL     OW32323   3.887   3.261  17.466
 6815SOL    HW132324   3.969   3.212  17.454
 6815SOL    HW232325   3.880   3.314  17.386
 6816SOL     OW32326   3.255   3.410  20.302
 6816SOL    HW132327   3.191   3.432  20.370
 6816SOL    HW232328   3.339   3.437  20.339
 6817SOL     OW32329   4.472   4.632   0.794
 6817SOL    HW132330   4.455   4.581   0.873
 6817SOL    HW232331   4.498   4.718   0.825
 6818SOL     OW32332   1.476   4.091   4.972
 6818SOL    HW132333   1.529   4.089   5.051
 6818SOL    HW232334   1.412   4.021   4.983
 6819SOL     OW32335   1.355   0.898   8.340
 6819SOL    HW132336   1.269   0.857   8.341
 6819SOL    HW232337   1.380   0.900   8.248
 6820SOL     OW32338   3.196   2.522  19.919
 6820SOL    HW132339   3.216   2.615  19.916
 6820SOL    HW232340   3.282   2.479  19.918
 6821SOL     OW32341   0.925   3.972  20.245
 6821SOL    HW132342   0.867   3.914  20.295
 6821SOL    HW232343   0.982   3.912  20.197
 6822SOL     OW32344   0.993   0.991  12.602
 6822SOL    HW132345   1.064   1.044  12.638
 6822SOL    HW232346   0.981   0.921  12.666
 6823SOL     OW32347   2.496   4.084  13.896
 6823SOL    HW132348   2.582   4.070  13.856
 6823SOL    HW232349   2.501   4.037  13.980
 6824SOL     OW32350   1.496   3.994   3.722
 6824SOL    HW132351   1.584   4.030   3.729
 6824SOL    HW232352   1.505   3.919   3.663
 6825SOL     OW32353   2.652   4.775  20.401
 6825SOL    HW132354   2.569   4.754  20.442
 6825SOL    HW232355   2.669   4.703  20.341
 6826SOL     OW32356   2.356   0.059   0.436
 6826SOL    HW132357   2.400   0.015   0.363
 6826SOL    HW232358   2.415   0.049   0.510
 6827SOL     OW32359   1.969   0.654   2.198
 6827SOL    HW132360   2.061   0.631   2.211
 6827SOL    HW232361   1.959   0.658   2.103
 6828SOL     OW32362   0.424   3.179   2.550
 6828SOL    HW132363   0.404   3.145   2.637
 6828SOL    HW232364   0.483   3.253   2.566
 6829SOL     OW32365   3.174   3.971   5.004
 6829SOL    HW132366   3.189   4.022   5.084
 6829SOL    HW232367   3.176   3.880   5.032
 6830SOL     OW32368   3.114   2.717   3.671
 6830SOL    HW132369   3.091   2.754   3.757
 6830SOL    HW232370   3.185   2.655   3.690
 6831SOL     OW32371   0.236   0.398  14.737
 6831SOL    HW132372   0.149   0.360  14.732
 6831SOL    HW232373   0.236   0.448  14.818
 6832SOL     OW32374   0.048   2.488   1.413
 6832SOL    HW132375   0.030   2.462   1.503
 6832SOL    HW232376   4.760   2.531   1.384
 6833SOL     OW32377   1.922   2.971  19.019
 6833SOL    HW132378   1.933   2.927  19.103
 6833SOL    HW232379   1.924   2.900  18.954
 6834SOL     OW32380   1.986   1.319   1.500
 6834SOL    HW132381   1.900   1.278   1.509
 6834SOL    HW232382   1.980   1.369   1.418
 6835SOL     OW32383   3.107   1.799  18.556
 6835SOL    HW132384   3.088   1.871  18.497
 6835SOL    HW232385   3.202   1.787  18.551
 6836SOL     OW32386   0.464   2.593  20.199
 6836SOL    HW132387   0.400   2.528  20.169
 6836SOL    HW232388   0.437   2.613  20.289
 6837SOL     OW32389   1.131   1.907   4.521
 6837SOL    HW132390   1.155   1.985   4.570
 6837SOL    HW232391   1.077   1.939   4.449
 6838SOL     OW32392   1.178   2.986   1.575
 6838SOL    HW132393   1.101   3.023   1.617
 6838SOL    HW232394   1.251   3.014   1.629
 6839SOL     OW32395   2.658   3.467   4.556
 6839SOL    HW132396   2.725   3.514   4.606
 6839SOL    HW232397   2.605   3.536   4.517
 6840SOL     OW32398   2.566   1.538  21.028
 6840SOL    HW132399   2.494   1.523  21.089
 6840SOL    HW232400   2.524   1.568  20.947
 6841SOL     OW32401   3.298   1.109   0.296
 6841SOL    HW132402   3.243   1.040   0.332
 6841SOL    HW232403   3.326   1.160   0.372
 6842SOL     OW32404   2.388   0.882   6.263
 6842SOL    HW132405   2.295   0.884   6.282
 6842SOL    HW232406   2.430   0.858   6.345
 6843SOL     OW32407   1.847   3.810   3.635
 6843SOL    HW132408   1.803   3.883   3.592
 6843SOL    HW232409   1.811   3.808   3.724
 6844SOL     OW32410   4.696   3.621   5.213
 6844SOL    HW132411   4.651   3.684   5.269
 6844SOL    HW232412   4.650   3.538   5.229
 6845SOL     OW32413   1.820   0.537  18.086
 6845SOL    HW132414   1.830   0.490  18.169
 6845SOL    HW232415   1.908   0.536  18.048
 6846SOL     OW32416   4.263   0.733  21.192
 6846SOL    HW132417   4.346   0.735  21.239
 6846SOL    HW232418   4.199   0.702  21.257
 6847SOL     OW32419   1.502   0.675  17.624
 6847SOL    HW132420   1.431   0.719  17.578
 6847SOL    HW232421   1.527   0.603  17.566
 6848SOL     OW32422   4.193   0.296   1.113
 6848SOL    HW132423   4.238   0.272   1.032
 6848SOL    HW232424   4.188   0.392   1.111
 6849SOL     OW32425   4.205   4.450   4.261
 6849SOL    HW132426   4.284   4.502   4.281
 6849SOL    HW232427   4.135   4.515   4.253
 6850SOL     OW32428   1.524   0.500   5.636
 6850SOL    HW132429   1.599   0.540   5.593
 6850SOL    HW232430   1.562   0.442   5.702
 6851SOL     OW32431   0.921   2.928  17.932
 6851SOL    HW132432   0.963   2.854  17.888
 6851SOL    HW232433   0.945   2.918  18.025
 6852SOL     OW32434   3.159   3.197   4.347
 6852SOL    HW132435   3.213   3.253   4.403
 6852SOL    HW232436   3.216   3.175   4.273
 6853SOL     OW32437   2.694   0.872   3.023
 6853SOL    HW132438   2.737   0.936   3.080
 6853SOL    HW232439   2.602   0.878   3.046
 6854SOL     OW32440   2.921   1.928  16.399
 6854SOL    HW132441   2.969   1.861  16.351
 6854SOL    HW232442   2.984   1.962  16.462
 6855SOL     OW32443   4.672   3.014   5.933
 6855SOL    HW132444   4.652   2.999   5.841
 6855SOL    HW232445   4.689   3.108   5.939
 6856SOL     OW32446   1.944   1.801  20.697
 6856SOL    HW132447   2.032   1.772  20.722
 6856SOL    HW232448   1.930   1.764  20.610
 6857SOL     OW32449   2.964   1.856   2.948
 6857SOL    HW132450   2.959   1.762   2.930
 6857SOL    HW232451   3.004   1.861   3.035
 6858SOL     OW32452   1.162   2.962  18.963
 6858SOL    HW132453   1.207   2.877  18.962
 6858SOL    HW232454   1.231   3.025  18.985
 6859SOL     OW32455   3.870   2.319  19.139
 6859SOL    HW132456   3.793   2.279  19.099
 6859SOL    HW232457   3.889   2.395  19.084
 6860SOL     OW32458   2.229   0.751  13.427
 6860SOL    HW132459   2.239   0.774  13.335
 6860SOL    HW232460   2.170   0.819  13.463
 6861SOL     OW32461   4.464   3.476  20.825
 6861SOL    HW132462   4.424   3.428  20.897
 6861SOL    HW232463   4.446   3.568  20.844
 6862SOL     OW32464   4.670   1.832   6.118
 6862SOL    HW132465   4.677   1.831   6.023
 6862SOL    HW232466   4.576   1.831   6.136
 6863SOL     OW32467   1.960   2.372  19.626
 6863SOL    HW132468   1.955   2.379  19.721
 6863SOL    HW232469   2.047   2.336  19.608
 6864SOL     OW32470   3.533   1.612   6.849
 6864SOL    HW132471   3.460   1.590   6.791
 6864SOL    HW232472   3.581   1.680   6.802
 6865SOL     OW32473   3.779   3.482   8.629
 6865SOL    HW132474   3.771   3.539   8.552
 6865SOL    HW232475   3.779   3.542   8.703
 6866SOL     OW32476   1.259   4.050  21.119
 6866SOL    HW132477   1.290   3.969  21.158
 6866SOL    HW232478   1.168   4.057  21.146
 6867SOL     OW32479   4.681   4.708   6.339
 6867SOL    HW132480   4.774   4.688   6.327
 6867SOL    HW232481   4.646   4.630   6.382
 6868SOL     OW32482   3.329   2.128   6.522
 6868SOL    HW132483   3.355   2.213   6.485
 6868SOL    HW232484   3.238   2.140   6.546
 6869SOL     OW32485   2.933   4.760  12.624
 6869SOL    HW132486   2.850   4.776  12.669
 6869SOL    HW232487   2.981   4.702  12.683
 6870SOL     OW32488   2.157   1.278  15.054
 6870SOL    HW132489   2.129   1.200  15.005
 6870SOL    HW232490   2.176   1.247  15.142
 6871SOL     OW32491   3.861   2.603  19.712
 6871SOL    HW132492   3.843   2.598  19.805
 6871SOL    HW232493   3.824   2.523  19.675
 6872SOL     OW32494   4.031   2.460  20.575
 6872SOL    HW132495   3.946   2.495  20.548
 6872SOL    HW232496   4.088   2.537  20.576
 6873SOL     OW32497   2.938   1.936  19.771
 6873SOL    HW132498   2.907   1.918  19.683
 6873SOL    HW232499   3.019   1.884  19.779
 6874SOL     OW32500   4.177   1.901   1.962
 6874SOL    HW132501   4.124   1.823   1.981
 6874SOL    HW232502   4.233   1.911   2.039
 6875SOL     OW32503   4.002   2.629   5.149
 6875SOL    HW132504   4.085   2.614   5.103
 6875SOL    HW232505   3.989   2.549   5.200
 6876SOL     OW32506   0.748   0.264  19.161
 6876SOL    HW132507   0.817   0.214  19.118
 6876SOL    HW232508   0.747   0.231  19.251
 6877SOL     OW32509   0.484   4.307   5.220
 6877SOL    HW132510   0.551   4.279   5.158
 6877SOL    HW232511   0.516   4.391   5.254
 6878SOL     OW32512   2.632   2.946   6.956
 6878SOL    HW132513   2.576   3.024   6.958
 6878SOL    HW232514   2.623   2.907   7.043
 6879SOL     OW32515   2.401   3.456  19.226
 6879SOL    HW132516   2.450   3.463  19.144
 6879SOL    HW232517   2.309   3.456  19.198
 6880SOL     OW32518   0.209   4.735  14.833
 6880SOL    HW132519   0.184   4.728  14.741
 6880SOL    HW232520   0.268   0.017  14.836
 6881SOL     OW32521   0.638   3.128   4.814
 6881SOL    HW132522   0.573   3.126   4.885
 6881SOL    HW232523   0.644   3.220   4.790
 6882SOL     OW32524   0.796   2.835  19.598
 6882SOL    HW132525   0.854   2.864  19.528
 6882SOL    HW232526   0.835   2.753  19.628
 6883SOL     OW32527   1.280   4.041  20.097
 6883SOL    HW132528   1.271   3.950  20.126
 6883SOL    HW232529   1.232   4.092  20.163
 6884SOL     OW32530   2.044   0.102  15.252
 6884SOL    HW132531   1.970   0.152  15.286
 6884SOL    HW232532   2.037   0.111  15.157
 6885SOL     OW32533   4.703   0.540  14.791
 6885SOL    HW132534   4.776   0.585  14.831
 6885SOL    HW232535   4.734   0.450  14.779
 6886SOL     OW32536   3.552   3.788  20.340
 6886SOL    HW132537   3.511   3.704  20.364
 6886SOL    HW232538   3.603   3.813  20.417
 6887SOL     OW32539   3.326   3.615   6.511
 6887SOL    HW132540   3.382   3.565   6.452
 6887SOL    HW232541   3.347   3.582   6.598
 6888SOL     OW32542   4.688   2.654   5.187
 6888SOL    HW132543   4.648   2.729   5.142
 6888SOL    HW232544   4.729   2.604   5.116
 6889SOL     OW32545   0.313   0.123   6.130
 6889SOL    HW132546   0.378   0.164   6.072
 6889SOL    HW232547   0.365   0.073   6.192
 6890SOL     OW32548   0.886   0.529   4.260
 6890SOL    HW132549   0.838   0.465   4.311
 6890SOL    HW232550   0.926   0.587   4.326
 6891SOL     OW32551   4.392   2.922   4.608
 6891SOL    HW132552   4.345   3.005   4.597
 6891SOL    HW232553   4.355   2.864   4.542
 6892SOL     OW32554   3.547   0.308  19.646
 6892SOL    HW132555   3.613   0.243  19.622
 6892SOL    HW232556   3.574   0.388  19.600
 6893SOL     OW32557   3.731   3.518  16.762
 6893SOL    HW132558   3.804   3.536  16.820
 6893SOL    HW232559   3.727   3.422  16.758
 6894SOL     OW32560   2.665   3.599  20.375
 6894SOL    HW132561   2.648   3.694  20.378
 6894SOL    HW232562   2.579   3.561  20.358
 6895SOL     OW32563   3.778   0.203  19.923
 6895SOL    HW132564   3.749   0.281  19.971
 6895SOL    HW232565   3.873   0.206  19.930
 6896SOL     OW32566   3.528   2.682  15.479
 6896SOL    HW132567   3.435   2.661  15.476
 6896SOL    HW232568   3.565   2.640  15.401
 6897SOL     OW32569   1.363   3.301   3.853
 6897SOL    HW132570   1.453   3.275   3.839
 6897SOL    HW232571   1.316   3.272   3.775
 6898SOL     OW32572   0.821   4.318  13.408
 6898SOL    HW132573   0.728   4.301  13.397
 6898SOL    HW232574   0.825   4.391  13.470
 6899SOL     OW32575   1.825   0.542  17.194
 6899SOL    HW132576   1.813   0.603  17.122
 6899SOL    HW232577   1.891   0.583  17.250
 6900SOL     OW32578   2.015   4.346   3.821
 6900SOL    HW132579   1.961   4.325   3.896
 6900SOL    HW232580   2.054   4.262   3.795
 6901SOL     OW32581   1.905   1.454  16.328
 6901SOL    HW132582   1.866   1.541  16.335
 6901SOL    HW232583   1.830   1.394  16.329
 6902SOL     OW32584   2.005   0.786  16.608
 6902SOL    HW132585   1.983   0.878  16.621
 6902SOL    HW232586   1.925   0.747  16.573
 6903SOL     OW32587   3.077   1.369  18.157
 6903SOL    HW132588   3.049   1.277  18.164
 6903SOL    HW232589   3.026   1.415  18.223
 6904SOL     OW32590   2.952   0.368  18.433
 6904SOL    HW132591   2.910   0.452  18.417
 6904SOL    HW232592   2.885   0.316  18.478
 6905SOL     OW32593   1.857   3.058   3.970
 6905SOL    HW132594   1.910   2.985   4.000
 6905SOL    HW232595   1.913   3.135   3.980
 6906SOL     OW32596   0.615   1.228   5.603
 6906SOL    HW132597   0.695   1.246   5.653
 6906SOL    HW232598   0.582   1.146   5.639
 6907SOL     OW32599   2.823   0.552   5.179
 6907SOL    HW132600   2.832   0.640   5.144
 6907SOL    HW232601   2.817   0.496   5.101
 6908SOL     OW32602   4.744   3.885   5.800
 6908SOL    HW132603   4.752   3.955   5.865
 6908SOL    HW232604   0.038   3.845   5.796
 6909SOL     OW32605   2.669   3.327   8.880
 6909SOL    HW132606   2.736   3.353   8.943
 6909SOL    HW232607   2.618   3.260   8.926
 6910SOL     OW32608   3.530   2.381   6.644
 6910SOL    HW132609   3.449   2.389   6.593
 6910SOL    HW232610   3.524   2.450   6.710
 6911SOL     OW32611   1.006   3.763   1.039
 6911SOL    HW132612   1.092   3.722   1.034
 6911SOL    HW232613   0.973   3.739   1.125
 6912SOL     OW32614   1.819   2.971   1.237
 6912SOL    HW132615   1.730   2.947   1.210
 6912SOL    HW232616   1.866   2.985   1.155
 6913SOL     OW32617   1.664   4.487  20.406
 6913SOL    HW132618   1.756   4.509  20.396
 6913SOL    HW232619   1.633   4.544  20.477
 6914SOL     OW32620   2.740   2.204  14.357
 6914SOL    HW132621   2.784   2.182  14.439
 6914SOL    HW232622   2.691   2.284  14.377
 6915SOL     OW32623   3.601   2.468   2.562
 6915SOL    HW132624   3.555   2.491   2.481
 6915SOL    HW232625   3.561   2.523   2.629
 6916SOL     OW32626   4.730   0.375  11.323
 6916SOL    HW132627   4.675   0.298  11.311
 6916SOL    HW232628   0.022   0.340  11.347
 6917SOL     OW32629   3.646   2.868   2.459
 6917SOL    HW132630   3.573   2.813   2.429
 6917SOL    HW232631   3.684   2.904   2.379
 6918SOL     OW32632   0.068   0.778  15.063
 6918SOL    HW132633   0.064   0.753  15.156
 6918SOL    HW232634   4.776   0.819  15.046
 6919SOL     OW32635   4.100   1.791   1.351
 6919SOL    HW132636   4.167   1.859   1.358
 6919SOL    HW232637   4.056   1.808   1.268
 6920SOL     OW32638   0.073   3.875   4.055
 6920SOL    HW132639   0.070   3.944   4.122
 6920SOL    HW232640   0.126   3.806   4.095
 6921SOL     OW32641   4.536   2.381  20.231
 6921SOL    HW132642   4.512   2.289  20.219
 6921SOL    HW232643   4.631   2.379  20.241
 6922SOL     OW32644   0.702   2.399  19.824
 6922SOL    HW132645   0.698   2.485  19.866
 6922SOL    HW232646   0.795   2.383  19.811
 6923SOL     OW32647   2.735   1.063  21.086
 6923SOL    HW132648   2.687   0.998  21.138
 6923SOL    HW232649   2.814   1.081  21.138
 6924SOL     OW32650   0.109   2.747  18.450
 6924SOL    HW132651   0.063   2.663  18.454
 6924SOL    HW232652   0.087   2.791  18.532
 6925SOL     OW32653   0.910   3.734   4.509
 6925SOL    HW132654   0.897   3.758   4.600
 6925SOL    HW232655   1.005   3.734   4.498
 6926SOL     OW32656   0.164   3.990  16.049
 6926SOL    HW132657   0.220   4.061  16.018
 6926SOL    HW232658   0.076   4.015  16.021
 6927SOL     OW32659   4.060   0.623   0.224
 6927SOL    HW132660   4.124   0.665   0.281
 6927SOL    HW232661   3.998   0.580   0.283
 6928SOL     OW32662   2.905   0.175  20.462
 6928SOL    HW132663   2.950   0.258  20.448
 6928SOL    HW232664   2.819   0.201  20.497
 6929SOL     OW32665   3.570   3.471  21.129
 6929SOL    HW132666   3.632   3.409  21.091
 6929SOL    HW232667   3.556   3.439  21.218
 6930SOL     OW32668   1.893   2.646   5.839
 6930SOL    HW132669   1.977   2.603   5.822
 6930SOL    HW232670   1.901   2.731   5.795
 6931SOL     OW32671   0.751   3.829   6.598
 6931SOL    HW132672   0.751   3.829   6.694
 6931SOL    HW232673   0.799   3.750   6.574
 6932SOL     OW32674   1.883   1.977  20.316
 6932SOL    HW132675   1.844   1.915  20.255
 6932SOL    HW232676   1.915   1.923  20.388
 6933SOL     OW32677   1.555   0.663   2.484
 6933SOL    HW132678   1.643   0.674   2.450
 6933SOL    HW232679   1.518   0.752   2.484
 6934SOL     OW32680   1.593   4.755   2.838
 6934SOL    HW132681   1.663   4.689   2.844
 6934SOL    HW232682   1.514   4.704   2.823
 6935SOL     OW32683   2.216   4.670  17.053
 6935SOL    HW132684   2.308   4.692  17.039
 6935SOL    HW232685   2.214   4.574  17.058
 6936SOL     OW32686   4.368   1.108   1.816
 6936SOL    HW132687   4.392   1.184   1.869
 6936SOL    HW232688   4.412   1.122   1.732
 6937SOL     OW32689   3.745   3.223   6.487
 6937SOL    HW132690   3.729   3.283   6.559
 6937SOL    HW232691   3.690   3.147   6.505
 6938SOL     OW32692   4.592   2.270  18.145
 6938SOL    HW132693   4.658   2.267  18.076
 6938SOL    HW232694   4.639   2.242  18.224
 6939SOL     OW32695   0.221   4.623  21.234
 6939SOL    HW132696   0.280   4.686  21.192
 6939SOL    HW232697   0.150   4.612  21.172
 6940SOL     OW32698   1.781   4.636  17.015
 6940SOL    HW132699   1.741   4.722  17.005
 6940SOL    HW232700   1.823   4.619  16.930
 6941SOL     OW32701   4.314   2.494  20.783
 6941SOL    HW132702   4.226   2.492  20.821
 6941SOL    HW232703   4.325   2.407  20.744
 6942SOL     OW32704   3.983   2.954   2.157
 6942SOL    HW132705   4.020   2.960   2.245
 6942SOL    HW232706   4.055   2.927   2.102
 6943SOL     OW32707   3.235   3.151   3.045
 6943SOL    HW132708   3.305   3.093   3.076
 6943SOL    HW232709   3.240   3.227   3.103
 6944SOL     OW32710   3.889   4.170  13.991
 6944SOL    HW132711   3.865   4.216  14.071
 6944SOL    HW232712   3.806   4.161  13.943
 6945SOL     OW32713   3.503   0.053  18.817
 6945SOL    HW132714   3.447   0.111  18.868
 6945SOL    HW232715   3.444   0.013  18.753
 6946SOL     OW32716   1.725   0.447   2.132
 6946SOL    HW132717   1.715   0.518   2.196
 6946SOL    HW232718   1.709   0.489   2.047
 6947SOL     OW32719   1.698   0.966  18.072
 6947SOL    HW132720   1.750   0.892  18.040
 6947SOL    HW232721   1.634   0.982  18.003
 6948SOL     OW32722   2.495   2.239   3.279
 6948SOL    HW132723   2.526   2.182   3.350
 6948SOL    HW232724   2.486   2.180   3.204
 6949SOL     OW32725   1.039   0.118   4.850
 6949SOL    HW132726   1.033   0.205   4.890
 6949SOL    HW232727   1.078   0.134   4.764
 6950SOL     OW32728   1.571   0.759  19.067
 6950SOL    HW132729   1.591   0.665  19.072
 6950SOL    HW232730   1.490   0.769  19.116
 6951SOL     OW32731   2.639   3.271  20.953
 6951SOL    HW132732   2.704   3.282  20.883
 6951SOL    HW232733   2.573   3.338  20.935
 6952SOL     OW32734   0.131   4.020  20.703
 6952SOL    HW132735   0.207   3.964  20.689
 6952SOL    HW232736   0.111   4.057  20.617
 6953SOL     OW32737   0.697   0.465  20.137
 6953SOL    HW132738   0.785   0.478  20.101
 6953SOL    HW232739   0.671   0.551  20.170
 6954SOL     OW32740   3.140   2.673   0.273
 6954SOL    HW132741   3.069   2.671   0.337
 6954SOL    HW232742   3.165   2.766   0.268
 6955SOL     OW32743   2.380   2.020   5.490
 6955SOL    HW132744   2.300   1.991   5.446
 6955SOL    HW232745   2.357   2.020   5.583
 6956SOL     OW32746   0.375   4.648   1.155
 6956SOL    HW132747   0.289   4.617   1.185
 6956SOL    HW232748   0.437   4.585   1.191
 6957SOL     OW32749   0.382   2.892  21.045
 6957SOL    HW132750   0.288   2.878  21.056
 6957SOL    HW232751   0.422   2.845  21.118
 6958SOL     OW32752   0.714   2.966  20.252
 6958SOL    HW132753   0.701   2.976  20.158
 6958SOL    HW232754   0.625   2.964  20.289
 6959SOL     OW32755   1.244   0.817   5.560
 6959SOL    HW132756   1.245   0.909   5.585
 6959SOL    HW232757   1.195   0.773   5.630
 6960SOL     OW32758   3.625   3.947  17.579
 6960SOL    HW132759   3.599   3.984  17.663
 6960SOL    HW232760   3.599   4.014  17.515
 6961SOL     OW32761   3.210   3.857  18.455
 6961SOL    HW132762   3.238   3.806  18.531
 6961SOL    HW232763   3.127   3.897  18.482
 6962SOL     OW32764   3.411   0.140   5.589
 6962SOL    HW132765   3.372   0.221   5.555
 6962SOL    HW232766   3.445   0.095   5.512
 6963SOL     OW32767   1.191   1.601   0.202
 6963SOL    HW132768   1.176   1.692   0.227
 6963SOL    HW232769   1.166   1.597   0.110
 6964SOL     OW32770   3.648   1.096  19.327
 6964SOL    HW132771   3.658   1.114  19.420
 6964SOL    HW232772   3.729   1.052  19.302
 6965SOL     OW32773   3.388   4.474  18.549
 6965SOL    HW132774   3.384   4.383  18.518
 6965SOL    HW232775   3.301   4.509  18.534
 6966SOL     OW32776   4.778   0.788  16.903
 6966SOL    HW132777   0.003   0.793  16.809
 6966SOL    HW232778   4.731   0.869  16.923
 6967SOL     OW32779   2.120   1.278   5.206
 6967SOL    HW132780   2.152   1.196   5.169
 6967SOL    HW232781   2.120   1.340   5.133
 6968SOL     OW32782   4.775   1.384  19.610
 6968SOL    HW132783   4.724   1.363  19.531
 6968SOL    HW232784   4.746   1.320  19.675
 6969SOL     OW32785   4.086   0.511  17.209
 6969SOL    HW132786   4.097   0.589  17.263
 6969SOL    HW232787   4.081   0.439  17.272
 6970SOL     OW32788   1.632   0.651  21.014
 6970SOL    HW132789   1.645   0.559  21.035
 6970SOL    HW232790   1.538   0.666  21.028
 6971SOL     OW32791   3.618   3.653   3.743
 6971SOL    HW132792   3.564   3.700   3.807
 6971SOL    HW232793   3.686   3.610   3.795
 6972SOL     OW32794   2.557   3.742   1.004
 6972SOL    HW132795   2.609   3.689   0.942
 6972SOL    HW232796   2.504   3.799   0.948
 6973SOL     OW32797   3.181   0.675  20.816
 6973SOL    HW132798   3.249   0.743  20.820
 6973SOL    HW232799   3.137   0.690  20.733
 6974SOL     OW32800   4.401   0.751   3.106
 6974SOL    HW132801   4.326   0.700   3.076
 6974SOL    HW232802   4.463   0.748   3.033
 6975SOL     OW32803   3.902   1.492  15.523
 6975SOL    HW132804   3.807   1.507  15.519
 6975SOL    HW232805   3.941   1.578  15.510
 6976SOL     OW32806   1.485   3.538   0.108
 6976SOL    HW132807   1.546   3.567   0.177
 6976SOL    HW232808   1.398   3.544   0.149
 6977SOL     OW32809   4.032   3.525   0.405
 6977SOL    HW132810   4.036   3.605   0.353
 6977SOL    HW232811   3.978   3.465   0.353
 6978SOL     OW32812   0.296   2.768   5.671
 6978SOL    HW132813   0.352   2.769   5.593
 6978SOL    HW232814   0.211   2.738   5.639
 6979SOL     OW32815   3.428   4.343   2.603
 6979SOL    HW132816   3.472   4.304   2.678
 6979SOL    HW232817   3.343   4.372   2.638
 6980SOL     OW32818   3.025   2.216  13.656
 6980SOL    HW132819   3.048   2.169  13.735
 6980SOL    HW232820   3.035   2.152  13.585
 6981SOL     OW32821   2.669   0.374   4.350
 6981SOL    HW132822   2.724   0.306   4.388
 6981SOL    HW232823   2.732   0.440   4.318
 6982SOL     OW32824   3.408   3.329   2.853
 6982SOL    HW132825   3.373   3.245   2.881
 6982SOL    HW232826   3.439   3.370   2.934
 6983SOL     OW32827   4.110   2.081  20.809
 6983SOL    HW132828   4.110   2.160  20.755
 6983SOL    HW232829   4.019   2.054  20.812
 6984SOL     OW32830   0.155   2.711  19.602
 6984SOL    HW132831   0.208   2.671  19.533
 6984SOL    HW232832   0.073   2.733  19.559
 6985SOL     OW32833   4.651   3.225   2.631
 6985SOL    HW132834   4.658   3.238   2.536
 6985SOL    HW232835   4.612   3.138   2.640
 6986SOL     OW32836   3.079   3.968  20.163
 6986SOL    HW132837   3.116   3.957  20.250
 6986SOL    HW232838   3.037   4.054  20.166
 6987SOL     OW32839   3.900   1.826   1.536
 6987SOL    HW132840   3.973   1.807   1.477
 6987SOL    HW232841   3.909   1.763   1.607
 6988SOL     OW32842   2.282   1.493   2.703
 6988SOL    HW132843   2.189   1.501   2.681
 6988SOL    HW232844   2.292   1.544   2.783
 6989SOL     OW32845   4.689   2.322   7.489
 6989SOL    HW132846   4.764   2.263   7.485
 6989SOL    HW232847   4.708   2.389   7.422
 6990SOL     OW32848   1.182   2.384  17.000
 6990SOL    HW132849   1.120   2.312  16.991
 6990SOL    HW232850   1.188   2.399  17.095
 6991SOL     OW32851   4.692   0.791   2.527
 6991SOL    HW132852   4.762   0.782   2.592
 6991SOL    HW232853   4.729   0.850   2.461
 6992SOL     OW32854   0.176   1.560   5.838
 6992SOL    HW132855   0.083   1.538   5.850
 6992SOL    HW232856   0.175   1.647   5.799
 6993SOL     OW32857   4.768   0.657   8.141
 6993SOL    HW132858   0.041   0.613   8.195
 6993SOL    HW232859   0.025   0.719   8.088
 6994SOL     OW32860   4.544   1.388   0.685
 6994SOL    HW132861   4.627   1.433   0.700
 6994SOL    HW232862   4.495   1.448   0.628
 6995SOL     OW32863   0.457   1.291   2.821
 6995SOL    HW132864   0.433   1.360   2.883
 6995SOL    HW232865   0.375   1.272   2.774
 6996SOL     OW32866   1.877   3.740  16.564
 6996SOL    HW132867   1.891   3.677  16.634
 6996SOL    HW232868   1.820   3.695  16.502
 6997SOL     OW32869   0.906   0.910  16.273
 6997SOL    HW132870   0.950   0.839  16.227
 6997SOL    HW232871   0.842   0.943  16.210
 6998SOL     OW32872   1.740   4.471   0.541
 6998SOL    HW132873   1.806   4.456   0.609
 6998SOL    HW232874   1.778   4.433   0.462
 6999SOL     OW32875   2.469   0.263  19.619
 6999SOL    HW132876   2.532   0.334  19.615
 6999SOL    HW232877   2.486   0.221  19.704
 7000SOL     OW32878   0.769   2.959   2.776
 7000SOL    HW132879   0.738   3.029   2.718
 7000SOL    HW232880   0.733   2.981   2.862
 7001SOL     OW32881   4.672   1.730  21.062
 7001SOL    HW132882   4.758   1.716  21.102
 7001SOL    HW232883   4.692   1.765  20.975
 7002SOL     OW32884   4.428   2.737  18.891
 7002SOL    HW132885   4.463   2.825  18.902
 7002SOL    HW232886   4.355   2.748  18.830
 7003SOL     OW32887   2.612   1.478   8.151
 7003SOL    HW132888   2.531   1.523   8.177
 7003SOL    HW232889   2.675   1.548   8.137
 7004SOL     OW32890   3.855   4.303  16.466
 7004SOL    HW132891   3.817   4.366  16.527
 7004SOL    HW232892   3.936   4.275  16.509
 7005SOL     OW32893   2.807   2.592   3.929
 7005SOL    HW132894   2.890   2.543   3.927
 7005SOL    HW232895   2.813   2.651   3.854
 7006SOL     OW32896   3.288   2.663  15.332
 7006SOL    HW132897   3.215   2.723  15.349
 7006SOL    HW232898   3.247   2.577  15.326
 7007SOL     OW32899   2.302   4.115  15.862
 7007SOL    HW132900   2.257   4.199  15.865
 7007SOL    HW232901   2.304   4.084  15.953
 7008SOL     OW32902   3.075   1.548   6.742
 7008SOL    HW132903   3.146   1.612   6.742
 7008SOL    HW232904   3.048   1.542   6.833
 7009SOL     OW32905   4.045   0.710  18.105
 7009SOL    HW132906   4.049   0.716  18.010
 7009SOL    HW232907   3.968   0.760  18.130
 7010SOL     OW32908   4.127   2.126   5.715
 7010SOL    HW132909   4.151   2.065   5.785
 7010SOL    HW232910   4.166   2.209   5.742
 7011SOL     OW32911   1.377   1.574   2.397
 7011SOL    HW132912   1.382   1.587   2.492
 7011SOL    HW232913   1.463   1.538   2.374
 7012SOL     OW32914   1.108   4.140  17.916
 7012SOL    HW132915   1.070   4.225  17.893
 7012SOL    HW232916   1.048   4.104  17.982
 7013SOL     OW32917   2.014   3.996  19.186
 7013SOL    HW132918   2.092   3.970  19.236
 7013SOL    HW232919   2.048   4.025  19.102
 7014SOL     OW32920   2.982   2.838  17.773
 7014SOL    HW132921   2.907   2.862  17.719
 7014SOL    HW232922   2.982   2.742  17.773
 7015SOL     OW32923   0.321   2.816  17.492
 7015SOL    HW132924   0.363   2.902  17.501
 7015SOL    HW232925   0.392   2.756  17.473
 7016SOL     OW32926   1.918   0.933   0.427
 7016SOL    HW132927   1.942   0.969   0.342
 7016SOL    HW232928   1.987   0.870   0.447
 7017SOL     OW32929   0.190   3.577  17.363
 7017SOL    HW132930   0.264   3.588  17.423
 7017SOL    HW232931   0.149   3.495  17.391
 7018SOL     OW32932   2.260   2.378   2.619
 7018SOL    HW132933   2.342   2.340   2.651
 7018SOL    HW232934   2.281   2.408   2.530
 7019SOL     OW32935   4.334   0.341  19.300
 7019SOL    HW132936   4.276   0.320  19.227
 7019SOL    HW232937   4.365   0.256  19.331
 7020SOL     OW32938   0.476   3.107  18.031
 7020SOL    HW132939   0.383   3.100  18.009
 7020SOL    HW232940   0.522   3.074  17.953
 7021SOL     OW32941   4.549   1.503  17.630
 7021SOL    HW132942   4.549   1.526  17.537
 7021SOL    HW232943   4.460   1.523  17.660
 7022SOL     OW32944   1.874   3.504  18.591
 7022SOL    HW132945   1.953   3.453  18.580
 7022SOL    HW232946   1.886   3.579  18.533
 7023SOL     OW32947   1.659   0.114   3.936
 7023SOL    HW132948   1.669   0.037   3.993
 7023SOL    HW232949   1.682   0.082   3.849
 7024SOL     OW32950   1.593   3.068   0.669
 7024SOL    HW132951   1.599   3.155   0.707
 7024SOL    HW232952   1.504   3.063   0.634
 7025SOL     OW32953   1.425   0.710  15.784
 7025SOL    HW132954   1.511   0.679  15.813
 7025SOL    HW232955   1.382   0.632  15.750
 7026SOL     OW32956   3.997   0.232   0.227
 7026SOL    HW132957   3.907   0.201   0.244
 7026SOL    HW232958   4.019   0.197   0.141
 7027SOL     OW32959   1.153   3.755   2.066
 7027SOL    HW132960   1.226   3.817   2.069
 7027SOL    HW232961   1.118   3.756   2.155
 7028SOL     OW32962   2.220   0.477  17.248
 7028SOL    HW132963   2.226   0.431  17.164
 7028SOL    HW232964   2.201   0.568  17.225
 7029SOL     OW32965   3.721   4.408  20.038
 7029SOL    HW132966   3.667   4.353  19.982
 7029SOL    HW232967   3.806   4.364  20.041
 7030SOL     OW32968   2.921   1.911   5.902
 7030SOL    HW132969   3.011   1.895   5.930
 7030SOL    HW232970   2.926   1.915   5.806
 7031SOL     OW32971   1.980   4.347  18.429
 7031SOL    HW132972   1.923   4.324  18.502
 7031SOL    HW232973   2.068   4.320  18.458
 7032SOL     OW32974   3.168   0.585   0.232
 7032SOL    HW132975   3.202   0.615   0.317
 7032SOL    HW232976   3.174   0.662   0.175
 7033SOL     OW32977   2.809   0.070  17.986
 7033SOL    HW132978   2.757   0.145  17.956
 7033SOL    HW232979   2.887   0.072  17.931
 7034SOL     OW32980   0.077   2.223  21.128
 7034SOL    HW132981   0.043   2.176  21.052
 7034SOL    HW232982   0.047   2.172  21.203
 7035SOL     OW32983   1.837   2.209   3.119
 7035SOL    HW132984   1.824   2.269   3.046
 7035SOL    HW232985   1.781   2.134   3.099
 7036SOL     OW32986   0.826   3.792   4.258
 7036SOL    HW132987   0.843   3.777   4.351
 7036SOL    HW232988   0.811   3.705   4.222
 7037SOL     OW32989   1.475   4.060   7.801
 7037SOL    HW132990   1.426   4.075   7.881
 7037SOL    HW232991   1.516   3.974   7.813
 7038SOL     OW32992   0.097   1.607  16.311
 7038SOL    HW132993   0.091   1.628  16.404
 7038SOL    HW232994   0.006   1.602  16.282
 7039SOL     OW32995   3.446   2.671   7.405
 7039SOL    HW132996   3.532   2.641   7.436
 7039SOL    HW232997   3.465   2.727   7.331
 7040SOL     OW32998   3.780   3.067   0.131
 7040SOL    HW132999   3.843   3.103   0.194
 7040SOL    HW233000   3.832   3.048   0.053
 7041SOL     OW33001   1.979   3.853  16.083
 7041SOL    HW133002   2.074   3.849  16.075
 7041SOL    HW233003   1.950   3.901  16.005
 7042SOL     OW33004   4.535   4.325   0.429
 7042SOL    HW133005   4.463   4.377   0.393
 7042SOL    HW233006   4.582   4.292   0.352
 7043SOL     OW33007   4.201   1.129  16.614
 7043SOL    HW133008   4.266   1.061  16.632
 7043SOL    HW233009   4.246   1.211  16.634
 7044SOL     OW33010   3.921   0.447   0.394
 7044SOL    HW133011   3.946   0.412   0.479
 7044SOL    HW233012   3.965   0.391   0.330
 7045SOL     OW33013   3.331   3.638   4.485
 7045SOL    HW133014   3.246   3.595   4.496
 7045SOL    HW233015   3.333   3.664   4.393
 7046SOL     OW33016   2.356   2.303  19.584
 7046SOL    HW133017   2.387   2.388  19.615
 7046SOL    HW233018   2.426   2.242  19.605
 7047SOL     OW33019   4.781   1.949  14.159
 7047SOL    HW133020   4.787   1.988  14.072
 7047SOL    HW233021   0.014   1.858  14.146
 7048SOL     OW33022   4.558   1.552  16.619
 7048SOL    HW133023   4.479   1.499  16.632
 7048SOL    HW233024   4.525   1.633  16.579
 7049SOL     OW33025   1.980   2.624   6.111
 7049SOL    HW133026   1.990   2.534   6.141
 7049SOL    HW233027   1.926   2.618   6.032
 7050SOL     OW33028   1.982   4.634  19.352
 7050SOL    HW133029   1.996   4.599  19.264
 7050SOL    HW233030   1.939   4.563  19.399
 7051SOL     OW33031   4.375   2.455  17.740
 7051SOL    HW133032   4.398   2.541  17.703
 7051SOL    HW233033   4.426   2.449  17.821
 7052SOL     OW33034   2.363   1.732  20.523
 7052SOL    HW133035   2.446   1.712  20.480
 7052SOL    HW233036   2.340   1.652  20.571
 7053SOL     OW33037   4.240   1.822   0.891
 7053SOL    HW133038   4.204   1.840   0.804
 7053SOL    HW233039   4.289   1.901   0.913
 7054SOL     OW33040   1.348   0.767  19.223
 7054SOL    HW133041   1.326   0.678  19.193
 7054SOL    HW233042   1.326   0.767  19.316
 7055SOL     OW33043   4.157   3.302   4.759
 7055SOL    HW133044   4.226   3.362   4.786
 7055SOL    HW233045   4.098   3.355   4.706
 7056SOL     OW33046   1.722   2.094   5.703
 7056SOL    HW133047   1.749   2.178   5.666
 7056SOL    HW233048   1.797   2.068   5.757
 7057SOL     OW33049   0.110   2.284   0.647
 7057SOL    HW133050   0.025   2.261   0.683
 7057SOL    HW233051   0.118   2.231   0.568
 7058SOL     OW33052   3.689   2.437  19.566
 7058SOL    HW133053   3.632   2.362  19.581
 7058SOL    HW233054   3.757   2.404  19.507
 7059SOL     OW33055   4.543   2.025  15.865
 7059SOL    HW133056   4.450   2.042  15.878
 7059SOL    HW233057   4.584   2.111  15.864
 7060SOL     OW33058   0.519   2.433  20.637
 7060SOL    HW133059   0.485   2.475  20.717
 7060SOL    HW233060   0.485   2.487  20.566
 7061SOL     OW33061   3.758   4.462   2.444
 7061SOL    HW133062   3.706   4.529   2.488
 7061SOL    HW233063   3.743   4.478   2.351
 7062SOL     OW33064   3.982   2.742  20.248
 7062SOL    HW133065   3.945   2.793  20.320
 7062SOL    HW233066   3.961   2.792  20.169
 7063SOL     OW33067   1.832   2.852  15.402
 7063SOL    HW133068   1.884   2.920  15.359
 7063SOL    HW233069   1.825   2.881  15.493
 7064SOL     OW33070   4.270   4.620  18.809
 7064SOL    HW133071   4.241   4.530  18.824
 7064SOL    HW233072   4.296   4.621  18.717
 7065SOL     OW33073   2.734   0.621   2.123
 7065SOL    HW133074   2.703   0.617   2.032
 7065SOL    HW233075   2.743   0.714   2.141
 7066SOL     OW33076   4.238   1.261   2.108
 7066SOL    HW133077   4.266   1.343   2.069
 7066SOL    HW233078   4.177   1.224   2.045
 7067SOL     OW33079   3.190   2.152  19.835
 7067SOL    HW133080   3.156   2.239  19.813
 7067SOL    HW233081   3.204   2.110  19.750
 7068SOL     OW33082   1.473   4.659  16.251
 7068SOL    HW133083   1.443   4.611  16.329
 7068SOL    HW233084   1.466   4.751  16.276
 7069SOL     OW33085   1.939   2.218  17.866
 7069SOL    HW133086   2.015   2.275  17.873
 7069SOL    HW233087   1.901   2.219  17.954
 7070SOL     OW33088   3.592   0.625   2.207
 7070SOL    HW133089   3.685   0.605   2.196
 7070SOL    HW233090   3.552   0.597   2.124
 7071SOL     OW33091   3.002   3.891  17.447
 7071SOL    HW133092   3.056   3.828  17.495
 7071SOL    HW233093   2.924   3.902  17.501
 7072SOL     OW33094   1.895   2.477  16.030
 7072SOL    HW133095   1.978   2.429  16.022
 7072SOL    HW233096   1.886   2.494  16.123
 7073SOL     OW33097   1.289   3.507   1.626
 7073SOL    HW133098   1.374   3.546   1.646
 7073SOL    HW233099   1.225   3.577   1.644
 7074SOL     OW33100   0.631   2.274   2.055
 7074SOL    HW133101   0.721   2.285   2.087
 7074SOL    HW233102   0.620   2.343   1.989
 7075SOL     OW33103   3.153   2.829   3.091
 7075SOL    HW133104   3.112   2.743   3.077
 7075SOL    HW233105   3.163   2.865   3.003
 7076SOL     OW33106   0.486   4.715   4.988
 7076SOL    HW133107   0.469   4.784   5.051
 7076SOL    HW233108   0.423   4.730   4.917
 7077SOL     OW33109   1.882   1.168   0.594
 7077SOL    HW133110   1.815   1.186   0.660
 7077SOL    HW233111   1.870   1.076   0.572
 7078SOL     OW33112   4.406   0.934  20.565
 7078SOL    HW133113   4.390   0.875  20.491
 7078SOL    HW233114   4.431   0.875  20.637
 7079SOL     OW33115   2.810   3.646   4.691
 7079SOL    HW133116   2.820   3.674   4.782
 7079SOL    HW233117   2.778   3.723   4.645
 7080SOL     OW33118   4.012   1.486   4.870
 7080SOL    HW133119   4.015   1.516   4.961
 7080SOL    HW233120   4.011   1.567   4.819
 7081SOL     OW33121   3.964   1.649  15.872
 7081SOL    HW133122   3.973   1.624  15.780
 7081SOL    HW233123   3.879   1.614  15.899
 7082SOL     OW33124   1.394   1.971  16.408
 7082SOL    HW133125   1.314   1.954  16.459
 7082SOL    HW233126   1.365   2.024  16.334
 7083SOL     OW33127   3.606   2.638  17.997
 7083SOL    HW133128   3.591   2.668  18.087
 7083SOL    HW233129   3.655   2.557  18.006
 7084SOL     OW33130   1.232   3.555   0.215
 7084SOL    HW133131   1.203   3.632   0.264
 7084SOL    HW233132   1.159   3.494   0.222
 7085SOL     OW33133   3.836   2.327   1.140
 7085SOL    HW133134   3.927   2.297   1.141
 7085SOL    HW233135   3.789   2.259   1.188
 7086SOL     OW33136   3.970   1.879  20.540
 7086SOL    HW133137   4.013   1.834  20.467
 7086SOL    HW233138   3.953   1.967  20.507
 7087SOL     OW33139   2.063   3.848   0.601
 7087SOL    HW133140   2.046   3.931   0.645
 7087SOL    HW233141   2.101   3.872   0.517
 7088SOL     OW33142   4.659   3.824   2.016
 7088SOL    HW133143   4.706   3.767   2.078
 7088SOL    HW233144   4.572   3.836   2.056
 7089SOL     OW33145   2.205   0.132  17.773
 7089SOL    HW133146   2.245   0.097  17.694
 7089SOL    HW233147   2.278   0.140  17.835
 7090SOL     OW33148   2.628   4.235   6.822
 7090SOL    HW133149   2.718   4.203   6.830
 7090SOL    HW233150   2.637   4.330   6.826
 7091SOL     OW33151   0.865   1.862  16.563
 7091SOL    HW133152   0.902   1.855  16.651
 7091SOL    HW233153   0.821   1.947  16.562
 7092SOL     OW33154   4.638   1.526   6.185
 7092SOL    HW133155   4.639   1.616   6.152
 7092SOL    HW233156   4.730   1.508   6.207
 7093SOL     OW33157   4.570   0.664   3.777
 7093SOL    HW133158   4.487   0.628   3.810
 7093SOL    HW233159   4.564   0.651   3.682
 7094SOL     OW33160   3.413   4.068  20.869
 7094SOL    HW133161   3.360   3.993  20.896
 7094SOL    HW233162   3.402   4.131  20.941
 7095SOL     OW33163   3.267   1.396  16.707
 7095SOL    HW133164   3.187   1.442  16.681
 7095SOL    HW233165   3.237   1.331  16.770
 7096SOL     OW33166   3.668   0.472  16.341
 7096SOL    HW133167   3.648   0.380  16.324
 7096SOL    HW233168   3.624   0.520  16.271
 7097SOL     OW33169   4.416   3.901  16.894
 7097SOL    HW133170   4.496   3.857  16.922
 7097SOL    HW233171   4.389   3.855  16.815
 7098SOL     OW33172   3.096   4.684  20.195
 7098SOL    HW133173   3.109   4.672  20.101
 7098SOL    HW233174   3.122   4.775  20.210
 7099SOL     OW33175   2.090   2.886   2.628
 7099SOL    HW133176   2.155   2.816   2.622
 7099SOL    HW233177   2.107   2.941   2.552
 7100SOL     OW33178   1.416   4.628   0.256
 7100SOL    HW133179   1.368   4.670   0.328
 7100SOL    HW233180   1.501   4.606   0.293
 7101SOL     OW33181   2.561   2.216  13.039
 7101SOL    HW133182   2.644   2.242  13.001
 7101SOL    HW233183   2.496   2.272  12.997
 7102SOL     OW33184   3.507   2.548   5.765
 7102SOL    HW133185   3.567   2.476   5.746
 7102SOL    HW233186   3.555   2.627   5.738
 7103SOL     OW33187   2.394   1.380  20.377
 7103SOL    HW133188   2.462   1.325  20.415
 7103SOL    HW233189   2.364   1.435  20.450
 7104SOL     OW33190   4.422   0.099  18.640
 7104SOL    HW133191   4.472   0.029  18.598
 7104SOL    HW233192   4.331   0.079  18.619
 7105SOL     OW33193   4.244   1.710   5.436
 7105SOL    HW133194   4.264   1.800   5.460
 7105SOL    HW233195   4.246   1.710   5.340
 7106SOL     OW33196   1.639   3.650  12.855
 7106SOL    HW133197   1.646   3.556  12.841
 7106SOL    HW233198   1.568   3.659  12.919
 7107SOL     OW33199   2.582   1.770   4.379
 7107SOL    HW133200   2.515   1.732   4.322
 7107SOL    HW233201   2.624   1.837   4.325
 7108SOL     OW33202   4.457   3.202   2.419
 7108SOL    HW133203   4.422   3.142   2.485
 7108SOL    HW233204   4.413   3.177   2.338
 7109SOL     OW33205   3.587   4.612  20.699
 7109SOL    HW133206   3.535   4.531  20.694
 7109SOL    HW233207   3.545   4.662  20.769
 7110SOL     OW33208   4.102   4.060  12.822
 7110SOL    HW133209   4.030   4.107  12.863
 7110SOL    HW233210   4.067   3.972  12.807
 7111SOL     OW33211   3.905   4.739  17.889
 7111SOL    HW133212   3.931   4.674  17.955
 7111SOL    HW233213   3.988   4.774  17.856
 7112SOL     OW33214   2.132   0.643  18.134
 7112SOL    HW133215   2.156   0.724  18.180
 7112SOL    HW233216   2.191   0.641  18.059
 7113SOL     OW33217   1.569   0.571  20.713
 7113SOL    HW133218   1.656   0.557  20.751
 7113SOL    HW233219   1.537   0.650  20.757
 7114SOL     OW33220   1.867   3.895   4.714
 7114SOL    HW133221   1.888   3.961   4.780
 7114SOL    HW233222   1.846   3.816   4.764
 7115SOL     OW33223   2.874   0.949   9.043
 7115SOL    HW133224   2.881   1.043   9.058
 7115SOL    HW233225   2.780   0.931   9.049
 7116SOL     OW33226   2.562   1.355   2.955
 7116SOL    HW133227   2.629   1.316   3.011
 7116SOL    HW233228   2.598   1.441   2.931
 7117SOL     OW33229   4.303   3.231   3.016
 7117SOL    HW133230   4.376   3.235   2.955
 7117SOL    HW233231   4.264   3.319   3.013
 7118SOL     OW33232   3.012   4.652  17.594
 7118SOL    HW133233   2.927   4.606  17.595
 7118SOL    HW233234   3.019   4.688  17.505
 7119SOL     OW33235   3.970   2.704   5.900
 7119SOL    HW133236   3.998   2.626   5.852
 7119SOL    HW233237   4.049   2.734   5.945
 7120SOL     OW33238   2.503   2.590  19.072
 7120SOL    HW133239   2.502   2.603  19.167
 7120SOL    HW233240   2.477   2.675  19.037
 7121SOL     OW33241   0.223   0.176  19.692
 7121SOL    HW133242   0.295   0.113  19.690
 7121SOL    HW233243   0.255   0.250  19.641
 7122SOL     OW33244   3.585   2.802   5.108
 7122SOL    HW133245   3.490   2.800   5.097
 7122SOL    HW233246   3.613   2.712   5.088
 7123SOL     OW33247   3.817   1.568  18.548
 7123SOL    HW133248   3.893   1.548  18.603
 7123SOL    HW233249   3.772   1.484  18.539
 7124SOL     OW33250   2.528   4.227   0.219
 7124SOL    HW133251   2.475   4.305   0.199
 7124SOL    HW233252   2.588   4.220   0.145
 7125SOL     OW33253   2.964   2.390  19.896
 7125SOL    HW133254   3.043   2.441  19.914
 7125SOL    HW233255   2.940   2.352  19.980
 7126SOL     OW33256   4.624   4.285   2.908
 7126SOL    HW133257   4.596   4.361   2.959
 7126SOL    HW233258   4.720   4.287   2.913
 7127SOL     OW33259   3.659   3.036   4.622
 7127SOL    HW133260   3.581   2.981   4.629
 7127SOL    HW233261   3.643   3.091   4.546
 7128SOL     OW33262   0.052   3.558  14.999
 7128SOL    HW133263   0.063   3.488  14.934
 7128SOL    HW233264   4.792   3.624  14.954
 7129SOL     OW33265   1.625   1.153   4.487
 7129SOL    HW133266   1.667   1.093   4.426
 7129SOL    HW233267   1.593   1.225   4.433
 7130SOL     OW33268   0.301   1.113   3.317
 7130SOL    HW133269   0.241   1.187   3.316
 7130SOL    HW233270   0.329   1.106   3.409
 7131SOL     OW33271   1.831   0.554   3.985
 7131SOL    HW133272   1.809   0.461   3.986
 7131SOL    HW233273   1.898   0.562   3.917
 7132SOL     OW33274   1.077   3.628  18.606
 7132SOL    HW133275   1.087   3.533  18.618
 7132SOL    HW233276   1.123   3.647  18.524
 7133SOL     OW33277   2.415   1.235   5.690
 7133SOL    HW133278   2.439   1.300   5.757
 7133SOL    HW233279   2.466   1.260   5.613
 7134SOL     OW33280   1.849   2.781  21.215
 7134SOL    HW133281   1.874   2.718   0.009
 7134SOL    HW233282   1.818   2.728  21.141
 7135SOL     OW33283   3.588   2.530   3.827
 7135SOL    HW133284   3.532   2.453   3.814
 7135SOL    HW233285   3.675   2.501   3.798
 7136SOL     OW33286   2.618   0.091  15.702
 7136SOL    HW133287   2.551   0.156  15.723
 7136SOL    HW233288   2.595   0.015  15.755
 7137SOL     OW33289   1.954   1.929  21.048
 7137SOL    HW133290   2.027   1.908  21.105
 7137SOL    HW233291   1.992   1.982  20.978
 7138SOL     OW33292   2.380   4.428  21.134
 7138SOL    HW133293   2.470   4.451  21.111
 7138SOL    HW233294   2.372   4.336  21.110
 7139SOL     OW33295   0.682   3.564   5.169
 7139SOL    HW133296   0.699   3.470   5.159
 7139SOL    HW233297   0.627   3.570   5.248
 7140SOL     OW33298   2.872   2.522  16.750
 7140SOL    HW133299   2.866   2.428  16.735
 7140SOL    HW233300   2.965   2.538  16.763
 7141SOL     OW33301   3.943   0.625   3.602
 7141SOL    HW133302   3.897   0.543   3.621
 7141SOL    HW233303   4.031   0.597   3.577
 7142SOL     OW33304   1.143   3.966   2.343
 7142SOL    HW133305   1.107   3.878   2.335
 7142SOL    HW233306   1.192   3.979   2.262
 7143SOL     OW33307   2.526   0.502   3.902
 7143SOL    HW133308   2.600   0.538   3.854
 7143SOL    HW233309   2.503   0.422   3.853
 7144SOL     OW33310   1.283   3.540   1.327
 7144SOL    HW133311   1.284   3.634   1.346
 7144SOL    HW233312   1.276   3.499   1.413
 7145SOL     OW33313   1.311   2.607   4.274
 7145SOL    HW133314   1.223   2.617   4.237
 7145SOL    HW233315   1.311   2.662   4.352
 7146SOL     OW33316   1.196   3.232  15.369
 7146SOL    HW133317   1.251   3.288  15.315
 7146SOL    HW233318   1.252   3.158  15.391
 7147SOL     OW33319   1.264   0.004  21.105
 7147SOL    HW133320   1.282   4.704  21.110
 7147SOL    HW233321   1.261   0.033  21.196
 7148SOL     OW33322   0.448   1.492   5.556
 7148SOL    HW133323   0.357   1.466   5.571
 7148SOL    HW233324   0.500   1.416   5.581
 7149SOL     OW33325   4.599   0.418  19.266
 7149SOL    HW133326   4.508   0.407  19.293
 7149SOL    HW233327   4.603   0.506  19.230
 7150SOL     OW33328   1.689   3.936  13.663
 7150SOL    HW133329   1.617   3.956  13.603
 7150SOL    HW233330   1.649   3.934  13.750
 7151SOL     OW33331   3.871   3.285  15.471
 7151SOL    HW133332   3.875   3.192  15.489
 7151SOL    HW233333   3.915   3.326  15.545
 7152SOL     OW33334   0.453   3.384  15.822
 7152SOL    HW133335   0.485   3.333  15.747
 7152SOL    HW233336   0.527   3.385  15.883
 7153SOL     OW33337   1.344   0.197   4.193
 7153SOL    HW133338   1.336   0.102   4.192
 7153SOL    HW233339   1.365   0.221   4.103
 7154SOL     OW33340   4.374   0.315  15.515
 7154SOL    HW133341   4.463   0.324  15.481
 7154SOL    HW233342   4.329   0.394  15.486
 7155SOL     OW33343   0.518   3.102  19.290
 7155SOL    HW133344   0.524   3.023  19.343
 7155SOL    HW233345   0.533   3.072  19.200
 7156SOL     OW33346   0.073   4.665   0.320
 7156SOL    HW133347   0.107   4.614   0.393
 7156SOL    HW233348   0.099   4.755   0.339
 7157SOL     OW33349   2.680   4.225   6.129
 7157SOL    HW133350   2.614   4.295   6.127
 7157SOL    HW233351   2.743   4.249   6.062
 7158SOL     OW33352   1.572   4.443  17.030
 7158SOL    HW133353   1.637   4.507  17.058
 7158SOL    HW233354   1.501   4.452  17.094
 7159SOL     OW33355   1.460   2.434  16.900
 7159SOL    HW133356   1.384   2.412  16.954
 7159SOL    HW233357   1.507   2.499  16.951
 7160SOL     OW33358   2.933   4.237  20.219
 7160SOL    HW133359   2.871   4.225  20.290
 7160SOL    HW233360   2.992   4.305  20.250
 7161SOL     OW33361   1.788   0.748  17.010
 7161SOL    HW133362   1.804   0.694  16.932
 7161SOL    HW233363   1.748   0.828  16.975
 7162SOL     OW33364   2.410   1.663   2.191
 7162SOL    HW133365   2.364   1.742   2.219
 7162SOL    HW233366   2.412   1.607   2.269
 7163SOL     OW33367   0.179   3.352  17.506
 7163SOL    HW133368   0.261   3.370  17.552
 7163SOL    HW233369   0.121   3.318  17.574
 7164SOL     OW33370   2.273   2.757   4.184
 7164SOL    HW133371   2.195   2.704   4.166
 7164SOL    HW233372   2.240   2.828   4.239
 7165SOL     OW33373   1.799   1.596   7.019
 7165SOL    HW133374   1.719   1.550   7.044
 7165SOL    HW233375   1.861   1.576   7.089
 7166SOL     OW33376   3.456   1.427   3.715
 7166SOL    HW133377   3.531   1.449   3.659
 7166SOL    HW233378   3.455   1.331   3.716
 7167SOL     OW33379   3.902   3.262   3.597
 7167SOL    HW133380   3.916   3.326   3.527
 7167SOL    HW233381   3.984   3.213   3.601
 7168SOL     OW33382   3.118   3.918  17.214
 7168SOL    HW133383   3.065   3.926  17.293
 7168SOL    HW233384   3.098   3.830  17.181
 7169SOL     OW33385   0.545   2.992  16.686
 7169SOL    HW133386   0.628   3.013  16.728
 7169SOL    HW233387   0.478   3.030  16.744
 7170SOL     OW33388   3.747   4.044   0.627
 7170SOL    HW133389   3.667   4.071   0.583
 7170SOL    HW233390   3.728   3.955   0.659
 7171SOL     OW33391   4.758   2.275  17.952
 7171SOL    HW133392   0.036   2.235  17.903
 7171SOL    HW233393   4.722   2.342  17.893
 7172SOL     OW33394   0.390   0.443   3.079
 7172SOL    HW133395   0.474   0.487   3.087
 7172SOL    HW233396   0.352   0.477   2.998
 7173SOL     OW33397   0.587   1.039   2.747
 7173SOL    HW133398   0.535   1.104   2.793
 7173SOL    HW233399   0.662   1.022   2.804
 7174SOL     OW33400   1.770   2.304   5.161
 7174SOL    HW133401   1.706   2.332   5.226
 7174SOL    HW233402   1.744   2.215   5.138
 7175SOL     OW33403   0.625   4.282   5.553
 7175SOL    HW133404   0.627   4.189   5.528
 7175SOL    HW233405   0.714   4.313   5.535
 7176SOL     OW33406   0.252   4.404   1.477
 7176SOL    HW133407   0.279   4.495   1.492
 7176SOL    HW233408   0.161   4.401   1.504
 7177SOL     OW33409   4.377   0.342   2.138
 7177SOL    HW133410   4.436   0.340   2.213
 7177SOL    HW233411   4.401   0.264   2.087
 7178SOL     OW33412   3.947   2.333  18.503
 7178SOL    HW133413   3.899   2.276  18.443
 7178SOL    HW233414   3.911   2.313  18.590
 7179SOL     OW33415   3.532   4.610  21.039
 7179SOL    HW133416   3.480   4.673  20.989
 7179SOL    HW233417   3.585   4.664  21.099
 7180SOL     OW33418   4.605   3.087   4.859
 7180SOL    HW133419   4.612   3.048   4.772
 7180SOL    HW233420   4.516   3.121   4.863
 7181SOL     OW33421   4.610   4.404  20.637
 7181SOL    HW133422   4.632   4.377  20.726
 7181SOL    HW233423   4.681   4.464  20.612
 7182SOL     OW33424   0.648   4.531  13.302
 7182SOL    HW133425   0.734   4.558  13.270
 7182SOL    HW233426   0.595   4.521  13.222
 7183SOL     OW33427   2.901   3.849  16.539
 7183SOL    HW133428   2.868   3.760  16.549
 7183SOL    HW233429   2.930   3.875  16.627
 7184SOL     OW33430   3.948   1.994  17.413
 7184SOL    HW133431   3.988   2.042  17.341
 7184SOL    HW233432   4.010   2.004  17.486
 7185SOL     OW33433   2.305   4.610  18.215
 7185SOL    HW133434   2.248   4.674  18.173
 7185SOL    HW233435   2.385   4.612  18.163
 7186SOL     OW33436   2.998   2.423  20.816
 7186SOL    HW133437   2.998   2.484  20.742
 7186SOL    HW233438   2.971   2.477  20.891
 7187SOL     OW33439   1.470   4.437  19.281
 7187SOL    HW133440   1.477   4.532  19.293
 7187SOL    HW233441   1.530   4.417  19.209
 7188SOL     OW33442   3.759   1.436   8.171
 7188SOL    HW133443   3.704   1.414   8.246
 7188SOL    HW233444   3.761   1.356   8.118
 7189SOL     OW33445   2.837   2.711  16.523
 7189SOL    HW133446   2.823   2.639  16.585
 7189SOL    HW233447   2.779   2.781  16.554
 7190SOL     OW33448   4.629   1.082   5.741
 7190SOL    HW133449   4.660   1.173   5.741
 7190SOL    HW233450   4.694   1.034   5.690
 7191SOL     OW33451   4.287   2.922  16.010
 7191SOL    HW133452   4.276   2.986  15.940
 7191SOL    HW233453   4.203   2.876  16.013
 7192SOL     OW33454   2.494   1.299   5.428
 7192SOL    HW133455   2.562   1.274   5.365
 7192SOL    HW233456   2.506   1.393   5.441
 7193SOL     OW33457   2.946   1.449   1.372
 7193SOL    HW133458   2.963   1.532   1.329
 7193SOL    HW233459   2.976   1.383   1.309
 7194SOL     OW33460   0.429   3.031   5.704
 7194SOL    HW133461   0.372   2.956   5.691
 7194SOL    HW233462   0.513   3.004   5.667
 7195SOL     OW33463   1.179   3.416   5.064
 7195SOL    HW133464   1.183   3.406   4.968
 7195SOL    HW233465   1.242   3.486   5.083
 7196SOL     OW33466   1.642   2.851   9.006
 7196SOL    HW133467   1.716   2.790   9.005
 7196SOL    HW233468   1.683   2.937   8.997
 7197SOL     OW33469   1.507   4.618   6.359
 7197SOL    HW133470   1.555   4.557   6.416
 7197SOL    HW233471   1.499   4.697   6.412
 7198SOL     OW33472   1.432   1.390   2.152
 7198SOL    HW133473   1.496   1.372   2.221
 7198SOL    HW233474   1.383   1.308   2.143
 7199SOL     OW33475   0.577   4.117   5.886
 7199SOL    HW133476   0.601   4.186   5.825
 7199SOL    HW233477   0.643   4.048   5.871
 7200SOL     OW33478   4.208   2.779  15.734
 7200SOL    HW133479   4.218   2.749  15.824
 7200SOL    HW233480   4.266   2.721  15.683
 7201SOL     OW33481   2.802   0.539  17.331
 7201SOL    HW133482   2.730   0.511  17.274
 7201SOL    HW233483   2.879   0.494  17.295
 7202SOL     OW33484   0.812   2.259   1.394
 7202SOL    HW133485   0.836   2.312   1.318
 7202SOL    HW233486   0.878   2.189   1.395
 7203SOL     OW33487   2.657   2.433   1.943
 7203SOL    HW133488   2.673   2.492   2.016
 7203SOL    HW233489   2.687   2.348   1.974
 7204SOL     OW33490   2.230   1.390  20.169
 7204SOL    HW133491   2.285   1.440  20.109
 7204SOL    HW233492   2.271   1.402  20.255
 7205SOL     OW33493   4.410   1.269  17.290
 7205SOL    HW133494   4.438   1.231  17.374
 7205SOL    HW233495   4.482   1.250  17.231
 7206SOL     OW33496   2.055   3.620  20.878
 7206SOL    HW133497   2.013   3.644  20.795
 7206SOL    HW233498   2.044   3.525  20.883
 7207SOL     OW33499   1.414   0.818   1.827
 7207SOL    HW133500   1.363   0.868   1.763
 7207SOL    HW233501   1.503   0.818   1.793
 7208SOL     OW33502   2.079   2.427   0.937
 7208SOL    HW133503   2.009   2.363   0.950
 7208SOL    HW233504   2.148   2.400   0.998
 7209SOL     OW33505   2.681   3.143  11.189
 7209SOL    HW133506   2.776   3.143  11.179
 7209SOL    HW233507   2.665   3.078  11.258
 7210SOL     OW33508   4.484   3.830  12.901
 7210SOL    HW133509   4.398   3.802  12.869
 7210SOL    HW233510   4.480   3.926  12.900
 7211SOL     OW33511   3.025   0.782  17.105
 7211SOL    HW133512   2.931   0.771  17.121
 7211SOL    HW233513   3.057   0.832  17.180
 7212SOL     OW33514   0.469   3.320   2.986
 7212SOL    HW133515   0.544   3.378   2.972
 7212SOL    HW233516   0.481   3.285   3.074
 7213SOL     OW33517   1.438   2.637  16.706
 7213SOL    HW133518   1.408   2.586  16.781
 7213SOL    HW233519   1.421   2.728  16.731
 7214SOL     OW33520   4.106   1.952  17.901
 7214SOL    HW133521   4.059   2.026  17.939
 7214SOL    HW233522   4.086   1.879  17.960
 7215SOL     OW33523   3.541   2.315   0.389
 7215SOL    HW133524   3.484   2.283   0.460
 7215SOL    HW233525   3.501   2.398   0.362
 7216SOL     OW33526   1.517   1.371  13.192
 7216SOL    HW133527   1.485   1.318  13.265
 7216SOL    HW233528   1.599   1.409  13.224
 7217SOL     OW33529   1.060   0.155   0.555
 7217SOL    HW133530   0.979   0.207   0.552
 7217SOL    HW233531   1.122   0.212   0.601
 7218SOL     OW33532   4.446   4.648  20.706
 7218SOL    HW133533   4.481   4.575  20.757
 7218SOL    HW233534   4.515   4.671  20.644
 7219SOL     OW33535   2.600   2.056   0.985
 7219SOL    HW133536   2.511   2.087   0.969
 7219SOL    HW233537   2.615   2.073   1.078
 7220SOL     OW33538   1.167   2.101   5.755
 7220SOL    HW133539   1.130   2.015   5.737
 7220SOL    HW233540   1.251   2.102   5.709
 7221SOL     OW33541   4.682   4.074   2.609
 7221SOL    HW133542   4.769   4.044   2.638
 7221SOL    HW233543   4.628   4.069   2.688
 7222SOL     OW33544   1.259   0.514  15.723
 7222SOL    HW133545   1.259   0.499  15.628
 7222SOL    HW233546   1.168   0.499  15.749
 7223SOL     OW33547   3.107   4.295   0.425
 7223SOL    HW133548   3.132   4.380   0.462
 7223SOL    HW233549   3.160   4.232   0.473
 7224SOL     OW33550   3.801   3.454   2.552
 7224SOL    HW133551   3.808   3.358   2.547
 7224SOL    HW233552   3.730   3.469   2.614
 7225SOL     OW33553   2.011   1.280  12.461
 7225SOL    HW133554   1.949   1.325  12.403
 7225SOL    HW233555   2.023   1.194  12.420
 7226SOL     OW33556   0.684   2.268   4.018
 7226SOL    HW133557   0.739   2.211   3.964
 7226SOL    HW233558   0.617   2.209   4.054
 7227SOL     OW33559   1.644   2.655  16.139
 7227SOL    HW133560   1.683   2.597  16.072
 7227SOL    HW233561   1.667   2.613  16.222
 7228SOL     OW33562   3.916   4.410  13.858
 7228SOL    HW133563   3.929   4.331  13.910
 7228SOL    HW233564   3.997   4.460  13.868
 7229SOL     OW33565   1.084   3.459  11.442
 7229SOL    HW133566   1.070   3.549  11.470
 7229SOL    HW233567   1.048   3.406  11.512
 7230SOL     OW33568   1.634   0.348   5.879
 7230SOL    HW133569   1.568   0.335   5.947
 7230SOL    HW233570   1.665   0.438   5.892
 7231SOL     OW33571   4.449   1.908   4.717
 7231SOL    HW133572   4.487   1.866   4.640
 7231SOL    HW233573   4.416   1.992   4.685
 7232SOL     OW33574   3.835   3.215   2.111
 7232SOL    HW133575   3.888   3.135   2.112
 7232SOL    HW233576   3.747   3.186   2.133
 7233SOL     OW33577   1.618   4.581  17.939
 7233SOL    HW133578   1.640   4.593  18.031
 7233SOL    HW233579   1.648   4.493  17.918
 7234SOL     OW33580   3.723   2.925   1.794
 7234SOL    HW133581   3.692   3.016   1.798
 7234SOL    HW233582   3.674   2.881   1.863
 7235SOL     OW33583   0.981   2.047  15.150
 7235SOL    HW133584   0.947   2.085  15.231
 7235SOL    HW233585   0.966   1.953  15.159
 7236SOL     OW33586   3.739   3.432  19.890
 7236SOL    HW133587   3.774   3.456  19.976
 7236SOL    HW233588   3.767   3.341  19.878
 7237SOL     OW33589   0.398   0.821  18.270
 7237SOL    HW133590   0.323   0.872  18.239
 7237SOL    HW233591   0.405   0.748  18.208
 7238SOL     OW33592   0.847   0.538  18.075
 7238SOL    HW133593   0.869   0.630  18.057
 7238SOL    HW233594   0.864   0.492  17.993
 7239SOL     OW33595   2.858   2.643  15.782
 7239SOL    HW133596   2.897   2.665  15.867
 7239SOL    HW233597   2.790   2.708  15.769
 7240SOL     OW33598   4.027   3.082   6.701
 7240SOL    HW133599   3.981   3.068   6.784
 7240SOL    HW233600   4.012   3.002   6.652
 7241SOL     OW33601   2.129   0.867  15.514
 7241SOL    HW133602   2.085   0.946  15.547
 7241SOL    HW233603   2.211   0.900  15.478
 7242SOL     OW33604   3.517   0.927   2.738
 7242SOL    HW133605   3.595   0.970   2.772
 7242SOL    HW233606   3.539   0.834   2.738
 7243SOL     OW33607   1.734   0.199   4.936
 7243SOL    HW133608   1.699   0.133   4.877
 7243SOL    HW233609   1.684   0.189   5.017
 7244SOL     OW33610   1.027   0.786  18.446
 7244SOL    HW133611   1.029   0.782  18.350
 7244SOL    HW233612   0.937   0.813  18.466
 7245SOL     OW33613   4.002   4.522   0.284
 7245SOL    HW133614   3.956   4.438   0.282
 7245SOL    HW233615   3.932   4.587   0.291
 7246SOL     OW33616   0.891   2.092   0.961
 7246SOL    HW133617   0.894   2.153   1.035
 7246SOL    HW233618   0.804   2.106   0.922
 7247SOL     OW33619   4.698   3.187  19.682
 7247SOL    HW133620   4.616   3.145  19.709
 7247SOL    HW233621   4.675   3.280  19.672
 7248SOL     OW33622   3.343   3.249  16.224
 7248SOL    HW133623   3.405   3.261  16.153
 7248SOL    HW233624   3.393   3.207  16.293
 7249SOL     OW33625   4.363   0.519  16.223
 7249SOL    HW133626   4.273   0.505  16.250
 7249SOL    HW233627   4.411   0.444  16.258
 7250SOL     OW33628   2.312   3.050  17.569
 7250SOL    HW133629   2.256   3.106  17.624
 7250SOL    HW233630   2.267   2.966  17.568
 7251SOL     OW33631   1.326   2.365   1.998
 7251SOL    HW133632   1.295   2.317   1.921
 7251SOL    HW233633   1.391   2.427   1.963
 7252SOL     OW33634   2.594   1.400   7.874
 7252SOL    HW133635   2.643   1.470   7.831
 7252SOL    HW233636   2.570   1.436   7.959
 7253SOL     OW33637   2.778   1.679  18.114
 7253SOL    HW133638   2.777   1.584  18.101
 7253SOL    HW233639   2.686   1.705  18.107
 7254SOL     OW33640   3.977   2.333   6.746
 7254SOL    HW133641   3.951   2.396   6.813
 7254SOL    HW233642   3.925   2.357   6.669
 7255SOL     OW33643   0.824   0.555   2.115
 7255SOL    HW133644   0.836   0.616   2.188
 7255SOL    HW233645   0.797   0.611   2.042
 7256SOL     OW33646   0.089   0.880  18.510
 7256SOL    HW133647   0.061   0.969  18.533
 7256SOL    HW233648   0.015   0.825  18.536
 7257SOL     OW33649   3.685   0.674   0.612
 7257SOL    HW133650   3.607   0.618   0.610
 7257SOL    HW233651   3.687   0.709   0.701
 7258SOL     OW33652   4.678   3.719  19.470
 7258SOL    HW133653   4.699   3.808  19.499
 7258SOL    HW233654   4.686   3.722  19.374
 7259SOL     OW33655   0.002   4.298  17.742
 7259SOL    HW133656   4.743   4.223  17.715
 7259SOL    HW233657   0.017   4.285  17.836
 7260SOL     OW33658   1.976   0.160   6.118
 7260SOL    HW133659   1.937   0.233   6.069
 7260SOL    HW233660   2.042   0.125   6.058
 7261SOL     OW33661   3.325   3.174  18.610
 7261SOL    HW133662   3.236   3.181  18.646
 7261SOL    HW233663   3.313   3.138  18.523
 7262SOL     OW33664   1.098   4.310  14.237
 7262SOL    HW133665   1.018   4.293  14.286
 7262SOL    HW233666   1.112   4.405  14.244
 7263SOL     OW33667   4.274   3.596   6.994
 7263SOL    HW133668   4.355   3.572   7.039
 7263SOL    HW233669   4.268   3.534   6.921
 7264SOL     OW33670   3.959   3.929   3.100
 7264SOL    HW133671   4.013   3.965   3.029
 7264SOL    HW233672   3.878   3.980   3.096
 7265SOL     OW33673   2.511   2.043   2.170
 7265SOL    HW133674   2.535   2.000   2.252
 7265SOL    HW233675   2.451   1.981   2.128
 7266SOL     OW33676   1.483   1.156   9.252
 7266SOL    HW133677   1.472   1.175   9.345
 7266SOL    HW233678   1.528   1.233   9.217
 7267SOL     OW33679   4.518   4.305  17.381
 7267SOL    HW133680   4.430   4.332  17.358
 7267SOL    HW233681   4.560   4.385  17.413
 7268SOL     OW33682   2.912   1.005   3.459
 7268SOL    HW133683   2.825   0.967   3.459
 7268SOL    HW233684   2.897   1.100   3.463
 7269SOL     OW33685   1.664   4.697  18.541
 7269SOL    HW133686   1.675   4.614  18.494
 7269SOL    HW233687   1.627   4.757  18.475
 7270SOL     OW33688   2.447   2.348  14.089
 7270SOL    HW133689   2.540   2.328  14.074
 7270SOL    HW233690   2.440   2.362  14.183
 7271SOL     OW33691   3.840   3.383   4.424
 7271SOL    HW133692   3.801   3.300   4.397
 7271SOL    HW233693   3.926   3.385   4.382
 7272SOL     OW33694   2.454   4.235  17.023
 7272SOL    HW133695   2.538   4.233  16.976
 7272SOL    HW233696   2.400   4.170  16.978
 7273SOL     OW33697   1.417   1.194   4.653
 7273SOL    HW133698   1.495   1.172   4.603
 7273SOL    HW233699   1.365   1.249   4.594
 7274SOL     OW33700   0.539   4.713  17.712
 7274SOL    HW133701   0.580   4.775  17.773
 7274SOL    HW233702   0.540   4.629  17.758
 7275SOL     OW33703   4.667   3.723  14.870
 7275SOL    HW133704   4.590   3.703  14.816
 7275SOL    HW233705   4.702   3.804  14.834
 7276SOL     OW33706   2.745   3.440  17.924
 7276SOL    HW133707   2.790   3.462  18.006
 7276SOL    HW233708   2.653   3.428  17.950
 7277SOL     OW33709   1.070   2.106  16.983
 7277SOL    HW133710   1.126   2.067  17.050
 7277SOL    HW233711   0.988   2.125  17.029
 7278SOL     OW33712   0.721   3.238  19.416
 7278SOL    HW133713   0.769   3.298  19.359
 7278SOL    HW233714   0.656   3.197  19.359
 7279SOL     OW33715   3.243   1.196  14.491
 7279SOL    HW133716   3.252   1.265  14.425
 7279SOL    HW233717   3.284   1.233  14.570
 7280SOL     OW33718   1.963   1.487   3.179
 7280SOL    HW133719   1.890   1.538   3.214
 7280SOL    HW233720   2.016   1.464   3.255
 7281SOL     OW33721   1.135   0.203  19.451
 7281SOL    HW133722   1.227   0.196  19.427
 7281SOL    HW233723   1.135   0.249  19.535
 7282SOL     OW33724   3.567   1.826   3.524
 7282SOL    HW133725   3.620   1.905   3.513
 7282SOL    HW233726   3.533   1.808   3.437
 7283SOL     OW33727   3.166   1.713   4.814
 7283SOL    HW133728   3.171   1.758   4.898
 7283SOL    HW233729   3.240   1.652   4.815
 7284SOL     OW33730   1.119   2.020   3.252
 7284SOL    HW133731   1.141   1.936   3.212
 7284SOL    HW233732   1.200   2.071   3.247
 7285SOL     OW33733   2.875   0.859  19.929
 7285SOL    HW133734   2.895   0.768  19.906
 7285SOL    HW233735   2.825   0.891  19.854
 7286SOL     OW33736   2.022   2.359  16.503
 7286SOL    HW133737   1.933   2.326  16.515
 7286SOL    HW233738   2.067   2.338  16.584
 7287SOL     OW33739   2.050   2.341  16.779
 7287SOL    HW133740   1.968   2.385  16.803
 7287SOL    HW233741   2.116   2.409  16.787
 7288SOL     OW33742   4.054   1.760   4.817
 7288SOL    HW133743   3.999   1.838   4.809
 7288SOL    HW233744   4.139   1.794   4.846
 7289SOL     OW33745   3.564   4.136   3.352
 7289SOL    HW133746   3.525   4.130   3.265
 7289SOL    HW233747   3.627   4.063   3.354
 7290SOL     OW33748   4.107   4.129  13.725
 7290SOL    HW133749   4.062   4.169  13.799
 7290SOL    HW233750   4.114   4.200  13.660
 7291SOL     OW33751   1.778   1.663   6.070
 7291SOL    HW133752   1.835   1.669   6.147
 7291SOL    HW233753   1.828   1.611   6.007
 7292SOL     OW33754   0.687   4.510  20.692
 7292SOL    HW133755   0.709   4.468  20.609
 7292SOL    HW233756   0.748   4.472  20.755
 7293SOL     OW33757   3.274   3.042  17.106
 7293SOL    HW133758   3.190   3.085  17.122
 7293SOL    HW233759   3.324   3.057  17.187
 7294SOL     OW33760   1.202   4.040   1.565
 7294SOL    HW133761   1.245   4.091   1.633
 7294SOL    HW233762   1.108   4.055   1.579
 7295SOL     OW33763   0.913   1.425  15.849
 7295SOL    HW133764   0.849   1.496  15.842
 7295SOL    HW233765   0.870   1.350  15.809
 7296SOL     OW33766   4.115   0.380  17.761
 7296SOL    HW133767   4.158   0.299  17.787
 7296SOL    HW233768   4.070   0.410  17.840
 7297SOL     OW33769   0.445   3.032  15.454
 7297SOL    HW133770   0.419   3.073  15.372
 7297SOL    HW233771   0.496   2.955  15.428
 7298SOL     OW33772   0.550   4.239   1.558
 7298SOL    HW133773   0.469   4.266   1.602
 7298SOL    HW233774   0.521   4.208   1.472
 7299SOL     OW33775   0.556   1.646   5.351
 7299SOL    HW133776   0.496   1.720   5.342
 7299SOL    HW233777   0.515   1.590   5.417
 7300SOL     OW33778   1.197   0.360  13.606
 7300SOL    HW133779   1.229   0.415  13.678
 7300SOL    HW233780   1.202   0.416  13.529
 7301SOL     OW33781   3.224   0.217   4.144
 7301SOL    HW133782   3.159   0.169   4.196
 7301SOL    HW233783   3.288   0.150   4.119
 7302SOL     OW33784   1.152   1.976  20.235
 7302SOL    HW133785   1.224   1.931  20.280
 7302SOL    HW233786   1.196   2.040  20.179
 7303SOL     OW33787   4.557   2.878  16.057
 7303SOL    HW133788   4.473   2.874  16.012
 7303SOL    HW233789   4.561   2.967  16.092
 7304SOL     OW33790   3.101   1.228  15.473
 7304SOL    HW133791   3.105   1.217  15.567
 7304SOL    HW233792   3.159   1.161  15.438
 7305SOL     OW33793   2.984   1.307   5.603
 7305SOL    HW133794   2.997   1.212   5.601
 7305SOL    HW233795   3.073   1.343   5.600
 7306SOL     OW33796   0.722   0.382  18.807
 7306SOL    HW133797   0.776   0.413  18.735
 7306SOL    HW233798   0.677   0.460  18.840
 7307SOL     OW33799   1.780   0.709  16.474
 7307SOL    HW133800   1.720   0.773  16.512
 7307SOL    HW233801   1.742   0.688  16.389
 7308SOL     OW33802   4.044   2.169   4.616
 7308SOL    HW133803   3.957   2.152   4.653
 7308SOL    HW233804   4.033   2.156   4.522
 7309SOL     OW33805   4.131   0.572  20.588
 7309SOL    HW133806   4.054   0.572  20.644
 7309SOL    HW233807   4.152   0.479  20.575
 7310SOL     OW33808   4.206   1.902  20.245
 7310SOL    HW133809   4.217   1.936  20.156
 7310SOL    HW233810   4.115   1.870  20.247
 7311SOL     OW33811   3.372   0.664  20.526
 7311SOL    HW133812   3.362   0.672  20.431
 7311SOL    HW233813   3.283   0.650  20.559
 7312SOL     OW33814   3.532   0.451   6.836
 7312SOL    HW133815   3.540   0.527   6.894
 7312SOL    HW233816   3.611   0.400   6.853
 7313SOL     OW33817   3.758   3.892  15.501
 7313SOL    HW133818   3.731   3.802  15.484
 7313SOL    HW233819   3.853   3.892  15.487
 7314SOL     OW33820   0.044   4.098   1.427
 7314SOL    HW133821   0.018   4.120   1.338
 7314SOL    HW233822   0.051   4.183   1.472
 7315SOL     OW33823   0.504   4.265  19.006
 7315SOL    HW133824   0.523   4.351  19.043
 7315SOL    HW233825   0.484   4.282  18.914
 7316SOL     OW33826   0.419   0.424  20.526
 7316SOL    HW133827   0.376   0.408  20.442
 7316SOL    HW233828   0.384   0.508  20.556
 7317SOL     OW33829   3.716   3.251  16.759
 7317SOL    HW133830   3.641   3.193  16.772
 7317SOL    HW233831   3.775   3.231  16.831
 7318SOL     OW33832   3.125   3.894   1.703
 7318SOL    HW133833   3.200   3.904   1.762
 7318SOL    HW233834   3.162   3.903   1.615
 7319SOL     OW33835   0.717   2.002  15.772
 7319SOL    HW133836   0.794   1.954  15.740
 7319SOL    HW233837   0.750   2.052  15.847
 7320SOL     OW33838   0.904   3.199   5.205
 7320SOL    HW133839   0.852   3.128   5.244
 7320SOL    HW233840   0.914   3.263   5.275
 7321SOL     OW33841   0.072   3.458   7.971
 7321SOL    HW133842   0.116   3.462   7.886
 7321SOL    HW233843   0.142   3.441   8.034
 7322SOL     OW33844   4.551   0.895  16.634
 7322SOL    HW133845   4.634   0.848  16.645
 7322SOL    HW233846   4.560   0.972  16.690
 7323SOL     OW33847   2.946   0.862  20.355
 7323SOL    HW133848   2.860   0.853  20.315
 7323SOL    HW233849   3.007   0.865  20.281
 7324SOL     OW33850   2.455   1.533   1.622
 7324SOL    HW133851   2.479   1.469   1.554
 7324SOL    HW233852   2.362   1.551   1.606
 7325SOL     OW33853   0.398   4.219   1.320
 7325SOL    HW133854   0.433   4.279   1.255
 7325SOL    HW233855   0.331   4.269   1.367
 7326SOL     OW33856   3.859   3.655   4.688
 7326SOL    HW133857   3.820   3.714   4.624
 7326SOL    HW233858   3.788   3.596   4.712
 7327SOL     OW33859   0.418   3.644  18.539
 7327SOL    HW133860   0.407   3.685  18.625
 7327SOL    HW233861   0.500   3.681  18.505
 7328SOL     OW33862   1.483   2.496  21.093
 7328SOL    HW133863   1.424   2.570  21.107
 7328SOL    HW233864   1.482   2.483  20.998
 7329SOL     OW33865   0.167   3.799  13.456
 7329SOL    HW133866   0.096   3.775  13.397
 7329SOL    HW233867   0.179   3.892  13.442
 7330SOL     OW33868   1.184   2.805   0.586
 7330SOL    HW133869   1.139   2.729   0.549
 7330SOL    HW233870   1.132   2.826   0.664
 7331SOL     OW33871   4.257   2.995  19.777
 7331SOL    HW133872   4.261   2.925  19.711
 7331SOL    HW233873   4.166   3.026  19.773
 7332SOL     OW33874   4.372   3.253   4.270
 7332SOL    HW133875   4.397   3.345   4.260
 7332SOL    HW233876   4.455   3.206   4.282
 7333SOL     OW33877   0.955   3.507  16.340
 7333SOL    HW133878   0.879   3.527  16.285
 7333SOL    HW233879   1.023   3.480  16.278
 7334SOL     OW33880   4.384   0.905  17.306
 7334SOL    HW133881   4.437   0.869  17.235
 7334SOL    HW233882   4.297   0.868  17.291
 7335SOL     OW33883   1.504   0.154   1.585
 7335SOL    HW133884   1.583   0.133   1.535
 7335SOL    HW233885   1.432   0.140   1.523
 7336SOL     OW33886   0.032   2.565   5.750
 7336SOL    HW133887   0.104   2.546   5.811
 7336SOL    HW233888   4.758   2.500   5.772
 7337SOL     OW33889   1.794   2.658  20.466
 7337SOL    HW133890   1.866   2.718  20.486
 7337SOL    HW233891   1.715   2.709  20.486
 7338SOL     OW33892   4.512   4.291  17.029
 7338SOL    HW133893   4.599   4.276  17.065
 7338SOL    HW233894   4.528   4.312  16.937
 7339SOL     OW33895   0.692   3.885  15.452
 7339SOL    HW133896   0.646   3.879  15.368
 7339SOL    HW233897   0.772   3.834  15.439
 7340SOL     OW33898   1.326   0.534  19.060
 7340SOL    HW133899   1.390   0.529  18.989
 7340SOL    HW233900   1.249   0.489  19.025
 7341SOL     OW33901   0.078   3.484   4.073
 7341SOL    HW133902   0.071   3.498   3.979
 7341SOL    HW233903   0.166   3.512   4.096
 7342SOL     OW33904   1.422   1.011  18.893
 7342SOL    HW133905   1.510   0.997  18.929
 7342SOL    HW233906   1.367   1.026  18.970
 7343SOL     OW33907   4.254   0.161   2.538
 7343SOL    HW133908   4.283   0.073   2.562
 7343SOL    HW233909   4.317   0.219   2.581
 7344SOL     OW33910   1.573   3.164  13.875
 7344SOL    HW133911   1.553   3.247  13.919
 7344SOL    HW233912   1.668   3.167  13.861
 7345SOL     OW33913   2.981   0.418  16.274
 7345SOL    HW133914   3.014   0.372  16.351
 7345SOL    HW233915   2.886   0.403  16.276
 7346SOL     OW33916   3.788   0.294   5.406
 7346SOL    HW133917   3.789   0.199   5.413
 7346SOL    HW233918   3.766   0.324   5.495
 7347SOL     OW33919   0.138   1.860   7.632
 7347SOL    HW133920   0.214   1.876   7.576
 7347SOL    HW233921   0.162   1.784   7.684
 7348SOL     OW33922   3.961   1.841  18.923
 7348SOL    HW133923   3.931   1.756  18.956
 7348SOL    HW233924   3.955   1.833  18.828
 7349SOL     OW33925   1.356   3.946   5.630
 7349SOL    HW133926   1.405   3.946   5.711
 7349SOL    HW233927   1.415   3.986   5.566
 7350SOL     OW33928   3.887   4.647  14.557
 7350SOL    HW133929   3.936   4.699  14.620
 7350SOL    HW233930   3.922   4.673  14.472
 7351SOL     OW33931   0.943   4.131  15.229
 7351SOL    HW133932   0.924   4.225  15.233
 7351SOL    HW233933   0.860   4.091  15.202
 7352SOL     OW33934   3.306   4.347   0.831
 7352SOL    HW133935   3.369   4.318   0.896
 7352SOL    HW233936   3.333   4.436   0.808
 7353SOL     OW33937   2.449   1.920  16.651
 7353SOL    HW133938   2.543   1.903  16.653
 7353SOL    HW233939   2.434   1.983  16.722
 7354SOL     OW33940   1.264   1.960   0.673
 7354SOL    HW133941   1.299   2.040   0.635
 7354SOL    HW233942   1.177   1.985   0.706
 7355SOL     OW33943   1.709   0.116   6.817
 7355SOL    HW133944   1.649   0.122   6.744
 7355SOL    HW233945   1.655   0.086   6.890
 7356SOL     OW33946   0.676   1.132  19.391
 7356SOL    HW133947   0.742   1.197  19.417
 7356SOL    HW233948   0.598   1.156  19.441
 7357SOL     OW33949   0.550   1.464  14.778
 7357SOL    HW133950   0.604   1.429  14.849
 7357SOL    HW233951   0.461   1.458  14.811
 7358SOL     OW33952   1.637   3.670  21.137
 7358SOL    HW133953   1.647   3.667  21.233
 7358SOL    HW233954   1.627   3.579  21.111
 7359SOL     OW33955   0.919   2.420  17.573
 7359SOL    HW133956   0.851   2.353  17.576
 7359SOL    HW233957   0.997   2.376  17.607
 7360SOL     OW33958   0.197   2.993   6.111
 7360SOL    HW133959   0.194   3.087   6.096
 7360SOL    HW233960   0.145   2.956   6.040
 7361SOL     OW33961   3.276   3.153   1.092
 7361SOL    HW133962   3.198   3.106   1.065
 7361SOL    HW233963   3.249   3.245   1.096
 7362SOL     OW33964   1.989   0.127   6.849
 7362SOL    HW133965   2.009   0.125   6.756
 7362SOL    HW233966   1.894   0.120   6.854
 7363SOL     OW33967   4.744   0.135   1.277
 7363SOL    HW133968   4.771   0.207   1.221
 7363SOL    HW233969   4.732   0.175   1.363
 7364SOL     OW33970   4.533   1.615   7.649
 7364SOL    HW133971   4.497   1.698   7.620
 7364SOL    HW233972   4.490   1.549   7.594
 7365SOL     OW33973   2.012   3.613  21.216
 7365SOL    HW133974   1.941   3.575  21.266
 7365SOL    HW233975   1.996   3.583  21.126
 7366SOL     OW33976   4.356   0.751  19.870
 7366SOL    HW133977   4.379   0.677  19.814
 7366SOL    HW233978   4.429   0.813  19.860
 7367SOL     OW33979   1.976   1.242  18.709
 7367SOL    HW133980   1.973   1.321  18.655
 7367SOL    HW233981   1.919   1.180  18.664
 7368SOL     OW33982   0.337   3.228   8.722
 7368SOL    HW133983   0.364   3.162   8.658
 7368SOL    HW233984   0.355   3.311   8.679
 7369SOL     OW33985   0.088   4.077  18.359
 7369SOL    HW133986   0.005   4.114  18.329
 7369SOL    HW233987   0.088   4.093  18.454
 7370SOL     OW33988   2.203   2.624  15.492
 7370SOL    HW133989   2.200   2.590  15.582
 7370SOL    HW233990   2.134   2.578  15.446
 7371SOL     OW33991   1.115   2.292   3.331
 7371SOL    HW133992   1.067   2.217   3.294
 7371SOL    HW233993   1.058   2.325   3.400
 7372SOL     OW33994   2.648   1.306  16.155
 7372SOL    HW133995   2.701   1.384  16.138
 7372SOL    HW233996   2.567   1.320  16.105
 7373SOL     OW33997   2.799   1.576  16.175
 7373SOL    HW133998   2.801   1.622  16.091
 7373SOL    HW233999   2.816   1.644  16.240
 7374SOL     OW34000   3.898   0.157   4.353
 7374SOL    HW134001   3.964   0.212   4.394
 7374SOL    HW234002   3.887   0.195   4.265
 7375SOL     OW34003   3.041   0.519   4.483
 7375SOL    HW134004   3.099   0.582   4.440
 7375SOL    HW234005   2.960   0.566   4.496
 7376SOL     OW34006   2.459   0.715   5.994
 7376SOL    HW134007   2.440   0.764   6.074
 7376SOL    HW234008   2.492   0.630   6.025
 7377SOL     OW34009   0.466   1.968  17.792
 7377SOL    HW134010   0.469   1.880  17.831
 7377SOL    HW234011   0.540   2.014  17.833
 7378SOL     OW34012   1.513   3.608   6.322
 7378SOL    HW134013   1.519   3.690   6.273
 7378SOL    HW234014   1.601   3.593   6.356
 7379SOL     OW34015   1.427   2.760  21.077
 7379SOL    HW134016   1.335   2.784  21.088
 7379SOL    HW234017   1.458   2.815  21.005
 7380SOL     OW34018   4.380   1.221   5.371
 7380SOL    HW134019   4.384   1.137   5.417
 7380SOL    HW234020   4.326   1.277   5.426
 7381SOL     OW34021   1.176   3.785  18.091
 7381SOL    HW134022   1.209   3.776  18.002
 7381SOL    HW234023   1.089   3.824  18.081
 7382SOL     OW34024   2.636   1.712  16.396
 7382SOL    HW134025   2.587   1.741  16.319
 7382SOL    HW234026   2.620   1.618  16.401
 7383SOL     OW34027   0.358   0.980   0.761
 7383SOL    HW134028   0.288   0.920   0.738
 7383SOL    HW234029   0.364   1.040   0.686
 7384SOL     OW34030   3.867   4.514  14.935
 7384SOL    HW134031   3.937   4.546  14.992
 7384SOL    HW234032   3.815   4.592  14.915
 7385SOL     OW34033   0.604   2.329   2.926
 7385SOL    HW134034   0.673   2.369   2.872
 7385SOL    HW234035   0.581   2.249   2.879
 7386SOL     OW34036   4.267   3.162  20.796
 7386SOL    HW134037   4.339   3.152  20.858
 7386SOL    HW234038   4.266   3.080  20.746
 7387SOL     OW34039   1.236   2.646  19.218
 7387SOL    HW134040   1.230   2.662  19.124
 7387SOL    HW234041   1.255   2.732  19.256
 7388SOL     OW34042   2.046   0.800  18.363
 7388SOL    HW134043   1.964   0.753  18.352
 7388SOL    HW234044   2.110   0.732  18.385
 7389SOL     OW34045   2.850   0.300  15.622
 7389SOL    HW134046   2.884   0.387  15.600
 7389SOL    HW234047   2.804   0.313  15.705
 7390SOL     OW34048   2.644   4.003  18.584
 7390SOL    HW134049   2.716   4.037  18.531
 7390SOL    HW234050   2.567   4.013  18.529
 7391SOL     OW34051   2.570   0.367   4.710
 7391SOL    HW134052   2.614   0.317   4.642
 7391SOL    HW234053   2.612   0.452   4.708
 7392SOL     OW34054   1.799   4.632   5.210
 7392SOL    HW134055   1.728   4.694   5.202
 7392SOL    HW234056   1.876   4.685   5.231
 7393SOL     OW34057   4.695   2.115  16.648
 7393SOL    HW134058   4.690   2.046  16.582
 7393SOL    HW234059   4.623   2.174  16.626
 7394SOL     OW34060   4.758   2.128   4.092
 7394SOL    HW134061   4.694   2.175   4.146
 7394SOL    HW234062   4.759   2.176   4.009
 7395SOL     OW34063   1.473   0.338   2.188
 7395SOL    HW134064   1.565   0.349   2.165
 7395SOL    HW234065   1.437   0.285   2.118
 7396SOL     OW34066   4.579   4.025   5.039
 7396SOL    HW134067   4.521   4.055   4.970
 7396SOL    HW234068   4.652   3.983   4.993
 7397SOL     OW34069   2.246   2.237  11.572
 7397SOL    HW134070   2.316   2.270  11.517
 7397SOL    HW234071   2.277   2.250  11.662
 7398SOL     OW34072   4.268   2.076  15.919
 7398SOL    HW134073   4.288   2.123  16.000
 7398SOL    HW234074   4.199   2.014  15.943
 7399SOL     OW34075   3.065   0.920   6.170
 7399SOL    HW134076   2.985   0.870   6.153
 7399SOL    HW234077   3.131   0.879   6.114
 7400SOL     OW34078   2.773   3.517  20.151
 7400SOL    HW134079   2.729   3.558  20.225
 7400SOL    HW234080   2.859   3.559  20.147
 7401SOL     OW34081   3.789   4.133   3.050
 7401SOL    HW134082   3.800   4.178   2.966
 7401SOL    HW234083   3.830   4.191   3.113
 7402SOL     OW34084   4.424   1.268   9.055
 7402SOL    HW134085   4.496   1.317   9.015
 7402SOL    HW234086   4.380   1.226   8.982
 7403SOL     OW34087   2.372   0.849  18.198
 7403SOL    HW134088   2.283   0.886  18.198
 7403SOL    HW234089   2.426   0.919  18.160
 7404SOL     OW34090   0.292   3.365  20.058
 7404SOL    HW134091   0.282   3.453  20.096
 7404SOL    HW234092   0.260   3.374  19.968
 7405SOL     OW34093   0.597   2.887   4.684
 7405SOL    HW134094   0.589   2.981   4.703
 7405SOL    HW234095   0.522   2.848   4.729
 7406SOL     OW34096   3.650   1.797  18.626
 7406SOL    HW134097   3.702   1.872  18.598
 7406SOL    HW234098   3.709   1.722  18.617
 7407SOL     OW34099   1.964   2.655  18.373
 7407SOL    HW134100   2.059   2.664  18.387
 7407SOL    HW234101   1.945   2.719  18.305
 7408SOL     OW34102   2.978   2.647   8.023
 7408SOL    HW134103   2.883   2.652   8.033
 7408SOL    HW234104   3.003   2.568   8.072
 7409SOL     OW34105   3.095   2.803   2.495
 7409SOL    HW134106   3.000   2.799   2.487
 7409SOL    HW234107   3.121   2.875   2.437
 7410SOL     OW34108   1.740   0.306  18.819
 7410SOL    HW134109   1.797   0.329  18.746
 7410SOL    HW234110   1.702   0.221  18.794
 7411SOL     OW34111   3.513   4.051   0.217
 7411SOL    HW134112   3.470   4.136   0.215
 7411SOL    HW234113   3.541   4.035   0.127
 7412SOL     OW34114   0.792   3.192  16.115
 7412SOL    HW134115   0.884   3.206  16.092
 7412SOL    HW234116   0.760   3.130  16.049
 7413SOL     OW34117   0.378   4.204   1.796
 7413SOL    HW134118   0.342   4.119   1.822
 7413SOL    HW234119   0.307   4.266   1.808
 7414SOL     OW34120   2.966   1.098   4.757
 7414SOL    HW134121   2.982   1.183   4.716
 7414SOL    HW234122   2.984   1.111   4.849
 7415SOL     OW34123   4.168   1.764  13.892
 7415SOL    HW134124   4.190   1.849  13.854
 7415SOL    HW234125   4.243   1.744  13.949
 7416SOL     OW34126   3.067   1.244   0.187
 7416SOL    HW134127   3.155   1.217   0.212
 7416SOL    HW234128   3.018   1.162   0.180
 7417SOL     OW34129   2.131   3.794   0.115
 7417SOL    HW134130   2.216   3.750   0.105
 7417SOL    HW234131   2.071   3.741   0.063
 7418SOL     OW34132   0.520   2.308  18.228
 7418SOL    HW134133   0.451   2.370  18.255
 7418SOL    HW234134   0.485   2.268  18.148
 7419SOL     OW34135   4.708   4.323  16.005
 7419SOL    HW134136   4.778   4.345  16.067
 7419SOL    HW234137   4.627   4.340  16.054
 7420SOL     OW34138   0.172   0.958   6.012
 7420SOL    HW134139   0.099   0.898   5.992
 7420SOL    HW234140   0.186   1.005   5.930
 7421SOL     OW34141   2.219   4.246   0.822
 7421SOL    HW134142   2.252   4.179   0.881
 7421SOL    HW234143   2.234   4.211   0.735
 7422SOL     OW34144   0.005   0.377  12.428
 7422SOL    HW134145   4.772   0.440  12.495
 7422SOL    HW234146   4.781   0.291  12.468
 7423SOL     OW34147   3.194   3.455  16.282
 7423SOL    HW134148   3.121   3.423  16.229
 7423SOL    HW234149   3.261   3.388  16.272
 7424SOL     OW34150   4.366   2.712   3.504
 7424SOL    HW134151   4.308   2.666   3.565
 7424SOL    HW234152   4.443   2.657   3.497
 7425SOL     OW34153   3.015   3.056   2.016
 7425SOL    HW134154   3.033   3.108   1.937
 7425SOL    HW234155   2.977   3.119   2.077
 7426SOL     OW34156   1.240   1.651  16.495
 7426SOL    HW134157   1.244   1.744  16.517
 7426SOL    HW234158   1.189   1.647  16.414
 7427SOL     OW34159   4.604   3.962   4.213
 7427SOL    HW134160   4.567   3.890   4.265
 7427SOL    HW234161   4.696   3.966   4.239
 7428SOL     OW34162   1.279   1.088  16.529
 7428SOL    HW134163   1.353   1.143  16.556
 7428SOL    HW234164   1.268   1.105  16.436
 7429SOL     OW34165   1.520   0.119   0.386
 7429SOL    HW134166   1.580   0.051   0.416
 7429SOL    HW234167   1.562   0.155   0.308
 7430SOL     OW34168   1.071   3.697   2.338
 7430SOL    HW134169   1.136   3.630   2.360
 7430SOL    HW234170   0.987   3.651   2.339
 7431SOL     OW34171   0.368   1.729  20.779
 7431SOL    HW134172   0.341   1.640  20.755
 7431SOL    HW234173   0.440   1.749  20.719
 7432SOL     OW34174   3.643   4.155   4.902
 7432SOL    HW134175   3.559   4.113   4.917
 7432SOL    HW234176   3.704   4.083   4.890
 7433SOL     OW34177   3.095   4.257  17.440
 7433SOL    HW134178   3.147   4.311  17.380
 7433SOL    HW234179   3.005   4.271  17.412
 7434SOL     OW34180   4.357   0.774  15.250
 7434SOL    HW134181   4.402   0.760  15.167
 7434SOL    HW234182   4.415   0.737  15.316
 7435SOL     OW34183   2.482   3.519   8.803
 7435SOL    HW134184   2.485   3.582   8.875
 7435SOL    HW234185   2.564   3.470   8.810
 7436SOL     OW34186   4.027   3.122  19.840
 7436SOL    HW134187   3.933   3.123  19.857
 7436SOL    HW234188   4.054   3.213  19.854
 7437SOL     OW34189   1.790   2.880   5.080
 7437SOL    HW134190   1.779   2.873   5.174
 7437SOL    HW234191   1.797   2.789   5.049
 7438SOL     OW34192   2.451   0.058  18.730
 7438SOL    HW134193   2.513   0.125  18.759
 7438SOL    HW234194   2.457   0.060  18.635
 7439SOL     OW34195   1.492   3.580  19.053
 7439SOL    HW134196   1.414   3.530  19.026
 7439SOL    HW234197   1.563   3.542  19.002
 7440SOL     OW34198   1.117   4.459  20.165
 7440SOL    HW134199   1.209   4.483  20.174
 7440SOL    HW234200   1.076   4.536  20.125
 7441SOL     OW34201   2.225   4.129   3.484
 7441SOL    HW134202   2.218   4.044   3.529
 7441SOL    HW234203   2.270   4.109   3.402
 7442SOL     OW34204   0.289   4.427  20.668
 7442SOL    HW134205   0.320   4.338  20.653
 7442SOL    HW234206   0.333   4.453  20.750
 7443SOL     OW34207   4.360   0.513   3.872
 7443SOL    HW134208   4.271   0.546   3.886
 7443SOL    HW234209   4.349   0.439   3.812
 7444SOL     OW34210   2.740   3.160  17.302
 7444SOL    HW134211   2.670   3.094  17.307
 7444SOL    HW234212   2.818   3.113  17.330
 7445SOL     OW34213   0.701   1.646   0.970
 7445SOL    HW134214   0.772   1.705   0.944
 7445SOL    HW234215   0.727   1.561   0.935
 7446SOL     OW34216   2.222   2.187   3.029
 7446SOL    HW134217   2.142   2.192   3.082
 7446SOL    HW234218   2.227   2.274   2.988
 7447SOL     OW34219   1.073   0.013  16.228
 7447SOL    HW134220   1.092   0.070  16.302
 7447SOL    HW234221   0.982   4.780  16.241
 7448SOL     OW34222   2.987   2.207   3.836
 7448SOL    HW134223   2.966   2.188   3.745
 7448SOL    HW234224   2.925   2.275   3.861
 7449SOL     OW34225   1.118   3.146   2.029
 7449SOL    HW134226   1.078   3.172   1.946
 7449SOL    HW234227   1.211   3.166   2.017
 7450SOL     OW34228   2.667   1.342   2.632
 7450SOL    HW134229   2.743   1.297   2.669
 7450SOL    HW234230   2.597   1.327   2.695
 7451SOL     OW34231   2.231   4.425   5.896
 7451SOL    HW134232   2.195   4.499   5.848
 7451SOL    HW234233   2.269   4.369   5.829
 7452SOL     OW34234   1.670   3.380  18.971
 7452SOL    HW134235   1.665   3.304  18.915
 7452SOL    HW234236   1.661   3.346  19.060
 7453SOL     OW34237   1.357   0.653   3.133
 7453SOL    HW134238   1.285   0.707   3.100
 7453SOL    HW234239   1.420   0.649   3.060
 7454SOL     OW34240   0.633   4.776  17.130
 7454SOL    HW134241   0.576   4.753  17.203
 7454SOL    HW234242   0.711   0.020  17.171
 7455SOL     OW34243   3.247   0.132  17.691
 7455SOL    HW134244   3.302   0.062  17.656
 7455SOL    HW234245   3.256   0.125  17.786
 7456SOL     OW34246   2.160   3.813  16.897
 7456SOL    HW134247   2.181   3.829  16.989
 7456SOL    HW234248   2.081   3.864  16.881
 7457SOL     OW34249   2.682   3.746  18.117
 7457SOL    HW134250   2.731   3.664  18.119
 7457SOL    HW234251   2.605   3.727  18.063
 7458SOL     OW34252   4.668   2.671  19.057
 7458SOL    HW134253   4.611   2.675  18.980
 7458SOL    HW234254   4.699   2.760  19.068
 7459SOL     OW34255   4.234   4.330  18.790
 7459SOL    HW134256   4.172   4.301  18.723
 7459SOL    HW234257   4.311   4.275  18.777
 7460SOL     OW34258   0.434   2.909   1.427
 7460SOL    HW134259   0.366   2.855   1.387
 7460SOL    HW234260   0.387   2.983   1.465
 7461SOL     OW34261   0.591   0.242  16.959
 7461SOL    HW134262   0.616   0.218  16.870
 7461SOL    HW234263   0.608   0.164  17.012
 7462SOL     OW34264   3.041   1.692  18.831
 7462SOL    HW134265   3.020   1.781  18.802
 7462SOL    HW234266   3.117   1.703  18.889
 7463SOL     OW34267   2.729   2.158  20.086
 7463SOL    HW134268   2.678   2.080  20.106
 7463SOL    HW234269   2.820   2.129  20.091
 7464SOL     OW34270   3.009   0.808   1.242
 7464SOL    HW134271   3.074   0.738   1.250
 7464SOL    HW234272   3.056   0.887   1.270
 7465SOL     OW34273   4.265   2.997  20.544
 7465SOL    HW134274   4.240   2.943  20.469
 7465SOL    HW234275   4.299   2.935  20.608
 7466SOL     OW34276   4.730   3.726  12.922
 7466SOL    HW134277   4.635   3.742  12.916
 7466SOL    HW234278   4.745   3.647  12.870
 7467SOL     OW34279   2.542   4.497  16.172
 7467SOL    HW134280   2.469   4.482  16.112
 7467SOL    HW234281   2.520   4.579  16.217
 7468SOL     OW34282   4.590   4.720  18.503
 7468SOL    HW134283   4.622   4.719  18.593
 7468SOL    HW234284   4.645   4.657  18.456
 7469SOL     OW34285   2.046   2.095  19.879
 7469SOL    HW134286   2.067   2.134  19.794
 7469SOL    HW234287   1.977   2.031  19.859
 7470SOL     OW34288   0.286   1.984   0.437
 7470SOL    HW134289   0.263   1.966   0.346
 7470SOL    HW234290   0.203   2.003   0.480
 7471SOL     OW34291   3.883   1.844  16.499
 7471SOL    HW134292   3.916   1.796  16.423
 7471SOL    HW234293   3.916   1.933  16.489
 7472SOL     OW34294   4.131   1.856  15.941
 7472SOL    HW134295   4.049   1.808  15.923
 7472SOL    HW234296   4.188   1.833  15.868
 7473SOL     OW34297   2.222   2.147  16.247
 7473SOL    HW134298   2.200   2.118  16.335
 7473SOL    HW234299   2.244   2.240  16.257
 7474SOL     OW34300   4.064   1.981  14.895
 7474SOL    HW134301   4.157   2.001  14.901
 7474SOL    HW234302   4.049   1.960  14.803
 7475SOL     OW34303   2.766   3.209   3.374
 7475SOL    HW134304   2.801   3.296   3.391
 7475SOL    HW234305   2.843   3.153   3.368
 7476SOL     OW34306   1.485   1.170   5.102
 7476SOL    HW134307   1.434   1.110   5.156
 7476SOL    HW234308   1.507   1.242   5.160
 7477SOL     OW34309   2.637   1.288   3.614
 7477SOL    HW134310   2.669   1.308   3.526
 7477SOL    HW234311   2.590   1.204   3.604
 7478SOL     OW34312   2.318   1.266   8.922
 7478SOL    HW134313   2.399   1.262   8.972
 7478SOL    HW234314   2.285   1.355   8.938
 7479SOL     OW34315   1.221   0.293   8.666
 7479SOL    HW134316   1.220   0.335   8.580
 7479SOL    HW234317   1.295   0.334   8.711
 7480SOL     OW34318   1.246   1.188   0.178
 7480SOL    HW134319   1.259   1.282   0.190
 7480SOL    HW234320   1.164   1.182   0.128
 7481SOL     OW34321   2.392   4.302  18.374
 7481SOL    HW134322   2.297   4.294  18.383
 7481SOL    HW234323   2.412   4.254  18.294
 7482SOL     OW34324   2.692   4.259  14.998
 7482SOL    HW134325   2.718   4.264  14.906
 7482SOL    HW234326   2.606   4.301  15.001
 7483SOL     OW34327   4.322   2.616   2.723
 7483SOL    HW134328   4.304   2.602   2.630
 7483SOL    HW234329   4.259   2.683   2.750
 7484SOL     OW34330   4.204   1.752   5.135
 7484SOL    HW134331   4.127   1.697   5.153
 7484SOL    HW234332   4.234   1.724   5.049
 7485SOL     OW34333   1.782   1.162  21.145
 7485SOL    HW134334   1.697   1.197  21.117
 7485SOL    HW234335   1.783   1.176  21.240
 7486SOL     OW34336   3.907   3.765   0.973
 7486SOL    HW134337   3.871   3.846   0.937
 7486SOL    HW234338   3.830   3.716   1.004
 7487SOL     OW34339   1.953   2.708  16.531
 7487SOL    HW134340   1.904   2.694  16.612
 7487SOL    HW234341   2.039   2.738  16.560
 7488SOL     OW34342   0.847   3.262   2.849
 7488SOL    HW134343   0.862   3.256   2.943
 7488SOL    HW234344   0.854   3.355   2.829
 7489SOL     OW34345   2.204   0.288   3.559
 7489SOL    HW134346   2.257   0.258   3.633
 7489SOL    HW234347   2.119   0.309   3.598
 7490SOL     OW34348   4.739   2.303  18.963
 7490SOL    HW134349   0.032   2.307  18.921
 7490SOL    HW234350   4.686   2.368  18.916
 7491SOL     OW34351   0.135   2.857  18.103
 7491SOL    HW134352   0.192   2.849  18.180
 7491SOL    HW234353   0.170   2.932  18.055
 7492SOL     OW34354   2.403   4.687  20.521
 7492SOL    HW134355   2.368   4.761  20.571
 7492SOL    HW234356   2.330   4.626  20.515
 7493SOL     OW34357   1.795   0.338   0.402
 7493SOL    HW134358   1.759   0.418   0.439
 7493SOL    HW234359   1.878   0.326   0.448
 7494SOL     OW34360   4.040   3.435   7.075
 7494SOL    HW134361   4.082   3.521   7.083
 7494SOL    HW234362   3.954   3.454   7.039
 7495SOL     OW34363   2.668   0.331   6.389
 7495SOL    HW134364   2.655   0.345   6.483
 7495SOL    HW234365   2.754   0.289   6.383
 7496SOL     OW34366   4.766   0.895  16.379
 7496SOL    HW134367   4.712   0.963  16.340
 7496SOL    HW234368   4.731   0.813  16.342
 7497SOL     OW34369   0.532   2.583   1.669
 7497SOL    HW134370   0.450   2.585   1.621
 7497SOL    HW234371   0.579   2.507   1.634
 7498SOL     OW34372   3.981   2.126   3.397
 7498SOL    HW134373   4.044   2.153   3.331
 7498SOL    HW234374   4.006   2.036   3.418
 7499SOL     OW34375   0.483   2.065  16.916
 7499SOL    HW134376   0.473   1.978  16.876
 7499SOL    HW234377   0.434   2.123  16.857
 7500SOL     OW34378   1.248   2.725   1.543
 7500SOL    HW134379   1.233   2.818   1.530
 7500SOL    HW234380   1.282   2.718   1.632
 7501SOL     OW34381   1.948   1.552  15.179
 7501SOL    HW134382   1.922   1.477  15.125
 7501SOL    HW234383   1.968   1.513  15.264
 7502SOL     OW34384   1.269   1.428   6.255
 7502SOL    HW134385   1.281   1.504   6.312
 7502SOL    HW234386   1.243   1.465   6.171
 7503SOL     OW34387   3.487   1.389  20.508
 7503SOL    HW134388   3.560   1.411  20.565
 7503SOL    HW234389   3.478   1.294  20.516
 7504SOL     OW34390   1.635   0.005   1.374
 7504SOL    HW134391   1.727   4.783   1.397
 7504SOL    HW234392   1.639   0.054   1.291
 7505SOL     OW34393   4.397   1.149   7.535
 7505SOL    HW134394   4.416   1.070   7.586
 7505SOL    HW234395   4.309   1.175   7.562
 7506SOL     OW34396   3.083   3.082  18.723
 7506SOL    HW134397   3.093   2.987  18.730
 7506SOL    HW234398   3.032   3.107  18.800
 7507SOL     OW34399   2.522   4.088   3.199
 7507SOL    HW134400   2.601   4.098   3.253
 7507SOL    HW234401   2.479   4.009   3.233
 7508SOL     OW34402   2.852   2.036  16.089
 7508SOL    HW134403   2.847   2.129  16.070
 7508SOL    HW234404   2.863   2.031  16.184
 7509SOL     OW34405   3.833   0.903  18.017
 7509SOL    HW134406   3.844   0.818  17.974
 7509SOL    HW234407   3.739   0.911  18.029
 7510SOL     OW34408   0.193   2.713   4.931
 7510SOL    HW134409   0.263   2.753   4.981
 7510SOL    HW234410   0.192   2.760   4.848
 7511SOL     OW34411   3.535   1.901   2.754
 7511SOL    HW134412   3.516   1.836   2.686
 7511SOL    HW234413   3.451   1.920   2.794
 7512SOL     OW34414   4.408   3.639  19.745
 7512SOL    HW134415   4.457   3.718  19.767
 7512SOL    HW234416   4.322   3.653  19.784
 7513SOL     OW34417   2.890   2.852  13.554
 7513SOL    HW134418   2.861   2.766  13.584
 7513SOL    HW234419   2.984   2.854  13.572
 7514SOL     OW34420   4.695   0.054   7.356
 7514SOL    HW134421   4.650   0.032   7.274
 7514SOL    HW234422   4.705   4.764   7.401
 7515SOL     OW34423   3.421   3.269   5.750
 7515SOL    HW134424   3.350   3.205   5.758
 7515SOL    HW234425   3.496   3.228   5.793
 7516SOL     OW34426   4.150   3.327   1.256
 7516SOL    HW134427   4.200   3.318   1.337
 7516SOL    HW234428   4.059   3.335   1.286
 7517SOL     OW34429   3.401   3.877  17.267
 7517SOL    HW134430   3.309   3.889  17.244
 7517SOL    HW234431   3.421   3.952  17.323
 7518SOL     OW34432   1.823   2.166  21.152
 7518SOL    HW134433   1.861   2.079  21.142
 7518SOL    HW234434   1.731   2.150  21.174
 7519SOL     OW34435   1.510   2.740   0.351
 7519SOL    HW134436   1.428   2.702   0.319
 7519SOL    HW234437   1.570   2.734   0.276
 7520SOL     OW34438   0.918   4.479  17.676
 7520SOL    HW134439   1.003   4.446  17.650
 7520SOL    HW234440   0.921   4.573  17.656
 7521SOL     OW34441   3.660   3.445  17.061
 7521SOL    HW134442   3.721   3.439  16.987
 7521SOL    HW234443   3.623   3.533  17.054
 7522SOL     OW34444   2.939   3.963  15.453
 7522SOL    HW134445   2.998   4.004  15.517
 7522SOL    HW234446   2.902   4.037  15.405
 7523SOL     OW34447   0.012   2.535   4.996
 7523SOL    HW134448   0.006   2.475   4.922
 7523SOL    HW234449   0.080   2.598   4.971
 7524SOL     OW34450   4.045   0.910   8.442
 7524SOL    HW134451   3.974   0.849   8.420
 7524SOL    HW234452   4.113   0.892   8.377
 7525SOL     OW34453   1.286   4.671   2.787
 7525SOL    HW134454   1.202   4.636   2.756
 7525SOL    HW234455   1.288   4.761   2.757
 7526SOL     OW34456   0.062   1.558  20.605
 7526SOL    HW134457   0.071   1.652  20.589
 7526SOL    HW234458   0.138   1.536  20.658
 7527SOL     OW34459   3.892   3.664   4.333
 7527SOL    HW134460   3.888   3.569   4.324
 7527SOL    HW234461   3.842   3.682   4.413
 7528SOL     OW34462   4.791   1.155   6.477
 7528SOL    HW134463   4.713   1.200   6.444
 7528SOL    HW234464   0.024   1.204   6.555
 7529SOL     OW34465   2.489   2.475  20.691
 7529SOL    HW134466   2.476   2.540  20.622
 7529SOL    HW234467   2.404   2.469  20.735
 7530SOL     OW34468   4.280   3.541  15.282
 7530SOL    HW134469   4.290   3.615  15.343
 7530SOL    HW234470   4.191   3.549  15.249
 7531SOL     OW34471   1.506   1.101   2.986
 7531SOL    HW134472   1.443   1.077   3.054
 7531SOL    HW234473   1.557   1.022   2.971
 7532SOL     OW34474   0.908   0.843   3.009
 7532SOL    HW134475   0.869   0.841   3.096
 7532SOL    HW234476   1.001   0.829   3.025
 7533SOL     OW34477   3.565   0.871  19.983
 7533SOL    HW134478   3.475   0.896  19.961
 7533SOL    HW234479   3.583   0.795  19.928
 7534SOL     OW34480   0.323   4.020   6.316
 7534SOL    HW134481   0.370   4.101   6.301
 7534SOL    HW234482   0.302   4.022   6.410
 7535SOL     OW34483   1.694   2.920   0.858
 7535SOL    HW134484   1.782   2.952   0.838
 7535SOL    HW234485   1.636   2.973   0.803
 7536SOL     OW34486   4.493   2.261   0.212
 7536SOL    HW134487   4.404   2.291   0.234
 7536SOL    HW234488   4.485   2.222   0.125
 7537SOL     OW34489   1.961   4.360   5.645
 7537SOL    HW134490   1.912   4.431   5.603
 7537SOL    HW234491   1.897   4.317   5.701
 7538SOL     OW34492   1.126   4.594   7.981
 7538SOL    HW134493   1.088   4.594   7.893
 7538SOL    HW234494   1.093   4.515   8.022
 7539SOL     OW34495   4.564   4.326   3.511
 7539SOL    HW134496   4.558   4.373   3.594
 7539SOL    HW234497   4.474   4.299   3.491
 7540SOL     OW34498   0.053   1.859   4.663
 7540SOL    HW134499   4.757   1.832   4.682
 7540SOL    HW234500   0.106   1.817   4.731
 7541SOL     OW34501   3.145   2.686   7.355
 7541SOL    HW134502   3.149   2.603   7.306
 7541SOL    HW234503   3.227   2.689   7.403
 7542SOL     OW34504   4.263   3.971  21.030
 7542SOL    HW134505   4.343   4.002  21.074
 7542SOL    HW234506   4.235   3.896  21.082
 7543SOL     OW34507   4.015   1.041  18.867
 7543SOL    HW134508   4.082   1.110  18.865
 7543SOL    HW234509   4.042   0.984  18.938
 7544SOL     OW34510   0.767   3.887  18.961
 7544SOL    HW134511   0.852   3.917  18.928
 7544SOL    HW234512   0.727   3.966  18.998
 7545SOL     OW34513   3.970   2.151  15.778
 7545SOL    HW134514   3.988   2.238  15.744
 7545SOL    HW234515   4.043   2.097  15.748
 7546SOL     OW34516   2.152   1.081   2.413
 7546SOL    HW134517   2.136   1.053   2.322
 7546SOL    HW234518   2.230   1.136   2.408
 7547SOL     OW34519   4.482   2.707   4.045
 7547SOL    HW134520   4.528   2.642   3.992
 7547SOL    HW234521   4.427   2.755   3.983
 7548SOL     OW34522   4.685   4.589   0.599
 7548SOL    HW134523   4.737   4.666   0.579
 7548SOL    HW234524   4.623   4.618   0.666
 7549SOL     OW34525   4.338   1.957   5.570
 7549SOL    HW134526   4.395   1.891   5.611
 7549SOL    HW234527   4.371   2.041   5.601
 7550SOL     OW34528   0.516   3.767  17.586
 7550SOL    HW134529   0.483   3.846  17.630
 7550SOL    HW234530   0.467   3.695  17.625
 7551SOL     OW34531   3.826   1.345  19.494
 7551SOL    HW134532   3.777   1.273  19.533
 7551SOL    HW234533   3.775   1.423  19.513
 7552SOL     OW34534   3.282   4.081   3.729
 7552SOL    HW134535   3.370   4.119   3.732
 7552SOL    HW234536   3.223   4.156   3.723
 7553SOL     OW34537   1.496   0.002  19.213
 7553SOL    HW134538   1.550   4.740  19.157
 7553SOL    HW234539   1.413   0.011  19.165
 7554SOL     OW34540   4.743   1.831  20.784
 7554SOL    HW134541   4.649   1.813  20.790
 7554SOL    HW234542   4.762   1.822  20.690
 7555SOL     OW34543   2.966   3.374  16.126
 7555SOL    HW134544   2.991   3.384  16.034
 7555SOL    HW234545   2.997   3.286  16.149
 7556SOL     OW34546   4.769   3.541   6.786
 7556SOL    HW134547   0.050   3.587   6.749
 7556SOL    HW234548   4.768   3.568   6.878
 7557SOL     OW34549   2.710   4.052   2.450
 7557SOL    HW134550   2.647   4.055   2.522
 7557SOL    HW234551   2.792   4.023   2.490
 7558SOL     OW34552   0.916   0.200  19.712
 7558SOL    HW134553   0.932   0.193  19.806
 7558SOL    HW234554   0.879   0.288  19.700
 7559SOL     OW34555   0.851   4.763   1.396
 7559SOL    HW134556   0.944   4.746   1.378
 7559SOL    HW234557   0.811   4.676   1.401
 7560SOL     OW34558   0.679   4.505   5.111
 7560SOL    HW134559   0.736   4.437   5.073
 7560SOL    HW234560   0.682   4.577   5.048
 7561SOL     OW34561   4.404   4.402  18.532
 7561SOL    HW134562   4.416   4.325  18.586
 7561SOL    HW234563   4.493   4.432  18.512
 7562SOL     OW34564   1.125   1.437  12.076
 7562SOL    HW134565   1.078   1.354  12.087
 7562SOL    HW234566   1.193   1.418  12.012
 7563SOL     OW34567   2.343   3.244   9.137
 7563SOL    HW134568   2.311   3.264   9.049
 7563SOL    HW234569   2.419   3.302   9.149
 7564SOL     OW34570   1.240   2.965   0.284
 7564SOL    HW134571   1.256   2.872   0.300
 7564SOL    HW234572   1.152   2.968   0.248
 7565SOL     OW34573   3.401   0.171  18.285
 7565SOL    HW134574   3.330   0.108  18.301
 7565SOL    HW234575   3.411   0.172  18.190
 7566SOL     OW34576   1.024   1.623  20.682
 7566SOL    HW134577   1.102   1.620  20.626
 7566SOL    HW234578   1.003   1.716  20.689
 7567SOL     OW34579   2.116   2.465  15.709
 7567SOL    HW134580   2.185   2.407  15.676
 7567SOL    HW234581   2.035   2.426  15.678
 7568SOL     OW34582   2.997   4.585   7.337
 7568SOL    HW134583   3.051   4.664   7.330
 7568SOL    HW234584   2.969   4.567   7.247
 7569SOL     OW34585   2.300   3.673   5.453
 7569SOL    HW134586   2.363   3.605   5.479
 7569SOL    HW234587   2.258   3.637   5.374
 7570SOL     OW34588   3.952   0.672  16.096
 7570SOL    HW134589   3.888   0.618  16.050
 7570SOL    HW234590   3.987   0.730  16.028
 7571SOL     OW34591   2.151   0.214   5.472
 7571SOL    HW134592   2.195   0.132   5.495
 7571SOL    HW234593   2.125   0.251   5.556
 7572SOL     OW34594   2.598   1.907   2.402
 7572SOL    HW134595   2.543   1.874   2.473
 7572SOL    HW234596   2.657   1.969   2.445
 7573SOL     OW34597   1.935   3.635   3.962
 7573SOL    HW134598   1.904   3.561   4.015
 7573SOL    HW234599   1.860   3.658   3.908
 7574SOL     OW34600   4.477   1.347  18.456
 7574SOL    HW134601   4.434   1.400  18.390
 7574SOL    HW234602   4.560   1.321  18.416
 7575SOL     OW34603   4.040   0.645   5.878
 7575SOL    HW134604   4.056   0.730   5.836
 7575SOL    HW234605   4.082   0.653   5.964
 7576SOL     OW34606   3.042   3.967  15.939
 7576SOL    HW134607   3.003   4.010  16.014
 7576SOL    HW234608   3.134   3.994  15.941
 7577SOL     OW34609   0.326   0.518  16.670
 7577SOL    HW134610   0.421   0.508  16.659
 7577SOL    HW234611   0.313   0.523  16.764
 7578SOL     OW34612   3.493   2.748   0.110
 7578SOL    HW134613   3.509   2.774   0.019
 7578SOL    HW234614   3.551   2.674   0.124
 7579SOL     OW34615   3.265   4.508   5.723
 7579SOL    HW134616   3.309   4.460   5.793
 7579SOL    HW234617   3.174   4.516   5.753
 7580SOL     OW34618   2.960   2.957   5.282
 7580SOL    HW134619   2.891   3.017   5.254
 7580SOL    HW234620   3.026   3.013   5.323
 7581SOL     OW34621   4.772   2.237   5.125
 7581SOL    HW134622   4.699   2.240   5.063
 7581SOL    HW234623   0.056   2.254   5.071
 7582SOL     OW34624   1.448   2.682   0.655
 7582SOL    HW134625   1.447   2.729   0.571
 7582SOL    HW234626   1.368   2.710   0.699
 7583SOL     OW34627   3.439   3.380   2.116
 7583SOL    HW134628   3.496   3.331   2.175
 7583SOL    HW234629   3.351   3.369   2.153
 7584SOL     OW34630   0.551   1.515  19.571
 7584SOL    HW134631   0.574   1.445  19.632
 7584SOL    HW234632   0.503   1.471  19.501
 7585SOL     OW34633   4.378   0.620   0.838
 7585SOL    HW134634   4.363   0.590   0.928
 7585SOL    HW234635   4.327   0.700   0.831
 7586SOL     OW34636   1.343   2.703  19.947
 7586SOL    HW134637   1.438   2.689  19.939
 7586SOL    HW234638   1.335   2.781  20.002
 7587SOL     OW34639   3.320   1.328   0.488
 7587SOL    HW134640   3.341   1.309   0.579
 7587SOL    HW234641   3.240   1.380   0.492
 7588SOL     OW34642   0.895   4.621   6.642
 7588SOL    HW134643   0.808   4.636   6.677
 7588SOL    HW234644   0.914   4.530   6.663
 7589SOL     OW34645   2.555   0.697  16.066
 7589SOL    HW134646   2.629   0.719  16.010
 7589SOL    HW234647   2.501   0.638  16.013
 7590SOL     OW34648   3.687   4.654   0.587
 7590SOL    HW134649   3.747   4.590   0.549
 7590SOL    HW234650   3.699   4.644   0.682
 7591SOL     OW34651   1.852   1.242   4.268
 7591SOL    HW134652   1.823   1.153   4.248
 7591SOL    HW234653   1.772   1.295   4.265
 7592SOL     OW34654   2.762   1.708   0.375
 7592SOL    HW134655   2.852   1.736   0.363
 7592SOL    HW234656   2.751   1.703   0.470
 7593SOL     OW34657   4.468   3.688  20.076
 7593SOL    HW134658   4.406   3.682  20.148
 7593SOL    HW234659   4.476   3.782  20.059
 7594SOL     OW34660   2.181   0.762  20.183
 7594SOL    HW134661   2.180   0.780  20.089
 7594SOL    HW234662   2.095   0.791  20.214
 7595SOL     OW34663   0.584   0.374   3.839
 7595SOL    HW134664   0.647   0.427   3.888
 7595SOL    HW234665   0.531   0.438   3.791
 7596SOL     OW34666   3.120   4.695  15.549
 7596SOL    HW134667   3.122   4.751  15.626
 7596SOL    HW234668   3.032   4.658  15.547
 7597SOL     OW34669   1.325   1.131  16.890
 7597SOL    HW134670   1.351   1.216  16.927
 7597SOL    HW234671   1.366   1.130  16.803
 7598SOL     OW34672   3.317   2.110  20.918
 7598SOL    HW134673   3.303   2.094  21.011
 7598SOL    HW234674   3.231   2.134  20.884
 7599SOL     OW34675   0.252   1.843  19.461
 7599SOL    HW134676   0.254   1.921  19.405
 7599SOL    HW234677   0.174   1.854  19.515
 7600SOL     OW34678   4.573   1.500  18.666
 7600SOL    HW134679   4.667   1.486  18.679
 7600SOL    HW234680   4.554   1.460  18.581
 7601SOL     OW34681   2.669   0.586  15.724
 7601SOL    HW134682   2.643   0.542  15.643
 7601SOL    HW234683   2.744   0.535  15.756
 7602SOL     OW34684   0.504   3.776   4.662
 7602SOL    HW134685   0.492   3.723   4.582
 7602SOL    HW234686   0.565   3.845   4.636
 7603SOL     OW34687   4.249   1.686   2.830
 7603SOL    HW134688   4.236   1.779   2.811
 7603SOL    HW234689   4.172   1.661   2.881
 7604SOL     OW34690   1.147   3.964  17.658
 7604SOL    HW134691   1.130   4.010  17.741
 7604SOL    HW234692   1.088   3.889  17.660
 7605SOL     OW34693   3.890   3.887   7.516
 7605SOL    HW134694   3.954   3.857   7.581
 7605SOL    HW234695   3.931   3.867   7.431
 7606SOL     OW34696   2.725   1.908  20.574
 7606SOL    HW134697   2.762   1.995  20.589
 7606SOL    HW234698   2.786   1.865  20.514
 7607SOL     OW34699   1.310   4.182   4.719
 7607SOL    HW134700   1.242   4.248   4.707
 7607SOL    HW234701   1.335   4.190   4.811
 7608SOL     OW34702   2.388   1.307   4.892
 7608SOL    HW134703   2.358   1.343   4.976
 7608SOL    HW234704   2.312   1.317   4.834
 7609SOL     OW34705   0.867   4.288   3.509
 7609SOL    HW134706   0.873   4.371   3.556
 7609SOL    HW234707   0.893   4.309   3.419
 7610SOL     OW34708   3.126   0.998   1.504
 7610SOL    HW134709   3.219   0.990   1.525
 7610SOL    HW234710   3.125   1.033   1.415
 7611SOL     OW34711   2.310   1.292   4.360
 7611SOL    HW134712   2.366   1.251   4.425
 7611SOL    HW234713   2.308   1.385   4.384
 7612SOL     OW34714   1.299   2.517   3.358
 7612SOL    HW134715   1.326   2.460   3.430
 7612SOL    HW234716   1.234   2.466   3.310
 7613SOL     OW34717   2.435   4.218  19.277
 7613SOL    HW134718   2.496   4.267  19.221
 7613SOL    HW234719   2.360   4.276  19.289
 7614SOL     OW34720   1.967   2.954   4.392
 7614SOL    HW134721   2.041   2.975   4.335
 7614SOL    HW234722   1.909   2.900   4.338
 7615SOL     OW34723   1.368   3.133  19.940
 7615SOL    HW134724   1.407   3.218  19.920
 7615SOL    HW234725   1.274   3.151  19.949
 7616SOL     OW34726   2.589   2.762   6.694
 7616SOL    HW134727   2.515   2.716   6.656
 7616SOL    HW234728   2.552   2.813   6.767
 7617SOL     OW34729   3.241   3.741   5.141
 7617SOL    HW134730   3.196   3.780   5.216
 7617SOL    HW234731   3.297   3.674   5.180
 7618SOL     OW34732   2.517   3.453  17.551
 7618SOL    HW134733   2.438   3.449  17.496
 7618SOL    HW234734   2.519   3.368  17.596
 7619SOL     OW34735   0.268   2.846   3.163
 7619SOL    HW134736   0.243   2.757   3.185
 7619SOL    HW234737   0.348   2.837   3.110
 7620SOL     OW34738   0.835   2.010   0.360
 7620SOL    HW134739   0.887   2.083   0.328
 7620SOL    HW234740   0.857   1.937   0.302
 7621SOL     OW34741   2.386   1.339  14.427
 7621SOL    HW134742   2.421   1.259  14.466
 7621SOL    HW234743   2.387   1.322  14.332
 7622SOL     OW34744   1.687   1.881   5.494
 7622SOL    HW134745   1.773   1.839   5.503
 7622SOL    HW234746   1.681   1.938   5.571
 7623SOL     OW34747   1.568   1.169  15.563
 7623SOL    HW134748   1.594   1.257  15.537
 7623SOL    HW234749   1.489   1.181  15.615
 7624SOL     OW34750   0.558   3.467  15.434
 7624SOL    HW134751   0.602   3.446  15.517
 7624SOL    HW234752   0.624   3.515  15.384
 7625SOL     OW34753   2.375   3.360  16.911
 7625SOL    HW134754   2.297   3.398  16.951
 7625SOL    HW234755   2.440   3.357  16.981
 7626SOL     OW34756   0.487   2.468  17.668
 7626SOL    HW134757   0.475   2.534  17.600
 7626SOL    HW234758   0.579   2.475  17.693
 7627SOL     OW34759   2.835   0.613  18.422
 7627SOL    HW134760   2.804   0.647  18.506
 7627SOL    HW234761   2.802   0.676  18.358
 7628SOL     OW34762   2.579   2.516  18.166
 7628SOL    HW134763   2.639   2.549  18.099
 7628SOL    HW234764   2.608   2.426  18.181
 7629SOL     OW34765   0.546   4.508   3.605
 7629SOL    HW134766   0.590   4.556   3.675
 7629SOL    HW234767   0.566   4.558   3.526
 7630SOL     OW34768   1.416   3.356  15.260
 7630SOL    HW134769   1.422   3.373  15.167
 7630SOL    HW234770   1.494   3.304  15.281
 7631SOL     OW34771   0.451   1.278  20.112
 7631SOL    HW134772   0.451   1.211  20.043
 7631SOL    HW234773   0.407   1.353  20.071
 7632SOL     OW34774   0.935   2.879  16.929
 7632SOL    HW134775   0.925   2.784  16.941
 7632SOL    HW234776   0.970   2.909  17.013
 7633SOL     OW34777   3.022   2.213   4.476
 7633SOL    HW134778   2.986   2.299   4.453
 7633SOL    HW234779   3.100   2.233   4.528
 7634SOL     OW34780   4.511   4.242   1.531
 7634SOL    HW134781   4.437   4.205   1.483
 7634SOL    HW234782   4.490   4.226   1.623
 7635SOL     OW34783   2.069   1.335   0.072
 7635SOL    HW134784   2.029   1.419   0.048
 7635SOL    HW234785   2.087   1.344   0.166
 7636SOL     OW34786   3.689   0.069   6.344
 7636SOL    HW134787   3.672   0.162   6.359
 7636SOL    HW234788   3.729   0.039   6.425
 7637SOL     OW34789   2.485   3.549   0.530
 7637SOL    HW134790   2.559   3.489   0.521
 7637SOL    HW234791   2.448   3.556   0.442
 7638SOL     OW34792   3.882   0.713   4.039
 7638SOL    HW134793   3.900   0.629   3.997
 7638SOL    HW234794   3.893   0.778   3.968
 7639SOL     OW34795   2.376   0.326  14.635
 7639SOL    HW134796   2.352   0.237  14.664
 7639SOL    HW234797   2.326   0.339  14.555
 7640SOL     OW34798   2.119   3.271   6.436
 7640SOL    HW134799   2.062   3.258   6.512
 7640SOL    HW234800   2.202   3.300   6.473
 7641SOL     OW34801   0.574   2.301  19.205
 7641SOL    HW134802   0.529   2.256  19.276
 7641SOL    HW234803   0.571   2.394  19.231
 7642SOL     OW34804   1.100   1.778   5.919
 7642SOL    HW134805   1.122   1.802   5.829
 7642SOL    HW234806   1.174   1.807   5.971
 7643SOL     OW34807   1.280   1.343  13.662
 7643SOL    HW134808   1.297   1.298  13.745
 7643SOL    HW234809   1.199   1.391  13.677
 7644SOL     OW34810   4.048   2.315   9.198
 7644SOL    HW134811   4.119   2.352   9.145
 7644SOL    HW234812   4.063   2.350   9.286
 7645SOL     OW34813   4.010   4.085  17.683
 7645SOL    HW134814   4.080   4.147  17.661
 7645SOL    HW234815   3.976   4.057  17.598
 7646SOL     OW34816   1.850   1.152  15.752
 7646SOL    HW134817   1.787   1.188  15.815
 7646SOL    HW234818   1.935   1.180  15.784
 7647SOL     OW34819   0.798   3.087   8.731
 7647SOL    HW134820   0.872   3.144   8.752
 7647SOL    HW234821   0.798   3.083   8.635
 7648SOL     OW34822   2.848   3.173   2.203
 7648SOL    HW134823   2.778   3.153   2.141
 7648SOL    HW234824   2.814   3.245   2.255
 7649SOL     OW34825   1.043   3.118   9.845
 7649SOL    HW134826   1.066   3.122   9.752
 7649SOL    HW234827   1.028   3.025   9.862
 7650SOL     OW34828   2.867   1.829  18.318
 7650SOL    HW134829   2.812   1.780  18.258
 7650SOL    HW234830   2.851   1.921  18.295
 7651SOL     OW34831   2.419   1.049  14.317
 7651SOL    HW134832   2.411   1.122  14.256
 7651SOL    HW234833   2.503   1.064  14.361
 7652SOL     OW34834   2.351   4.030   9.084
 7652SOL    HW134835   2.345   4.027   8.989
 7652SOL    HW234836   2.444   4.047   9.102
 7653SOL     OW34837   1.009   4.557   5.228
 7653SOL    HW134838   0.981   4.614   5.300
 7653SOL    HW234839   0.967   4.594   5.150
 7654SOL     OW34840   2.201   3.364   8.945
 7654SOL    HW134841   2.257   3.412   8.885
 7654SOL    HW234842   2.165   3.430   9.003
 7655SOL     OW34843   3.484   4.541   0.033
 7655SOL    HW134844   3.515   4.532  21.215
 7655SOL    HW234845   3.479   4.635   0.048
 7656SOL     OW34846   4.434   0.502  16.624
 7656SOL    HW134847   4.475   0.485  16.709
 7656SOL    HW234848   4.499   0.471  16.560
 7657SOL     OW34849   1.105   2.484  18.154
 7657SOL    HW134850   1.062   2.528  18.228
 7657SOL    HW234851   1.087   2.391  18.168
 7658SOL     OW34852   2.464   0.726   8.428
 7658SOL    HW134853   2.547   0.721   8.380
 7658SOL    HW234854   2.424   0.808   8.399
 7659SOL     OW34855   0.246   1.274   6.018
 7659SOL    HW134856   0.188   1.250   6.090
 7659SOL    HW234857   0.195   1.259   5.939
 7660SOL     OW34858   4.612   3.305   8.000
 7660SOL    HW134859   4.650   3.221   7.972
 7660SOL    HW234860   4.688   3.362   8.014
 7661SOL     OW34861   1.559   1.779   5.002
 7661SOL    HW134862   1.469   1.807   5.020
 7661SOL    HW234863   1.612   1.856   5.022
 7662SOL     OW34864   0.304   3.831   8.408
 7662SOL    HW134865   0.360   3.840   8.485
 7662SOL    HW234866   0.332   3.902   8.350
 7663SOL     OW34867   3.815   0.635   8.103
 7663SOL    HW134868   3.902   0.595   8.098
 7663SOL    HW234869   3.756   0.567   8.070
 7664SOL     OW34870   3.599   1.396   8.403
 7664SOL    HW134871   3.515   1.353   8.421
 7664SOL    HW234872   3.578   1.489   8.397
 7665SOL     OW34873   0.598   2.887   8.726
 7665SOL    HW134874   0.585   2.879   8.631
 7665SOL    HW234875   0.669   2.952   8.734
 7666SOL     OW34876   0.779   3.151   7.637
 7666SOL    HW134877   0.781   3.057   7.655
 7666SOL    HW234878   0.745   3.158   7.548
 7667SOL     OW34879   2.565   1.258   9.020
 7667SOL    HW134880   2.579   1.352   9.016
 7667SOL    HW234881   2.647   1.222   9.055
 7668SOL     OW34882   0.181   3.886   9.512
 7668SOL    HW134883   0.223   3.800   9.511
 7668SOL    HW234884   0.103   3.875   9.458
 7669SOL     OW34885   3.037   2.983   0.818
 7669SOL    HW134886   3.012   3.036   0.742
 7669SOL    HW234887   3.000   3.029   0.893
 7670SOL     OW34888   3.010   0.520  18.828
 7670SOL    HW134889   3.083   0.559  18.780
 7670SOL    HW234890   2.968   0.594  18.872
 7671SOL     OW34891   0.167   4.054   8.150
 7671SOL    HW134892   0.255   4.017   8.163
 7671SOL    HW234893   0.129   4.001   8.080
 7672SOL     OW34894   1.822   0.752   7.645
 7672SOL    HW134895   1.748   0.707   7.605
 7672SOL    HW234896   1.881   0.771   7.573
 7673SOL     OW34897   3.905   3.675   9.144
 7673SOL    HW134898   3.918   3.698   9.236
 7673SOL    HW234899   3.839   3.606   9.146
 7674SOL     OW34900   1.370   1.143   0.770
 7674SOL    HW134901   1.403   1.231   0.787
 7674SOL    HW234902   1.275   1.155   0.759
 7675SOL     OW34903   1.666   0.767   9.856
 7675SOL    HW134904   1.652   0.748   9.763
 7675SOL    HW234905   1.744   0.823   9.858
 7676SOL     OW34906   0.938   0.288   8.793
 7676SOL    HW134907   1.013   0.314   8.847
 7676SOL    HW234908   0.868   0.271   8.857
 7677SOL     OW34909   1.569   0.630   9.226
 7677SOL    HW134910   1.614   0.583   9.295
 7677SOL    HW234911   1.589   0.581   9.146
 7678SOL     OW34912   3.500   4.409  13.781
 7678SOL    HW134913   3.460   4.460  13.711
 7678SOL    HW234914   3.428   4.391  13.842
 7679SOL     OW34915   4.570   3.117   9.052
 7679SOL    HW134916   4.642   3.174   9.078
 7679SOL    HW234917   4.548   3.145   8.963
 7680SOL     OW34918   0.778   1.747  18.384
 7680SOL    HW134919   0.773   1.777  18.293
 7680SOL    HW234920   0.831   1.667  18.380
 7681SOL     OW34921   0.526   2.178  15.442
 7681SOL    HW134922   0.573   2.166  15.359
 7681SOL    HW234923   0.440   2.211  15.416
 7682SOL     OW34924   0.702   3.874   8.504
 7682SOL    HW134925   0.608   3.883   8.518
 7682SOL    HW234926   0.742   3.939   8.562
 7683SOL     OW34927   4.355   3.723  10.434
 7683SOL    HW134928   4.399   3.686  10.358
 7683SOL    HW234929   4.347   3.817  10.414
 7684SOL     OW34930   2.242   1.436   9.578
 7684SOL    HW134931   2.263   1.517   9.624
 7684SOL    HW234932   2.220   1.374   9.647
 7685SOL     OW34933   0.522   4.042  10.269
 7685SOL    HW134934   0.573   3.985  10.326
 7685SOL    HW234935   0.444   4.064  10.321
 7686SOL     OW34936   2.324   0.080  10.966
 7686SOL    HW134937   2.361   0.098  11.053
 7686SOL    HW234938   2.246   0.027  10.984
 7687SOL     OW34939   1.982   0.261  11.150
 7687SOL    HW134940   1.951   0.180  11.109
 7687SOL    HW234941   2.030   0.307  11.080
 7688SOL     OW34942   2.035   4.177  10.297
 7688SOL    HW134943   2.038   4.260  10.250
 7688SOL    HW234944   2.062   4.111  10.233
 7689SOL     OW34945   0.754   3.523  11.609
 7689SOL    HW134946   0.824   3.584  11.630
 7689SOL    HW234947   0.677   3.560  11.652
 7690SOL     OW34948   4.582   0.558   8.317
 7690SOL    HW134949   4.643   0.583   8.248
 7690SOL    HW234950   4.609   0.610   8.393
 7691SOL     OW34951   2.689   1.067  10.179
 7691SOL    HW134952   2.679   1.117  10.098
 7691SOL    HW234953   2.600   1.060  10.214
 7692SOL     OW34954   0.925   1.636  11.384
 7692SOL    HW134955   0.878   1.600  11.459
 7692SOL    HW234956   0.903   1.577  11.311
 7693SOL     OW34957   0.383   0.570   9.543
 7693SOL    HW134958   0.410   0.481   9.563
 7693SOL    HW234959   0.368   0.611   9.628
 7694SOL     OW34960   0.993   3.830   9.506
 7694SOL    HW134961   1.083   3.830   9.538
 7694SOL    HW234962   0.991   3.762   9.438
 7695SOL     OW34963   0.856   2.472  11.278
 7695SOL    HW134964   0.766   2.467  11.311
 7695SOL    HW234965   0.867   2.392  11.227
 7696SOL     OW34966   1.387   3.427  11.426
 7696SOL    HW134967   1.296   3.455  11.412
 7696SOL    HW234968   1.383   3.372  11.505
 7697SOL     OW34969   0.794   3.373  10.804
 7697SOL    HW134970   0.775   3.280  10.789
 7697SOL    HW234971   0.888   3.376  10.818
 7698SOL     OW34972   1.676   3.624  10.547
 7698SOL    HW134973   1.704   3.651  10.634
 7698SOL    HW234974   1.612   3.690  10.521
 7699SOL     OW34975   3.473   0.993   8.103
 7699SOL    HW134976   3.556   0.996   8.150
 7699SOL    HW234977   3.483   1.059   8.034
 7700SOL     OW34978   4.153   0.671   9.176
 7700SOL    HW134979   4.143   0.746   9.117
 7700SOL    HW234980   4.191   0.602   9.121
 7701SOL     OW34981   2.341   3.556  10.141
 7701SOL    HW134982   2.274   3.614  10.179
 7701SOL    HW234983   2.424   3.599  10.162
 7702SOL     OW34984   0.716   2.951  11.302
 7702SOL    HW134985   0.720   2.993  11.216
 7702SOL    HW234986   0.759   2.866  11.289
 7703SOL     OW34987   2.180   1.266   9.786
 7703SOL    HW134988   2.201   1.186   9.834
 7703SOL    HW234989   2.090   1.253   9.755
 7704SOL     OW34990   2.240   1.271  10.088
 7704SOL    HW134991   2.248   1.303   9.998
 7704SOL    HW234992   2.154   1.228  10.090
 7705SOL     OW34993   1.006   3.366  10.006
 7705SOL    HW134994   1.047   3.447   9.975
 7705SOL    HW234995   1.024   3.302   9.937
 7706SOL     OW34996   3.293   0.782   9.116
 7706SOL    HW134997   3.335   0.714   9.169
 7706SOL    HW234998   3.297   0.748   9.027
 7707SOL     OW34999   0.352   1.957   9.411
 7707SOL    HW135000   0.330   1.968   9.319
 7707SOL    HW235001   0.313   1.873   9.435
 7708SOL     OW35002   0.410   0.135  19.940
 7708SOL    HW135003   0.404   0.229  19.920
 7708SOL    HW235004   0.321   0.109  19.961
 7709SOL     OW35005   2.664   1.173   6.728
 7709SOL    HW135006   2.608   1.228   6.783
 7709SOL    HW235007   2.711   1.236   6.673
 7710SOL     OW35008   1.742   2.141  13.468
 7710SOL    HW135009   1.761   2.216  13.523
 7710SOL    HW235010   1.819   2.085  13.475
 7711SOL     OW35011   0.778   4.576  11.561
 7711SOL    HW135012   0.839   4.508  11.590
 7711SOL    HW235013   0.834   4.642  11.521
 7712SOL     OW35014   0.962   2.927  19.378
 7712SOL    HW135015   1.056   2.914  19.370
 7712SOL    HW235016   0.927   2.909  19.290
 7713SOL     OW35017   4.377   0.461  10.503
 7713SOL    HW135018   4.421   0.513  10.570
 7713SOL    HW235019   4.340   0.387  10.550
 7714SOL     OW35020   2.273   2.860  11.105
 7714SOL    HW135021   2.355   2.848  11.058
 7714SOL    HW235022   2.206   2.825  11.047
 7715SOL     OW35023   3.199   4.256  12.951
 7715SOL    HW135024   3.203   4.163  12.970
 7715SOL    HW235025   3.164   4.262  12.862
 7716SOL     OW35026   0.512   2.530   0.295
 7716SOL    HW135027   0.481   2.450   0.338
 7716SOL    HW235028   0.467   2.600   0.341
 7717SOL     OW35029   0.065   0.947   2.917
 7717SOL    HW135030   0.136   0.967   2.978
 7717SOL    HW235031   0.045   0.855   2.933
 7718SOL     OW35032   0.636   4.597  11.935
 7718SOL    HW135033   0.725   4.602  11.969
 7718SOL    HW235034   0.581   4.628  12.007
 7719SOL     OW35035   1.083   3.271  11.664
 7719SOL    HW135036   1.079   3.192  11.717
 7719SOL    HW235037   1.168   3.310  11.684
 7720SOL     OW35038   1.915   0.037  11.027
 7720SOL    HW135039   1.925   4.738  11.054
 7720SOL    HW235040   1.841   0.037  10.968
 7721SOL     OW35041   2.370   2.472  11.124
 7721SOL    HW135042   2.449   2.438  11.165
 7721SOL    HW235043   2.325   2.520  11.194
 7722SOL     OW35044   4.684   0.016   9.513
 7722SOL    HW135045   4.589   0.028   9.512
 7722SOL    HW235046   4.720   0.102   9.533
 7723SOL     OW35047   1.198   4.197  11.039
 7723SOL    HW135048   1.200   4.106  11.070
 7723SOL    HW235049   1.239   4.194  10.953
 7724SOL     OW35050   1.695   2.259  11.000
 7724SOL    HW135051   1.671   2.339  11.045
 7724SOL    HW235052   1.775   2.230  11.042
 7725SOL     OW35053   4.613   0.346  18.434
 7725SOL    HW135054   4.591   0.256  18.407
 7725SOL    HW235055   4.565   0.402  18.374
 7726SOL     OW35056   1.645   2.179  11.832
 7726SOL    HW135057   1.677   2.261  11.795
 7726SOL    HW235058   1.555   2.198  11.859
 7727SOL     OW35059   2.133   3.626  11.149
 7727SOL    HW135060   2.165   3.622  11.058
 7727SOL    HW235061   2.107   3.537  11.169
 7728SOL     OW35062   1.704   3.573   4.275
 7728SOL    HW135063   1.715   3.661   4.312
 7728SOL    HW235064   1.645   3.585   4.201
 7729SOL     OW35065   1.827   3.717  12.277
 7729SOL    HW135066   1.884   3.783  12.317
 7729SOL    HW235067   1.869   3.633  12.297
 7730SOL     OW35068   2.098   1.588  12.297
 7730SOL    HW135069   2.018   1.535  12.307
 7730SOL    HW235070   2.117   1.583  12.203
 7731SOL     OW35071   2.668   4.055  11.574
 7731SOL    HW135072   2.670   4.045  11.670
 7731SOL    HW235073   2.681   4.149  11.560
 7732SOL     OW35074   2.270   3.269  11.442
 7732SOL    HW135075   2.195   3.264  11.383
 7732SOL    HW235076   2.333   3.323  11.395
 7733SOL     OW35077   4.150   0.491  16.586
 7733SOL    HW135078   4.241   0.517  16.602
 7733SOL    HW235079   4.129   0.530  16.501
 7734SOL     OW35080   3.780   0.697   5.349
 7734SOL    HW135081   3.828   0.686   5.431
 7734SOL    HW235082   3.694   0.729   5.376
 7735SOL     OW35083   1.142   4.674   1.768
 7735SOL    HW135084   1.129   4.755   1.719
 7735SOL    HW235085   1.234   4.676   1.793
 7736SOL     OW35086   2.151   2.650  19.699
 7736SOL    HW135087   2.158   2.695  19.783
 7736SOL    HW235088   2.097   2.573  19.717
 7737SOL     OW35089   3.671   4.374  15.631
 7737SOL    HW135090   3.633   4.316  15.696
 7737SOL    HW235091   3.657   4.329  15.547
 7738SOL     OW35092   0.418   0.205   0.237
 7738SOL    HW135093   0.396   0.115   0.260
 7738SOL    HW235094   0.348   0.233   0.178
 7739SOL     OW35095   3.986   3.335   7.312
 7739SOL    HW135096   3.982   3.421   7.355
 7739SOL    HW235097   4.015   3.354   7.223
 7740SOL     OW35098   3.439   1.338  17.177
 7740SOL    HW135099   3.415   1.404  17.112
 7740SOL    HW235100   3.363   1.330  17.234
 7741SOL     OW35101   4.165   4.091   5.696
 7741SOL    HW135102   4.211   4.072   5.615
 7741SOL    HW235103   4.147   4.185   5.692
 7742SOL     OW35104   2.731   4.075  16.211
 7742SOL    HW135105   2.807   4.046  16.263
 7742SOL    HW235106   2.706   3.998  16.161
 7743SOL     OW35107   3.528   4.147  17.784
 7743SOL    HW135108   3.607   4.113  17.827
 7743SOL    HW235109   3.560   4.218  17.728
 7744SOL     OW35110   2.651   2.029   0.067
 7744SOL    HW135111   2.668   2.121   0.047
 7744SOL    HW235112   2.580   2.004   0.008
 7745SOL     OW35113   1.906   1.270  17.133
 7745SOL    HW135114   1.920   1.344  17.074
 7745SOL    HW235115   1.840   1.301  17.195
 7746SOL     OW35116   0.228   2.131  15.764
 7746SOL    HW135117   0.245   2.223  15.744
 7746SOL    HW235118   0.302   2.084  15.727
 7747SOL     OW35119   4.323   2.271   2.109
 7747SOL    HW135120   4.410   2.293   2.075
 7747SOL    HW235121   4.271   2.255   2.031
 7748SOL     OW35122   1.925   3.006   5.471
 7748SOL    HW135123   2.015   3.029   5.445
 7748SOL    HW235124   1.900   3.076   5.532
 7749SOL     OW35125   4.061   4.743  11.558
 7749SOL    HW135126   3.986   4.691  11.531
 7749SOL    HW235127   4.022   0.029  11.597
 7750SOL     OW35128   0.546   0.996  17.332
 7750SOL    HW135129   0.560   0.974  17.239
 7750SOL    HW235130   0.451   0.995  17.342
 7751SOL     OW35131   3.477   0.393  20.296
 7751SOL    HW135132   3.530   0.400  20.216
 7751SOL    HW235133   3.473   0.483  20.329
 7752SOL     OW35134   4.317   3.272  14.890
 7752SOL    HW135135   4.406   3.303  14.903
 7752SOL    HW235136   4.262   3.335  14.937
 7753SOL     OW35137   2.325   0.366   0.215
 7753SOL    HW135138   2.346   0.458   0.232
 7753SOL    HW235139   2.345   0.354   0.122
 7754SOL     OW35140   3.229   1.572   3.729
 7754SOL    HW135141   3.162   1.519   3.773
 7754SOL    HW235142   3.304   1.513   3.720
 7755SOL     OW35143   3.446   1.372   4.354
 7755SOL    HW135144   3.498   1.305   4.312
 7755SOL    HW235145   3.373   1.325   4.395
 7756SOL     OW35146   0.715   0.408   5.382
 7756SOL    HW135147   0.642   0.346   5.379
 7756SOL    HW235148   0.792   0.353   5.396
 7757SOL     OW35149   0.336   1.990   0.835
 7757SOL    HW135150   0.331   2.048   0.912
 7757SOL    HW235151   0.249   1.950   0.829
 7758SOL     OW35152   2.361   2.861  20.300
 7758SOL    HW135153   2.342   2.904  20.384
 7758SOL    HW235154   2.454   2.838  20.305
 7759SOL     OW35155   3.844   0.368   7.963
 7759SOL    HW135156   3.772   0.329   7.913
 7759SOL    HW235157   3.920   0.313   7.941
 7760SOL     OW35158   1.425   0.882  15.541
 7760SOL    HW135159   1.430   0.796  15.499
 7760SOL    HW235160   1.443   0.864  15.634
 7761SOL     OW35161   1.433   2.278   0.391
 7761SOL    HW135162   1.514   2.231   0.411
 7761SOL    HW235163   1.374   2.254   0.462
 7762SOL     OW35164   2.729   2.121  17.710
 7762SOL    HW135165   2.799   2.055  17.704
 7762SOL    HW235166   2.665   2.093  17.645
 7763SOL     OW35167   1.357   2.873   2.021
 7763SOL    HW135168   1.349   2.964   1.992
 7763SOL    HW235169   1.293   2.865   2.091
 7764SOL     OW35170   2.989   3.139  18.981
 7764SOL    HW135171   3.017   3.150  19.072
 7764SOL    HW235172   2.894   3.149  18.985
 7765SOL     OW35173   1.336   3.201   5.226
 7765SOL    HW135174   1.293   3.117   5.246
 7765SOL    HW235175   1.264   3.259   5.203
 7766SOL     OW35176   4.054   4.219  20.405
 7766SOL    HW135177   4.117   4.292  20.407
 7766SOL    HW235178   4.012   4.222  20.491
 7767SOL     OW35179   2.926   4.126   5.530
 7767SOL    HW135180   2.984   4.055   5.557
 7767SOL    HW235181   2.845   4.111   5.579
 7768SOL     OW35182   3.455   3.517  11.776
 7768SOL    HW135183   3.432   3.572  11.701
 7768SOL    HW235184   3.387   3.535  11.841
 7769SOL     OW35185   0.142   4.471   0.923
 7769SOL    HW135186   0.225   4.496   0.884
 7769SOL    HW235187   0.162   4.395   0.978
 7770SOL     OW35188   3.162   2.788  17.165
 7770SOL    HW135189   3.194   2.712  17.117
 7770SOL    HW235190   3.233   2.852  17.160
 7771SOL     OW35191   2.209   2.894   3.027
 7771SOL    HW135192   2.128   2.846   3.009
 7771SOL    HW235193   2.183   2.986   3.029
 7772SOL     OW35194   3.281   3.762   4.214
 7772SOL    HW135195   3.260   3.731   4.126
 7772SOL    HW235196   3.203   3.810   4.242
 7773SOL     OW35197   3.636   2.417  17.051
 7773SOL    HW135198   3.568   2.378  17.105
 7773SOL    HW235199   3.614   2.511  17.048
 7774SOL     OW35200   1.366   4.440   1.044
 7774SOL    HW135201   1.376   4.534   1.059
 7774SOL    HW235202   1.286   4.417   1.092
 7775SOL     OW35203   2.710   2.688  16.905
 7775SOL    HW135204   2.627   2.688  16.857
 7775SOL    HW235205   2.765   2.626  16.857
 7776SOL     OW35206   1.995   0.639   1.662
 7776SOL    HW135207   2.065   0.667   1.721
 7776SOL    HW235208   1.963   0.720   1.623
 7777SOL     OW35209   0.733   1.224  17.840
 7777SOL    HW135210   0.723   1.309  17.796
 7777SOL    HW235211   0.811   1.186  17.800
 7778SOL     OW35212   4.744   0.206   0.136
 7778SOL    HW135213   4.749   0.197   0.041
 7778SOL    HW235214   4.708   0.122   0.166
 7779SOL     OW35215   4.003   2.477   0.684
 7779SOL    HW135216   4.043   2.398   0.647
 7779SOL    HW235217   3.991   2.456   0.777
 7780SOL     OW35218   2.696   4.052  15.645
 7780SOL    HW135219   2.639   4.030  15.570
 7780SOL    HW235220   2.757   4.117  15.610
 7781SOL     OW35221   1.785   1.890   0.515
 7781SOL    HW135222   1.718   1.824   0.530
 7781SOL    HW235223   1.854   1.870   0.578
 7782SOL     OW35224   0.062   2.514  21.078
 7782SOL    HW135225   4.774   2.505  21.129
 7782SOL    HW235226   0.104   2.428  21.085
 7783SOL     OW35227   1.633   3.212   3.858
 7783SOL    HW135228   1.699   3.143   3.860
 7783SOL    HW235229   1.635   3.250   3.946
 7784SOL     OW35230   2.267   2.243  19.328
 7784SOL    HW135231   2.265   2.151  19.351
 7784SOL    HW235232   2.275   2.289  19.411
 7785SOL     OW35233   3.621   3.875   5.054
 7785SOL    HW135234   3.553   3.938   5.080
 7785SOL    HW235235   3.572   3.803   5.014
 7786SOL     OW35236   4.346   2.332   2.397
 7786SOL    HW135237   4.320   2.240   2.403
 7786SOL    HW235238   4.363   2.346   2.304
 7787SOL     OW35239   3.913   4.114  16.181
 7787SOL    HW135240   3.840   4.064  16.216
 7787SOL    HW235241   3.883   4.146  16.096
 7788SOL     OW35242   4.589   0.159   6.388
 7788SOL    HW135243   4.610   0.073   6.352
 7788SOL    HW235244   4.659   0.216   6.356
 7789SOL     OW35245   0.472   2.788   2.984
 7789SOL    HW135246   0.467   2.697   3.015
 7789SOL    HW235247   0.425   2.787   2.900
 7790SOL     OW35248   0.283   3.369   1.060
 7790SOL    HW135249   0.376   3.381   1.043
 7790SOL    HW235250   0.261   3.286   1.018
 7791SOL     OW35251   1.773   4.587   5.599
 7791SOL    HW135252   1.723   4.554   5.673
 7791SOL    HW235253   1.709   4.636   5.546
 7792SOL     OW35254   4.094   4.295   5.304
 7792SOL    HW135255   4.168   4.278   5.362
 7792SOL    HW235256   4.113   4.245   5.225
 7793SOL     OW35257   2.874   4.440  17.072
 7793SOL    HW135258   2.932   4.414  17.000
 7793SOL    HW235259   2.906   4.527  17.097
 7794SOL     OW35260   3.746   0.589   5.639
 7794SOL    HW135261   3.840   0.570   5.641
 7794SOL    HW235262   3.731   0.643   5.716
 7795SOL     OW35263   2.184   1.498  11.778
 7795SOL    HW135264   2.178   1.494  11.682
 7795SOL    HW235265   2.183   1.407  11.806
 7796SOL     OW35266   0.130   0.483  17.740
 7796SOL    HW135267   0.162   0.522  17.659
 7796SOL    HW235268   0.139   0.551  17.806
 7797SOL     OW35269   4.632   1.378   6.691
 7797SOL    HW135270   4.634   1.309   6.758
 7797SOL    HW235271   4.722   1.410   6.687
 7798SOL     OW35272   3.410   0.000  20.879
 7798SOL    HW135273   3.317   0.008  20.862
 7798SOL    HW235274   3.448   0.079  20.841
 7799SOL     OW35275   3.552   3.360   3.894
 7799SOL    HW135276   3.640   3.332   3.868
 7799SOL    HW235277   3.493   3.301   3.847
 7800SOL     OW35278   0.293   3.119   1.519
 7800SOL    HW135279   0.201   3.105   1.500
 7800SOL    HW235280   0.313   3.205   1.482
 7801SOL     OW35281   0.324   2.119   2.619
 7801SOL    HW135282   0.319   2.035   2.574
 7801SOL    HW235283   0.300   2.183   2.552
 7802SOL     OW35284   2.638   1.758  20.774
 7802SOL    HW135285   2.657   1.798  20.689
 7802SOL    HW235286   2.721   1.718  20.800
 7803SOL     OW35287   0.773   2.304   3.643
 7803SOL    HW135288   0.811   2.283   3.728
 7803SOL    HW235289   0.732   2.222   3.614
 7804SOL     OW35290   1.183   4.424  19.830
 7804SOL    HW135291   1.266   4.458  19.864
 7804SOL    HW235292   1.171   4.470  19.747
 7805SOL     OW35293   2.279   4.067  20.205
 7805SOL    HW135294   2.215   4.067  20.275
 7805SOL    HW235295   2.238   4.116  20.134
 7806SOL     OW35296   0.573   3.423  18.321
 7806SOL    HW135297   0.622   3.444  18.400
 7806SOL    HW235298   0.531   3.339  18.340
 7807SOL     OW35299   1.644   3.834  18.551
 7807SOL    HW135300   1.624   3.776  18.624
 7807SOL    HW235301   1.653   3.775  18.476
 7808SOL     OW35302   3.301   3.066   2.199
 7808SOL    HW135303   3.325   2.993   2.141
 7808SOL    HW235304   3.385   3.099   2.231
 7809SOL     OW35305   2.142   0.750  17.197
 7809SOL    HW135306   2.189   0.831  17.214
 7809SOL    HW235307   2.088   0.737  17.275
 7810SOL     OW35308   0.467   2.915   2.553
 7810SOL    HW135309   0.488   2.991   2.498
 7810SOL    HW235310   0.528   2.847   2.523
 7811SOL     OW35311   4.231   3.473   3.039
 7811SOL    HW135312   4.297   3.540   3.024
 7811SOL    HW235313   4.152   3.522   3.062
 7812SOL     OW35314   1.243   1.965  10.387
 7812SOL    HW135315   1.150   1.971  10.364
 7812SOL    HW235316   1.281   1.909  10.319
 7813SOL     OW35317   2.432   1.861   3.320
 7813SOL    HW135318   2.413   1.768   3.311
 7813SOL    HW235319   2.450   1.891   3.230
 7814SOL     OW35320   3.296   1.536   4.161
 7814SOL    HW135321   3.311   1.621   4.201
 7814SOL    HW235322   3.344   1.474   4.217
 7815SOL     OW35323   2.361   1.700   0.107
 7815SOL    HW135324   2.334   1.773   0.164
 7815SOL    HW235325   2.448   1.677   0.139
 7816SOL     OW35326   1.807   2.359   4.493
 7816SOL    HW135327   1.822   2.302   4.568
 7816SOL    HW235328   1.777   2.442   4.530
 7817SOL     OW35329   3.083   1.381   3.882
 7817SOL    HW135330   3.138   1.303   3.885
 7817SOL    HW235331   3.068   1.404   3.973
 7818SOL     OW35332   3.305   1.481   8.885
 7818SOL    HW135333   3.323   1.427   8.962
 7818SOL    HW235334   3.210   1.489   8.882
 7819SOL     OW35335   1.318   2.500  18.731
 7819SOL    HW135336   1.412   2.508  18.719
 7819SOL    HW235337   1.308   2.446  18.810
 7820SOL     OW35338   3.713   4.268  14.999
 7820SOL    HW135339   3.628   4.294  15.033
 7820SOL    HW235340   3.739   4.340  14.941
 7821SOL     OW35341   0.390   1.315   1.307
 7821SOL    HW135342   0.334   1.391   1.323
 7821SOL    HW235343   0.469   1.350   1.266
 7822SOL     OW35344   4.039   4.595  15.110
 7822SOL    HW135345   4.039   4.691  15.100
 7822SOL    HW235346   4.129   4.574  15.137
 7823SOL     OW35347   1.314   2.035  16.175
 7823SOL    HW135348   1.347   2.038  16.085
 7823SOL    HW235349   1.222   2.058  16.168
 7824SOL     OW35350   0.170   3.368   8.909
 7824SOL    HW135351   0.196   3.300   8.848
 7824SOL    HW235352   0.244   3.377   8.969
 7825SOL     OW35353   1.363   0.802  20.109
 7825SOL    HW135354   1.313   0.738  20.060
 7825SOL    HW235355   1.439   0.754  20.143
 7826SOL     OW35356   4.573   0.305   2.667
 7826SOL    HW135357   4.605   0.360   2.595
 7826SOL    HW235358   4.652   0.276   2.712
 7827SOL     OW35359   4.318   0.316  18.457
 7827SOL    HW135360   4.367   0.261  18.518
 7827SOL    HW235361   4.243   0.346  18.508
 7828SOL     OW35362   1.512   1.651  18.520
 7828SOL    HW135363   1.542   1.728  18.471
 7828SOL    HW235364   1.419   1.668  18.535
 7829SOL     OW35365   0.328   4.667   1.544
 7829SOL    HW135366   0.269   4.666   1.620
 7829SOL    HW235367   0.342   4.760   1.526
 7830SOL     OW35368   1.189   0.021   2.349
 7830SOL    HW135369   1.166   0.046   2.260
 7830SOL    HW235370   1.258   0.082   2.375
 7831SOL     OW35371   2.621   0.658   4.174
 7831SOL    HW135372   2.535   0.616   4.181
 7831SOL    HW235373   2.602   0.748   4.148
 7832SOL     OW35374   4.402   2.167  21.258
 7832SOL    HW135375   4.328   2.185  21.201
 7832SOL    HW235376   4.442   2.088  21.221
 7833SOL     OW35377   3.957   1.414  13.976
 7833SOL    HW135378   3.927   1.503  13.961
 7833SOL    HW235379   4.052   1.423  13.990
 7834SOL     OW35380   1.936   4.357  16.061
 7834SOL    HW135381   1.981   4.309  16.131
 7834SOL    HW235382   1.900   4.288  16.005
 7835SOL     OW35383   3.013   1.556  14.491
 7835SOL    HW135384   3.055   1.499  14.427
 7835SOL    HW235385   3.030   1.515  14.576
 7836SOL     OW35386   2.425   2.139  13.798
 7836SOL    HW135387   2.377   2.106  13.874
 7836SOL    HW235388   2.516   2.146  13.829
 7837SOL     OW35389   3.598   0.677   2.737
 7837SOL    HW135390   3.588   0.582   2.733
 7837SOL    HW235391   3.617   0.703   2.647
 7838SOL     OW35392   3.344   3.510  16.967
 7838SOL    HW135393   3.313   3.510  16.876
 7838SOL    HW235394   3.420   3.568  16.967
 7839SOL     OW35395   3.247   4.690   1.087
 7839SOL    HW135396   3.154   4.710   1.094
 7839SOL    HW235397   3.264   4.684   0.993
 7840SOL     OW35398   3.846   2.293   2.051
 7840SOL    HW135399   3.868   2.294   1.957
 7840SOL    HW235400   3.918   2.340   2.092
 7841SOL     OW35401   4.116   3.961  20.779
 7841SOL    HW135402   4.156   4.043  20.750
 7841SOL    HW235403   4.160   3.940  20.862
 7842SOL     OW35404   2.260   2.803  18.411
 7842SOL    HW135405   2.295   2.787  18.498
 7842SOL    HW235406   2.334   2.788  18.352
 7843SOL     OW35407   3.291   3.276   1.662
 7843SOL    HW135408   3.338   3.266   1.579
 7843SOL    HW235409   3.243   3.357   1.653
 7844SOL     OW35410   3.385   2.521   0.349
 7844SOL    HW135411   3.421   2.581   0.415
 7844SOL    HW235412   3.297   2.554   0.332
 7845SOL     OW35413   0.107   4.472  18.173
 7845SOL    HW135414   0.067   4.547  18.215
 7845SOL    HW235415   0.186   4.506  18.131
 7846SOL     OW35416   3.137   2.426  15.413
 7846SOL    HW135417   3.109   2.376  15.490
 7846SOL    HW235418   3.055   2.454  15.373
 7847SOL     OW35419   3.835   1.505   5.476
 7847SOL    HW135420   3.759   1.548   5.516
 7847SOL    HW235421   3.799   1.461   5.399
 7848SOL     OW35422   3.755   1.883   1.116
 7848SOL    HW135423   3.718   1.895   1.203
 7848SOL    HW235424   3.738   1.791   1.095
 7849SOL     OW35425   0.974   0.142  18.513
 7849SOL    HW135426   0.977   0.124  18.607
 7849SOL    HW235427   1.014   0.065  18.472
 7850SOL     OW35428   3.962   2.121  20.438
 7850SOL    HW135429   4.027   2.191  20.435
 7850SOL    HW235430   3.885   2.157  20.394
 7851SOL     OW35431   4.176   1.148  20.214
 7851SOL    HW135432   4.181   1.075  20.152
 7851SOL    HW235433   4.093   1.191  20.194
 7852SOL     OW35434   1.036   1.130   3.747
 7852SOL    HW135435   0.958   1.185   3.760
 7852SOL    HW235436   1.020   1.086   3.664
 7853SOL     OW35437   2.857   2.181  16.699
 7853SOL    HW135438   2.777   2.190  16.648
 7853SOL    HW235439   2.926   2.212  16.641
 7854SOL     OW35440   3.635   1.083  20.971
 7854SOL    HW135441   3.686   1.120  21.043
 7854SOL    HW235442   3.700   1.039  20.916
 7855SOL     OW35443   4.107   2.846  17.457
 7855SOL    HW135444   4.138   2.875  17.372
 7855SOL    HW235445   4.187   2.833  17.509
 7856SOL     OW35446   1.797   3.425   6.052
 7856SOL    HW135447   1.842   3.424   6.136
 7856SOL    HW235448   1.720   3.370   6.065
 7857SOL     OW35449   3.913   3.380   8.353
 7857SOL    HW135450   3.944   3.333   8.431
 7857SOL    HW235451   3.989   3.383   8.295
 7858SOL     OW35452   4.008   3.521   5.311
 7858SOL    HW135453   4.026   3.471   5.390
 7858SOL    HW235454   4.047   3.607   5.328
 7859SOL     OW35455   1.128   1.771   3.119
 7859SOL    HW135456   1.044   1.725   3.110
 7859SOL    HW235457   1.123   1.842   3.056
 7860SOL     OW35458   4.474   4.704   5.971
 7860SOL    HW135459   4.456   4.755   5.893
 7860SOL    HW235460   4.511   4.622   5.939
 7861SOL     OW35461   0.170   3.322  19.792
 7861SOL    HW135462   0.099   3.296  19.733
 7861SOL    HW235463   0.169   3.417  19.791
 7862SOL     OW35464   1.771   3.901  14.207
 7862SOL    HW135465   1.751   3.990  14.178
 7862SOL    HW235466   1.685   3.865  14.232
 7863SOL     OW35467   3.346   0.123  21.269
 7863SOL    HW135468   3.325   0.209   0.033
 7863SOL    HW235469   3.261   0.083  21.251
 7864SOL     OW35470   2.223   4.296   4.703
 7864SOL    HW135471   2.276   4.219   4.720
 7864SOL    HW235472   2.277   4.370   4.730
 7865SOL     OW35473   4.558   1.897  17.160
 7865SOL    HW135474   4.554   1.827  17.094
 7865SOL    HW235475   4.469   1.932  17.163
 7866SOL     OW35476   2.250   3.562  20.640
 7866SOL    HW135477   2.200   3.559  20.558
 7866SOL    HW235478   2.186   3.545  20.708
 7867SOL     OW35479   4.672   2.547   4.259
 7867SOL    HW135480   4.685   2.498   4.178
 7867SOL    HW235481   4.755   2.592   4.273
 7868SOL     OW35482   2.361   3.180  14.990
 7868SOL    HW135483   2.298   3.170  15.061
 7868SOL    HW235484   2.316   3.232  14.924
 7869SOL     OW35485   1.032   1.114  21.074
 7869SOL    HW135486   1.123   1.087  21.090
 7869SOL    HW235487   1.011   1.078  20.988
 7870SOL     OW35488   3.270   3.813  20.932
 7870SOL    HW135489   3.351   3.782  20.972
 7870SOL    HW235490   3.204   3.803  21.000
 7871SOL     OW35491   4.520   0.848  19.473
 7871SOL    HW135492   4.453   0.911  19.501
 7871SOL    HW235493   4.480   0.762  19.486
 7872SOL     OW35494   1.864   3.123  19.569
 7872SOL    HW135495   1.885   3.031  19.588
 7872SOL    HW235496   1.949   3.162  19.547
 7873SOL     OW35497   3.545   3.879   2.595
 7873SOL    HW135498   3.596   3.822   2.653
 7873SOL    HW235499   3.582   3.863   2.508
 7874SOL     OW35500   3.573   3.488  18.862
 7874SOL    HW135501   3.639   3.433  18.902
 7874SOL    HW235502   3.592   3.484  18.768
 7875SOL     OW35503   3.689   3.040   1.352
 7875SOL    HW135504   3.775   3.005   1.328
 7875SOL    HW235505   3.678   3.117   1.296
 7876SOL     OW35506   0.985   2.141  20.381
 7876SOL    HW135507   0.944   2.200  20.318
 7876SOL    HW235508   1.042   2.086  20.327
 7877SOL     OW35509   2.464   0.673   5.383
 7877SOL    HW135510   2.375   0.704   5.368
 7877SOL    HW235511   2.457   0.578   5.382
 7878SOL     OW35512   0.522   4.134  17.144
 7878SOL    HW135513   0.486   4.221  17.161
 7878SOL    HW235514   0.552   4.103  17.229
 7879SOL     OW35515   0.197   0.232   3.115
 7879SOL    HW135516   0.266   0.286   3.076
 7879SOL    HW235517   0.244   0.162   3.161
 7880SOL     OW35518   3.400   2.852  17.623
 7880SOL    HW135519   3.377   2.759  17.618
 7880SOL    HW235520   3.491   2.852  17.652
 7881SOL     OW35521   3.984   3.056   8.039
 7881SOL    HW135522   3.943   2.975   8.009
 7881SOL    HW235523   3.957   3.121   7.975
 7882SOL     OW35524   2.499   4.371   2.214
 7882SOL    HW135525   2.478   4.293   2.264
 7882SOL    HW235526   2.595   4.371   2.209
 7883SOL     OW35527   3.213   2.249   2.848
 7883SOL    HW135528   3.246   2.273   2.761
 7883SOL    HW235529   3.224   2.329   2.900
 7884SOL     OW35530   0.217   2.341  17.700
 7884SOL    HW135531   0.309   2.334  17.675
 7884SOL    HW235532   0.212   2.420  17.754
 7885SOL     OW35533   1.618   4.708  16.003
 7885SOL    HW135534   1.551   4.693  16.070
 7885SOL    HW235535   1.637   4.621  15.968
 7886SOL     OW35536   1.300   2.337  15.930
 7886SOL    HW135537   1.324   2.358  16.021
 7886SOL    HW235538   1.331   2.247  15.918
 7887SOL     OW35539   3.575   4.785  16.474
 7887SOL    HW135540   3.554   4.695  16.499
 7887SOL    HW235541   3.615   0.030  16.552
 7888SOL     OW35542   0.066   2.474  18.402
 7888SOL    HW135543   0.122   2.437  18.334
 7888SOL    HW235544   4.782   2.417  18.402
 7889SOL     OW35545   3.280   3.952  11.338
 7889SOL    HW135546   3.359   3.968  11.391
 7889SOL    HW235547   3.226   3.895  11.393
 7890SOL     OW35548   3.007   3.522  19.493
 7890SOL    HW135549   3.092   3.493  19.461
 7890SOL    HW235550   2.994   3.608  19.452
 7891SOL     OW35551   4.031   2.925   0.406
 7891SOL    HW135552   3.947   2.889   0.433
 7891SOL    HW235553   4.074   2.855   0.357
 7892SOL     OW35554   0.003   0.042  17.033
 7892SOL    HW135555   4.716   0.092  17.040
 7892SOL    HW235556   0.072   0.108  17.024
 7893SOL     OW35557   1.377   3.368  18.058
 7893SOL    HW135558   1.382   3.277  18.027
 7893SOL    HW235559   1.288   3.395  18.039
 7894SOL     OW35560   2.945   3.864  15.147
 7894SOL    HW135561   2.867   3.864  15.203
 7894SOL    HW235562   3.012   3.908  15.199
 7895SOL     OW35563   2.707   4.445   4.585
 7895SOL    HW135564   2.655   4.455   4.505
 7895SOL    HW235565   2.796   4.467   4.559
 7896SOL     OW35566   2.224   3.774   1.532
 7896SOL    HW135567   2.293   3.714   1.561
 7896SOL    HW235568   2.143   3.735   1.566
 7897SOL     OW35569   0.206   1.403  17.116
 7897SOL    HW135570   0.291   1.443  17.097
 7897SOL    HW235571   0.145   1.476  17.124
 7898SOL     OW35572   4.133   1.391   6.235
 7898SOL    HW135573   4.067   1.398   6.166
 7898SOL    HW235574   4.216   1.405   6.190
 7899SOL     OW35575   0.172   0.262  17.175
 7899SOL    HW135576   0.121   0.195  17.221
 7899SOL    HW235577   0.229   0.300  17.241
 7900SOL     OW35578   1.873   0.864  15.797
 7900SOL    HW135579   1.830   0.940  15.837
 7900SOL    HW235580   1.852   0.871  15.704
 7901SOL     OW35581   4.102   1.181   3.052
 7901SOL    HW135582   4.066   1.261   3.091
 7901SOL    HW235583   4.197   1.197   3.049
 7902SOL     OW35584   3.051   0.938   5.255
 7902SOL    HW135585   3.119   0.901   5.198
 7902SOL    HW235586   2.970   0.896   5.225
 7903SOL     OW35587   3.688   1.316  18.564
 7903SOL    HW135588   3.671   1.264  18.485
 7903SOL    HW235589   3.770   1.281  18.599
 7904SOL     OW35590   1.650   1.293   3.197
 7904SOL    HW135591   1.593   1.263   3.126
 7904SOL    HW235592   1.738   1.266   3.170
 7905SOL     OW35593   3.664   3.455   6.084
 7905SOL    HW135594   3.589   3.513   6.089
 7905SOL    HW235595   3.737   3.512   6.060
 7906SOL     OW35596   3.190   2.745   3.946
 7906SOL    HW135597   3.157   2.665   3.988
 7906SOL    HW235598   3.257   2.778   4.005
 7907SOL     OW35599   2.599   4.436  13.553
 7907SOL    HW135600   2.606   4.380  13.476
 7907SOL    HW235601   2.663   4.402  13.615
 7908SOL     OW35602   0.644   3.399  13.940
 7908SOL    HW135603   0.565   3.371  13.985
 7908SOL    HW235604   0.703   3.428  14.009
 7909SOL     OW35605   0.745   1.456  16.225
 7909SOL    HW135606   0.797   1.381  16.198
 7909SOL    HW235607   0.665   1.417  16.263
 7910SOL     OW35608   4.485   3.343  13.770
 7910SOL    HW135609   4.575   3.317  13.791
 7910SOL    HW235610   4.467   3.418  13.827
 7911SOL     OW35611   1.903   2.659   0.998
 7911SOL    HW135612   1.959   2.583   0.982
 7911SOL    HW235613   1.948   2.732   0.956
 7912SOL     OW35614   4.707   0.022   1.576
 7912SOL    HW135615   0.000   0.063   1.579
 7912SOL    HW235616   4.646   0.095   1.572
 7913SOL     OW35617   0.883   0.531   3.183
 7913SOL    HW135618   0.801   0.560   3.143
 7913SOL    HW235619   0.928   0.484   3.112
 7914SOL     OW35620   3.393   1.247  18.966
 7914SOL    HW135621   3.387   1.213  19.055
 7914SOL    HW235622   3.484   1.276  18.957
 7915SOL     OW35623   3.554   3.481  18.583
 7915SOL    HW135624   3.574   3.390  18.557
 7915SOL    HW235625   3.466   3.497  18.549
 7916SOL     OW35626   3.424   1.515  19.534
 7916SOL    HW135627   3.397   1.607  19.534
 7916SOL    HW235628   3.354   1.470  19.486
 7917SOL     OW35629   1.752   2.066   3.729
 7917SOL    HW135630   1.793   1.991   3.772
 7917SOL    HW235631   1.661   2.042   3.718
 7918SOL     OW35632   2.973   2.970   0.177
 7918SOL    HW135633   2.963   2.949   0.270
 7918SOL    HW235634   2.909   3.039   0.161
 7919SOL     OW35635   1.192   1.322  19.970
 7919SOL    HW135636   1.172   1.385  20.039
 7919SOL    HW235637   1.152   1.240  19.999
 7920SOL     OW35638   0.927   0.366  17.243
 7920SOL    HW135639   1.006   0.409  17.276
 7920SOL    HW235640   0.856   0.409  17.291
 7921SOL     OW35641   4.330   3.779  15.723
 7921SOL    HW135642   4.338   3.727  15.803
 7921SOL    HW235643   4.381   3.858  15.741
 7922SOL     OW35644   0.662   3.000   2.210
 7922SOL    HW135645   0.740   3.054   2.197
 7922SOL    HW235646   0.589   3.062   2.207
 7923SOL     OW35647   0.467   4.393   5.825
 7923SOL    HW135648   0.535   4.370   5.763
 7923SOL    HW235649   0.444   4.483   5.804
 7924SOL     OW35650   2.401   0.018  14.746
 7924SOL    HW135651   2.468   4.749  14.774
 7924SOL    HW235652   2.352   0.038  14.826
 7925SOL     OW35653   1.988   3.484  15.739
 7925SOL    HW135654   1.973   3.506  15.831
 7925SOL    HW235655   2.000   3.568  15.695
 7926SOL     OW35656   0.429   1.708   1.319
 7926SOL    HW135657   0.445   1.650   1.244
 7926SOL    HW235658   0.501   1.689   1.380
 7927SOL     OW35659   1.293   2.872  15.675
 7927SOL    HW135660   1.219   2.822  15.643
 7927SOL    HW235661   1.300   2.850  15.768
 7928SOL     OW35662   1.945   1.035  19.236
 7928SOL    HW135663   1.886   0.964  19.259
 7928SOL    HW235664   1.919   1.060  19.147
 7929SOL     OW35665   3.146   2.477  20.233
 7929SOL    HW135666   3.173   2.500  20.144
 7929SOL    HW235667   3.185   2.392  20.249
 7930SOL     OW35668   0.285   4.406  16.102
 7930SOL    HW135669   0.330   4.477  16.056
 7930SOL    HW235670   0.355   4.361  16.150
 7931SOL     OW35671   0.855   1.038   1.447
 7931SOL    HW135672   0.802   1.073   1.518
 7931SOL    HW235673   0.938   1.086   1.452
 7932SOL     OW35674   3.067   0.801   3.883
 7932SOL    HW135675   3.008   0.762   3.947
 7932SOL    HW235676   3.015   0.806   3.803
 7933SOL     OW35677   2.350   2.485  17.173
 7933SOL    HW135678   2.344   2.575  17.140
 7933SOL    HW235679   2.413   2.490  17.245
 7934SOL     OW35680   1.078   3.781  17.325
 7934SOL    HW135681   0.993   3.815  17.296
 7934SOL    HW235682   1.128   3.770  17.244
 7935SOL     OW35683   4.700   1.150   3.449
 7935SOL    HW135684   4.700   1.149   3.544
 7935SOL    HW235685   4.769   1.213   3.426
 7936SOL     OW35686   0.736   3.241  13.425
 7936SOL    HW135687   0.789   3.308  13.381
 7936SOL    HW235688   0.762   3.246  13.517
 7937SOL     OW35689   3.238   2.789  20.149
 7937SOL    HW135690   3.250   2.765  20.241
 7937SOL    HW235691   3.323   2.822  20.122
 7938SOL     OW35692   3.692   1.488  17.212
 7938SOL    HW135693   3.641   1.412  17.239
 7938SOL    HW235694   3.635   1.563  17.231
 7939SOL     OW35695   0.657   4.414  18.541
 7939SOL    HW135696   0.597   4.409  18.467
 7939SOL    HW235697   0.616   4.476  18.601
 7940SOL     OW35698   3.541   2.980  16.311
 7940SOL    HW135699   3.572   2.983  16.221
 7940SOL    HW235700   3.568   3.063  16.349
 7941SOL     OW35701   3.394   1.635  20.090
 7941SOL    HW135702   3.417   1.611  20.180
 7941SOL    HW235703   3.440   1.717  20.074
 7942SOL     OW35704   4.251   2.360  21.112
 7942SOL    HW135705   4.247   2.444  21.159
 7942SOL    HW235706   4.197   2.375  21.034
 7943SOL     OW35707   3.480   4.712  15.079
 7943SOL    HW135708   3.390   4.718  15.113
 7943SOL    HW235709   3.474   4.649  15.007
 7944SOL     OW35710   0.879   4.000  16.710
 7944SOL    HW135711   0.829   4.018  16.789
 7944SOL    HW235712   0.837   3.922  16.672
 7945SOL     OW35713   0.181   2.319  16.564
 7945SOL    HW135714   0.255   2.380  16.570
 7945SOL    HW235715   0.209   2.254  16.500
 7946SOL     OW35716   0.791   2.679  20.215
 7946SOL    HW135717   0.773   2.683  20.309
 7946SOL    HW235718   0.845   2.757  20.198
 7947SOL     OW35719   3.098   3.300   5.208
 7947SOL    HW135720   3.117   3.250   5.288
 7947SOL    HW235721   3.107   3.236   5.138
 7948SOL     OW35722   2.015   1.000   0.161
 7948SOL    HW135723   1.971   0.969   0.082
 7948SOL    HW235724   2.100   1.033   0.130
 7949SOL     OW35725   3.679   4.500  20.315
 7949SOL    HW135726   3.686   4.479  20.221
 7949SOL    HW235727   3.767   4.526  20.341
 7950SOL     OW35728   0.355   3.627   3.565
 7950SOL    HW135729   0.373   3.544   3.611
 7950SOL    HW235730   0.399   3.694   3.618
 7951SOL     OW35731   0.618   0.722   0.331
 7951SOL    HW135732   0.685   0.765   0.385
 7951SOL    HW235733   0.541   0.717   0.388
 7952SOL     OW35734   2.119   1.522   0.575
 7952SOL    HW135735   2.080   1.494   0.658
 7952SOL    HW235736   2.200   1.567   0.602
 7953SOL     OW35737   1.454   1.637  19.605
 7953SOL    HW135738   1.516   1.653  19.676
 7953SOL    HW235739   1.368   1.639  19.647
 7954SOL     OW35740   1.930   2.489  19.876
 7954SOL    HW135741   1.966   2.505  19.963
 7954SOL    HW235742   1.841   2.524  19.880
 7955SOL     OW35743   4.608   0.685   5.631
 7955SOL    HW135744   4.595   0.641   5.715
 7955SOL    HW235745   4.652   0.620   5.576
 7956SOL     OW35746   1.323   0.460   7.226
 7956SOL    HW135747   1.317   0.484   7.318
 7956SOL    HW235748   1.232   0.448   7.198
 7957SOL     OW35749   2.362   0.054  16.880
 7957SOL    HW135750   2.291   0.003  16.841
 7957SOL    HW235751   2.345   0.144  16.852
 7958SOL     OW35752   0.248   4.472  15.432
 7958SOL    HW135753   0.246   4.387  15.388
 7958SOL    HW235754   0.303   4.527  15.376
 7959SOL     OW35755   0.186   3.376   3.021
 7959SOL    HW135756   0.141   3.372   2.937
 7959SOL    HW235757   0.277   3.358   3.001
 7960SOL     OW35758   4.097   0.295   5.129
 7960SOL    HW135759   4.042   0.363   5.092
 7960SOL    HW235760   4.130   0.246   5.053
 7961SOL     OW35761   3.192   2.677  14.905
 7961SOL    HW135762   3.251   2.657  14.977
 7961SOL    HW235763   3.188   2.597  14.854
 7962SOL     OW35764   1.227   1.409   5.424
 7962SOL    HW135765   1.186   1.405   5.337
 7962SOL    HW235766   1.280   1.330   5.430
 7963SOL     OW35767   0.058   4.368   0.448
 7963SOL    HW135768   0.007   4.412   0.516
 7963SOL    HW235769   0.055   4.276   0.471
 7964SOL     OW35770   3.626   1.172   9.349
 7964SOL    HW135771   3.555   1.172   9.413
 7964SOL    HW235772   3.581   1.162   9.265
 7965SOL     OW35773   2.707   4.549  21.085
 7965SOL    HW135774   2.792   4.588  21.062
 7965SOL    HW235775   2.721   4.510  21.171
 7966SOL     OW35776   2.198   1.119   0.952
 7966SOL    HW135777   2.173   1.113   1.045
 7966SOL    HW235778   2.275   1.176   0.951
 7967SOL     OW35779   2.355   3.323   6.555
 7967SOL    HW135780   2.355   3.288   6.644
 7967SOL    HW235781   2.448   3.338   6.536
 7968SOL     OW35782   0.064   2.303  16.160
 7968SOL    HW135783   0.126   2.362  16.118
 7968SOL    HW235784   0.069   2.324  16.253
 7969SOL     OW35785   0.886   2.348  18.700
 7969SOL    HW135786   0.802   2.389  18.679
 7969SOL    HW235787   0.919   2.315  18.616
 7970SOL     OW35788   2.713   2.628  12.971
 7970SOL    HW135789   2.722   2.716  13.008
 7970SOL    HW235790   2.629   2.597  13.004
 7971SOL     OW35791   0.872   1.928   0.090
 7971SOL    HW135792   0.842   1.863   0.026
 7971SOL    HW235793   0.958   1.954   0.058
 7972SOL     OW35794   0.755   1.589  16.841
 7972SOL    HW135795   0.660   1.583  16.835
 7972SOL    HW235796   0.783   1.502  16.870
 7973SOL     OW35797   4.678   1.821   1.329
 7973SOL    HW135798   4.773   1.816   1.321
 7973SOL    HW235799   4.662   1.830   1.423
 7974SOL     OW35800   1.625   2.237   4.322
 7974SOL    HW135801   1.697   2.282   4.368
 7974SOL    HW235802   1.553   2.238   4.384
 7975SOL     OW35803   4.333   4.734   3.714
 7975SOL    HW135804   4.369   4.648   3.695
 7975SOL    HW235805   4.355   4.749   3.806
 7976SOL     OW35806   0.787   0.969  11.338
 7976SOL    HW135807   0.833   0.898  11.383
 7976SOL    HW235808   0.706   0.980  11.388
 7977SOL     OW35809   4.399   4.247  15.044
 7977SOL    HW135810   4.328   4.236  14.981
 7977SOL    HW235811   4.476   4.266  14.990
 7978SOL     OW35812   4.109   1.677  19.964
 7978SOL    HW135813   4.100   1.751  19.904
 7978SOL    HW235814   4.074   1.709  20.047
 7979SOL     OW35815   4.318   1.253  17.743
 7979SOL    HW135816   4.256   1.294  17.804
 7979SOL    HW235817   4.266   1.236  17.665
 7980SOL     OW35818   0.168   1.484   1.416
 7980SOL    HW135819   0.115   1.477   1.337
 7980SOL    HW235820   0.157   1.575   1.445
 7981SOL     OW35821   3.521   1.452  18.703
 7981SOL    HW135822   3.453   1.386  18.719
 7981SOL    HW235823   3.587   1.405  18.652
 7982SOL     OW35824   3.612   4.583   5.130
 7982SOL    HW135825   3.564   4.574   5.212
 7982SOL    HW235826   3.547   4.615   5.068
 7983SOL     OW35827   0.445   0.993   3.520
 7983SOL    HW135828   0.442   0.932   3.446
 7983SOL    HW235829   0.512   0.957   3.579
 7984SOL     OW35830   3.443   4.146   2.394
 7984SOL    HW135831   3.509   4.111   2.454
 7984SOL    HW235832   3.410   4.224   2.439
 7985SOL     OW35833   3.374   1.865   6.475
 7985SOL    HW135834   3.360   1.960   6.464
 7985SOL    HW235835   3.331   1.845   6.558
 7986SOL     OW35836   4.041   1.031   5.235
 7986SOL    HW135837   4.034   1.124   5.214
 7986SOL    HW235838   4.114   1.000   5.182
 7987SOL     OW35839   3.313   0.262  18.814
 7987SOL    HW135840   3.338   0.304  18.896
 7987SOL    HW235841   3.266   0.329  18.765
 7988SOL     OW35842   1.445   1.183   8.767
 7988SOL    HW135843   1.470   1.091   8.755
 7988SOL    HW235844   1.391   1.203   8.691
 7989SOL     OW35845   3.056   2.479  19.049
 7989SOL    HW135846   3.068   2.401  19.103
 7989SOL    HW235847   2.962   2.484  19.034
 7990SOL     OW35848   0.919   3.072   1.806
 7990SOL    HW135849   0.886   3.139   1.864
 7990SOL    HW235850   0.934   2.996   1.862
 7991SOL     OW35851   0.404   1.588  15.523
 7991SOL    HW135852   0.312   1.591  15.497
 7991SOL    HW235853   0.445   1.529  15.460
 7992SOL     OW35854   1.738   1.208  19.890
 7992SOL    HW135855   1.702   1.163  19.967
 7992SOL    HW235856   1.802   1.269  19.926
 7993SOL     OW35857   1.855   0.743  19.954
 7993SOL    HW135858   1.941   0.719  19.922
 7993SOL    HW235859   1.872   0.810  20.021
 7994SOL     OW35860   3.466   4.372  14.168
 7994SOL    HW135861   3.392   4.365  14.108
 7994SOL    HW235862   3.502   4.459  14.150
 7995SOL     OW35863   4.627   4.733  13.999
 7995SOL    HW135864   4.613   4.701  14.087
 7995SOL    HW235865   4.706   4.688  13.969
 7996SOL     OW35866   0.061   3.876  13.132
 7996SOL    HW135867   0.002   3.828  13.073
 7996SOL    HW235868   0.149   3.850  13.104
 7997SOL     OW35869   2.434   2.346  16.003
 7997SOL    HW135870   2.415   2.412  16.069
 7997SOL    HW235871   2.525   2.363  15.977
 7998SOL     OW35872   0.603   4.707   1.723
 7998SOL    HW135873   0.516   4.728   1.758
 7998SOL    HW235874   0.592   4.623   1.679
 7999SOL     OW35875   2.400   2.681   2.185
 7999SOL    HW135876   2.404   2.763   2.234
 7999SOL    HW235877   2.378   2.707   2.096
 8000SOL     OW35878   1.103   1.088  20.170
 8000SOL    HW135879   1.028   1.044  20.209
 8000SOL    HW235880   1.174   1.077  20.234
 8001SOL     OW35881   0.041   2.606  17.237
 8001SOL    HW135882   0.068   2.541  17.301
 8001SOL    HW235883   0.120   2.627  17.188
 8002SOL     OW35884   3.221   2.301   4.024
 8002SOL    HW135885   3.156   2.233   4.006
 8002SOL    HW235886   3.298   2.275   3.974
 8003SOL     OW35887   4.107   0.881   6.858
 8003SOL    HW135888   4.179   0.822   6.882
 8003SOL    HW235889   4.107   0.881   6.762
 8004SOL     OW35890   1.232   0.962  18.687
 8004SOL    HW135891   1.166   0.909  18.732
 8004SOL    HW235892   1.301   0.974  18.752
 8005SOL     OW35893   3.570   3.495   6.437
 8005SOL    HW135894   3.616   3.578   6.424
 8005SOL    HW235895   3.606   3.460   6.518
 8006SOL     OW35896   3.123   4.103  20.410
 8006SOL    HW135897   3.047   4.105  20.470
 8006SOL    HW235898   3.155   4.194  20.411
 8007SOL     OW35899   1.473   1.053  17.897
 8007SOL    HW135900   1.397   1.005  17.931
 8007SOL    HW235901   1.478   1.132  17.951
 8008SOL     OW35902   3.240   4.235   1.850
 8008SOL    HW135903   3.263   4.150   1.814
 8008SOL    HW235904   3.210   4.216   1.939
 8009SOL     OW35905   3.716   2.531   4.212
 8009SOL    HW135906   3.691   2.487   4.131
 8009SOL    HW235907   3.731   2.461   4.275
 8010SOL     OW35908   3.808   0.973   0.927
 8010SOL    HW135909   3.745   1.044   0.943
 8010SOL    HW235910   3.862   1.005   0.855
 8011SOL     OW35911   0.135   4.398  15.115
 8011SOL    HW135912   0.217   4.371  15.156
 8011SOL    HW235913   0.070   4.396  15.186
 8012SOL     OW35914   0.138   3.469   5.069
 8012SOL    HW135915   0.090   3.405   5.016
 8012SOL    HW235916   0.076   3.495   5.137
 8013SOL     OW35917   1.169   0.469  19.708
 8013SOL    HW135918   1.077   0.446  19.708
 8013SOL    HW235919   1.183   0.512  19.624
 8014SOL     OW35920   1.329   1.673  20.081
 8014SOL    HW135921   1.239   1.641  20.087
 8014SOL    HW235922   1.371   1.640  20.161
 8015SOL     OW35923   2.828   1.283   1.124
 8015SOL    HW135924   2.820   1.201   1.173
 8015SOL    HW235925   2.914   1.278   1.083
 8016SOL     OW35926   0.209   4.708  18.868
 8016SOL    HW135927   0.169   0.002  18.865
 8016SOL    HW235928   0.252   4.704  18.953
 8017SOL     OW35929   1.962   3.196   2.343
 8017SOL    HW135930   1.910   3.273   2.367
 8017SOL    HW235931   1.939   3.130   2.408
 8018SOL     OW35932   4.328   2.054   5.042
 8018SOL    HW135933   4.297   1.965   5.026
 8018SOL    HW235934   4.417   2.055   5.006
 8019SOL     OW35935   4.126   2.236   3.176
 8019SOL    HW135936   4.179   2.170   3.130
 8019SOL    HW235937   4.098   2.296   3.107
 8020SOL     OW35938   2.887   2.497   2.490
 8020SOL    HW135939   2.945   2.451   2.430
 8020SOL    HW235940   2.807   2.444   2.490
 8021SOL     OW35941   2.561   2.777  15.178
 8021SOL    HW135942   2.548   2.866  15.210
 8021SOL    HW235943   2.540   2.721  15.252
 8022SOL     OW35944   0.590   2.367  17.367
 8022SOL    HW135945   0.503   2.367  17.405
 8022SOL    HW235946   0.578   2.332  17.278
 8023SOL     OW35947   1.479   2.074  18.799
 8023SOL    HW135948   1.434   2.064  18.883
 8023SOL    HW235949   1.534   1.996  18.792
 8024SOL     OW35950   1.871   0.973   1.192
 8024SOL    HW135951   1.914   1.056   1.170
 8024SOL    HW235952   1.835   0.942   1.110
 8025SOL     OW35953   0.709   3.497  17.286
 8025SOL    HW135954   0.740   3.507  17.376
 8025SOL    HW235955   0.633   3.555  17.280
 8026SOL     OW35956   0.880   1.140  15.494
 8026SOL    HW135957   0.889   1.080  15.420
 8026SOL    HW235958   0.789   1.131  15.522
 8027SOL     OW35959   2.581   0.305  12.803
 8027SOL    HW135960   2.489   0.324  12.823
 8027SOL    HW235961   2.628   0.331  12.882
 8028SOL     OW35962   0.096   1.069  13.901
 8028SOL    HW135963   0.036   1.041  13.831
 8028SOL    HW235964   0.152   1.135  13.860
 8029SOL     OW35965   3.745   3.806   2.814
 8029SOL    HW135966   3.778   3.894   2.797
 8029SOL    HW235967   3.820   3.749   2.800
 8030SOL     OW35968   0.625   2.977  20.939
 8030SOL    HW135969   0.533   2.971  20.964
 8030SOL    HW235970   0.647   3.069  20.953
 8031SOL     OW35971   4.763   1.549  20.050
 8031SOL    HW135972   4.764   1.456  20.030
 8031SOL    HW235973   0.031   1.588  19.989
 8032SOL     OW35974   2.230   2.623  19.422
 8032SOL    HW135975   2.317   2.584  19.421
 8032SOL    HW235976   2.217   2.651  19.513
 8033SOL     OW35977   0.379   2.451   2.765
 8033SOL    HW135978   0.466   2.465   2.726
 8033SOL    HW235979   0.335   2.535   2.755
 8034SOL     OW35980   2.346   1.469  20.643
 8034SOL    HW135981   2.283   1.426  20.702
 8034SOL    HW235982   2.414   1.403  20.628
 8035SOL     OW35983   1.627   3.104  12.858
 8035SOL    HW135984   1.663   3.017  12.841
 8035SOL    HW235985   1.654   3.123  12.948
 8036SOL     OW35986   4.050   1.912   1.089
 8036SOL    HW135987   4.105   1.868   1.023
 8036SOL    HW235988   3.961   1.887   1.066
 8037SOL     OW35989   2.224   3.478   0.951
 8037SOL    HW135990   2.136   3.490   0.986
 8037SOL    HW235991   2.235   3.548   0.887
 8038SOL     OW35992   3.132   3.174   2.790
 8038SOL    HW135993   3.061   3.117   2.759
 8038SOL    HW235994   3.172   3.125   2.862
 8039SOL     OW35995   2.275   4.519   0.690
 8039SOL    HW135996   2.278   4.444   0.749
 8039SOL    HW235997   2.187   4.518   0.655
 8040SOL     OW35998   1.016   0.902  14.598
 8040SOL    HW135999   1.037   0.983  14.645
 8040SOL    HW236000   0.928   0.916  14.564
 8041SOL     OW36001   0.693   2.332  16.372
 8041SOL    HW136002   0.601   2.308  16.359
 8041SOL    HW236003   0.699   2.352  16.465
 8042SOL     OW36004   0.707   0.917  14.539
 8042SOL    HW136005   0.616   0.888  14.547
 8042SOL    HW236006   0.703   1.012  14.552
 8043SOL     OW36007   2.495   2.991   5.411
 8043SOL    HW136008   2.565   3.011   5.349
 8043SOL    HW236009   2.416   3.024   5.369
 8044SOL     OW36010   2.648   3.208  16.671
 8044SOL    HW136011   2.716   3.156  16.714
 8044SOL    HW236012   2.566   3.168  16.698
 8045SOL     OW36013   1.596   1.863   1.726
 8045SOL    HW136014   1.602   1.945   1.773
 8045SOL    HW236015   1.681   1.821   1.740
 8046SOL     OW36016   3.721   3.355  20.440
 8046SOL    HW136017   3.692   3.277  20.392
 8046SOL    HW236018   3.799   3.385  20.394
 8047SOL     OW36019   4.674   0.170  14.252
 8047SOL    HW136020   4.598   0.158  14.196
 8047SOL    HW236021   4.737   0.218  14.198
 8048SOL     OW36022   1.206   4.053   5.210
 8048SOL    HW136023   1.137   4.119   5.205
 8048SOL    HW236024   1.244   4.064   5.297
 8049SOL     OW36025   2.791   3.543   2.593
 8049SOL    HW136026   2.819   3.529   2.684
 8049SOL    HW236027   2.808   3.636   2.577
 8050SOL     OW36028   0.650   4.080  19.144
 8050SOL    HW136029   0.605   4.152  19.100
 8050SOL    HW236030   0.638   4.098  19.237
 8051SOL     OW36031   4.520   3.969  15.709
 8051SOL    HW136032   4.614   3.981  15.694
 8051SOL    HW236033   4.488   4.056  15.731
 8052SOL     OW36034   1.239   2.245  16.610
 8052SOL    HW136035   1.219   2.158  16.645
 8052SOL    HW236036   1.256   2.299  16.687
 8053SOL     OW36037   4.781   4.346   1.538
 8053SOL    HW136038   4.758   4.437   1.518
 8053SOL    HW236039   4.699   4.307   1.567
 8054SOL     OW36040   4.342   4.220  15.702
 8054SOL    HW136041   4.345   4.267  15.786
 8054SOL    HW236042   4.289   4.276  15.645
 8055SOL     OW36043   2.958   2.582   2.754
 8055SOL    HW136044   2.942   2.564   2.661
 8055SOL    HW236045   2.960   2.678   2.759
 8056SOL     OW36046   2.138   4.604  20.621
 8056SOL    HW136047   2.177   4.551  20.691
 8056SOL    HW236048   2.119   4.689  20.663
 8057SOL     OW36049   1.426   3.258   6.794
 8057SOL    HW136050   1.402   3.348   6.816
 8057SOL    HW236051   1.344   3.209   6.802
 8058SOL     OW36052   2.478   3.440   5.405
 8058SOL    HW136053   2.434   3.360   5.434
 8058SOL    HW236054   2.444   3.455   5.317
 8059SOL     OW36055   1.492   4.732   3.524
 8059SOL    HW136056   1.552   0.010   3.502
 8059SOL    HW236057   1.543   4.676   3.583
 8060SOL     OW36058   3.953   0.957   5.493
 8060SOL    HW136059   3.858   0.957   5.498
 8060SOL    HW236060   3.972   0.971   5.401
 8061SOL     OW36061   1.575   2.926  17.496
 8061SOL    HW136062   1.519   2.871  17.441
 8061SOL    HW236063   1.627   2.977  17.435
 8062SOL     OW36064   1.762   2.432  16.854
 8062SOL    HW136065   1.764   2.373  16.929
 8062SOL    HW236066   1.689   2.491  16.872
 8063SOL     OW36067   3.643   2.321   5.646
 8063SOL    HW136068   3.625   2.353   5.558
 8063SOL    HW236069   3.603   2.234   5.649
 8064SOL     OW36070   0.319   1.488  18.836
 8064SOL    HW136071   0.370   1.452  18.908
 8064SOL    HW236072   0.316   1.419  18.771
 8065SOL     OW36073   0.221   1.060   1.191
 8065SOL    HW136074   0.290   1.125   1.177
 8065SOL    HW236075   0.266   0.982   1.223
 8066SOL     OW36076   1.091   1.425  16.904
 8066SOL    HW136077   1.184   1.403  16.895
 8066SOL    HW236078   1.069   1.471  16.823
 8067SOL     OW36079   4.392   4.780  14.473
 8067SOL    HW136080   4.343   0.030  14.403
 8067SOL    HW236081   4.419   4.696  14.435
 8068SOL     OW36082   4.222   4.317   3.167
 8068SOL    HW136083   4.165   4.286   3.237
 8068SOL    HW236084   4.255   4.402   3.199
 8069SOL     OW36085   1.798   4.383   4.278
 8069SOL    HW136086   1.703   4.377   4.271
 8069SOL    HW236087   1.816   4.378   4.371
 8070SOL     OW36088   2.988   0.418   4.209
 8070SOL    HW136089   3.026   0.387   4.291
 8070SOL    HW236090   2.947   0.340   4.171
 8071SOL     OW36091   1.209   2.510  18.482
 8071SOL    HW136092   1.293   2.502  18.435
 8071SOL    HW236093   1.233   2.503  18.574
 8072SOL     OW36094   0.115   4.726   6.097
 8072SOL    HW136095   0.194   4.777   6.081
 8072SOL    HW236096   0.043   4.783   6.072
 8073SOL     OW36097   3.531   3.159   2.288
 8073SOL    HW136098   3.533   3.169   2.383
 8073SOL    HW236099   3.581   3.079   2.272
 8074SOL     OW36100   2.173   3.235  15.952
 8074SOL    HW136101   2.225   3.278  15.884
 8074SOL    HW236102   2.238   3.189  16.006
 8075SOL     OW36103   4.139   2.681  19.731
 8075SOL    HW136104   4.091   2.749  19.683
 8075SOL    HW236105   4.106   2.599  19.694
 8076SOL     OW36106   4.091   4.148   0.294
 8076SOL    HW136107   4.113   4.098   0.215
 8076SOL    HW236108   4.083   4.081   0.362
 8077SOL     OW36109   4.775   4.238  17.053
 8077SOL    HW136110   0.006   4.250  16.961
 8077SOL    HW236111   0.058   4.268  17.102
 8078SOL     OW36112   1.960   0.641   3.276
 8078SOL    HW136113   1.956   0.547   3.295
 8078SOL    HW236114   2.037   0.651   3.220
 8079SOL     OW36115   3.832   3.131   6.911
 8079SOL    HW136116   3.789   3.179   6.982
 8079SOL    HW236117   3.882   3.063   6.955
 8080SOL     OW36118   1.258   0.982  18.049
 8080SOL    HW136119   1.169   1.015  18.041
 8080SOL    HW236120   1.285   1.005  18.138
 8081SOL     OW36121   0.225   3.155   0.898
 8081SOL    HW136122   0.176   3.079   0.866
 8081SOL    HW236123   0.306   3.117   0.935
 8082SOL     OW36124   0.819   4.790  19.053
 8082SOL    HW136125   0.811   4.732  19.128
 8082SOL    HW236126   0.746   4.764  18.995
 8083SOL     OW36127   3.570   3.436  18.001
 8083SOL    HW136128   3.512   3.495  17.953
 8083SOL    HW236129   3.514   3.398  18.069
 8084SOL     OW36130   2.866   2.211   3.189
 8084SOL    HW136131   2.864   2.124   3.228
 8084SOL    HW236132   2.873   2.196   3.095
 8085SOL     OW36133   2.676   4.142   4.644
 8085SOL    HW136134   2.732   4.216   4.619
 8085SOL    HW236135   2.634   4.170   4.725
 8086SOL     OW36136   1.525   2.216  17.867
 8086SOL    HW136137   1.442   2.263  17.857
 8086SOL    HW236138   1.588   2.282  17.895
 8087SOL     OW36139   2.227   2.043   3.425
 8087SOL    HW136140   2.270   1.958   3.434
 8087SOL    HW236141   2.251   2.073   3.338
 8088SOL     OW36142   4.558   3.355  14.962
 8088SOL    HW136143   4.613   3.393  14.893
 8088SOL    HW236144   4.610   3.367  15.042
 8089SOL     OW36145   2.780   2.792  18.522
 8089SOL    HW136146   2.875   2.796  18.533
 8089SOL    HW236147   2.747   2.759  18.605
 8090SOL     OW36148   2.059   1.824   2.735
 8090SOL    HW136149   2.087   1.886   2.667
 8090SOL    HW236150   1.965   1.838   2.742
 8091SOL     OW36151   2.138   3.686   2.980
 8091SOL    HW136152   2.192   3.763   2.960
 8091SOL    HW236153   2.146   3.675   3.075
 8092SOL     OW36154   1.641   3.836  17.864
 8092SOL    HW136155   1.553   3.860  17.890
 8092SOL    HW236156   1.646   3.741  17.880
 8093SOL     OW36157   1.692   3.890  20.635
 8093SOL    HW136158   1.784   3.911  20.623
 8093SOL    HW236159   1.646   3.944  20.570
 8094SOL     OW36160   3.250   4.685  15.957
 8094SOL    HW136161   3.256   4.740  15.879
 8094SOL    HW236162   3.178   4.722  16.007
 8095SOL     OW36163   1.500   1.638   5.371
 8095SOL    HW136164   1.411   1.633   5.338
 8095SOL    HW236165   1.540   1.711   5.324
 8096SOL     OW36166   3.514   4.720  16.857
 8096SOL    HW136167   3.581   4.661  16.891
 8096SOL    HW236168   3.560   4.775  16.794
 8097SOL     OW36169   0.344   4.022  19.083
 8097SOL    HW136170   0.401   4.096  19.063
 8097SOL    HW236171   0.260   4.046  19.044
 8098SOL     OW36172   0.230   1.981   1.926
 8098SOL    HW136173   0.260   1.892   1.944
 8098SOL    HW236174   0.308   2.027   1.895
 8099SOL     OW36175   3.137   1.514   5.279
 8099SOL    HW136176   3.146   1.568   5.201
 8099SOL    HW236177   3.223   1.519   5.322
 8100SOL     OW36178   0.626   0.606   3.068
 8100SOL    HW136179   0.561   0.668   3.034
 8100SOL    HW236180   0.686   0.592   2.996
 8101SOL     OW36181   0.053   2.821  17.389
 8101SOL    HW136182   0.051   2.755  17.319
 8101SOL    HW236183   0.131   2.799  17.439
 8102SOL     OW36184   1.815   1.884  18.075
 8102SOL    HW136185   1.820   1.824  18.001
 8102SOL    HW236186   1.833   1.830  18.151
 8103SOL     OW36187   2.891   4.122  19.955
 8103SOL    HW136188   2.842   4.044  19.984
 8103SOL    HW236189   2.919   4.164  20.036
 8104SOL     OW36190   0.066   1.609   6.485
 8104SOL    HW136191   0.123   1.583   6.558
 8104SOL    HW236192   0.085   1.546   6.416
 8105SOL     OW36193   0.527   1.870   1.638
 8105SOL    HW136194   0.593   1.803   1.660
 8105SOL    HW236195   0.573   1.931   1.581
 8106SOL     OW36196   0.684   3.100  17.804
 8106SOL    HW136197   0.676   3.020  17.752
 8106SOL    HW236198   0.753   3.080  17.868
 8107SOL     OW36199   1.854   1.362   5.232
 8107SOL    HW136200   1.945   1.340   5.254
 8107SOL    HW236201   1.854   1.369   5.137
 8108SOL     OW36202   2.369   2.617   1.596
 8108SOL    HW136203   2.299   2.676   1.622
 8108SOL    HW236204   2.419   2.603   1.676
 8109SOL     OW36205   1.695   0.542  19.301
 8109SOL    HW136206   1.728   0.502  19.221
 8109SOL    HW236207   1.601   0.524  19.300
 8110SOL     OW36208   2.133   4.313   5.427
 8110SOL    HW136209   2.085   4.298   5.346
 8110SOL    HW236210   2.068   4.352   5.486
 8111SOL     OW36211   3.946   0.356   1.830
 8111SOL    HW136212   3.929   0.345   1.924
 8111SOL    HW236213   4.035   0.388   1.825
 8112SOL     OW36214   0.476   2.798   5.440
 8112SOL    HW136215   0.543   2.833   5.499
 8112SOL    HW236216   0.441   2.874   5.394
 8113SOL     OW36217   2.632   0.420   0.656
 8113SOL    HW136218   2.584   0.460   0.584
 8113SOL    HW236219   2.658   0.334   0.624
 8114SOL     OW36220   4.196   1.438  20.482
 8114SOL    HW136221   4.227   1.348  20.474
 8114SOL    HW236222   4.200   1.456  20.576
 8115SOL     OW36223   2.794   0.798   5.086
 8115SOL    HW136224   2.734   0.797   5.011
 8115SOL    HW236225   2.766   0.873   5.139
 8116SOL     OW36226   1.772   1.521   2.733
 8116SOL    HW136227   1.714   1.557   2.666
 8116SOL    HW236228   1.746   1.567   2.813
 8117SOL     OW36229   2.568   2.795  14.549
 8117SOL    HW136230   2.555   2.740  14.471
 8117SOL    HW236231   2.641   2.753  14.595
 8118SOL     OW36232   1.509   1.229  16.587
 8118SOL    HW136233   1.568   1.199  16.518
 8118SOL    HW236234   1.513   1.325  16.581
 8119SOL     OW36235   2.388   0.928  18.559
 8119SOL    HW136236   2.296   0.951  18.542
 8119SOL    HW236237   2.399   0.843  18.516
 8120SOL     OW36238   3.874   3.815   2.441
 8120SOL    HW136239   3.911   3.732   2.412
 8120SOL    HW236240   3.794   3.825   2.390
 8121SOL     OW36241   1.066   1.907  15.411
 8121SOL    HW136242   1.102   1.848  15.344
 8121SOL    HW236243   1.134   1.912  15.478
 8122SOL     OW36244   4.784   2.490   5.493
 8122SOL    HW136245   0.003   2.546   5.569
 8122SOL    HW236246   4.779   2.551   5.419
 8123SOL     OW36247   3.839   0.606  17.128
 8123SOL    HW136248   3.911   0.556  17.168
 8123SOL    HW236249   3.876   0.693  17.113
 8124SOL     OW36250   4.189   1.948   2.898
 8124SOL    HW136251   4.095   1.963   2.907
 8124SOL    HW236252   4.229   2.005   2.963
 8125SOL     OW36253   1.823   0.532   8.368
 8125SOL    HW136254   1.874   0.563   8.443
 8125SOL    HW236255   1.750   0.594   8.363
 8126SOL     OW36256   2.145   1.285   4.673
 8126SOL    HW136257   2.184   1.197   4.672
 8126SOL    HW236258   2.052   1.269   4.689
 8127SOL     OW36259   3.587   4.005  15.726
 8127SOL    HW136260   3.611   4.002  15.634
 8127SOL    HW236261   3.662   3.966  15.772
 8128SOL     OW36262   2.298   4.000   2.621
 8128SOL    HW136263   2.357   4.064   2.580
 8128SOL    HW236264   2.211   4.040   2.613
 8129SOL     OW36265   4.120   2.037   5.445
 8129SOL    HW136266   4.206   2.001   5.466
 8129SOL    HW236267   4.094   2.085   5.523
 8130SOL     OW36268   3.526   3.206   2.562
 8130SOL    HW136269   3.608   3.201   2.612
 8130SOL    HW236270   3.463   3.157   2.616
 8131SOL     OW36271   2.838   2.894  20.675
 8131SOL    HW136272   2.890   2.923  20.750
 8131SOL    HW236273   2.793   2.816  20.706
 8132SOL     OW36274   2.839   3.528  18.163
 8132SOL    HW136275   2.791   3.458  18.208
 8132SOL    HW236276   2.894   3.567  18.230
 8133SOL     OW36277   1.854   3.454   2.722
 8133SOL    HW136278   1.801   3.533   2.720
 8133SOL    HW236279   1.853   3.427   2.814
 8134SOL     OW36280   2.940   4.302  15.723
 8134SOL    HW136281   2.905   4.384  15.757
 8134SOL    HW236282   2.932   4.310  15.628
 8135SOL     OW36283   3.683   0.414   0.845
 8135SOL    HW136284   3.732   0.363   0.910
 8135SOL    HW236285   3.703   0.505   0.867
 8136SOL     OW36286   3.651   3.369  19.158
 8136SOL    HW136287   3.706   3.377  19.081
 8136SOL    HW236288   3.711   3.342  19.228
 8137SOL     OW36289   2.860   4.720  16.086
 8137SOL    HW136290   2.768   4.746  16.081
 8137SOL    HW236291   2.865   4.665  16.164
 8138SOL     OW36292   0.048   4.338  19.357
 8138SOL    HW136293   0.095   4.268  19.402
 8138SOL    HW236294   0.117   4.391  19.317
 8139SOL     OW36295   4.580   3.844  20.400
 8139SOL    HW136296   4.618   3.903  20.334
 8139SOL    HW236297   4.649   3.832  20.464
 8140SOL     OW36298   2.058   2.227  18.786
 8140SOL    HW136299   2.087   2.230  18.877
 8140SOL    HW236300   2.016   2.141  18.778
 8141SOL     OW36301   0.463   1.026  18.739
 8141SOL    HW136302   0.553   1.037  18.707
 8141SOL    HW236303   0.441   0.935  18.718
 8142SOL     OW36304   4.571   0.043  19.273
 8142SOL    HW136305   4.656   0.056  19.315
 8142SOL    HW236306   4.590   4.787  19.194
 8143SOL     OW36307   3.990   2.810   7.667
 8143SOL    HW136308   3.980   2.718   7.643
 8143SOL    HW236309   4.084   2.827   7.663
 8144SOL     OW36310   1.630   0.605   0.074
 8144SOL    HW136311   1.610   0.597  21.253
 8144SOL    HW236312   1.666   0.520   0.098
 8145SOL     OW36313   0.641   4.109  21.162
 8145SOL    HW136314   0.716   4.152  21.203
 8145SOL    HW236315   0.587   4.181  21.129
 8146SOL     OW36316   2.426   0.466   8.807
 8146SOL    HW136317   2.372   0.437   8.881
 8146SOL    HW236318   2.467   0.385   8.775
 8147SOL     OW36319   2.585   0.079   6.288
 8147SOL    HW136320   2.493   0.054   6.296
 8147SOL    HW236321   2.592   0.161   6.336
 8148SOL     OW36322   2.395   4.521   4.509
 8148SOL    HW136323   2.470   4.556   4.461
 8148SOL    HW236324   2.333   4.494   4.441
 8149SOL     OW36325   3.040   0.284   1.675
 8149SOL    HW136326   2.959   0.233   1.688
 8149SOL    HW236327   3.045   0.340   1.753
 8150SOL     OW36328   2.815   0.355   2.181
 8150SOL    HW136329   2.783   0.441   2.154
 8150SOL    HW236330   2.874   0.372   2.254
 8151SOL     OW36331   4.354   3.478   6.501
 8151SOL    HW136332   4.336   3.480   6.407
 8151SOL    HW236333   4.273   3.446   6.541
 8152SOL     OW36334   3.774   3.187  15.984
 8152SOL    HW136335   3.811   3.162  16.069
 8152SOL    HW236336   3.816   3.129  15.921
 8153SOL     OW36337   2.391   3.541   5.860
 8153SOL    HW136338   2.394   3.597   5.783
 8153SOL    HW236339   2.304   3.555   5.896
 8154SOL     OW36340   1.834   1.901  19.053
 8154SOL    HW136341   1.748   1.935  19.079
 8154SOL    HW236342   1.890   1.916  19.129
 8155SOL     OW36343   3.902   0.929   4.630
 8155SOL    HW136344   3.900   1.005   4.572
 8155SOL    HW236345   3.815   0.889   4.619
 8156SOL     OW36346   4.591   1.641   6.530
 8156SOL    HW136347   4.568   1.549   6.546
 8156SOL    HW236348   4.686   1.639   6.516
 8157SOL     OW36349   1.686   4.178   0.794
 8157SOL    HW136350   1.611   4.236   0.806
 8157SOL    HW236351   1.690   4.127   0.875
 8158SOL     OW36352   4.366   3.498   2.474
 8158SOL    HW136353   4.416   3.418   2.458
 8158SOL    HW236354   4.363   3.504   2.570
 8159SOL     OW36355   1.017   3.067   6.066
 8159SOL    HW136356   1.094   3.016   6.042
 8159SOL    HW236357   0.986   3.104   5.984
 8160SOL     OW36358   2.499   2.757  16.723
 8160SOL    HW136359   2.499   2.702  16.644
 8160SOL    HW236360   2.409   2.755  16.754
 8161SOL     OW36361   2.375   4.043   0.955
 8161SOL    HW136362   2.459   4.078   0.925
 8161SOL    HW236363   2.380   4.049   1.050
 8162SOL     OW36364   2.764   4.349  16.111
 8162SOL    HW136365   2.684   4.396  16.136
 8162SOL    HW236366   2.757   4.265  16.157
 8163SOL     OW36367   2.274   3.828   4.387
 8163SOL    HW136368   2.316   3.891   4.329
 8163SOL    HW236369   2.226   3.881   4.450
 8164SOL     OW36370   2.306   2.635   8.694
 8164SOL    HW136371   2.312   2.725   8.665
 8164SOL    HW236372   2.304   2.583   8.614
 8165SOL     OW36373   0.867   4.714   5.435
 8165SOL    HW136374   0.904   4.716   5.523
 8165SOL    HW236375   0.792   4.655   5.441
 8166SOL     OW36376   4.411   2.883  17.583
 8166SOL    HW136377   4.479   2.823  17.613
 8166SOL    HW236378   4.449   2.925  17.506
 8167SOL     OW36379   0.576   1.084   3.237
 8167SOL    HW136380   0.625   1.161   3.210
 8167SOL    HW236381   0.497   1.119   3.279
 8168SOL     OW36382   3.743   0.805   5.797
 8168SOL    HW136383   3.729   0.846   5.711
 8168SOL    HW236384   3.824   0.844   5.829
 8169SOL     OW36385   1.431   3.116  12.631
 8169SOL    HW136386   1.490   3.086  12.563
 8169SOL    HW236387   1.483   3.114  12.711
 8170SOL     OW36388   1.670   0.410  21.086
 8170SOL    HW136389   1.718   0.360  21.151
 8170SOL    HW236390   1.664   0.351  21.010
 8171SOL     OW36391   1.059   1.389   4.678
 8171SOL    HW136392   1.085   1.363   4.766
 8171SOL    HW236393   1.114   1.336   4.620
 8172SOL     OW36394   1.723   3.891   6.025
 8172SOL    HW136395   1.705   3.873   6.118
 8172SOL    HW236396   1.813   3.923   6.023
 8173SOL     OW36397   0.903   2.182  16.438
 8173SOL    HW136398   0.954   2.263  16.439
 8173SOL    HW236399   0.813   2.211  16.422
 8174SOL     OW36400   0.459   0.321  15.422
 8174SOL    HW136401   0.391   0.385  15.402
 8174SOL    HW236402   0.539   0.358  15.385
 8175SOL     OW36403   1.062   4.232  16.181
 8175SOL    HW136404   1.145   4.279  16.177
 8175SOL    HW236405   1.006   4.288  16.234
 8176SOL     OW36406   3.552   4.212   4.018
 8176SOL    HW136407   3.508   4.280   3.967
 8176SOL    HW236408   3.484   4.177   4.075
 8177SOL     OW36409   1.218   1.041  13.858
 8177SOL    HW136410   1.290   1.094  13.822
 8177SOL    HW236411   1.148   1.104  13.875
 8178SOL     OW36412   1.191   0.215  15.502
 8178SOL    HW136413   1.231   0.164  15.432
 8178SOL    HW236414   1.265   0.247  15.554
 8179SOL     OW36415   2.380   2.827  20.934
 8179SOL    HW136416   2.362   2.739  20.899
 8179SOL    HW236417   2.326   2.885  20.881
 8180SOL     OW36418   3.422   4.474   3.875
 8180SOL    HW136419   3.356   4.438   3.934
 8180SOL    HW236420   3.390   4.562   3.853
 8181SOL     OW36421   1.554   4.509   3.803
 8181SOL    HW136422   1.515   4.449   3.866
 8181SOL    HW236423   1.618   4.456   3.755
 8182SOL     OW36424   2.298   2.811  17.342
 8182SOL    HW136425   2.213   2.773  17.364
 8182SOL    HW236426   2.294   2.827  17.248
 8183SOL     OW36427   2.527   3.079   1.702
 8183SOL    HW136428   2.482   3.006   1.660
 8183SOL    HW236429   2.620   3.057   1.697
 8184SOL     OW36430   3.804   0.416   3.763
 8184SOL    HW136431   3.788   0.393   3.672
 8184SOL    HW236432   3.717   0.434   3.799
 8185SOL     OW36433   4.123   3.155  17.363
 8185SOL    HW136434   4.173   3.127  17.439
 8185SOL    HW236435   4.176   3.129  17.288
 8186SOL     OW36436   4.602   0.142   3.843
 8186SOL    HW136437   4.621   0.048   3.842
 8186SOL    HW236438   4.549   0.154   3.922
 8187SOL     OW36439   4.542   2.174   0.480
 8187SOL    HW136440   4.544   2.223   0.398
 8187SOL    HW236441   4.547   2.241   0.548
 8188SOL     OW36442   0.896   0.796   2.755
 8188SOL    HW136443   0.967   0.860   2.755
 8188SOL    HW236444   0.880   0.778   2.847
 8189SOL     OW36445   0.167   4.599   3.384
 8189SOL    HW136446   0.197   4.513   3.415
 8189SOL    HW236447   0.083   4.581   3.342
 8190SOL     OW36448   3.897   2.981   5.774
 8190SOL    HW136449   3.877   3.030   5.854
 8190SOL    HW236450   3.948   2.906   5.805
 8191SOL     OW36451   0.154   2.495   0.152
 8191SOL    HW136452   0.116   2.416   0.189
 8191SOL    HW236453   0.179   2.548   0.228
 8192SOL     OW36454   1.637   3.217  16.964
 8192SOL    HW136455   1.679   3.136  16.993
 8192SOL    HW236456   1.674   3.233  16.877
 8193SOL     OW36457   1.627   0.725   3.915
 8193SOL    HW136458   1.699   0.678   3.958
 8193SOL    HW236459   1.586   0.660   3.858
 8194SOL     OW36460   1.272   4.157   3.523
 8194SOL    HW136461   1.332   4.159   3.597
 8194SOL    HW236462   1.231   4.071   3.528
 8195SOL     OW36463   3.896   1.441  19.226
 8195SOL    HW136464   3.855   1.379  19.286
 8195SOL    HW236465   3.968   1.480  19.276
 8196SOL     OW36466   2.705   4.655   7.427
 8196SOL    HW136467   2.797   4.681   7.426
 8196SOL    HW236468   2.659   4.725   7.381
 8197SOL     OW36469   1.220   2.653  16.505
 8197SOL    HW136470   1.266   2.683  16.426
 8197SOL    HW236471   1.290   2.626  16.565
 8198SOL     OW36472   2.741   4.231  17.687
 8198SOL    HW136473   2.669   4.220  17.750
 8198SOL    HW236474   2.709   4.190  17.607
 8199SOL     OW36475   4.673   2.454   0.044
 8199SOL    HW136476   4.651   2.391   0.112
 8199SOL    HW236477   4.760   2.485   0.068
 8200SOL     OW36478   3.163   3.663  16.017
 8200SOL    HW136479   3.222   3.734  16.042
 8200SOL    HW236480   3.136   3.624  16.100
 8201SOL     OW36481   4.442   2.375  16.847
 8201SOL    HW136482   4.507   2.340  16.908
 8201SOL    HW236483   4.418   2.460  16.883
 8202SOL     OW36484   3.844   2.011   9.239
 8202SOL    HW136485   3.873   2.034   9.151
 8202SOL    HW236486   3.876   1.922   9.253
 8203SOL     OW36487   1.637   3.409   0.479
 8203SOL    HW136488   1.585   3.368   0.548
 8203SOL    HW236489   1.660   3.337   0.420
 8204SOL     OW36490   1.114   0.010  13.267
 8204SOL    HW136491   1.168   4.761  13.200
 8204SOL    HW236492   1.177   0.052  13.326
 8205SOL     OW36493   1.674   0.259  16.301
 8205SOL    HW136494   1.674   0.337  16.357
 8205SOL    HW236495   1.584   0.226  16.308
 8206SOL     OW36496   1.818   4.653   3.023
 8206SOL    HW136497   1.896   4.638   2.969
 8206SOL    HW236498   1.805   4.748   3.021
 8207SOL     OW36499   3.712   4.147   5.778
 8207SOL    HW136500   3.744   4.213   5.716
 8207SOL    HW236501   3.786   4.132   5.837
 8208SOL     OW36502   4.173   4.599  16.345
 8208SOL    HW136503   4.256   4.571  16.383
 8208SOL    HW236504   4.193   4.618  16.253
 8209SOL     OW36505   4.212   0.731  18.325
 8209SOL    HW136506   4.172   0.697  18.246
 8209SOL    HW236507   4.139   0.764  18.377
 8210SOL     OW36508   2.999   1.740   6.523
 8210SOL    HW136509   2.925   1.697   6.479
 8210SOL    HW236510   3.003   1.698   6.609
 8211SOL     OW36511   0.801   0.526   3.909
 8211SOL    HW136512   0.820   0.614   3.943
 8211SOL    HW236513   0.866   0.512   3.840
 8212SOL     OW36514   2.968   4.441  13.427
 8212SOL    HW136515   2.886   4.489  13.416
 8212SOL    HW236516   3.030   4.486  13.369
 8213SOL     OW36517   1.634   1.545   6.740
 8213SOL    HW136518   1.582   1.603   6.794
 8213SOL    HW236519   1.680   1.488   6.802
 8214SOL     OW36520   3.426   1.906  15.253
 8214SOL    HW136521   3.395   1.997  15.257
 8214SOL    HW236522   3.442   1.891  15.160
 8215SOL     OW36523   4.364   1.047  16.984
 8215SOL    HW136524   4.322   0.963  17.005
 8215SOL    HW236525   4.297   1.113  17.003
 8216SOL     OW36526   1.854   3.839  12.841
 8216SOL    HW136527   1.818   3.892  12.770
 8216SOL    HW236528   1.788   3.772  12.857
 8217SOL     OW36529   0.931   1.711   0.842
 8217SOL    HW136530   0.921   1.797   0.802
 8217SOL    HW236531   0.911   1.648   0.772
 8218SOL     OW36532   0.838   3.197  13.673
 8218SOL    HW136533   0.896   3.265  13.709
 8218SOL    HW236534   0.871   3.115  13.711
 8219SOL     OW36535   4.065   1.100  19.727
 8219SOL    HW136536   4.083   1.008  19.706
 8219SOL    HW236537   3.985   1.097  19.781
 8220SOL     OW36538   2.811   1.930   0.866
 8220SOL    HW136539   2.745   1.955   0.931
 8220SOL    HW236540   2.885   1.989   0.883
 8221SOL     OW36541   1.554   0.023  21.082
 8221SOL    HW136542   1.459   0.012  21.085
 8221SOL    HW236543   1.588   4.739  21.127
 8222SOL     OW36544   2.521   2.549  19.387
 8222SOL    HW136545   2.592   2.486  19.372
 8222SOL    HW236546   2.558   2.614  19.446
 8223SOL     OW36547   2.593   3.165   4.813
 8223SOL    HW136548   2.579   3.103   4.742
 8223SOL    HW236549   2.520   3.150   4.873
 8224SOL     OW36550   4.261   1.954  17.100
 8224SOL    HW136551   4.197   1.922  17.037
 8224SOL    HW236552   4.208   1.985  17.174
 8225SOL     OW36553   1.528   1.234   1.278
 8225SOL    HW136554   1.456   1.219   1.216
 8225SOL    HW236555   1.583   1.156   1.270
 8226SOL     OW36556   4.782   4.535  18.861
 8226SOL    HW136557   4.724   4.608  18.840
 8226SOL    HW236558   0.073   4.576  18.882
 8227SOL     OW36559   2.602   3.015  21.045
 8227SOL    HW136560   2.537   2.963  20.997
 8227SOL    HW236561   2.617   3.091  20.990
 8228SOL     OW36562   2.540   3.643   5.014
 8228SOL    HW136563   2.485   3.690   5.077
 8228SOL    HW236564   2.617   3.699   5.003
 8229SOL     OW36565   2.513   0.560   0.438
 8229SOL    HW136566   2.602   0.561   0.404
 8229SOL    HW236567   2.460   0.595   0.366
 8230SOL     OW36568   2.928   4.494   8.084
 8230SOL    HW136569   2.974   4.533   8.009
 8230SOL    HW236570   2.841   4.472   8.049
 8231SOL     OW36571   4.559   2.374   5.537
 8231SOL    HW136572   4.546   2.327   5.455
 8231SOL    HW236573   4.639   2.424   5.523
 8232SOL     OW36574   4.586   4.108  19.387
 8232SOL    HW136575   4.511   4.050  19.400
 8232SOL    HW236576   4.630   4.108  19.472
 8233SOL     OW36577   0.306   1.532  17.483
 8233SOL    HW136578   0.285   1.625  17.468
 8233SOL    HW236579   0.225   1.486  17.464
 8234SOL     OW36580   4.702   2.676  12.300
 8234SOL    HW136581   4.654   2.722  12.368
 8234SOL    HW236582   4.704   2.585  12.330
 8235SOL     OW36583   3.483   4.744  14.403
 8235SOL    HW136584   3.442   4.759  14.318
 8235SOL    HW236585   3.541   0.025  14.415
 8236SOL     OW36586   0.529   3.566  20.293
 8236SOL    HW136587   0.459   3.557  20.357
 8236SOL    HW236588   0.489   3.610  20.219
 8237SOL     OW36589   3.140   3.476  20.520
 8237SOL    HW136590   3.048   3.455  20.504
 8237SOL    HW236591   3.139   3.538  20.593
 8238SOL     OW36592   2.310   0.033   6.355
 8238SOL    HW136593   2.280   4.736   6.346
 8238SOL    HW236594   2.240   0.085   6.315
 8239SOL     OW36595   3.481   0.272   1.580
 8239SOL    HW136596   3.425   0.339   1.540
 8239SOL    HW236597   3.510   0.217   1.507
 8240SOL     OW36598   2.422   1.976   3.090
 8240SOL    HW136599   2.486   2.006   3.026
 8240SOL    HW236600   2.340   2.018   3.063
 8241SOL     OW36601   0.668   4.421   0.102
 8241SOL    HW136602   0.714   4.501   0.128
 8241SOL    HW236603   0.581   4.452   0.077
 8242SOL     OW36604   0.897   0.139   6.068
 8242SOL    HW136605   0.820   0.168   6.116
 8242SOL    HW236606   0.883   0.046   6.053
 8243SOL     OW36607   4.584   0.806   5.244
 8243SOL    HW136608   4.514   0.829   5.183
 8243SOL    HW236609   4.576   0.711   5.255
 8244SOL     OW36610   1.869   0.398   2.606
 8244SOL    HW136611   1.847   0.469   2.546
 8244SOL    HW236612   1.786   0.351   2.619
 8245SOL     OW36613   2.951   0.139  19.974
 8245SOL    HW136614   3.008   0.164  20.046
 8245SOL    HW236615   2.981   0.191  19.899
 8246SOL     OW36616   3.766   3.707   8.799
 8246SOL    HW136617   3.801   3.793   8.775
 8246SOL    HW236618   3.672   3.720   8.806
 8247SOL     OW36619   4.501   3.814   0.751
 8247SOL    HW136620   4.442   3.738   0.751
 8247SOL    HW236621   4.576   3.787   0.804
 8248SOL     OW36622   0.469   0.457  14.608
 8248SOL    HW136623   0.390   0.411  14.637
 8248SOL    HW236624   0.439   0.513  14.537
 8249SOL     OW36625   1.345   2.201   2.745
 8249SOL    HW136626   1.326   2.278   2.692
 8249SOL    HW236627   1.380   2.237   2.827
 8250SOL     OW36628   3.649   0.140  15.708
 8250SOL    HW136629   3.685   0.115  15.793
 8250SOL    HW236630   3.649   0.059  15.657
 8251SOL     OW36631   1.280   0.745  18.523
 8251SOL    HW136632   1.199   0.711  18.485
 8251SOL    HW236633   1.251   0.813  18.583
 8252SOL     OW36634   1.226   0.170  19.911
 8252SOL    HW136635   1.262   0.130  19.990
 8252SOL    HW236636   1.132   0.174  19.926
 8253SOL     OW36637   1.488   1.783   1.362
 8253SOL    HW136638   1.507   1.819   1.275
 8253SOL    HW236639   1.572   1.781   1.406
 8254SOL     OW36640   4.784   0.255   6.242
 8254SOL    HW136641   4.779   0.218   6.154
 8254SOL    HW236642   0.080   0.289   6.248
 8255SOL     OW36643   0.381   0.366   1.959
 8255SOL    HW136644   0.412   0.401   1.876
 8255SOL    HW236645   0.444   0.397   2.024
 8256SOL     OW36646   3.530   3.219  16.410
 8256SOL    HW136647   3.582   3.294  16.382
 8256SOL    HW236648   3.493   3.245  16.494
 8257SOL     OW36649   3.148   2.709   4.269
 8257SOL    HW136650   3.071   2.723   4.213
 8257SOL    HW236651   3.178   2.621   4.246
 8258SOL     OW36652   1.096   3.987   5.559
 8258SOL    HW136653   1.065   4.026   5.641
 8258SOL    HW236654   1.184   3.956   5.579
 8259SOL     OW36655   3.904   2.620   4.842
 8259SOL    HW136656   3.822   2.642   4.796
 8259SOL    HW236657   3.877   2.603   4.932
 8260SOL     OW36658   1.065   0.487  20.330
 8260SOL    HW136659   1.158   0.504  20.346
 8260SOL    HW236660   1.019   0.544  20.392
 8261SOL     OW36661   2.002   4.235   4.561
 8261SOL    HW136662   2.088   4.252   4.599
 8261SOL    HW236663   1.946   4.303   4.598
 8262SOL     OW36664   2.614   3.478   0.068
 8262SOL    HW136665   2.557   3.411   0.031
 8262SOL    HW236666   2.645   3.527  21.265
 8263SOL     OW36667   3.893   0.669  17.574
 8263SOL    HW136668   3.863   0.731  17.507
 8263SOL    HW236669   3.822   0.605  17.581
 8264SOL     OW36670   1.305   2.681   2.377
 8264SOL    HW136671   1.237   2.734   2.334
 8264SOL    HW236672   1.295   2.594   2.338
 8265SOL     OW36673   4.142   3.964  16.974
 8265SOL    HW136674   4.216   3.923  16.929
 8265SOL    HW236675   4.064   3.929  16.930
 8266SOL     OW36676   1.784   2.812   4.238
 8266SOL    HW136677   1.814   2.729   4.275
 8266SOL    HW236678   1.695   2.794   4.208
 8267SOL     OW36679   4.360   1.727  10.617
 8267SOL    HW136680   4.273   1.714  10.580
 8267SOL    HW236681   4.375   1.650  10.672
 8268SOL     OW36682   2.089   2.824   5.648
 8268SOL    HW136683   2.125   2.748   5.602
 8268SOL    HW236684   2.030   2.865   5.585
 8269SOL     OW36685   3.131   1.190  15.756
 8269SOL    HW136686   3.108   1.099  15.773
 8269SOL    HW236687   3.224   1.197  15.779
 8270SOL     OW36688   4.083   0.023   3.759
 8270SOL    HW136689   4.177   0.021   3.738
 8270SOL    HW236690   4.074   0.090   3.826
 8271SOL     OW36691   3.608   3.470  15.752
 8271SOL    HW136692   3.516   3.469  15.776
 8271SOL    HW236693   3.609   3.468  15.657
 8272SOL     OW36694   3.760   2.678   8.179
 8272SOL    HW136695   3.749   2.706   8.089
 8272SOL    HW236696   3.850   2.702   8.202
 8273SOL     OW36697   3.842   2.015   2.588
 8273SOL    HW136698   3.814   1.940   2.536
 8273SOL    HW236699   3.887   2.072   2.526
 8274SOL     OW36700   2.410   1.330   1.004
 8274SOL    HW136701   2.378   1.371   1.085
 8274SOL    HW236702   2.475   1.392   0.970
 8275SOL     OW36703   0.852   1.303   5.714
 8275SOL    HW136704   0.885   1.232   5.658
 8275SOL    HW236705   0.906   1.297   5.793
 8276SOL     OW36706   4.062   2.575  17.426
 8276SOL    HW136707   4.144   2.578  17.378
 8276SOL    HW236708   4.035   2.667  17.434
 8277SOL     OW36709   4.536   2.340  17.554
 8277SOL    HW136710   4.563   2.414  17.499
 8277SOL    HW236711   4.457   2.371  17.599
 8278SOL     OW36712   3.126   3.486   1.620
 8278SOL    HW136713   3.181   3.548   1.573
 8278SOL    HW236714   3.073   3.540   1.679
 8279SOL     OW36715   1.981   4.106   2.309
 8279SOL    HW136716   2.014   4.158   2.235
 8279SOL    HW236717   1.900   4.066   2.275
 8280SOL     OW36718   3.105   3.624  20.746
 8280SOL    HW136719   3.199   3.615  20.765
 8280SOL    HW236720   3.095   3.714  20.716
 8281SOL     OW36721   4.378   4.028   6.843
 8281SOL    HW136722   4.437   3.953   6.852
 8281SOL    HW236723   4.291   3.992   6.864
 8282SOL     OW36724   3.334   1.939  20.582
 8282SOL    HW136725   3.388   1.950  20.661
 8282SOL    HW236726   3.294   1.853  20.593
 8283SOL     OW36727   1.842   3.496   4.552
 8283SOL    HW136728   1.801   3.411   4.567
 8283SOL    HW236729   1.828   3.513   4.459
 8284SOL     OW36730   2.858   0.136   1.984
 8284SOL    HW136731   2.950   0.108   1.985
 8284SOL    HW236732   2.855   0.212   2.042
 8285SOL     OW36733   1.421   3.197  17.463
 8285SOL    HW136734   1.467   3.117  17.489
 8285SOL    HW236735   1.337   3.166  17.429
 8286SOL     OW36736   2.972   3.044  17.983
 8286SOL    HW136737   2.984   2.972  17.922
 8286SOL    HW236738   2.925   3.005  18.057
 8287SOL     OW36739   0.161   2.194  15.085
 8287SOL    HW136740   0.079   2.162  15.046
 8287SOL    HW236741   0.209   2.232  15.012
 8288SOL     OW36742   2.553   0.372   1.774
 8288SOL    HW136743   2.617   0.411   1.714
 8288SOL    HW236744   2.525   0.445   1.830
 8289SOL     OW36745   1.082   2.173   6.043
 8289SOL    HW136746   1.052   2.152   5.955
 8289SOL    HW236747   1.118   2.091   6.076
 8290SOL     OW36748   0.827   1.992  19.685
 8290SOL    HW136749   0.743   2.017  19.648
 8290SOL    HW236750   0.807   1.965  19.775
 8291SOL     OW36751   0.151   0.866   4.988
 8291SOL    HW136752   0.096   0.885   5.064
 8291SOL    HW236753   0.117   0.923   4.919
 8292SOL     OW36754   4.200   3.776  17.668
 8292SOL    HW136755   4.180   3.683  17.680
 8292SOL    HW236756   4.155   3.820  17.739
 8293SOL     OW36757   0.482   0.090  15.740
 8293SOL    HW136758   0.557   0.145  15.723
 8293SOL    HW236759   0.476   0.032  15.664
 8294SOL     OW36760   2.956   4.339   4.498
 8294SOL    HW136761   2.978   4.262   4.551
 8294SOL    HW236762   2.953   4.306   4.408
 8295SOL     OW36763   3.393   1.156  18.031
 8295SOL    HW136764   3.485   1.166  18.005
 8295SOL    HW236765   3.388   1.199  18.117
 8296SOL     OW36766   2.312   2.774  17.086
 8296SOL    HW136767   2.375   2.842  17.059
 8296SOL    HW236768   2.290   2.729  17.005
 8297SOL     OW36769   2.781   1.966  14.534
 8297SOL    HW136770   2.702   1.913  14.521
 8297SOL    HW236771   2.844   1.907  14.574
 8298SOL     OW36772   3.717   1.364  21.167
 8298SOL    HW136773   3.726   1.416  21.088
 8298SOL    HW236774   3.793   1.306  21.168
 8299SOL     OW36775   0.133   0.327   1.154
 8299SOL    HW136776   0.072   0.389   1.115
 8299SOL    HW236777   0.219   0.367   1.143
 8300SOL     OW36778   3.417   1.811   5.425
 8300SOL    HW136779   3.453   1.892   5.389
 8300SOL    HW236780   3.323   1.818   5.410
 8301SOL     OW36781   4.756   3.438  14.523
 8301SOL    HW136782   4.676   3.460  14.476
 8301SOL    HW236783   4.730   3.442  14.616
 8302SOL     OW36784   4.248   2.536  17.025
 8302SOL    HW136785   4.221   2.448  16.997
 8302SOL    HW236786   4.292   2.522  17.108
 8303SOL     OW36787   3.437   3.708  18.938
 8303SOL    HW136788   3.361   3.670  18.982
 8303SOL    HW236789   3.494   3.633  18.918
 8304SOL     OW36790   2.221   3.721   3.295
 8304SOL    HW136791   2.224   3.816   3.297
 8304SOL    HW236792   2.312   3.693   3.293
 8305SOL     OW36793   4.606   2.647  20.371
 8305SOL    HW136794   4.569   2.657  20.459
 8305SOL    HW236795   4.576   2.561  20.341
 8306SOL     OW36796   4.052   4.017   5.063
 8306SOL    HW136797   4.078   3.938   5.016
 8306SOL    HW236798   4.133   4.066   5.074
 8307SOL     OW36799   0.074   4.619  19.486
 8307SOL    HW136800   4.773   4.610  19.475
 8307SOL    HW236801   0.095   4.568  19.564
 8308SOL     OW36802   0.572   0.183   4.811
 8308SOL    HW136803   0.531   0.101   4.837
 8308SOL    HW236804   0.500   0.236   4.777
 8309SOL     OW36805   1.741   3.085  21.105
 8309SOL    HW136806   1.653   3.063  21.138
 8309SOL    HW236807   1.730   3.090  21.010
 8310SOL     OW36808   3.564   3.637   4.277
 8310SOL    HW136809   3.484   3.587   4.263
 8310SOL    HW236810   3.619   3.616   4.202
 8311SOL     OW36811   2.486   1.238  20.615
 8311SOL    HW136812   2.515   1.235  20.706
 8311SOL    HW236813   2.483   1.146  20.588
 8312SOL     OW36814   0.977   0.385   5.451
 8312SOL    HW136815   1.012   0.389   5.540
 8312SOL    HW236816   1.044   0.339   5.400
 8313SOL     OW36817   1.143   0.643   4.970
 8313SOL    HW136818   1.189   0.570   5.012
 8313SOL    HW236819   1.098   0.603   4.896
 8314SOL     OW36820   2.355   0.038  18.400
 8314SOL    HW136821   2.302   4.755  18.377
 8314SOL    HW236822   2.405   0.058  18.320
 8315SOL     OW36823   0.603   0.678  20.581
 8315SOL    HW136824   0.517   0.710  20.611
 8315SOL    HW236825   0.624   0.608  20.643
 8316SOL     OW36826   4.089   3.193  19.291
 8316SOL    HW136827   4.177   3.217  19.320
 8316SOL    HW236828   4.091   3.097  19.286
 8317SOL     OW36829   2.557   2.175   5.330
 8317SOL    HW136830   2.505   2.121   5.388
 8317SOL    HW236831   2.594   2.243   5.386
 8318SOL     OW36832   2.904   0.133   6.655
 8318SOL    HW136833   2.960   0.131   6.577
 8318SOL    HW236834   2.958   0.092   6.724
 8319SOL     OW36835   2.135   2.396  17.293
 8319SOL    HW136836   2.084   2.391  17.212
 8319SOL    HW236837   2.214   2.444  17.268
 8320SOL     OW36838   2.764   4.121  17.177
 8320SOL    HW136839   2.766   4.126  17.081
 8320SOL    HW236840   2.816   4.196  17.206
 8321SOL     OW36841   0.038   0.238   3.993
 8321SOL    HW136842   0.121   0.259   3.951
 8321SOL    HW236843   4.767   0.238   3.922
 8322SOL     OW36844   2.477   3.078  19.283
 8322SOL    HW136845   2.409   3.073  19.351
 8322SOL    HW236846   2.529   3.155  19.308
 8323SOL     OW36847   3.801   3.811   9.865
 8323SOL    HW136848   3.776   3.737   9.921
 8323SOL    HW236849   3.742   3.881   9.892
 8324SOL     OW36850   1.043   4.067   4.909
 8324SOL    HW136851   1.070   3.988   4.954
 8324SOL    HW236852   1.101   4.136   4.942
 8325SOL     OW36853   3.378   1.917  16.775
 8325SOL    HW136854   3.405   1.948  16.862
 8325SOL    HW236855   3.425   1.973  16.714
 8326SOL     OW36856   4.176   0.387  18.179
 8326SOL    HW136857   4.089   0.377  18.218
 8326SOL    HW236858   4.196   0.480  18.188
 8327SOL     OW36859   1.559   1.494  19.137
 8327SOL    HW136860   1.570   1.405  19.103
 8327SOL    HW236861   1.515   1.541  19.066
 8328SOL     OW36862   4.402   3.664   4.962
 8328SOL    HW136863   4.424   3.580   4.920
 8328SOL    HW236864   4.368   3.718   4.892
 8329SOL     OW36865   3.832   1.699  19.927
 8329SOL    HW136866   3.894   1.640  19.968
 8329SOL    HW236867   3.885   1.770  19.891
 8330SOL     OW36868   4.125   2.000   0.083
 8330SOL    HW136869   4.102   2.089   0.109
 8330SOL    HW236870   4.134   2.004  21.261
 8331SOL     OW36871   3.813   3.894   6.032
 8331SOL    HW136872   3.885   3.929   5.980
 8331SOL    HW236873   3.827   3.799   6.032
 8332SOL     OW36874   3.019   4.301   1.661
 8332SOL    HW136875   3.059   4.284   1.746
 8332SOL    HW236876   3.084   4.269   1.598
 8333SOL     OW36877   1.611   2.903   2.660
 8333SOL    HW136878   1.559   2.844   2.606
 8333SOL    HW236879   1.547   2.957   2.706
 8334SOL     OW36880   1.109   1.624   2.363
 8334SOL    HW136881   1.152   1.709   2.372
 8334SOL    HW236882   1.180   1.563   2.344
 8335SOL     OW36883   0.393   0.756   3.036
 8335SOL    HW136884   0.404   0.704   2.957
 8335SOL    HW236885   0.397   0.847   3.006
 8336SOL     OW36886   0.804   0.095  16.795
 8336SOL    HW136887   0.844   0.164  16.849
 8336SOL    HW236888   0.876   0.034  16.778
 8337SOL     OW36889   3.410   4.179  21.138
 8337SOL    HW136890   3.361   4.189  21.219
 8337SOL    HW236891   3.465   4.102  21.152
 8338SOL     OW36892   0.967   4.018  18.119
 8338SOL    HW136893   0.892   3.992  18.173
 8338SOL    HW236894   1.010   4.086  18.171
 8339SOL     OW36895   4.601   2.849   5.037
 8339SOL    HW136896   4.525   2.819   4.988
 8339SOL    HW236897   4.633   2.925   4.988
 8340SOL     OW36898   2.463   3.827  18.375
 8340SOL    HW136899   2.538   3.810  18.318
 8340SOL    HW236900   2.397   3.866  18.317
 8341SOL     OW36901   1.654   2.260  20.954
 8341SOL    HW136902   1.732   2.256  21.009
 8341SOL    HW236903   1.669   2.336  20.897
 8342SOL     OW36904   1.400   0.096   6.492
 8342SOL    HW136905   1.407   0.148   6.573
 8342SOL    HW236906   1.476   0.122   6.440
 8343SOL     OW36907   3.043   1.469   9.531
 8343SOL    HW136908   3.001   1.391   9.496
 8343SOL    HW236909   3.088   1.439   9.610
 8344SOL     OW36910   4.119   0.166   1.656
 8344SOL    HW136911   4.035   0.213   1.664
 8344SOL    HW236912   4.160   0.176   1.741
 8345SOL     OW36913   2.435   2.600   5.065
 8345SOL    HW136914   2.375   2.662   5.104
 8345SOL    HW236915   2.505   2.654   5.027
 8346SOL     OW36916   4.015   1.884   5.731
 8346SOL    HW136917   4.032   1.967   5.686
 8346SOL    HW236918   4.028   1.817   5.664
 8347SOL     OW36919   2.648   4.396   3.251
 8347SOL    HW136920   2.700   4.471   3.277
 8347SOL    HW236921   2.596   4.374   3.329
 8348SOL     OW36922   2.116   1.439  15.385
 8348SOL    HW136923   2.165   1.357  15.394
 8348SOL    HW236924   2.138   1.489  15.464
 8349SOL     OW36925   4.406   0.668   4.127
 8349SOL    HW136926   4.336   0.636   4.071
 8349SOL    HW236927   4.362   0.695   4.207
 8350SOL     OW36928   0.037   0.875   5.595
 8350SOL    HW136929   4.768   0.803   5.600
 8350SOL    HW236930   0.047   0.892   5.501
 8351SOL     OW36931   2.582   3.978   1.452
 8351SOL    HW136932   2.527   3.965   1.376
 8351SOL    HW236933   2.525   3.959   1.527
 8352SOL     OW36934   2.313   4.653  13.962
 8352SOL    HW136935   2.355   4.660  13.877
 8352SOL    HW236936   2.375   4.603  14.016
 8353SOL     OW36937   4.457   1.122  21.080
 8353SOL    HW136938   4.436   1.060  21.010
 8353SOL    HW236939   4.394   1.193  21.069
 8354SOL     OW36940   1.164   1.918   2.419
 8354SOL    HW136941   1.180   1.910   2.513
 8354SOL    HW236942   1.104   1.992   2.411
 8355SOL     OW36943   0.105   2.154  19.126
 8355SOL    HW136944   0.134   2.127  19.039
 8355SOL    HW236945   0.030   2.211  19.111
 8356SOL     OW36946   0.856   4.266  15.753
 8356SOL    HW136947   0.903   4.349  15.745
 8356SOL    HW236948   0.773   4.282  15.707
 8357SOL     OW36949   2.581   0.063  17.560
 8357SOL    HW136950   2.537   4.775  17.585
 8357SOL    HW236951   2.538   0.090  17.479
 8358SOL     OW36952   0.206   3.039   3.335
 8358SOL    HW136953   0.113   3.021   3.323
 8358SOL    HW236954   0.249   2.992   3.264
 8359SOL     OW36955   4.314   2.068  14.957
 8359SOL    HW136956   4.346   2.145  14.910
 8359SOL    HW236957   4.361   2.070  15.040
 8360SOL     OW36958   3.754   0.846   1.484
 8360SOL    HW136959   3.823   0.788   1.516
 8360SOL    HW236960   3.744   0.912   1.553
 8361SOL     OW36961   1.944   3.986  18.752
 8361SOL    HW136962   1.981   4.074  18.756
 8361SOL    HW236963   1.965   3.955  18.664
 8362SOL     OW36964   0.083   4.490  20.515
 8362SOL    HW136965   0.147   4.476  20.584
 8362SOL    HW236966   0.135   4.508  20.437
 8363SOL     OW36967   0.793   2.984   0.019
 8363SOL    HW136968   0.780   2.903  21.242
 8363SOL    HW236969   0.726   3.044  21.258
 8364SOL     OW36970   0.952   0.083   3.397
 8364SOL    HW136971   1.004   0.161   3.377
 8364SOL    HW236972   0.864   0.116   3.414
 8365SOL     OW36973   3.846   3.295  18.212
 8365SOL    HW136974   3.764   3.308  18.262
 8365SOL    HW236975   3.823   3.231  18.145
 8366SOL     OW36976   0.049   1.008   4.778
 8366SOL    HW136977   0.073   1.058   4.700
 8366SOL    HW236978   4.776   0.945   4.747
 8367SOL     OW36979   3.168   0.877  17.334
 8367SOL    HW136980   3.204   0.901  17.419
 8367SOL    HW236981   3.211   0.936  17.272
 8368SOL     OW36982   0.414   4.101  16.040
 8368SOL    HW136983   0.439   4.156  16.114
 8368SOL    HW236984   0.486   4.112  15.977
 8369SOL     OW36985   1.853   1.771   2.216
 8369SOL    HW136986   1.890   1.698   2.166
 8369SOL    HW236987   1.919   1.840   2.211
 8370SOL     OW36988   1.173   2.121   2.101
 8370SOL    HW136989   1.229   2.055   2.140
 8370SOL    HW236990   1.232   2.194   2.080
 8371SOL     OW36991   3.532   1.400   0.981
 8371SOL    HW136992   3.541   1.449   1.063
 8371SOL    HW236993   3.612   1.419   0.932
 8372SOL     OW36994   3.905   4.241   1.125
 8372SOL    HW136995   3.875   4.266   1.212
 8372SOL    HW236996   3.834   4.188   1.089
 8373SOL     OW36997   3.174   1.940   6.043
 8373SOL    HW136998   3.118   1.886   6.098
 8373SOL    HW236999   3.170   2.027   6.082
 8374SOL     OW37000   0.662   2.828   5.091
 8374SOL    HW137001   0.654   2.733   5.093
 8374SOL    HW237002   0.726   2.845   5.022
 8375SOL     OW37003   2.628   0.037   4.761
 8375SOL    HW137004   2.647   4.756   4.819
 8375SOL    HW237005   2.548   0.075   4.796
 8376SOL     OW37006   3.572   3.061   2.998
 8376SOL    HW137007   3.560   3.155   2.990
 8376SOL    HW237008   3.541   3.041   3.087
 8377SOL     OW37009   3.986   4.777   4.747
 8377SOL    HW137010   3.894   4.752   4.760
 8377SOL    HW237011   4.034   4.723   4.810
 8378SOL     OW37012   0.714   1.470  19.286
 8378SOL    HW137013   0.740   1.403  19.350
 8378SOL    HW237014   0.764   1.449  19.208
 8379SOL     OW37015   2.349   1.497  21.216
 8379SOL    HW137016   2.285   1.446  21.266
 8379SOL    HW237017   2.361   1.577  21.268
 8380SOL     OW37018   3.456   4.093  12.589
 8380SOL    HW137019   3.525   4.102  12.655
 8380SOL    HW237020   3.413   4.010  12.610
 8381SOL     OW37021   4.791   1.918   3.253
 8381SOL    HW137022   0.084   1.889   3.284
 8381SOL    HW237023   4.764   1.849   3.192
 8382SOL     OW37024   3.413   4.249   4.448
 8382SOL    HW137025   3.455   4.187   4.389
 8382SOL    HW237026   3.478   4.265   4.516
 8383SOL     OW37027   1.306   4.244  18.698
 8383SOL    HW137028   1.283   4.183  18.768
 8383SOL    HW237029   1.395   4.273  18.718
 8384SOL     OW37030   3.697   0.284   5.682
 8384SOL    HW137031   3.712   0.199   5.722
 8384SOL    HW237032   3.762   0.342   5.722
 8385SOL     OW37033   0.018   0.531   0.969
 8385SOL    HW137034   4.766   0.615   0.970
 8385SOL    HW237035   0.107   0.551   0.939
 8386SOL     OW37036   2.276   3.116   4.497
 8386SOL    HW137037   2.339   3.082   4.434
 8386SOL    HW237038   2.322   3.187   4.542
 8387SOL     OW37039   0.111   4.693  18.374
 8387SOL    HW137040   0.169   4.636  18.425
 8387SOL    HW237041   0.125   4.780  18.410
 8388SOL     OW37042   0.119   3.189  16.695
 8388SOL    HW137043   0.146   3.233  16.615
 8388SOL    HW237044   0.200   3.157  16.734
 8389SOL     OW37045   4.070   3.685  15.830
 8389SOL    HW137046   4.144   3.683  15.770
 8389SOL    HW237047   4.108   3.680  15.918
 8390SOL     OW37048   2.648   1.518  17.818
 8390SOL    HW137049   2.639   1.452  17.888
 8390SOL    HW237050   2.567   1.511  17.768
 8391SOL     OW37051   4.265   4.094   6.004
 8391SOL    HW137052   4.278   4.017   5.948
 8391SOL    HW237053   4.259   4.167   5.942
 8392SOL     OW37054   2.471   0.402  17.645
 8392SOL    HW137055   2.415   0.341  17.596
 8392SOL    HW237056   2.460   0.486  17.601
 8393SOL     OW37057   2.807   3.028   1.225
 8393SOL    HW137058   2.734   3.077   1.261
 8393SOL    HW237059   2.767   2.972   1.157
 8394SOL     OW37060   4.729   2.969   3.259
 8394SOL    HW137061   4.649   2.918   3.246
 8394SOL    HW237062   4.784   2.946   3.184
 8395SOL     OW37063   4.018   4.528   7.009
 8395SOL    HW137064   4.017   4.558   6.918
 8395SOL    HW237065   3.978   4.600   7.059
 8396SOL     OW37066   1.968   1.921   4.406
 8396SOL    HW137067   1.989   2.014   4.398
 8396SOL    HW237068   1.879   1.919   4.441
 8397SOL     OW37069   2.921   0.912   2.699
 8397SOL    HW137070   2.954   0.826   2.673
 8397SOL    HW237071   2.995   0.971   2.686
 8398SOL     OW37072   4.262   2.214   1.823
 8398SOL    HW137073   4.266   2.297   1.774
 8398SOL    HW237074   4.201   2.160   1.774
 8399SOL     OW37075   2.725   1.610   3.411
 8399SOL    HW137076   2.768   1.659   3.481
 8399SOL    HW237077   2.632   1.617   3.431
 8400SOL     OW37078   2.342   1.920   4.459
 8400SOL    HW137079   2.411   1.964   4.509
 8400SOL    HW237080   2.388   1.869   4.393
 8401SOL     OW37081   4.027   3.648   0.022
 8401SOL    HW137082   4.020   3.681   0.111
 8401SOL    HW237083   3.997   3.557   0.027
 8402SOL     OW37084   1.598   3.545   2.215
 8402SOL    HW137085   1.580   3.580   2.302
 8402SOL    HW237086   1.680   3.496   2.225
 8403SOL     OW37087   2.260   3.115   3.719
 8403SOL    HW137088   2.290   3.105   3.629
 8403SOL    HW237089   2.167   3.091   3.716
 8404SOL     OW37090   4.159   0.919   2.992
 8404SOL    HW137091   4.085   0.885   2.942
 8404SOL    HW237092   4.127   1.003   3.026
 8405SOL     OW37093   2.488   0.221  19.330
 8405SOL    HW137094   2.580   0.196  19.320
 8405SOL    HW237095   2.470   0.209  19.424
 8406SOL     OW37096   4.508   1.540  21.174
 8406SOL    HW137097   4.587   1.510  21.220
 8406SOL    HW237098   4.539   1.607  21.114
 8407SOL     OW37099   3.483   4.741   3.506
 8407SOL    HW137100   3.422   4.667   3.501
 8407SOL    HW237101   3.463   0.001   3.429
 8408SOL     OW37102   2.376   0.448  21.179
 8408SOL    HW137103   2.292   0.458  21.134
 8408SOL    HW237104   2.391   0.534  21.219
 8409SOL     OW37105   1.346   2.627   5.914
 8409SOL    HW137106   1.432   2.611   5.874
 8409SOL    HW237107   1.311   2.540   5.932
 8410SOL     OW37108   2.886   0.931  19.331
 8410SOL    HW137109   2.830   0.862  19.367
 8410SOL    HW237110   2.959   0.884  19.290
 8411SOL     OW37111   3.163   3.976   4.026
 8411SOL    HW137112   3.141   4.035   3.954
 8411SOL    HW237113   3.124   4.018   4.103
 8412SOL     OW37114   1.350   1.548   7.371
 8412SOL    HW137115   1.306   1.487   7.312
 8412SOL    HW237116   1.281   1.579   7.430
 8413SOL     OW37117   3.132   2.378   1.904
 8413SOL    HW137118   3.211   2.350   1.950
 8413SOL    HW237119   3.127   2.472   1.920
 8414SOL     OW37120   4.426   3.514   4.269
 8414SOL    HW137121   4.394   3.603   4.255
 8414SOL    HW237122   4.488   3.499   4.198
 8415SOL     OW37123   1.818   3.115   3.512
 8415SOL    HW137124   1.822   3.033   3.464
 8415SOL    HW237125   1.873   3.175   3.462
 8416SOL     OW37126   1.196   1.077   6.016
 8416SOL    HW137127   1.282   1.076   6.057
 8416SOL    HW237128   1.142   1.020   6.070
 8417SOL     OW37129   4.257   1.342   4.837
 8417SOL    HW137130   4.301   1.347   4.921
 8417SOL    HW237131   4.181   1.401   4.846
 8418SOL     OW37132   1.187   2.316   3.671
 8418SOL    HW137133   1.145   2.397   3.644
 8418SOL    HW237134   1.278   2.325   3.642
 8419SOL     OW37135   3.860   4.599  20.704
 8419SOL    HW137136   3.766   4.613  20.692
 8419SOL    HW237137   3.897   4.603  20.616
 8420SOL     OW37138   3.240   2.289   6.006
 8420SOL    HW137139   3.193   2.340   5.939
 8420SOL    HW237140   3.171   2.252   6.061
 8421SOL     OW37141   4.438   1.547  17.375
 8421SOL    HW137142   4.399   1.466  17.344
 8421SOL    HW237143   4.370   1.613  17.365
 8422SOL     OW37144   1.119   4.653  16.992
 8422SOL    HW137145   1.096   4.664  17.085
 8422SOL    HW237146   1.071   4.574  16.966
 8423SOL     OW37147   0.010   3.697  18.632
 8423SOL    HW137148   4.710   3.685  18.647
 8423SOL    HW237149   0.046   3.608  18.636
 8424SOL     OW37150   0.094   1.440   6.269
 8424SOL    HW137151   0.079   1.348   6.247
 8424SOL    HW237152   0.179   1.461   6.229
 8425SOL     OW37153   3.701   3.203  20.110
 8425SOL    HW137154   3.792   3.215  20.137
 8425SOL    HW237155   3.707   3.168  20.022
 8426SOL     OW37156   2.781   2.874   2.241
 8426SOL    HW137157   2.820   2.960   2.228
 8426SOL    HW237158   2.700   2.877   2.190
 8427SOL     OW37159   4.252   0.250  19.702
 8427SOL    HW137160   4.248   0.215  19.613
 8427SOL    HW237161   4.254   0.345  19.690
 8428SOL     OW37162   1.343   1.838   6.101
 8428SOL    HW137163   1.334   1.759   6.155
 8428SOL    HW237164   1.299   1.907   6.152
 8429SOL     OW37165   4.159   2.659   4.736
 8429SOL    HW137166   4.146   2.708   4.655
 8429SOL    HW237167   4.076   2.667   4.783
 8430SOL     OW37168   1.718   1.454  18.524
 8430SOL    HW137169   1.708   1.409  18.608
 8430SOL    HW237170   1.685   1.542  18.540
 8431SOL     OW37171   2.345   0.530  15.957
 8431SOL    HW137172   2.344   0.438  15.933
 8431SOL    HW237173   2.321   0.576  15.876
 8432SOL     OW37174   0.451   0.748  20.839
 8432SOL    HW137175   0.527   0.725  20.892
 8432SOL    HW237176   0.452   0.844  20.837
 8433SOL     OW37177   3.780   2.999   5.050
 8433SOL    HW137178   3.745   3.068   4.994
 8433SOL    HW237179   3.703   2.947   5.074
 8434SOL     OW37180   1.440   4.417   1.924
 8434SOL    HW137181   1.533   4.393   1.926
 8434SOL    HW237182   1.439   4.513   1.925
 8435SOL     OW37183   1.975   2.754   3.003
 8435SOL    HW137184   1.948   2.698   3.076
 8435SOL    HW237185   1.893   2.775   2.958
 8436SOL     OW37186   3.665   1.251   2.454
 8436SOL    HW137187   3.663   1.303   2.374
 8436SOL    HW237188   3.707   1.309   2.519
 8437SOL     OW37189   0.488   3.028  17.550
 8437SOL    HW137190   0.566   3.034  17.494
 8437SOL    HW237191   0.483   3.113  17.593
 8438SOL     OW37192   3.556   1.649   1.661
 8438SOL    HW137193   3.482   1.592   1.637
 8438SOL    HW237194   3.630   1.589   1.667
 8439SOL     OW37195   2.927   2.119  18.257
 8439SOL    HW137196   2.972   2.133  18.340
 8439SOL    HW237197   2.996   2.129  18.191
 8440SOL     OW37198   1.265   2.830  18.642
 8440SOL    HW137199   1.360   2.835  18.654
 8440SOL    HW237200   1.232   2.790  18.723
 8441SOL     OW37201   3.603   1.931   1.707
 8441SOL    HW137202   3.585   1.838   1.690
 8441SOL    HW237203   3.535   1.977   1.659
 8442SOL     OW37204   2.055   1.049   5.865
 8442SOL    HW137205   2.062   1.119   5.929
 8442SOL    HW237206   2.120   1.071   5.798
 8443SOL     OW37207   4.727   2.218  18.405
 8443SOL    HW137208   4.717   2.201  18.499
 8443SOL    HW237209   4.793   2.154  18.377
 8444SOL     OW37210   2.567   1.852  16.180
 8444SOL    HW137211   2.627   1.829  16.109
 8444SOL    HW237212   2.480   1.832  16.147
 8445SOL     OW37213   4.729   3.294  15.462
 8445SOL    HW137214   4.645   3.340  15.473
 8445SOL    HW237215   4.716   3.211  15.507
 8446SOL     OW37216   1.366   0.527   3.365
 8446SOL    HW137217   1.333   0.558   3.280
 8446SOL    HW237218   1.430   0.593   3.391
 8447SOL     OW37219   3.134   2.051  14.447
 8447SOL    HW137220   3.151   2.108  14.523
 8447SOL    HW237221   3.072   1.986  14.480
 8448SOL     OW37222   3.994   2.428   1.380
 8448SOL    HW137223   3.911   2.431   1.334
 8448SOL    HW237224   3.989   2.348   1.433
 8449SOL     OW37225   3.318   0.703  15.679
 8449SOL    HW137226   3.255   0.767  15.713
 8449SOL    HW237227   3.369   0.676  15.755
 8450SOL     OW37228   1.366   1.760  17.833
 8450SOL    HW137229   1.353   1.703  17.758
 8450SOL    HW237230   1.423   1.830  17.801
 8451SOL     OW37231   3.503   2.418  18.520
 8451SOL    HW137232   3.429   2.426  18.580
 8451SOL    HW237233   3.488   2.487  18.455
 8452SOL     OW37234   3.905   3.099  20.630
 8452SOL    HW137235   3.834   3.140  20.679
 8452SOL    HW237236   3.936   3.167  20.570
 8453SOL     OW37237   3.328   3.861   3.300
 8453SOL    HW137238   3.400   3.908   3.257
 8453SOL    HW237239   3.364   3.774   3.318
 8454SOL     OW37240   1.189   1.666   0.614
 8454SOL    HW137241   1.168   1.753   0.646
 8454SOL    HW237242   1.224   1.680   0.526
 8455SOL     OW37243   3.656   3.589  20.780
 8455SOL    HW137244   3.740   3.586  20.826
 8455SOL    HW237245   3.651   3.678  20.746
 8456SOL     OW37246   2.700   3.388   0.431
 8456SOL    HW137247   2.698   3.402   0.337
 8456SOL    HW237248   2.781   3.339   0.447
 8457SOL     OW37249   2.414   3.938  21.043
 8457SOL    HW137250   2.480   3.895  21.096
 8457SOL    HW237251   2.344   3.873  21.034
 8458SOL     OW37252   4.723   3.429  17.850
 8458SOL    HW137253   4.649   3.375  17.825
 8458SOL    HW237254   4.684   3.511  17.881
 8459SOL     OW37255   1.359   1.057  18.280
 8459SOL    HW137256   1.306   1.042  18.359
 8459SOL    HW237257   1.438   1.004  18.294
 8460SOL     OW37258   1.476   3.082   6.207
 8460SOL    HW137259   1.489   3.163   6.257
 8460SOL    HW237260   1.558   3.070   6.159
 8461SOL     OW37261   4.326   0.757  16.601
 8461SOL    HW137262   4.351   0.665  16.611
 8461SOL    HW237263   4.407   0.806  16.614
 8462SOL     OW37264   0.129   0.809   0.655
 8462SOL    HW137265   0.127   0.716   0.629
 8462SOL    HW237266   0.061   0.850   0.602
 8463SOL     OW37267   3.591   4.587  14.127
 8463SOL    HW137268   3.521   4.649  14.105
 8463SOL    HW237269   3.647   4.584  14.050
 8464SOL     OW37270   3.496   0.043   5.860
 8464SOL    HW137271   3.558   0.104   5.901
 8464SOL    HW237272   3.481   0.079   5.773
 8465SOL     OW37273   4.021   3.035  17.813
 8465SOL    HW137274   3.955   3.019  17.746
 8465SOL    HW237275   4.006   2.966  17.878
 8466SOL     OW37276   4.010   4.457   2.139
 8466SOL    HW137277   4.013   4.372   2.095
 8466SOL    HW237278   4.095   4.463   2.183
 8467SOL     OW37279   2.804   1.985  15.529
 8467SOL    HW137280   2.783   2.050  15.595
 8467SOL    HW237281   2.777   2.026  15.446
 8468SOL     OW37282   1.838   4.603  17.265
 8468SOL    HW137283   1.873   4.516  17.283
 8468SOL    HW237284   1.835   4.609  17.170
 8469SOL     OW37285   0.111   0.184   4.486
 8469SOL    HW137286   0.168   0.134   4.428
 8469SOL    HW237287   0.029   0.136   4.487
 8470SOL     OW37288   0.062   3.998  15.317
 8470SOL    HW137289   4.768   3.973  15.348
 8470SOL    HW237290   0.119   3.929  15.350
 8471SOL     OW37291   3.986   3.977   0.497
 8471SOL    HW137292   3.898   4.001   0.526
 8471SOL    HW237293   4.039   3.977   0.576
 8472SOL     OW37294   3.323   3.061  15.901
 8472SOL    HW137295   3.347   3.142  15.945
 8472SOL    HW237296   3.236   3.039  15.934
 8473SOL     OW37297   2.206   3.668  19.620
 8473SOL    HW137298   2.223   3.591  19.675
 8473SOL    HW237299   2.111   3.677  19.620
 8474SOL     OW37300   1.197   1.737  15.255
 8474SOL    HW137301   1.177   1.695  15.171
 8474SOL    HW237302   1.289   1.764  15.246
 8475SOL     OW37303   4.263   3.044  17.163
 8475SOL    HW137304   4.227   2.963  17.128
 8475SOL    HW237305   4.318   3.078  17.093
 8476SOL     OW37306   3.621   2.237   0.990
 8476SOL    HW137307   3.569   2.313   0.963
 8476SOL    HW237308   3.692   2.274   1.043
 8477SOL     OW37309   0.254   3.856   6.811
 8477SOL    HW137310   0.166   3.855   6.848
 8477SOL    HW237311   0.312   3.856   6.886
 8478SOL     OW37312   1.896   1.511   1.323
 8478SOL    HW137313   1.968   1.573   1.330
 8478SOL    HW237314   1.832   1.541   1.388
 8479SOL     OW37315   1.099   1.620  15.903
 8479SOL    HW137316   1.167   1.595  15.840
 8479SOL    HW237317   1.032   1.553  15.893
 8480SOL     OW37318   0.761   3.872  17.597
 8480SOL    HW137319   0.681   3.820  17.589
 8480SOL    HW237320   0.741   3.938  17.663
 8481SOL     OW37321   0.981   1.228   1.759
 8481SOL    HW137322   0.941   1.210   1.843
 8481SOL    HW237323   1.000   1.142   1.723
 8482SOL     OW37324   0.075   0.931   1.561
 8482SOL    HW137325   0.154   0.953   1.512
 8482SOL    HW237326   0.073   0.993   1.633
 8483SOL     OW37327   1.847   4.597   2.300
 8483SOL    HW137328   1.810   4.509   2.290
 8483SOL    HW237329   1.806   4.632   2.379
 8484SOL     OW37330   3.721   1.438  20.084
 8484SOL    HW137331   3.712   1.446  19.989
 8484SOL    HW237332   3.653   1.494  20.119
 8485SOL     OW37333   2.046   0.779   8.429
 8485SOL    HW137334   2.108   0.758   8.359
 8485SOL    HW237335   2.004   0.695   8.450
 8486SOL     OW37336   3.777   1.023   2.547
 8486SOL    HW137337   3.753   1.105   2.504
 8486SOL    HW237338   3.872   1.018   2.534
 8487SOL     OW37339   0.857   0.151  19.417
 8487SOL    HW137340   0.867   0.156  19.512
 8487SOL    HW237341   0.944   0.172  19.383
 8488SOL     OW37342   0.565   3.947  18.197
 8488SOL    HW137343   0.495   3.936  18.261
 8488SOL    HW237344   0.591   3.857  18.174
 8489SOL     OW37345   1.893   4.260   2.909
 8489SOL    HW137346   1.838   4.276   2.986
 8489SOL    HW237347   1.980   4.289   2.935
 8490SOL     OW37348   1.631   4.241   7.904
 8490SOL    HW137349   1.585   4.180   7.847
 8490SOL    HW237350   1.641   4.194   7.987
 8491SOL     OW37351   1.233   0.931   2.505
 8491SOL    HW137352   1.238   0.860   2.569
 8491SOL    HW237353   1.320   0.933   2.464
 8492SOL     OW37354   1.472   1.509   6.505
 8492SOL    HW137355   1.511   1.427   6.474
 8492SOL    HW237356   1.518   1.527   6.587
 8493SOL     OW37357   4.544   4.158   3.996
 8493SOL    HW137358   4.456   4.187   4.021
 8493SOL    HW237359   4.567   4.091   4.061
 8494SOL     OW37360   4.061   2.460  20.903
 8494SOL    HW137361   3.999   2.395  20.936
 8494SOL    HW237362   4.010   2.541  20.898
 8495SOL     OW37363   0.267   3.138  17.366
 8495SOL    HW137364   0.234   3.224  17.394
 8495SOL    HW237365   0.299   3.097  17.447
 8496SOL     OW37366   0.807   3.373   6.459
 8496SOL    HW137367   0.802   3.417   6.375
 8496SOL    HW237368   0.814   3.280   6.438
 8497SOL     OW37369   2.512   3.315  14.699
 8497SOL    HW137370   2.550   3.227  14.690
 8497SOL    HW237371   2.464   3.329  14.618
 8498SOL     OW37372   4.728   3.642   4.434
 8498SOL    HW137373   4.636   3.616   4.427
 8498SOL    HW237374   4.773   3.590   4.368
 8499SOL     OW37375   3.655   3.228  15.663
 8499SOL    HW137376   3.643   3.316  15.698
 8499SOL    HW237377   3.746   3.206  15.686
 8500SOL     OW37378   0.071   1.708   4.914
 8500SOL    HW137379   4.777   1.743   4.932
 8500SOL    HW237380   0.128   1.749   4.980
 8501SOL     OW37381   2.808   1.406  16.980
 8501SOL    HW137382   2.733   1.414  16.921
 8501SOL    HW237383   2.883   1.432  16.927
 8502SOL     OW37384   1.993   2.092   1.257
 8502SOL    HW137385   1.926   2.070   1.321
 8502SOL    HW237386   2.072   2.108   1.309
 8503SOL     OW37387   0.859   1.881  17.321
 8503SOL    HW137388   0.849   1.786  17.316
 8503SOL    HW237389   0.824   1.913  17.237
 8504SOL     OW37390   4.247   0.383   1.806
 8504SOL    HW137391   4.288   0.335   1.878
 8504SOL    HW237392   4.254   0.475   1.832
 8505SOL     OW37393   2.036   2.113   0.565
 8505SOL    HW137394   1.994   2.073   0.490
 8505SOL    HW237395   1.983   2.191   0.583
 8506SOL     OW37396   0.958   2.131  17.668
 8506SOL    HW137397   0.872   2.150  17.629
 8506SOL    HW237398   0.995   2.064  17.612
 8507SOL     OW37399   4.143   3.400   4.418
 8507SOL    HW137400   4.107   3.312   4.402
 8507SOL    HW237401   4.223   3.403   4.365
 8508SOL     OW37402   2.206   2.202   1.433
 8508SOL    HW137403   2.252   2.141   1.490
 8508SOL    HW237404   2.276   2.253   1.391
 8509SOL     OW37405   2.093   1.808   4.854
 8509SOL    HW137406   2.110   1.811   4.760
 8509SOL    HW237407   1.999   1.794   4.861
 8510SOL     OW37408   4.000   1.498  20.295
 8510SOL    HW137409   3.973   1.410  20.270
 8510SOL    HW237410   4.079   1.486  20.347
 8511SOL     OW37411   2.371   1.993  20.564
 8511SOL    HW137412   2.426   1.998  20.643
 8511SOL    HW237413   2.344   1.901  20.560
 8512SOL     OW37414   0.608   1.248  13.341
 8512SOL    HW137415   0.644   1.309  13.277
 8512SOL    HW237416   0.514   1.251  13.327
 8513SOL     OW37417   2.845   4.343   2.653
 8513SOL    HW137418   2.897   4.308   2.726
 8513SOL    HW237419   2.755   4.344   2.686
 8514SOL     OW37420   2.611   0.933   5.504
 8514SOL    HW137421   2.613   0.842   5.473
 8514SOL    HW237422   2.518   0.949   5.522
 8515SOL     OW37423   1.535   4.308  18.815
 8515SOL    HW137424   1.565   4.223  18.783
 8515SOL    HW237425   1.584   4.321  18.897
 8516SOL     OW37426   1.368   3.306   1.196
 8516SOL    HW137427   1.320   3.263   1.267
 8516SOL    HW237428   1.341   3.398   1.201
 8517SOL     OW37429   2.158   0.236  18.383
 8517SOL    HW137430   2.143   0.265  18.473
 8517SOL    HW237431   2.228   0.171  18.390
 8518SOL     OW37432   2.697   2.044   8.403
 8518SOL    HW137433   2.707   2.118   8.463
 8518SOL    HW237434   2.784   2.003   8.402
 8519SOL     OW37435   0.598   1.478   1.186
 8519SOL    HW137436   0.614   1.522   1.102
 8519SOL    HW237437   0.634   1.537   1.252
 8520SOL     OW37438   4.435   1.441   3.219
 8520SOL    HW137439   4.501   1.509   3.211
 8520SOL    HW237440   4.390   1.460   3.301
 8521SOL     OW37441   3.486   4.018   0.549
 8521SOL    HW137442   3.449   3.954   0.489
 8521SOL    HW237443   3.450   4.102   0.519
 8522SOL     OW37444   3.289   0.780   8.398
 8522SOL    HW137445   3.197   0.757   8.413
 8522SOL    HW237446   3.322   0.709   8.343
 8523SOL     OW37447   3.624   2.816   2.887
 8523SOL    HW137448   3.692   2.825   2.954
 8523SOL    HW237449   3.550   2.866   2.920
 8524SOL     OW37450   4.514   3.334   0.739
 8524SOL    HW137451   4.572   3.258   0.737
 8524SOL    HW237452   4.477   3.338   0.650
 8525SOL     OW37453   1.664   2.948  16.707
 8525SOL    HW137454   1.638   2.950  16.615
 8525SOL    HW237455   1.687   3.038  16.728
 8526SOL     OW37456   1.099   4.369  18.572
 8526SOL    HW137457   1.133   4.444  18.620
 8526SOL    HW237458   1.148   4.294  18.606
 8527SOL     OW37459   1.541   3.715   5.137
 8527SOL    HW137460   1.564   3.639   5.191
 8527SOL    HW237461   1.509   3.677   5.055
 8528SOL     OW37462   2.938   2.485  17.248
 8528SOL    HW137463   2.996   2.561  17.244
 8528SOL    HW237464   2.936   2.461  17.340
 8529SOL     OW37465   2.621   3.367  14.932
 8529SOL    HW137466   2.584   3.305  14.994
 8529SOL    HW237467   2.573   3.352  14.851
 8530SOL     OW37468   0.309   2.305   0.401
 8530SOL    HW137469   0.313   2.255   0.482
 8530SOL    HW237470   0.234   2.269   0.354
 8531SOL     OW37471   0.050   0.616  20.812
 8531SOL    HW137472   0.062   0.541  20.871
 8531SOL    HW237473   0.001   0.580  20.738
 8532SOL     OW37474   0.503   4.406   3.175
 8532SOL    HW137475   0.469   4.333   3.225
 8532SOL    HW237476   0.429   4.466   3.165
 8533SOL     OW37477   4.520   0.733  20.125
 8533SOL    HW137478   4.532   0.807  20.066
 8533SOL    HW237479   4.549   0.657  20.075
 8534SOL     OW37480   0.747   1.722  18.818
 8534SOL    HW137481   0.697   1.703  18.898
 8534SOL    HW237482   0.734   1.645  18.763
 8535SOL     OW37483   1.991   2.222   5.315
 8535SOL    HW137484   1.926   2.241   5.247
 8535SOL    HW237485   1.959   2.142   5.357
 8536SOL     OW37486   4.777   3.046  19.461
 8536SOL    HW137487   4.755   3.094  19.541
 8536SOL    HW237488   0.076   3.067  19.444
 8537SOL     OW37489   0.348   0.556  13.292
 8537SOL    HW137490   0.413   0.535  13.224
 8537SOL    HW237491   0.287   0.615  13.248
 8538SOL     OW37492   0.152   1.750   1.115
 8538SOL    HW137493   0.065   1.733   1.080
 8538SOL    HW237494   0.204   1.675   1.087
 8539SOL     OW37495   1.304   4.528  17.952
 8539SOL    HW137496   1.250   4.495  18.023
 8539SOL    HW237497   1.315   4.621  17.970
 8540SOL     OW37498   4.419   1.684   1.492
 8540SOL    HW137499   4.471   1.763   1.480
 8540SOL    HW237500   4.452   1.622   1.426
 8541SOL     OW37501   1.144   3.972   4.643
 8541SOL    HW137502   1.215   4.032   4.665
 8541SOL    HW237503   1.065   4.016   4.673
 8542SOL     OW37504   3.470   0.959   1.889
 8542SOL    HW137505   3.409   0.941   1.960
 8542SOL    HW237506   3.475   0.877   1.840
 8543SOL     OW37507   0.463   2.911   1.700
 8543SOL    HW137508   0.457   2.903   1.604
 8543SOL    HW237509   0.552   2.882   1.721
 8544SOL     OW37510   0.705   1.671   1.347
 8544SOL    HW137511   0.751   1.712   1.420
 8544SOL    HW237512   0.735   1.719   1.270
 8545SOL     OW37513   1.332   0.855  16.015
 8545SOL    HW137514   1.378   0.798  15.953
 8545SOL    HW237515   1.247   0.871  15.975
 8546SOL     OW37516   0.561   3.762  14.201
 8546SOL    HW137517   0.599   3.762  14.289
 8546SOL    HW237518   0.508   3.842  14.197
 8547SOL     OW37519   2.760   2.799  14.802
 8547SOL    HW137520   2.687   2.802  14.865
 8547SOL    HW237521   2.823   2.864  14.835
 8548SOL     OW37522   1.135   4.135  15.403
 8548SOL    HW137523   1.098   4.208  15.452
 8548SOL    HW237524   1.067   4.112  15.339
 8549SOL     OW37525   3.127   4.129   0.938
 8549SOL    HW137526   3.181   4.208   0.929
 8549SOL    HW237527   3.157   4.088   1.019
 8550SOL     OW37528   1.070   3.130   5.507
 8550SOL    HW137529   1.088   3.081   5.427
 8550SOL    HW237530   1.155   3.166   5.532
 8551SOL     OW37531   1.951   0.698  21.157
 8551SOL    HW137532   1.860   0.670  21.155
 8551SOL    HW237533   1.948   0.792  21.139
 8552SOL     OW37534   3.119   1.532   7.878
 8552SOL    HW137535   3.192   1.577   7.835
 8552SOL    HW237536   3.160   1.474   7.941
 8553SOL     OW37537   2.871   4.380   0.718
 8553SOL    HW137538   2.947   4.431   0.748
 8553SOL    HW237539   2.808   4.387   0.789
 8554SOL     OW37540   3.685   0.462  16.916
 8554SOL    HW137541   3.728   0.507  16.989
 8554SOL    HW237542   3.603   0.510  16.903
 8555SOL     OW37543   2.429   1.102   3.554
 8555SOL    HW137544   2.404   1.022   3.509
 8555SOL    HW237545   2.370   1.107   3.629
 8556SOL     OW37546   1.393   3.934  12.827
 8556SOL    HW137547   1.405   3.871  12.898
 8556SOL    HW237548   1.362   3.882  12.753
 8557SOL     OW37549   2.119   1.138   3.764
 8557SOL    HW137550   2.045   1.196   3.754
 8557SOL    HW237551   2.086   1.051   3.740
 8558SOL     OW37552   2.959   3.998  18.525
 8558SOL    HW137553   2.909   4.043  18.457
 8558SOL    HW237554   3.015   4.067  18.563
 8559SOL     OW37555   0.466   3.323  18.673
 8559SOL    HW137556   0.417   3.391  18.625
 8559SOL    HW237557   0.463   3.247  18.615
 8560SOL     OW37558   1.517   3.069   4.095
 8560SOL    HW137559   1.480   3.029   4.174
 8560SOL    HW237560   1.554   2.996   4.046
 8561SOL     OW37561   0.150   1.445   5.566
 8561SOL    HW137562   0.086   1.421   5.498
 8561SOL    HW237563   0.163   1.539   5.554
 8562SOL     OW37564   3.008   2.215  15.494
 8562SOL    HW137565   3.032   2.163  15.571
 8562SOL    HW237566   3.028   2.159  15.419
 8563SOL     OW37567   2.843   3.874  16.991
 8563SOL    HW137568   2.892   3.797  17.021
 8563SOL    HW237569   2.907   3.945  16.991
 8564SOL     OW37570   2.276   0.602   3.349
 8564SOL    HW137571   2.304   0.511   3.344
 8564SOL    HW237572   2.256   0.627   3.259
 8565SOL     OW37573   2.803   0.672   4.521
 8565SOL    HW137574   2.798   0.702   4.612
 8565SOL    HW237575   2.720   0.700   4.482
 8566SOL     OW37576   2.853   1.271  20.739
 8566SOL    HW137577   2.823   1.223  20.662
 8566SOL    HW237578   2.921   1.330  20.705
 8567SOL     OW37579   0.963   3.290  20.479
 8567SOL    HW137580   0.989   3.281  20.570
 8567SOL    HW237581   0.940   3.201  20.451
 8568SOL     OW37582   0.304   0.387  19.497
 8568SOL    HW137583   0.367   0.452  19.466
 8568SOL    HW237584   0.243   0.376  19.423
 8569SOL     OW37585   4.227   3.476   3.871
 8569SOL    HW137586   4.242   3.559   3.916
 8569SOL    HW237587   4.207   3.414   3.941
 8570SOL     OW37588   0.960   4.423  11.712
 8570SOL    HW137589   0.988   4.375  11.789
 8570SOL    HW237590   1.017   4.391  11.642
 8571SOL     OW37591   3.627   0.073  19.154
 8571SOL    HW137592   3.552   0.064  19.213
 8571SOL    HW237593   3.661   0.161  19.171
 8572SOL     OW37594   0.515   0.539  18.378
 8572SOL    HW137595   0.456   0.599  18.424
 8572SOL    HW237596   0.599   0.586  18.377
 8573SOL     OW37597   4.166   4.693   1.055
 8573SOL    HW137598   4.137   4.603   1.040
 8573SOL    HW237599   4.258   4.693   1.030
 8574SOL     OW37600   2.368   4.538  16.497
 8574SOL    HW137601   2.307   4.582  16.555
 8574SOL    HW237602   2.392   4.603  16.432
 8575SOL     OW37603   4.161   2.702  20.623
 8575SOL    HW137604   4.182   2.765  20.553
 8575SOL    HW237605   4.236   2.707  20.682
 8576SOL     OW37606   1.090   4.647  12.525
 8576SOL    HW137607   1.007   4.605  12.503
 8576SOL    HW237608   1.154   4.601  12.471
 8577SOL     OW37609   3.288   1.264   6.161
 8577SOL    HW137610   3.205   1.238   6.200
 8577SOL    HW237611   3.354   1.215   6.210
 8578SOL     OW37612   2.231   1.996  19.060
 8578SOL    HW137613   2.228   1.906  19.093
 8578SOL    HW237614   2.269   1.989  18.973
 8579SOL     OW37615   1.983   2.602   1.656
 8579SOL    HW137616   2.011   2.515   1.629
 8579SOL    HW237617   2.061   2.642   1.694
 8580SOL     OW37618   1.803   4.707   5.877
 8580SOL    HW137619   1.855   4.628   5.862
 8580SOL    HW237620   1.714   4.682   5.850
 8581SOL     OW37621   2.331   4.297  13.832
 8581SOL    HW137622   2.383   4.220  13.855
 8581SOL    HW237623   2.376   4.333  13.755
 8582SOL     OW37624   1.285   3.436  15.744
 8582SOL    HW137625   1.256   3.345  15.750
 8582SOL    HW237626   1.381   3.431  15.749
 8583SOL     OW37627   0.543   2.790  15.384
 8583SOL    HW137628   0.636   2.775  15.400
 8583SOL    HW237629   0.537   2.810  15.291
 8584SOL     OW37630   4.150   3.930   3.306
 8584SOL    HW137631   4.069   3.904   3.261
 8584SOL    HW237632   4.187   3.847   3.338
 8585SOL     OW37633   0.656   0.707  20.299
 8585SOL    HW137634   0.622   0.796  20.284
 8585SOL    HW237635   0.658   0.699  20.395
 8586SOL     OW37636   1.869   1.426  20.525
 8586SOL    HW137637   1.817   1.399  20.601
 8586SOL    HW237638   1.952   1.379  20.536
 8587SOL     OW37639   3.412   3.237  19.141
 8587SOL    HW137640   3.414   3.205  19.051
 8587SOL    HW237641   3.463   3.318  19.138
 8588SOL     OW37642   0.165   4.675   1.783
 8588SOL    HW137643   0.139   4.767   1.784
 8588SOL    HW237644   0.142   4.643   1.870
 8589SOL     OW37645   3.842   1.758   6.837
 8589SOL    HW137646   3.806   1.846   6.849
 8589SOL    HW237647   3.852   1.749   6.742
 8590SOL     OW37648   2.957   0.863   1.661
 8590SOL    HW137649   3.012   0.915   1.602
 8590SOL    HW237650   3.003   0.865   1.745
 8591SOL     OW37651   4.652   4.297  18.941
 8591SOL    HW137652   4.702   4.365  18.895
 8591SOL    HW237653   4.610   4.344  19.013
 8592SOL     OW37654   4.260   3.860   3.034
 8592SOL    HW137655   4.227   3.900   3.115
 8592SOL    HW237656   4.200   3.890   2.966
 8593SOL     OW37657   4.234   1.223  19.132
 8593SOL    HW137658   4.173   1.296  19.123
 8593SOL    HW237659   4.247   1.192  19.042
 8594SOL     OW37660   0.784   4.027  16.212
 8594SOL    HW137661   0.772   4.115  16.175
 8594SOL    HW237662   0.696   3.990  16.215
 8595SOL     OW37663   2.834   4.686   3.736
 8595SOL    HW137664   2.920   4.650   3.714
 8595SOL    HW237665   2.822   4.665   3.828
 8596SOL     OW37666   3.101   2.375   3.187
 8596SOL    HW137667   3.168   2.341   3.246
 8596SOL    HW237668   3.031   2.310   3.190
 8597SOL     OW37669   2.935   0.217   0.325
 8597SOL    HW137670   2.911   0.271   0.250
 8597SOL    HW237671   2.937   0.128   0.291
 8598SOL     OW37672   2.402   1.167   6.110
 8598SOL    HW137673   2.355   1.239   6.152
 8598SOL    HW237674   2.337   1.125   6.055
 8599SOL     OW37675   1.519   4.294  14.089
 8599SOL    HW137676   1.527   4.355  14.015
 8599SOL    HW237677   1.562   4.214  14.059
 8600SOL     OW37678   4.346   4.316  20.540
 8600SOL    HW137679   4.311   4.370  20.470
 8600SOL    HW237680   4.385   4.378  20.602
 8601SOL     OW37681   3.554   1.134   6.210
 8601SOL    HW137682   3.624   1.177   6.160
 8601SOL    HW237683   3.559   1.174   6.297
 8602SOL     OW37684   3.049   2.322  16.578
 8602SOL    HW137685   3.132   2.274  16.578
 8602SOL    HW237686   3.074   2.415  16.583
 8603SOL     OW37687   3.716   3.799   0.720
 8603SOL    HW137688   3.781   3.729   0.708
 8603SOL    HW237689   3.640   3.754   0.757
 8604SOL     OW37690   3.083   3.247   0.233
 8604SOL    HW137691   3.002   3.291   0.207
 8604SOL    HW237692   3.104   3.190   0.159
 8605SOL     OW37693   3.742   2.147   1.620
 8605SOL    HW137694   3.699   2.064   1.640
 8605SOL    HW237695   3.675   2.213   1.634
 8606SOL     OW37696   0.740   4.472   1.477
 8606SOL    HW137697   0.727   4.397   1.534
 8606SOL    HW237698   0.815   4.449   1.423
 8607SOL     OW37699   0.545   3.920   1.855
 8607SOL    HW137700   0.554   4.008   1.818
 8607SOL    HW237701   0.485   3.931   1.929
 8608SOL     OW37702   2.207   4.518   3.349
 8608SOL    HW137703   2.119   4.488   3.328
 8608SOL    HW237704   2.226   4.585   3.284
 8609SOL     OW37705   2.545   3.023  12.903
 8609SOL    HW137706   2.466   3.002  12.853
 8609SOL    HW237707   2.568   2.942  12.947
 8610SOL     OW37708   1.300   2.069   5.385
 8610SOL    HW137709   1.206   2.052   5.381
 8610SOL    HW237710   1.321   2.068   5.478
 8611SOL     OW37711   4.597   2.886   2.866
 8611SOL    HW137712   4.679   2.853   2.902
 8611SOL    HW237713   4.623   2.934   2.787
 8612SOL     OW37714   1.208   3.398  14.440
 8612SOL    HW137715   1.118   3.431  14.446
 8612SOL    HW237716   1.251   3.456  14.377
 8613SOL     OW37717   0.410   3.722   0.127
 8613SOL    HW137718   0.490   3.774   0.120
 8613SOL    HW237719   0.378   3.715   0.037
 8614SOL     OW37720   4.324   0.287   2.812
 8614SOL    HW137721   4.347   0.270   2.904
 8614SOL    HW237722   4.409   0.297   2.769
 8615SOL     OW37723   0.659   2.086  21.216
 8615SOL    HW137724   0.686   2.026   0.013
 8615SOL    HW237725   0.730   2.083  21.152
 8616SOL     OW37726   4.642   1.601  19.373
 8616SOL    HW137727   4.682   1.649  19.301
 8616SOL    HW237728   4.672   1.510  19.362
 8617SOL     OW37729   1.905   2.603   4.351
 8617SOL    HW137730   1.880   2.526   4.402
 8617SOL    HW237731   1.985   2.634   4.393
 8618SOL     OW37732   1.620   1.174  20.840
 8618SOL    HW137733   1.707   1.201  20.869
 8618SOL    HW237734   1.562   1.193  20.914
 8619SOL     OW37735   0.744   1.647  15.844
 8619SOL    HW137736   0.789   1.684  15.768
 8619SOL    HW237737   0.741   1.718  15.908
 8620SOL     OW37738   0.868   4.701   0.177
 8620SOL    HW137739   0.883   0.002   0.168
 8620SOL    HW237740   0.946   4.660   0.140
 8621SOL     OW37741   3.577   3.877   5.597
 8621SOL    HW137742   3.673   3.876   5.595
 8621SOL    HW237743   3.555   3.957   5.644
 8622SOL     OW37744   2.203   3.786   8.848
 8622SOL    HW137745   2.119   3.766   8.889
 8622SOL    HW237746   2.269   3.748   8.906
 8623SOL     OW37747   3.456   2.711  19.085
 8623SOL    HW137748   3.502   2.669  19.158
 8623SOL    HW237749   3.437   2.800  19.117
 8624SOL     OW37750   3.079   4.731   0.215
 8624SOL    HW137751   3.114   4.699   0.133
 8624SOL    HW237752   2.990   4.696   0.219
 8625SOL     OW37753   3.544   2.713  17.328
 8625SOL    HW137754   3.571   2.689  17.239
 8625SOL    HW237755   3.545   2.631  17.377
 8626SOL     OW37756   0.981   1.090   3.258
 8626SOL    HW137757   0.924   1.027   3.214
 8626SOL    HW237758   0.977   1.168   3.204
 8627SOL     OW37759   2.006   3.742   9.060
 8627SOL    HW137760   2.084   3.772   9.106
 8627SOL    HW237761   1.993   3.652   9.089
 8628SOL     OW37762   1.380   3.323  16.996
 8628SOL    HW137763   1.461   3.272  16.989
 8628SOL    HW237764   1.373   3.370  16.913
 8629SOL     OW37765   4.224   0.438  18.761
 8629SOL    HW137766   4.269   0.523  18.764
 8629SOL    HW237767   4.133   0.459  18.741
 8630SOL     OW37768   1.456   0.917   2.365
 8630SOL    HW137769   1.477   0.856   2.294
 8630SOL    HW237770   1.486   1.002   2.334
 8631SOL     OW37771   2.641   4.160  17.428
 8631SOL    HW137772   2.594   4.230  17.383
 8631SOL    HW237773   2.692   4.118  17.360
 8632SOL     OW37774   3.314   4.104  16.318
 8632SOL    HW137775   3.238   4.162  16.327
 8632SOL    HW237776   3.347   4.121  16.230
 8633SOL     OW37777   0.858   3.754   0.330
 8633SOL    HW137778   0.907   3.835   0.342
 8633SOL    HW237779   0.838   3.725   0.419
 8634SOL     OW37780   4.650   0.990  15.731
 8634SOL    HW137781   4.720   0.994  15.796
 8634SOL    HW237782   4.621   0.899  15.732
 8635SOL     OW37783   0.671   0.791   0.056
 8635SOL    HW137784   0.596   0.800  21.269
 8635SOL    HW237785   0.634   0.752   0.135
 8636SOL     OW37786   0.099   2.535  20.039
 8636SOL    HW137787   0.104   2.585  20.120
 8636SOL    HW237788   0.160   2.579  19.980
 8637SOL     OW37789   4.574   0.944  14.032
 8637SOL    HW137790   4.509   0.894  14.082
 8637SOL    HW237791   4.610   1.006  14.095
 8638SOL     OW37792   4.752   4.079  15.656
 8638SOL    HW137793   4.726   4.132  15.580
 8638SOL    HW237794   0.052   4.098  15.668
 8639SOL     OW37795   4.524   4.447   2.700
 8639SOL    HW137796   4.509   4.381   2.633
 8639SOL    HW237797   4.526   4.397   2.782
 8640SOL     OW37798   2.184   1.679   5.998
 8640SOL    HW137799   2.228   1.722   6.072
 8640SOL    HW237800   2.254   1.665   5.933
 8641SOL     OW37801   3.418   0.362  17.684
 8641SOL    HW137802   3.340   0.308  17.692
 8641SOL    HW237803   3.480   0.308  17.635
 8642SOL     OW37804   2.549   2.524   3.553
 8642SOL    HW137805   2.618   2.573   3.509
 8642SOL    HW237806   2.567   2.535   3.646
 8643SOL     OW37807   2.282   4.099   5.389
 8643SOL    HW137808   2.377   4.111   5.384
 8643SOL    HW237809   2.246   4.187   5.379
 8644SOL     OW37810   2.134   2.240  19.051
 8644SOL    HW137811   2.159   2.279  19.134
 8644SOL    HW237812   2.170   2.152  19.054
 8645SOL     OW37813   0.007   3.895   0.053
 8645SOL    HW137814   0.068   3.948   0.105
 8645SOL    HW237815   4.731   3.956   0.027
 8646SOL     OW37816   4.546   0.121  15.054
 8646SOL    HW137817   4.547   0.055  15.124
 8646SOL    HW237818   4.467   0.102  15.004
 8647SOL     OW37819   0.556   4.283   2.637
 8647SOL    HW137820   0.523   4.265   2.549
 8647SOL    HW237821   0.563   4.197   2.678
 8648SOL     OW37822   0.025   1.872   4.212
 8648SOL    HW137823   0.021   1.949   4.155
 8648SOL    HW237824   0.057   1.906   4.295
 8649SOL     OW37825   3.385   1.194  15.808
 8649SOL    HW137826   3.444   1.120  15.819
 8649SOL    HW237827   3.425   1.247  15.739
 8650SOL     OW37828   1.371   0.322  17.486
 8650SOL    HW137829   1.403   0.274  17.410
 8650SOL    HW237830   1.426   0.293  17.558
 8651SOL     OW37831   0.916   0.735   4.082
 8651SOL    HW137832   0.898   0.667   4.147
 8651SOL    HW237833   0.877   0.814   4.118
 8652SOL     OW37834   4.683   4.371  15.252
 8652SOL    HW137835   4.596   4.335  15.235
 8652SOL    HW237836   4.697   4.357  15.346
 8653SOL     OW37837   1.164   2.836   6.408
 8653SOL    HW137838   1.185   2.797   6.323
 8653SOL    HW237839   1.148   2.761   6.466
 8654SOL     OW37840   0.422   1.495  18.104
 8654SOL    HW137841   0.507   1.513  18.143
 8654SOL    HW237842   0.362   1.491  18.179
 8655SOL     OW37843   1.075   0.797  13.834
 8655SOL    HW137844   1.149   0.858  13.827
 8655SOL    HW237845   1.032   0.821  13.916
 8656SOL     OW37846   0.459   0.063  19.599
 8656SOL    HW137847   0.543   0.020  19.615
 8656SOL    HW237848   0.442   0.049  19.506
 8657SOL     OW37849   3.509   3.635   0.794
 8657SOL    HW137850   3.539   3.550   0.826
 8657SOL    HW237851   3.431   3.654   0.846
 8658SOL     OW37852   4.381   2.260  20.604
 8658SOL    HW137853   4.422   2.181  20.639
 8658SOL    HW237854   4.415   2.266  20.514
 8659SOL     OW37855   0.297   1.421   3.581
 8659SOL    HW137856   0.336   1.506   3.601
 8659SOL    HW237857   0.361   1.357   3.611
 8660SOL     OW37858   1.434   1.765  19.335
 8660SOL    HW137859   1.346   1.727  19.338
 8660SOL    HW237860   1.474   1.741  19.419
 8661SOL     OW37861   4.459   1.366  15.821
 8661SOL    HW137862   4.376   1.349  15.866
 8661SOL    HW237863   4.492   1.447  15.861
 8662SOL     OW37864   0.636   2.624   3.282
 8662SOL    HW137865   0.643   2.720   3.277
 8662SOL    HW237866   0.727   2.594   3.287
 8663SOL     OW37867   1.392   4.096   2.546
 8663SOL    HW137868   1.401   4.128   2.636
 8663SOL    HW237869   1.312   4.136   2.514
 8664SOL     OW37870   1.132   1.842  11.316
 8664SOL    HW137871   1.058   1.785  11.335
 8664SOL    HW237872   1.163   1.812  11.230
 8665SOL     OW37873   4.447   1.846   0.335
 8665SOL    HW137874   4.541   1.850   0.322
 8665SOL    HW237875   4.432   1.888   0.420
 8666SOL     OW37876   2.742   0.337   3.180
 8666SOL    HW137877   2.689   0.376   3.250
 8666SOL    HW237878   2.826   0.316   3.222
 8667SOL     OW37879   0.568   0.838  15.937
 8667SOL    HW137880   0.556   0.744  15.926
 8667SOL    HW237881   0.479   0.873  15.936
 8668SOL     OW37882   4.792   1.709   5.304
 8668SOL    HW137883   0.032   1.707   5.394
 8668SOL    HW237884   0.044   1.637   5.260
 8669SOL     OW37885   0.339   1.155   2.424
 8669SOL    HW137886   0.356   1.081   2.482
 8669SOL    HW237887   0.358   1.121   2.336
 8670SOL     OW37888   1.352   2.351  19.768
 8670SOL    HW137889   1.309   2.298  19.701
 8670SOL    HW237890   1.285   2.414  19.795
 8671SOL     OW37891   3.867   2.842  15.221
 8671SOL    HW137892   3.795   2.885  15.266
 8671SOL    HW237893   3.889   2.901  15.149
 8672SOL     OW37894   2.580   1.099   0.958
 8672SOL    HW137895   2.627   1.091   1.041
 8672SOL    HW237896   2.557   1.191   0.952
 8673SOL     OW37897   0.421   4.495   4.224
 8673SOL    HW137898   0.491   4.545   4.266
 8673SOL    HW237899   0.463   4.414   4.195
 8674SOL     OW37900   3.629   2.923   0.314
 8674SOL    HW137901   3.660   2.972   0.238
 8674SOL    HW237902   3.577   2.852   0.276
 8675SOL     OW37903   0.606   3.894   6.333
 8675SOL    HW137904   0.631   3.863   6.420
 8675SOL    HW237905   0.514   3.918   6.341
 8676SOL     OW37906   3.517   1.678  17.689
 8676SOL    HW137907   3.539   1.591  17.722
 8676SOL    HW237908   3.484   1.725  17.766
 8677SOL     OW37909   2.240   4.004   1.397
 8677SOL    HW137910   2.164   4.053   1.428
 8677SOL    HW237911   2.237   3.922   1.447
 8678SOL     OW37912   0.887   2.527  15.392
 8678SOL    HW137913   0.960   2.468  15.378
 8678SOL    HW237914   0.887   2.543  15.486
 8679SOL     OW37915   1.983   4.051   6.073
 8679SOL    HW137916   1.999   4.144   6.058
 8679SOL    HW237917   2.030   4.032   6.154
 8680SOL     OW37918   3.601   4.651   2.884
 8680SOL    HW137919   3.610   4.626   2.976
 8680SOL    HW237920   3.541   4.726   2.886
 8681SOL     OW37921   1.157   4.579  18.807
 8681SOL    HW137922   1.218   4.523  18.855
 8681SOL    HW237923   1.070   4.542  18.827
 8682SOL     OW37924   2.838   2.242  17.050
 8682SOL    HW137925   2.776   2.188  17.100
 8682SOL    HW237926   2.854   2.318  17.106
 8683SOL     OW37927   0.289   2.246   2.108
 8683SOL    HW137928   0.351   2.181   2.075
 8683SOL    HW237929   0.212   2.194   2.133
 8684SOL     OW37930   3.910   0.445  20.281
 8684SOL    HW137931   3.862   0.370  20.317
 8684SOL    HW237932   3.899   0.514  20.346
 8685SOL     OW37933   1.659   0.683   6.224
 8685SOL    HW137934   1.648   0.723   6.138
 8685SOL    HW237935   1.595   0.727   6.280
 8686SOL     OW37936   0.852   3.999  18.481
 8686SOL    HW137937   0.917   3.959  18.539
 8686SOL    HW237938   0.796   4.051  18.540
 8687SOL     OW37939   4.583   3.574  13.987
 8687SOL    HW137940   4.529   3.643  13.950
 8687SOL    HW237941   4.672   3.609  13.986
 8688SOL     OW37942   1.723   1.431  15.555
 8688SOL    HW137943   1.790   1.470  15.611
 8688SOL    HW237944   1.773   1.382  15.489
 8689SOL     OW37945   1.684   4.600   1.873
 8689SOL    HW137946   1.737   4.524   1.849
 8689SOL    HW237947   1.738   4.647   1.937
 8690SOL     OW37948   3.504   3.557  16.622
 8690SOL    HW137949   3.489   3.463  16.613
 8690SOL    HW237950   3.569   3.564  16.691
 8691SOL     OW37951   3.738   4.363   5.601
 8691SOL    HW137952   3.653   4.403   5.588
 8691SOL    HW237953   3.766   4.337   5.513
 8692SOL     OW37954   1.681   1.727   7.683
 8692SOL    HW137955   1.764   1.736   7.729
 8692SOL    HW237956   1.625   1.794   7.723
 8693SOL     OW37957   0.490   3.504   3.965
 8693SOL    HW137958   0.448   3.463   4.040
 8693SOL    HW237959   0.424   3.566   3.932
 8694SOL     OW37960   0.396   1.845   5.262
 8694SOL    HW137961   0.326   1.909   5.250
 8694SOL    HW237962   0.435   1.835   5.176
 8695SOL     OW37963   3.053   2.747  13.815
 8695SOL    HW137964   3.066   2.816  13.750
 8695SOL    HW237965   2.988   2.689  13.776
 8696SOL     OW37966   0.168   1.375   7.919
 8696SOL    HW137967   0.172   1.367   7.824
 8696SOL    HW237968   0.259   1.390   7.945
 8697SOL     OW37969   1.316   3.894   5.025
 8697SOL    HW137970   1.270   3.943   5.093
 8697SOL    HW237971   1.307   3.802   5.051
 8698SOL     OW37972   0.201   3.732  18.389
 8698SOL    HW137973   0.124   3.719  18.444
 8698SOL    HW237974   0.272   3.689  18.436
 8699SOL     OW37975   2.980   2.095  13.019
 8699SOL    HW137976   3.032   2.047  13.084
 8699SOL    HW237977   2.979   2.185  13.051
 8700SOL     OW37978   4.208   4.581   7.660
 8700SOL    HW137979   4.290   4.584   7.709
 8700SOL    HW237980   4.227   4.527   7.583
 8701SOL     OW37981   4.579   0.245   3.352
 8701SOL    HW137982   4.606   0.154   3.345
 8701SOL    HW237983   4.542   0.252   3.440
 8702SOL     OW37984   1.805   1.686  16.927
 8702SOL    HW137985   1.784   1.710  16.837
 8702SOL    HW237986   1.861   1.608  16.918
 8703SOL     OW37987   0.089   4.606   6.863
 8703SOL    HW137988   0.030   4.616   6.788
 8703SOL    HW237989   0.114   4.695   6.885
 8704SOL     OW37990   4.688   0.285  17.068
 8704SOL    HW137991   4.653   0.369  17.039
 8704SOL    HW237992   4.761   0.307  17.125
 8705SOL     OW37993   3.361   2.691  20.408
 8705SOL    HW137994   3.322   2.617  20.454
 8705SOL    HW237995   3.426   2.726  20.469
 8706SOL     OW37996   3.930   0.898  20.067
 8706SOL    HW137997   3.945   0.808  20.039
 8706SOL    HW237998   3.861   0.892  20.133
 8707SOL     OW37999   2.810   2.152   6.471
 8707SOL    HW138000   2.842   2.189   6.389
 8707SOL    HW238001   2.880   2.169   6.534
 8708SOL     OW38002   1.837   2.304   0.581
 8708SOL    HW138003   1.848   2.311   0.487
 8708SOL    HW238004   1.821   2.394   0.610
 8709SOL     OW38005   3.261   0.617  17.413
 8709SOL    HW138006   3.210   0.654  17.341
 8709SOL    HW238007   3.299   0.537  17.377
 8710SOL     OW38008   4.273   3.842  18.784
 8710SOL    HW138009   4.263   3.749  18.764
 8710SOL    HW238010   4.227   3.854  18.867
 8711SOL     OW38011   4.579   0.349   5.796
 8711SOL    HW138012   4.633   0.352   5.717
 8711SOL    HW238013   4.520   0.276   5.782
 8712SOL     OW38014   3.661   1.481   4.749
 8712SOL    HW138015   3.726   1.414   4.730
 8712SOL    HW238016   3.577   1.435   4.747
 8713SOL     OW38017   1.667   4.344   5.404
 8713SOL    HW138018   1.707   4.425   5.434
 8713SOL    HW238019   1.712   4.323   5.322
 8714SOL     OW38020   3.605   0.645   7.058
 8714SOL    HW138021   3.694   0.635   7.023
 8714SOL    HW238022   3.560   0.699   6.993
 8715SOL     OW38023   3.687   2.986   7.245
 8715SOL    HW138024   3.751   2.925   7.279
 8715SOL    HW238025   3.695   3.063   7.301
 8716SOL     OW38026   3.946   4.698   0.014
 8716SOL    HW138027   3.905   4.653  21.212
 8716SOL    HW238028   3.893   4.671   0.089
 8717SOL     OW38029   0.334   3.838   2.766
 8717SOL    HW138030   0.273   3.828   2.839
 8717SOL    HW238031   0.283   3.813   2.689
 8718SOL     OW38032   2.675   4.324  18.029
 8718SOL    HW138033   2.617   4.273  17.973
 8718SOL    HW238034   2.728   4.376  17.968
 8719SOL     OW38035   1.522   0.695  12.798
 8719SOL    HW138036   1.610   0.658  12.805
 8719SOL    HW238037   1.484   0.652  12.722
 8720SOL     OW38038   0.865   4.276  17.865
 8720SOL    HW138039   0.880   4.347  17.803
 8720SOL    HW238040   0.856   4.320  17.950
 8721SOL     OW38041   4.089   3.709  18.434
 8721SOL    HW138042   4.127   3.703  18.521
 8721SOL    HW238043   4.032   3.632  18.427
 8722SOL     OW38044   3.421   1.555   2.070
 8722SOL    HW138045   3.368   1.596   2.001
 8722SOL    HW238046   3.384   1.467   2.079
 8723SOL     OW38047   3.311   3.629   3.037
 8723SOL    HW138048   3.394   3.677   3.026
 8723SOL    HW238049   3.245   3.686   2.997
 8724SOL     OW38050   2.888   4.298  15.418
 8724SOL    HW138051   2.864   4.239  15.346
 8724SOL    HW238052   2.813   4.358  15.426
 8725SOL     OW38053   3.752   0.930  16.164
 8725SOL    HW138054   3.817   0.873  16.205
 8725SOL    HW238055   3.675   0.924  16.221
 8726SOL     OW38056   2.428   2.054   4.174
 8726SOL    HW138057   2.408   2.108   4.251
 8726SOL    HW238058   2.519   2.028   4.186
 8727SOL     OW38059   0.903   3.459   2.267
 8727SOL    HW138060   0.816   3.437   2.298
 8727SOL    HW238061   0.920   3.397   2.195
 8728SOL     OW38062   3.266   4.645  17.732
 8728SOL    HW138063   3.256   4.550  17.745
 8728SOL    HW238064   3.183   4.673  17.693
 8729SOL     OW38065   1.408   4.646   4.488
 8729SOL    HW138066   1.460   4.584   4.539
 8729SOL    HW238067   1.411   4.727   4.539
 8730SOL     OW38068   4.516   0.727   0.079
 8730SOL    HW138069   4.506   0.643   0.123
 8730SOL    HW238070   4.486   0.792   0.143
 8731SOL     OW38071   3.045   2.148  21.028
 8731SOL    HW138072   3.053   2.143  20.933
 8731SOL    HW238073   2.955   2.123  21.046
 8732SOL     OW38074   3.834   4.309   3.291
 8732SOL    HW138075   3.898   4.257   3.340
 8732SOL    HW238076   3.812   4.381   3.350
 8733SOL     OW38077   0.005   0.212  15.046
 8733SOL    HW138078   4.714   0.167  15.046
 8733SOL    HW238079   0.033   0.209  15.138
 8734SOL     OW38080   0.135   4.524   7.319
 8734SOL    HW138081   0.161   4.615   7.323
 8734SOL    HW238082   0.072   4.519   7.247
 8735SOL     OW38083   1.994   4.157   0.564
 8735SOL    HW138084   1.948   4.094   0.508
 8735SOL    HW238085   2.039   4.215   0.502
 8736SOL     OW38086   4.205   2.797  17.035
 8736SOL    HW138087   4.115   2.800  17.004
 8736SOL    HW238088   4.230   2.705  17.027
 8737SOL     OW38089   0.390   3.560  17.826
 8737SOL    HW138090   0.348   3.644  17.845
 8737SOL    HW238091   0.447   3.543  17.901
 8738SOL     OW38092   2.630   0.376  21.108
 8738SOL    HW138093   2.603   0.298  21.156
 8738SOL    HW238094   2.549   0.427  21.099
 8739SOL     OW38095   1.237   0.038   3.285
 8739SOL    HW138096   1.213   0.122   3.324
 8739SOL    HW238097   1.304   0.059   3.221
 8740SOL     OW38098   2.574   3.156   3.046
 8740SOL    HW138099   2.560   3.084   3.107
 8740SOL    HW238100   2.497   3.213   3.059
 8741SOL     OW38101   4.271   2.978  15.274
 8741SOL    HW138102   4.253   3.071  15.268
 8741SOL    HW238103   4.306   2.965  15.362
 8742SOL     OW38104   2.398   0.857  16.456
 8742SOL    HW138105   2.307   0.877  16.434
 8742SOL    HW238106   2.404   0.871  16.550
 8743SOL     OW38107   0.102   2.951  16.911
 8743SOL    HW138108   0.081   2.968  17.002
 8743SOL    HW238109   0.021   2.966  16.863
 8744SOL     OW38110   1.923   2.627  19.033
 8744SOL    HW138111   1.842   2.577  19.024
 8744SOL    HW238112   1.958   2.601  19.119
 8745SOL     OW38113   4.154   2.175   6.364
 8745SOL    HW138114   4.179   2.211   6.280
 8745SOL    HW238115   4.098   2.101   6.343
 8746SOL     OW38116   1.241   3.366  18.377
 8746SOL    HW138117   1.219   3.390  18.466
 8746SOL    HW238118   1.214   3.441  18.324
 8747SOL     OW38119   2.162   3.709   6.164
 8747SOL    HW138120   2.180   3.802   6.180
 8747SOL    HW238121   2.198   3.664   6.240
 8748SOL     OW38122   2.676   4.418   6.467
 8748SOL    HW138123   2.665   4.466   6.549
 8748SOL    HW238124   2.696   4.486   6.402
 8749SOL     OW38125   2.130   2.357  20.360
 8749SOL    HW138126   2.199   2.291  20.371
 8749SOL    HW238127   2.104   2.349  20.269
 8750SOL     OW38128   0.988   0.353  16.394
 8750SOL    HW138129   0.896   0.365  16.418
 8750SOL    HW238130   1.013   0.269  16.435
 8751SOL     OW38131   4.467   4.487  19.924
 8751SOL    HW138132   4.506   4.558  19.974
 8751SOL    HW238133   4.443   4.422  19.990
 8752SOL     OW38134   3.744   1.321  13.810
 8752SOL    HW138135   3.819   1.329  13.869
 8752SOL    HW238136   3.718   1.229  13.816
 8753SOL     OW38137   2.117   0.234  13.795
 8753SOL    HW138138   2.199   0.238  13.844
 8753SOL    HW238139   2.094   0.325  13.779
 8754SOL     OW38140   1.541   0.639   7.231
 8754SOL    HW138141   1.531   0.714   7.173
 8754SOL    HW238142   1.467   0.582   7.210
 8755SOL     OW38143   2.871   4.117   2.021
 8755SOL    HW138144   2.965   4.131   2.033
 8755SOL    HW238145   2.830   4.169   2.091
 8756SOL     OW38146   2.392   2.904   2.337
 8756SOL    HW138147   2.435   2.881   2.419
 8756SOL    HW238148   2.442   2.980   2.304
 8757SOL     OW38149   0.980   2.797   1.253
 8757SOL    HW138150   0.986   2.725   1.317
 8757SOL    HW238151   0.886   2.811   1.241
 8758SOL     OW38152   2.374   2.154   8.218
 8758SOL    HW138153   2.375   2.214   8.292
 8758SOL    HW238154   2.426   2.079   8.248
 8759SOL     OW38155   4.026   0.065  15.043
 8759SOL    HW138156   4.018   0.127  15.115
 8759SOL    HW238157   3.944   0.077  14.993
 8760SOL     OW38158   4.017   3.222   9.446
 8760SOL    HW138159   4.062   3.305   9.464
 8760SOL    HW238160   4.078   3.174   9.390
 8761SOL     OW38161   4.027   0.777   1.308
 8761SOL    HW138162   4.095   0.834   1.343
 8761SOL    HW238163   3.945   0.822   1.329
 8762SOL     OW38164   1.934   3.391  18.182
 8762SOL    HW138165   2.021   3.428  18.189
 8762SOL    HW238166   1.915   3.393  18.088
 8763SOL     OW38167   2.989   2.666  12.676
 8763SOL    HW138168   2.945   2.613  12.610
 8763SOL    HW238169   2.936   2.655  12.755
 8764SOL     OW38170   1.113   1.903   1.929
 8764SOL    HW138171   1.074   1.838   1.988
 8764SOL    HW238172   1.155   1.966   1.987
 8765SOL     OW38173   4.480   0.113  20.176
 8765SOL    HW138174   4.415   0.043  20.169
 8765SOL    HW238175   4.470   0.146  20.265
 8766SOL     OW38176   1.971   4.586   4.204
 8766SOL    HW138177   1.938   4.496   4.203
 8766SOL    HW238178   1.914   4.632   4.266
 8767SOL     OW38179   4.089   1.155  19.417
 8767SOL    HW138180   4.163   1.200  19.376
 8767SOL    HW238181   4.111   1.154  19.510
 8768SOL     OW38182   1.247   0.123  13.463
 8768SOL    HW138183   1.272   0.052  13.522
 8768SOL    HW238184   1.221   0.194  13.522
 8769SOL     OW38185   3.759   3.485   3.037
 8769SOL    HW138186   3.813   3.420   2.993
 8769SOL    HW238187   3.818   3.559   3.051
 8770SOL     OW38188   1.600   3.147   5.176
 8770SOL    HW138189   1.626   3.104   5.257
 8770SOL    HW238190   1.507   3.166   5.187
 8771SOL     OW38191   3.651   2.164   2.745
 8771SOL    HW138192   3.607   2.080   2.754
 8771SOL    HW238193   3.739   2.143   2.715
 8772SOL     OW38194   2.635   1.621   0.147
 8772SOL    HW138195   2.679   1.536   0.151
 8772SOL    HW238196   2.665   1.667   0.225
 8773SOL     OW38197   1.278   4.327   0.455
 8773SOL    HW138198   1.347   4.380   0.494
 8773SOL    HW238199   1.259   4.259   0.520
 8774SOL     OW38200   4.007   1.704   3.994
 8774SOL    HW138201   3.999   1.666   4.082
 8774SOL    HW238202   3.930   1.671   3.947
 8775SOL     OW38203   3.387   2.965  17.347
 8775SOL    HW138204   3.436   2.884  17.331
 8775SOL    HW238205   3.354   2.956  17.437
 8776SOL     OW38206   1.555   4.111  18.090
 8776SOL    HW138207   1.521   4.070  18.169
 8776SOL    HW238208   1.494   4.086  18.021
 8777SOL     OW38209   2.821   1.762   5.558
 8777SOL    HW138210   2.762   1.801   5.493
 8777SOL    HW238211   2.846   1.678   5.520
 8778SOL     OW38212   0.411   0.277  18.768
 8778SOL    HW138213   0.492   0.288  18.719
 8778SOL    HW238214   0.377   0.366  18.778
 8779SOL     OW38215   3.156   1.515  17.911
 8779SOL    HW138216   3.074   1.564  17.899
 8779SOL    HW238217   3.158   1.495  18.005
 8780SOL     OW38218   4.158   3.879   6.904
 8780SOL    HW138219   4.093   3.850   6.839
 8780SOL    HW238220   4.139   3.826   6.982
 8781SOL     OW38221   4.114   1.398   0.510
 8781SOL    HW138222   4.036   1.432   0.466
 8781SOL    HW238223   4.127   1.458   0.583
 8782SOL     OW38224   4.249   4.280  19.645
 8782SOL    HW138225   4.176   4.259  19.704
 8782SOL    HW238226   4.226   4.238  19.563
 8783SOL     OW38227   3.034   0.461  17.589
 8783SOL    HW138228   3.054   0.460  17.496
 8783SOL    HW238229   2.943   0.430  17.594
 8784SOL     OW38230   1.311   0.610   3.778
 8784SOL    HW138231   1.291   0.526   3.738
 8784SOL    HW238232   1.248   0.618   3.850
 8785SOL     OW38233   2.097   2.747   6.578
 8785SOL    HW138234   2.153   2.823   6.597
 8785SOL    HW238235   2.153   2.671   6.593
 8786SOL     OW38236   3.306   0.928  17.562
 8786SOL    HW138237   3.289   0.901  17.652
 8786SOL    HW238238   3.366   0.863  17.528
 8787SOL     OW38239   4.693   0.011  14.501
 8787SOL    HW138240   4.663   0.072  14.434
 8787SOL    HW238241   4.621   0.007  14.564
 8788SOL     OW38242   2.388   3.940   6.197
 8788SOL    HW138243   2.424   3.877   6.260
 8788SOL    HW238244   2.409   3.903   6.111
 8789SOL     OW38245   0.516   4.443  19.475
 8789SOL    HW138246   0.455   4.376  19.505
 8789SOL    HW238247   0.539   4.493  19.554
 8790SOL     OW38248   1.880   0.157  17.431
 8790SOL    HW138249   1.937   0.182  17.359
 8790SOL    HW238250   1.915   0.074  17.463
 8791SOL     OW38251   2.025   1.867   0.643
 8791SOL    HW138252   2.046   1.958   0.619
 8791SOL    HW238253   2.092   1.815   0.599
 8792SOL     OW38254   3.047   3.215   5.671
 8792SOL    HW138255   2.956   3.203   5.698
 8792SOL    HW238256   3.094   3.145   5.717
 8793SOL     OW38257   3.922   0.205   2.087
 8793SOL    HW138258   3.946   0.114   2.105
 8793SOL    HW238259   3.844   0.220   2.141
 8794SOL     OW38260   0.153   4.513   7.593
 8794SOL    HW138261   0.132   4.511   7.500
 8794SOL    HW238262   0.220   4.581   7.601
 8795SOL     OW38263   4.765   4.709  19.097
 8795SOL    HW138264   0.047   4.703  19.157
 8795SOL    HW238265   4.740   4.619  19.081
 8796SOL     OW38266   3.095   3.485  17.320
 8796SOL    HW138267   3.004   3.463  17.343
 8796SOL    HW238268   3.109   3.571  17.360
 8797SOL     OW38269   4.526   1.579  19.919
 8797SOL    HW138270   4.459   1.542  19.976
 8797SOL    HW238271   4.606   1.577  19.972
 8798SOL     OW38272   3.403   1.707   6.263
 8798SOL    HW138273   3.317   1.685   6.225
 8798SOL    HW238274   3.382   1.762   6.338
 8799SOL     OW38275   3.505   1.519   3.962
 8799SOL    HW138276   3.411   1.524   3.981
 8799SOL    HW238277   3.509   1.505   3.867
 8800SOL     OW38278   3.071   2.523   0.047
 8800SOL    HW138279   3.132   2.449   0.056
 8800SOL    HW238280   3.102   2.587   0.110
 8801SOL     OW38281   0.195   3.270  16.132
 8801SOL    HW138282   0.155   3.270  16.046
 8801SOL    HW238283   0.227   3.359  16.145
 8802SOL     OW38284   3.612   1.841   2.059
 8802SOL    HW138285   3.682   1.789   2.020
 8802SOL    HW238286   3.592   1.796   2.141
 8803SOL     OW38287   2.397   1.362  16.031
 8803SOL    HW138288   2.364   1.448  16.055
 8803SOL    HW238289   2.402   1.364  15.936
 8804SOL     OW38290   4.453   2.131  20.173
 8804SOL    HW138291   4.492   2.110  20.088
 8804SOL    HW238292   4.436   2.046  20.214
 8805SOL     OW38293   1.763   1.255  17.631
 8805SOL    HW138294   1.712   1.175  17.618
 8805SOL    HW238295   1.842   1.226  17.677
 8806SOL     OW38296   3.119   4.293  20.966
 8806SOL    HW138297   3.147   4.335  21.048
 8806SOL    HW238298   3.133   4.199  20.981
 8807SOL     OW38299   1.096   3.358   9.126
 8807SOL    HW138300   1.036   3.432   9.115
 8807SOL    HW238301   1.041   3.288   9.160
 8808SOL     OW38302   0.869   3.593   0.092
 8808SOL    HW138303   0.944   3.630   0.045
 8808SOL    HW238304   0.858   3.651   0.168
 8809SOL     OW38305   4.647   0.677  19.147
 8809SOL    HW138306   4.723   0.692  19.203
 8809SOL    HW238307   4.679   0.697  19.058
 8810SOL     OW38308   4.559   4.476  14.719
 8810SOL    HW138309   4.467   4.502  14.711
 8810SOL    HW238310   4.578   4.482  14.812
 8811SOL     OW38311   3.686   3.693  18.462
 8811SOL    HW138312   3.644   3.620  18.508
 8811SOL    HW238313   3.684   3.667  18.370
 8812SOL     OW38314   0.550   1.124  14.306
 8812SOL    HW138315   0.462   1.087  14.300
 8812SOL    HW238316   0.560   1.147  14.398
 8813SOL     OW38317   3.707   0.009   5.572
 8813SOL    HW138318   3.639   4.785   5.507
 8813SOL    HW238319   3.702   4.726   5.631
 8814SOL     OW38320   0.714   2.941  18.595
 8814SOL    HW138321   0.801   2.953  18.555
 8814SOL    HW238322   0.653   2.980  18.532
 8815SOL     OW38323   2.707   3.874  20.713
 8815SOL    HW138324   2.761   3.905  20.640
 8815SOL    HW238325   2.710   3.779  20.707
 8816SOL     OW38326   1.704   2.017  17.455
 8816SOL    HW138327   1.753   2.068  17.520
 8816SOL    HW238328   1.769   1.992  17.390
 8817SOL     OW38329   3.464   3.623  17.399
 8817SOL    HW138330   3.439   3.555  17.336
 8817SOL    HW238331   3.434   3.704  17.359
 8818SOL     OW38332   3.260   4.528   1.349
 8818SOL    HW138333   3.203   4.566   1.283
 8818SOL    HW238334   3.304   4.603   1.389
 8819SOL     OW38335   2.082   0.562   0.330
 8819SOL    HW138336   2.067   0.551   0.236
 8819SOL    HW238337   2.004   0.608   0.362
 8820SOL     OW38338   4.231   2.782  20.343
 8820SOL    HW138339   4.268   2.694  20.347
 8820SOL    HW238340   4.145   2.770  20.303
 8821SOL     OW38341   3.138   3.528   0.489
 8821SOL    HW138342   3.169   3.602   0.541
 8821SOL    HW238343   3.179   3.540   0.403
 8822SOL     OW38344   1.763   0.929  20.708
 8822SOL    HW138345   1.802   0.845  20.734
 8822SOL    HW238346   1.750   0.975  20.791
 8823SOL     OW38347   2.198   0.304   4.478
 8823SOL    HW138348   2.286   0.339   4.463
 8823SOL    HW238349   2.185   0.241   4.407
 8824SOL     OW38350   0.592   3.227  19.824
 8824SOL    HW138351   0.575   3.321  19.817
 8824SOL    HW238352   0.656   3.209  19.755
 8825SOL     OW38353   0.793   0.603  18.330
 8825SOL    HW138354   0.814   0.569  18.243
 8825SOL    HW238355   0.857   0.561  18.388
 8826SOL     OW38356   4.110   1.036  18.025
 8826SOL    HW138357   4.037   1.036  18.088
 8826SOL    HW238358   4.097   0.956  17.974
 8827SOL     OW38359   2.688   2.456   2.819
 8827SOL    HW138360   2.768   2.506   2.835
 8827SOL    HW238361   2.651   2.441   2.906
 8828SOL     OW38362   1.272   1.776   3.438
 8828SOL    HW138363   1.297   1.762   3.346
 8828SOL    HW238364   1.342   1.735   3.488
 8829SOL     OW38365   4.210   1.527  15.637
 8829SOL    HW138366   4.245   1.467  15.571
 8829SOL    HW238367   4.176   1.469  15.705
 8830SOL     OW38368   1.597   3.921   1.677
 8830SOL    HW138369   1.595   3.841   1.625
 8830SOL    HW238370   1.688   3.930   1.704
 8831SOL     OW38371   3.061   1.213  20.052
 8831SOL    HW138372   3.110   1.272  19.995
 8831SOL    HW238373   3.001   1.270  20.100
 8832SOL     OW38374   0.939   2.288   1.773
 8832SOL    HW138375   0.939   2.193   1.762
 8832SOL    HW238376   1.029   2.314   1.754
 8833SOL     OW38377   3.035   1.949   6.304
 8833SOL    HW138378   2.944   1.929   6.282
 8833SOL    HW238379   3.069   1.868   6.341
 8834SOL     OW38380   1.419   0.370   2.849
 8834SOL    HW138381   1.353   0.303   2.868
 8834SOL    HW238382   1.385   0.416   2.773
 8835SOL     OW38383   2.702   4.601   5.715
 8835SOL    HW138384   2.732   4.681   5.672
 8835SOL    HW238385   2.725   4.531   5.654
 8836SOL     OW38386   3.458   4.050   6.425
 8836SOL    HW138387   3.385   4.111   6.415
 8836SOL    HW238388   3.459   4.000   6.344
 8837SOL     OW38389   4.566   0.521   1.393
 8837SOL    HW138390   4.496   0.530   1.328
 8837SOL    HW238391   4.616   0.602   1.385
 8838SOL     OW38392   4.198   4.411   1.341
 8838SOL    HW138393   4.148   4.482   1.381
 8838SOL    HW238394   4.145   4.384   1.265
 8839SOL     OW38395   0.737   0.508   7.226
 8839SOL    HW138396   0.832   0.517   7.237
 8839SOL    HW238397   0.707   0.596   7.204
 8840SOL     OW38398   1.382   3.038  13.719
 8840SOL    HW138399   1.328   3.026  13.798
 8840SOL    HW238400   1.467   3.067  13.753
 8841SOL     OW38401   1.967   3.112   1.734
 8841SOL    HW138402   2.012   3.064   1.802
 8841SOL    HW238403   2.030   3.178   1.704
 8842SOL     OW38404   1.149   3.765   1.573
 8842SOL    HW138405   1.174   3.856   1.556
 8842SOL    HW238406   1.114   3.765   1.662
 8843SOL     OW38407   1.025   1.531   1.226
 8843SOL    HW138408   1.066   1.464   1.172
 8843SOL    HW238409   1.040   1.612   1.179
 8844SOL     OW38410   1.035   2.622  15.966
 8844SOL    HW138411   1.002   2.700  16.010
 8844SOL    HW238412   0.965   2.558  15.976
 8845SOL     OW38413   3.241   2.054  21.218
 8845SOL    HW138414   3.185   1.978  21.200
 8845SOL    HW238415   3.185   2.130  21.198
 8846SOL     OW38416   2.384   3.420  19.518
 8846SOL    HW138417   2.305   3.438  19.569
 8846SOL    HW238418   2.356   3.426  19.427
 8847SOL     OW38419   4.196   3.699  19.925
 8847SOL    HW138420   4.117   3.694  19.978
 8847SOL    HW238421   4.266   3.717  19.987
 8848SOL     OW38422   1.904   0.611  16.786
 8848SOL    HW138423   1.945   0.686  16.744
 8848SOL    HW238424   1.919   0.538  16.725
 8849SOL     OW38425   0.553   4.118  17.430
 8849SOL    HW138426   0.617   4.180  17.465
 8849SOL    HW238427   0.529   4.063  17.506
 8850SOL     OW38428   4.354   3.448  14.091
 8850SOL    HW138429   4.313   3.479  14.172
 8850SOL    HW238430   4.439   3.493  14.088
 8851SOL     OW38431   0.672   0.199  16.559
 8851SOL    HW138432   0.673   0.116  16.511
 8851SOL    HW238433   0.704   0.177  16.646
 8852SOL     OW38434   1.138   3.436  17.174
 8852SOL    HW138435   1.221   3.414  17.133
 8852SOL    HW238436   1.132   3.531  17.167
 8853SOL     OW38437   0.630   4.786  13.053
 8853SOL    HW138438   0.693   4.722  13.084
 8853SOL    HW238439   0.644   4.789  12.958
 8854SOL     OW38440   0.913   3.462  18.179
 8854SOL    HW138441   0.925   3.367  18.187
 8854SOL    HW238442   0.821   3.477  18.200
 8855SOL     OW38443   0.156   3.062   5.073
 8855SOL    HW138444   0.108   2.985   5.104
 8855SOL    HW238445   0.089   3.130   5.064
 8856SOL     OW38446   4.463   3.409  20.135
 8856SOL    HW138447   4.462   3.504  20.145
 8856SOL    HW238448   4.413   3.376  20.210
 8857SOL     OW38449   1.870   2.185  17.611
 8857SOL    HW138450   1.948   2.232  17.582
 8857SOL    HW238451   1.863   2.206  17.704
 8858SOL     OW38452   4.268   2.591   2.456
 8858SOL    HW138453   4.304   2.508   2.424
 8858SOL    HW238454   4.177   2.590   2.427
 8859SOL     OW38455   0.243   3.386   0.751
 8859SOL    HW138456   0.321   3.413   0.703
 8859SOL    HW238457   0.263   3.297   0.781
 8860SOL     OW38458   2.613   4.100   2.207
 8860SOL    HW138459   2.623   4.080   2.300
 8860SOL    HW238460   2.649   4.024   2.162
 8861SOL     OW38461   3.598   2.087  16.651
 8861SOL    HW138462   3.627   1.996  16.658
 8861SOL    HW238463   3.599   2.106  16.558
 8862SOL     OW38464   2.394   0.428  15.559
 8862SOL    HW138465   2.333   0.468  15.497
 8862SOL    HW238466   2.475   0.418  15.509
 8863SOL     OW38467   3.082   4.635  13.222
 8863SOL    HW138468   3.156   4.695  13.232
 8863SOL    HW238469   3.006   4.692  13.211
 8864SOL     OW38470   2.357   4.202   6.216
 8864SOL    HW138471   2.346   4.236   6.128
 8864SOL    HW238472   2.348   4.107   6.207
 8865SOL     OW38473   3.714   1.949  15.592
 8865SOL    HW138474   3.777   1.968  15.522
 8865SOL    HW238475   3.759   1.976  15.672
 8866SOL     OW38476   1.738   0.222  15.833
 8866SOL    HW138477   1.750   0.201  15.925
 8866SOL    HW238478   1.651   0.188  15.812
 8867SOL     OW38479   1.136   0.427  17.420
 8867SOL    HW138480   1.152   0.502  17.476
 8867SOL    HW238481   1.216   0.375  17.425
 8868SOL     OW38482   2.707   2.298   4.144
 8868SOL    HW138483   2.654   2.354   4.088
 8868SOL    HW238484   2.739   2.355   4.213
 8869SOL     OW38485   1.456   2.499  20.817
 8869SOL    HW138486   1.366   2.476  20.842
 8869SOL    HW238487   1.481   2.430  20.754
 8870SOL     OW38488   1.323   3.033   0.564
 8870SOL    HW138489   1.304   3.046   0.471
 8870SOL    HW238490   1.274   2.954   0.588
 8871SOL     OW38491   0.760   4.513  17.248
 8871SOL    HW138492   0.743   4.575  17.177
 8871SOL    HW238493   0.717   4.550  17.324
 8872SOL     OW38494   1.835   4.172  15.771
 8872SOL    HW138495   1.741   4.169  15.754
 8872SOL    HW238496   1.862   4.258  15.737
 8873SOL     OW38497   4.045   1.057   2.562
 8873SOL    HW138498   4.116   0.999   2.592
 8873SOL    HW238499   4.073   1.086   2.476
 8874SOL     OW38500   0.651   4.737  18.438
 8874SOL    HW138501   0.613   0.032  18.437
 8874SOL    HW238502   0.690   4.729  18.525
 8875SOL     OW38503   1.372   1.690   6.336
 8875SOL    HW138504   1.450   1.745   6.328
 8875SOL    HW238505   1.392   1.631   6.409
 8876SOL     OW38506   0.899   2.050   2.521
 8876SOL    HW138507   0.895   2.113   2.449
 8876SOL    HW238508   0.933   2.100   2.595
 8877SOL     OW38509   3.922   3.543  16.947
 8877SOL    HW138510   3.996   3.484  16.961
 8877SOL    HW238511   3.918   3.597  17.026
 8878SOL     OW38512   4.604   2.585   3.383
 8878SOL    HW138513   4.583   2.516   3.321
 8878SOL    HW238514   4.589   2.667   3.335
 8879SOL     OW38515   1.376   3.471  20.585
 8879SOL    HW138516   1.427   3.549  20.607
 8879SOL    HW238517   1.292   3.505  20.556
 8880SOL     OW38518   4.577   3.226   1.927
 8880SOL    HW138519   4.519   3.275   1.868
 8880SOL    HW238520   4.636   3.178   1.868
 8881SOL     OW38521   3.909   3.414   0.058
 8881SOL    HW138522   3.926   3.343   0.120
 8881SOL    HW238523   3.816   3.407   0.038
 8882SOL     OW38524   0.673   3.381  17.753
 8882SOL    HW138525   0.611   3.413  17.819
 8882SOL    HW238526   0.697   3.293  17.783
 8883SOL     OW38527   0.522   4.071   3.944
 8883SOL    HW138528   0.429   4.051   3.956
 8883SOL    HW238529   0.533   4.080   3.850
 8884SOL     OW38530   4.131   0.655   3.877
 8884SOL    HW138531   4.051   0.604   3.886
 8884SOL    HW238532   4.118   0.708   3.798
 8885SOL     OW38533   3.810   0.291   4.144
 8885SOL    HW138534   3.720   0.308   4.172
 8885SOL    HW238535   3.806   0.290   4.049
 8886SOL     OW38536   2.837   3.047  16.791
 8886SOL    HW138537   2.851   2.984  16.862
 8886SOL    HW238538   2.893   3.121  16.814
 8887SOL     OW38539   1.451   3.274  21.262
 8887SOL    HW138540   1.433   3.209   0.058
 8887SOL    HW238541   1.434   3.358   0.031
 8888SOL     OW38542   2.514   2.456   1.213
 8888SOL    HW138543   2.549   2.544   1.207
 8888SOL    HW238544   2.531   2.429   1.304
 8889SOL     OW38545   2.183   3.826   6.610
 8889SOL    HW138546   2.176   3.816   6.705
 8889SOL    HW238547   2.268   3.868   6.596
 8890SOL     OW38548   4.549   1.891  18.621
 8890SOL    HW138549   4.500   1.973  18.615
 8890SOL    HW238550   4.577   1.873  18.532
 8891SOL     OW38551   2.813   1.887   6.859
 8891SOL    HW138552   2.747   1.895   6.928
 8891SOL    HW238553   2.763   1.881   6.778
 8892SOL     OW38554   3.394   1.843  16.200
 8892SOL    HW138555   3.436   1.779  16.257
 8892SOL    HW238556   3.330   1.887  16.255
 8893SOL     OW38557   4.688   4.244   1.228
 8893SOL    HW138558   4.632   4.260   1.151
 8893SOL    HW238559   4.677   4.322   1.282
 8894SOL     OW38560   1.525   1.240  21.117
 8894SOL    HW138561   1.511   1.182  21.191
 8894SOL    HW238562   1.442   1.241  21.070
 8895SOL     OW38563   1.080   2.216  15.805
 8895SOL    HW138564   1.145   2.286  15.809
 8895SOL    HW238565   1.022   2.242  15.733
 8896SOL     OW38566   0.795   0.616   5.552
 8896SOL    HW138567   0.759   0.543   5.501
 8896SOL    HW238568   0.879   0.584   5.583
 8897SOL     OW38569   3.961   4.004  19.912
 8897SOL    HW138570   4.011   3.995  19.831
 8897SOL    HW238571   3.870   4.012  19.883
 8898SOL     OW38572   2.450   2.552  18.695
 8898SOL    HW138573   2.357   2.532  18.711
 8898SOL    HW238574   2.497   2.489  18.749
 8899SOL     OW38575   2.799   1.653  17.150
 8899SOL    HW138576   2.782   1.562  17.127
 8899SOL    HW238577   2.762   1.704  17.077
 8900SOL     OW38578   0.187   2.346   7.080
 8900SOL    HW138579   0.229   2.298   7.152
 8900SOL    HW238580   0.168   2.279   7.014
 8901SOL     OW38581   4.237   0.315  15.157
 8901SOL    HW138582   4.219   0.408  15.146
 8901SOL    HW238583   4.169   0.285  15.218
 8902SOL     OW38584   3.887   1.274   4.778
 8902SOL    HW138585   3.965   1.220   4.766
 8902SOL    HW238586   3.921   1.360   4.802
 8903SOL     OW38587   3.727   2.200  21.249
 8903SOL    HW138588   3.706   2.112  21.218
 8903SOL    HW238589   3.643   2.236   0.005
 8904SOL     OW38590   1.132   3.603   2.732
 8904SOL    HW138591   1.128   3.697   2.715
 8904SOL    HW238592   1.159   3.598   2.824
 8905SOL     OW38593   0.707   0.176  20.152
 8905SOL    HW138594   0.676   0.258  20.112
 8905SOL    HW238595   0.648   0.162  20.226
 8906SOL     OW38596   1.299   3.533   6.889
 8906SOL    HW138597   1.220   3.557   6.938
 8906SOL    HW238598   1.367   3.590   6.924
 8907SOL     OW38599   3.741   3.384  12.739
 8907SOL    HW138600   3.802   3.311  12.748
 8907SOL    HW238601   3.706   3.397  12.828
 8908SOL     OW38602   4.385   4.746   2.618
 8908SOL    HW138603   4.335   4.686   2.674
 8908SOL    HW238604   4.469   4.757   2.662
 8909SOL     OW38605   4.526   4.172   6.663
 8909SOL    HW138606   4.462   4.151   6.731
 8909SOL    HW238607   4.530   4.094   6.608
 8910SOL     OW38608   4.678   1.313   3.054
 8910SOL    HW138609   4.619   1.312   3.129
 8910SOL    HW238610   4.654   1.236   3.002
 8911SOL     OW38611   3.202   0.493  20.260
 8911SOL    HW138612   3.234   0.491  20.170
 8911SOL    HW238613   3.250   0.423  20.304
 8912SOL     OW38614   1.386   4.327  17.767
 8912SOL    HW138615   1.482   4.326  17.768
 8912SOL    HW238616   1.363   4.396  17.829
 8913SOL     OW38617   4.236   2.988   1.464
 8913SOL    HW138618   4.322   3.018   1.493
 8913SOL    HW238619   4.214   2.916   1.523
 8914SOL     OW38620   0.390   1.722  19.665
 8914SOL    HW138621   0.438   1.641  19.647
 8914SOL    HW238622   0.391   1.768  19.581
 8915SOL     OW38623   4.077   4.723  20.164
 8915SOL    HW138624   4.095   0.022  20.186
 8915SOL    HW238625   4.003   4.727  20.104
 8916SOL     OW38626   1.106   1.106   5.434
 8916SOL    HW138627   1.022   1.113   5.479
 8916SOL    HW238628   1.171   1.107   5.504
 8917SOL     OW38629   2.661   4.122   0.001
 8917SOL    HW138630   2.662   4.030  21.246
 8917SOL    HW238631   2.703   4.169  21.201
 8918SOL     OW38632   2.044   4.169   7.127
 8918SOL    HW138633   2.000   4.113   7.063
 8918SOL    HW238634   1.972   4.209   7.177
 8919SOL     OW38635   4.245   2.292  18.244
 8919SOL    HW138636   4.191   2.274  18.321
 8919SOL    HW238637   4.288   2.209  18.225
 8920SOL     OW38638   4.477   1.595   3.898
 8920SOL    HW138639   4.404   1.583   3.837
 8920SOL    HW238640   4.533   1.660   3.856
 8921SOL     OW38641   1.380   3.065  15.511
 8921SOL    HW138642   1.476   3.068  15.511
 8921SOL    HW238643   1.358   2.996  15.573
 8922SOL     OW38644   1.604   4.265   6.001
 8922SOL    HW138645   1.657   4.264   6.081
 8922SOL    HW238646   1.543   4.192   6.013
 8923SOL     OW38647   0.100   1.261   5.755
 8923SOL    HW138648   0.159   1.195   5.719
 8923SOL    HW238649   0.125   1.343   5.711
 8924SOL     OW38650   3.631   4.727  17.882
 8924SOL    HW138651   3.631   4.631  17.889
 8924SOL    HW238652   3.723   4.752  17.892
 8925SOL     OW38653   2.318   3.771  16.061
 8925SOL    HW138654   2.381   3.797  15.994
 8925SOL    HW238655   2.333   3.677  16.073
 8926SOL     OW38656   3.468   2.584   6.796
 8926SOL    HW138657   3.504   2.567   6.882
 8926SOL    HW238658   3.480   2.679   6.783
 8927SOL     OW38659   4.004   0.569   3.149
 8927SOL    HW138660   4.075   0.627   3.178
 8927SOL    HW238661   3.991   0.591   3.057
 8928SOL     OW38662   0.177   0.373   1.605
 8928SOL    HW138663   0.099   0.351   1.555
 8928SOL    HW238664   0.180   0.469   1.605
 8929SOL     OW38665   3.562   2.380   9.047
 8929SOL    HW138666   3.656   2.397   9.033
 8929SOL    HW238667   3.547   2.410   9.137
 8930SOL     OW38668   0.649   0.376  10.872
 8930SOL    HW138669   0.586   0.354  10.804
 8930SOL    HW238670   0.724   0.319  10.854
 8931SOL     OW38671   1.097   0.049  12.187
 8931SOL    HW138672   1.163   0.081  12.125
 8931SOL    HW238673   1.091   4.748  12.170
 8932SOL     OW38674   4.149   2.111  17.288
 8932SOL    HW138675   4.224   2.092  17.345
 8932SOL    HW238676   4.159   2.203  17.265
 8933SOL     OW38677   0.310   2.368  19.026
 8933SOL    HW138678   0.297   2.276  19.003
 8933SOL    HW238679   0.395   2.370  19.069
 8934SOL     OW38680   3.823   4.778   1.620
 8934SOL    HW138681   3.858   4.786   1.708
 8934SOL    HW238682   3.803   0.075   1.594
 8935SOL     OW38683   2.573   4.247  20.086
 8935SOL    HW138684   2.553   4.154  20.077
 8935SOL    HW238685   2.617   4.254  20.170
 8936SOL     OW38686   0.770   1.691  20.957
 8936SOL    HW138687   0.729   1.760  21.010
 8936SOL    HW238688   0.776   1.729  20.870
 8937SOL     OW38689   0.464   3.185   6.705
 8937SOL    HW138690   0.473   3.170   6.611
 8937SOL    HW238691   0.438   3.277   6.712
 8938SOL     OW38692   3.959   1.187   4.136
 8938SOL    HW138693   3.967   1.096   4.165
 8938SOL    HW238694   4.019   1.195   4.062
 8939SOL     OW38695   1.419   2.114   3.169
 8939SOL    HW138696   1.494   2.063   3.139
 8939SOL    HW238697   1.434   2.125   3.263
 8940SOL     OW38698   1.249   1.320   3.196
 8940SOL    HW138699   1.255   1.304   3.290
 8940SOL    HW238700   1.163   1.287   3.172
 8941SOL     OW38701   2.919   4.396   1.405
 8941SOL    HW138702   2.850   4.460   1.387
 8941SOL    HW238703   2.946   4.416   1.495
 8942SOL     OW38704   0.313   1.876  15.505
 8942SOL    HW138705   0.354   1.945  15.557
 8942SOL    HW238706   0.349   1.795  15.542
 8943SOL     OW38707   3.005   0.876   2.329
 8943SOL    HW138708   2.995   0.782   2.344
 8943SOL    HW238709   3.093   0.896   2.359
 8944SOL     OW38710   1.778   2.020  20.704
 8944SOL    HW138711   1.814   1.932  20.702
 8944SOL    HW238712   1.854   2.078  20.692
 8945SOL     OW38713   3.287   0.479  16.143
 8945SOL    HW138714   3.240   0.400  16.118
 8945SOL    HW238715   3.219   0.542  16.164
 8946SOL     OW38716   1.817   0.646   0.285
 8946SOL    HW138717   1.760   0.632   0.361
 8946SOL    HW238718   1.757   0.662   0.212
 8947SOL     OW38719   2.985   1.099   3.190
 8947SOL    HW138720   3.073   1.136   3.191
 8947SOL    HW238721   2.980   1.044   3.268
 8948SOL     OW38722   3.820   2.294   9.015
 8948SOL    HW138723   3.889   2.314   9.079
 8948SOL    HW238724   3.818   2.199   9.012
 8949SOL     OW38725   2.534   3.438   9.169
 8949SOL    HW138726   2.621   3.443   9.130
 8949SOL    HW238727   2.537   3.500   9.242
 8950SOL     OW38728   1.946   0.088  13.963
 8950SOL    HW138729   2.015   0.056  14.022
 8950SOL    HW238730   1.993   0.127  13.889
 8951SOL     OW38731   1.889   1.614   7.286
 8951SOL    HW138732   1.897   1.707   7.305
 8951SOL    HW238733   1.798   1.592   7.306
 8952SOL     OW38734   4.136   1.810  18.163
 8952SOL    HW138735   4.191   1.807  18.241
 8952SOL    HW238736   4.055   1.853  18.192
 8953SOL     OW38737   2.292   4.097  18.788
 8953SOL    HW138738   2.349   4.041  18.841
 8953SOL    HW238739   2.277   4.047  18.708
 8954SOL     OW38740   3.046   0.027   6.186
 8954SOL    HW138741   3.068   4.759   6.256
 8954SOL    HW238742   3.121   0.023   6.125
 8955SOL     OW38743   0.970   3.835  18.705
 8955SOL    HW138744   0.876   3.839  18.684
 8955SOL    HW238745   1.000   3.753  18.667
 8956SOL     OW38746   0.901   1.771  19.192
 8956SOL    HW138747   0.809   1.784  19.170
 8956SOL    HW238748   0.910   1.804  19.282
 8957SOL     OW38749   4.240   2.606   1.316
 8957SOL    HW138750   4.243   2.537   1.250
 8957SOL    HW238751   4.171   2.665   1.284
 8958SOL     OW38752   0.027   3.071  21.248
 8958SOL    HW138753   4.726   3.083  21.244
 8958SOL    HW238754   0.048   3.016  21.172
 8959SOL     OW38755   0.429   1.111  16.364
 8959SOL    HW138756   0.339   1.080  16.369
 8959SOL    HW238757   0.463   1.099  16.453
 8960SOL     OW38758   3.831   4.722   5.060
 8960SOL    HW138759   3.783   0.003   5.022
 8960SOL    HW238760   3.764   4.654   5.070
 8961SOL     OW38761   0.824   4.357   4.565
 8961SOL    HW138762   0.833   4.374   4.471
 8961SOL    HW238763   0.742   4.308   4.573
 8962SOL     OW38764   0.855   2.538  15.658
 8962SOL    HW138765   0.771   2.572  15.689
 8962SOL    HW238766   0.847   2.443  15.667
 8963SOL     OW38767   2.526   2.220   4.452
 8963SOL    HW138768   2.612   2.255   4.427
 8963SOL    HW238769   2.547   2.146   4.510
 8964SOL     OW38770   2.186   0.054   2.947
 8964SOL    HW138771   2.250   0.101   3.001
 8964SOL    HW238772   2.116   0.117   2.933
 8965SOL     OW38773   3.682   3.711   0.268
 8965SOL    HW138774   3.684   3.621   0.299
 8965SOL    HW238775   3.772   3.731   0.243
 8966SOL     OW38776   2.080   4.284  13.960
 8966SOL    HW138777   2.058   4.374  13.984
 8966SOL    HW238778   2.159   4.292  13.906
 8967SOL     OW38779   4.218   3.718   2.437
 8967SOL    HW138780   4.266   3.640   2.465
 8967SOL    HW238781   4.141   3.684   2.392
 8968SOL     OW38782   3.831   3.985   4.387
 8968SOL    HW138783   3.772   3.920   4.425
 8968SOL    HW238784   3.789   4.010   4.304
 8969SOL     OW38785   3.265   0.729   1.362
 8969SOL    HW138786   3.255   0.691   1.450
 8969SOL    HW238787   3.337   0.791   1.371
 8970SOL     OW38788   1.202   2.874   3.660
 8970SOL    HW138789   1.162   2.794   3.693
 8970SOL    HW238790   1.254   2.845   3.585
 8971SOL     OW38791   0.119   3.645   1.104
 8971SOL    HW138792   0.206   3.616   1.077
 8971SOL    HW238793   0.135   3.718   1.164
 8972SOL     OW38794   1.628   3.275   3.599
 8972SOL    HW138795   1.692   3.227   3.547
 8972SOL    HW238796   1.619   3.223   3.679
 8973SOL     OW38797   4.608   1.062  16.193
 8973SOL    HW138798   4.601   1.156  16.209
 8973SOL    HW238799   4.576   1.050  16.104
 8974SOL     OW38800   0.028   3.617   1.814
 8974SOL    HW138801   4.779   3.607   1.899
 8974SOL    HW238802   0.117   3.645   1.835
 8975SOL     OW38803   2.991   2.117  20.039
 8975SOL    HW138804   3.031   2.121  19.952
 8975SOL    HW238805   3.063   2.138  20.099
 8976SOL     OW38806   0.212   0.698  13.102
 8976SOL    HW138807   0.146   0.670  13.039
 8976SOL    HW238808   0.236   0.787  13.076
 8977SOL     OW38809   0.472   0.824  21.119
 8977SOL    HW138810   0.398   0.858  21.070
 8977SOL    HW238811   0.475   0.731  21.098
 8978SOL     OW38812   2.843   0.422  15.876
 8978SOL    HW138813   2.860   0.345  15.932
 8978SOL    HW238814   2.897   0.491  15.914
 8979SOL     OW38815   2.855   2.739   5.167
 8979SOL    HW138816   2.807   2.792   5.103
 8979SOL    HW238817   2.909   2.802   5.215
 8980SOL     OW38818   2.556   2.522   4.045
 8980SOL    HW138819   2.491   2.531   3.975
 8980SOL    HW238820   2.635   2.563   4.010
 8981SOL     OW38821   1.577   3.309   6.359
 8981SOL    HW138822   1.550   3.367   6.430
 8981SOL    HW238823   1.657   3.267   6.390
 8982SOL     OW38824   4.296   2.142   6.597
 8982SOL    HW138825   4.369   2.087   6.570
 8982SOL    HW238826   4.246   2.156   6.517
 8983SOL     OW38827   2.651   1.855  17.761
 8983SOL    HW138828   2.604   1.837  17.679
 8983SOL    HW238829   2.634   1.778  17.815
 8984SOL     OW38830   3.262   1.834   0.192
 8984SOL    HW138831   3.213   1.754   0.172
 8984SOL    HW238832   3.296   1.864   0.108
 8985SOL     OW38833   2.358   3.015   0.671
 8985SOL    HW138834   2.319   2.943   0.720
 8985SOL    HW238835   2.425   2.975   0.616
 8986SOL     OW38836   2.741   3.619  21.135
 8986SOL    HW138837   2.810   3.610  21.069
 8986SOL    HW238838   2.660   3.596  21.088
 8987SOL     OW38839   4.234   0.303   5.655
 8987SOL    HW138840   4.185   0.285   5.735
 8987SOL    HW238841   4.172   0.289   5.584
 8988SOL     OW38842   4.156   2.078  15.578
 8988SOL    HW138843   4.245   2.096  15.609
 8988SOL    HW238844   4.157   2.103  15.486
 8989SOL     OW38845   4.381   0.236  18.859
 8989SOL    HW138846   4.325   0.312  18.840
 8989SOL    HW238847   4.395   0.194  18.774
 8990SOL     OW38848   1.586   1.929  17.110
 8990SOL    HW138849   1.675   1.947  17.142
 8990SOL    HW238850   1.570   1.837  17.133
 8991SOL     OW38851   1.258   0.514  18.142
 8991SOL    HW138852   1.203   0.452  18.095
 8991SOL    HW238853   1.202   0.589  18.157
 8992SOL     OW38854   2.187   0.662   3.102
 8992SOL    HW138855   2.224   0.589   3.052
 8992SOL    HW238856   2.175   0.731   3.038
 8993SOL     OW38857   1.382   4.148  16.063
 8993SOL    HW138858   1.305   4.106  16.102
 8993SOL    HW238859   1.451   4.136  16.128
 8994SOL     OW38860   1.025   0.974   7.908
 8994SOL    HW138861   0.944   0.940   7.869
 8994SOL    HW238862   0.997   1.039   7.971
 8995SOL     OW38863   1.193   1.314   8.130
 8995SOL    HW138864   1.169   1.348   8.216
 8995SOL    HW238865   1.158   1.379   8.069
 8996SOL     OW38866   0.849   3.293   1.981
 8996SOL    HW138867   0.784   3.362   1.988
 8996SOL    HW238868   0.876   3.276   2.071
 8997SOL     OW38869   0.174   0.258  11.591
 8997SOL    HW138870   0.090   0.212  11.586
 8997SOL    HW238871   0.196   0.259  11.684
 8998SOL     OW38872   3.159   0.497   9.805
 8998SOL    HW138873   3.126   0.508   9.895
 8998SOL    HW238874   3.146   0.583   9.764
 8999SOL     OW38875   2.836   2.279   0.679
 8999SOL    HW138876   2.852   2.185   0.682
 8999SOL    HW238877   2.828   2.299   0.586
 9000SOL     OW38878   3.144   1.095  10.219
 9000SOL    HW138879   3.158   1.118  10.311
 9000SOL    HW238880   3.211   1.144  10.172
 9001SOL     OW38881   1.244   0.246   5.360
 9001SOL    HW138882   1.319   0.211   5.312
 9001SOL    HW238883   1.277   0.325   5.402
 9002SOL     OW38884   4.629   3.817  10.404
 9002SOL    HW138885   4.563   3.747  10.411
 9002SOL    HW238886   4.579   3.898  10.410
 9003SOL     OW38887   2.553   0.868   8.661
 9003SOL    HW138888   2.592   0.914   8.587
 9003SOL    HW238889   2.494   0.804   8.621
 9004SOL     OW38890   2.081   1.449   8.640
 9004SOL    HW138891   2.107   1.373   8.693
 9004SOL    HW238892   2.112   1.524   8.690
 9005SOL     OW38893   2.428   2.212   7.688
 9005SOL    HW138894   2.516   2.176   7.679
 9005SOL    HW238895   2.398   2.181   7.773
 9006SOL     OW38896   4.300   1.227   8.821
 9006SOL    HW138897   4.206   1.212   8.834
 9006SOL    HW238898   4.329   1.153   8.767
 9007SOL     OW38899   1.857   0.959   9.837
 9007SOL    HW138900   1.909   0.989   9.762
 9007SOL    HW238901   1.812   1.038   9.867
 9008SOL     OW38902   4.678   0.603   8.591
 9008SOL    HW138903   4.655   0.634   8.679
 9008SOL    HW238904   4.663   0.509   8.595
 9009SOL     OW38905   0.435   0.611   9.809
 9009SOL    HW138906   0.403   0.521   9.817
 9009SOL    HW238907   0.528   0.605   9.828
 9010SOL     OW38908   3.854   0.580  10.183
 9010SOL    HW138909   3.932   0.544  10.225
 9010SOL    HW238910   3.807   0.624  10.254
 9011SOL     OW38911   3.827   4.768   8.733
 9011SOL    HW138912   3.824   0.004   8.642
 9011SOL    HW238913   3.822   4.672   8.729
 9012SOL     OW38914   1.648   0.955  10.598
 9012SOL    HW138915   1.650   1.019  10.527
 9012SOL    HW238916   1.721   0.978  10.654
 9013SOL     OW38917   4.558   0.704   9.687
 9013SOL    HW138918   4.575   0.612   9.663
 9013SOL    HW238919   4.531   0.700   9.778
 9014SOL     OW38920   4.015   0.245  10.447
 9014SOL    HW138921   4.016   0.244  10.543
 9014SOL    HW238922   3.925   0.226  10.423
 9015SOL     OW38923   0.439   0.894  10.353
 9015SOL    HW138924   0.512   0.953  10.371
 9015SOL    HW238925   0.368   0.951  10.326
 9016SOL     OW38926   0.370   0.355   9.851
 9016SOL    HW138927   0.302   0.302   9.810
 9016SOL    HW238928   0.432   0.291   9.886
 9017SOL     OW38929   2.374   0.482  10.019
 9017SOL    HW138930   2.290   0.439  10.038
 9017SOL    HW238931   2.350   0.566   9.981
 9018SOL     OW38932   1.504   0.977   8.547
 9018SOL    HW138933   1.436   0.958   8.484
 9018SOL    HW238934   1.555   1.048   8.508
 9019SOL     OW38935   0.498   0.307  12.204
 9019SOL    HW138936   0.410   0.270  12.216
 9019SOL    HW238937   0.555   0.231  12.195
 9020SOL     OW38938   0.793   1.430  10.011
 9020SOL    HW138939   0.855   1.391  10.073
 9020SOL    HW238940   0.808   1.524  10.019
 9021SOL     OW38941   0.858   0.097   9.389
 9021SOL    HW138942   0.821   0.081   9.302
 9021SOL    HW238943   0.952   0.102   9.375
 9022SOL     OW38944   4.465   4.029  10.438
 9022SOL    HW138945   4.370   4.027  10.422
 9022SOL    HW238946   4.478   4.107  10.492
 9023SOL     OW38947   0.528   1.309  10.255
 9023SOL    HW138948   0.594   1.353  10.200
 9023SOL    HW238949   0.446   1.353  10.234
 9024SOL     OW38950   2.916   0.926  10.181
 9024SOL    HW138951   2.983   0.983  10.220
 9024SOL    HW238952   2.833   0.969  10.203
 9025SOL     OW38953   4.486   4.590  11.157
 9025SOL    HW138954   4.472   4.497  11.140
 9025SOL    HW238955   4.474   4.599  11.251
 9026SOL     OW38956   1.513   1.356  10.287
 9026SOL    HW138957   1.557   1.441  10.278
 9026SOL    HW238958   1.539   1.308  10.209
 9027SOL     OW38959   1.703   1.625   9.832
 9027SOL    HW138960   1.713   1.671   9.749
 9027SOL    HW238961   1.781   1.649   9.883
 9028SOL     OW38962   1.571   1.513  13.849
 9028SOL    HW138963   1.478   1.492  13.836
 9028SOL    HW238964   1.597   1.560  13.770
 9029SOL     OW38965   3.162   4.364   9.596
 9029SOL    HW138966   3.138   4.282   9.552
 9029SOL    HW238967   3.162   4.430   9.527
 9030SOL     OW38968   0.436   4.573  10.789
 9030SOL    HW138969   0.347   4.601  10.810
 9030SOL    HW238970   0.473   4.544  10.873
 9031SOL     OW38971   4.302   4.680  10.172
 9031SOL    HW138972   4.352   4.615  10.123
 9031SOL    HW238973   4.297   4.756  10.114
 9032SOL     OW38974   4.257   0.190  10.372
 9032SOL    HW138975   4.178   0.225  10.412
 9032SOL    HW238976   4.240   0.193  10.278
 9033SOL     OW38977   2.017   2.331  12.492
 9033SOL    HW138978   1.930   2.315  12.456
 9033SOL    HW238979   2.004   2.323  12.587
 9034SOL     OW38980   4.755   2.272  12.996
 9034SOL    HW138981   4.690   2.309  12.936
 9034SOL    HW238982   4.754   2.332  13.071
 9035SOL     OW38983   1.940   3.234  18.682
 9035SOL    HW138984   1.990   3.272  18.754
 9035SOL    HW238985   1.995   3.247  18.604
 9036SOL     OW38986   1.171   1.763  11.069
 9036SOL    HW138987   1.224   1.814  11.008
 9036SOL    HW238988   1.165   1.676  11.029
 9037SOL     OW38989   0.034   3.899  17.976
 9037SOL    HW138990   4.766   3.967  18.001
 9037SOL    HW238991   4.774   3.819  17.969
 9038SOL     OW38992   0.731   0.668   9.871
 9038SOL    HW138993   0.738   0.585   9.917
 9038SOL    HW238994   0.800   0.666   9.805
 9039SOL     OW38995   4.779   1.217   1.135
 9039SOL    HW138996   4.763   1.197   1.043
 9039SOL    HW238997   0.072   1.179   1.153
 9040SOL     OW38998   4.705   3.918  11.494
 9040SOL    HW138999   4.696   3.968  11.575
 9040SOL    HW239000   4.649   3.964  11.431
 9041SOL     OW39001   1.426   2.900  13.369
 9041SOL    HW139002   1.335   2.911  13.395
 9041SOL    HW239003   1.431   2.812  13.333
 9042SOL     OW39004   0.238   0.458  10.368
 9042SOL    HW139005   0.302   0.522  10.336
 9042SOL    HW239006   0.161   0.472  10.313
 9043SOL     OW39007   2.871   0.533  12.951
 9043SOL    HW139008   2.914   0.457  12.989
 9043SOL    HW239009   2.787   0.539  12.996
 9044SOL     OW39010   0.208   0.358  10.627
 9044SOL    HW139011   0.279   0.394  10.680
 9044SOL    HW239012   0.231   0.381  10.537
 9045SOL     OW39013   3.611   1.771  12.591
 9045SOL    HW139014   3.588   1.862  12.612
 9045SOL    HW239015   3.532   1.736  12.549
 9046SOL     OW39016   3.312   0.639   3.658
 9046SOL    HW139017   3.269   0.674   3.736
 9046SOL    HW239018   3.366   0.712   3.626
 9047SOL     OW39019   4.121   3.089  11.060
 9047SOL    HW139020   4.131   3.144  10.982
 9047SOL    HW239021   4.053   3.026  11.036
 9048SOL     OW39022   1.969   0.961  21.156
 9048SOL    HW139023   2.035   0.996  21.096
 9048SOL    HW239024   1.892   1.017  21.142
 9049SOL     OW39025   1.898   2.010  14.223
 9049SOL    HW139026   1.932   2.055  14.301
 9049SOL    HW239027   1.804   2.024  14.226
 9050SOL     OW39028   3.847   4.608   9.770
 9050SOL    HW139029   3.813   4.638   9.854
 9050SOL    HW239030   3.942   4.623   9.776
 9051SOL     OW39031   3.595   3.901  15.136
 9051SOL    HW139032   3.615   3.965  15.205
 9051SOL    HW239033   3.666   3.912  15.073
 9052SOL     OW39034   4.425   2.396  12.970
 9052SOL    HW139035   4.417   2.441  12.886
 9052SOL    HW239036   4.488   2.449  13.020
 9053SOL     OW39037   0.640   1.665  12.753
 9053SOL    HW139038   0.662   1.638  12.664
 9053SOL    HW239039   0.548   1.690  12.749
 9054SOL     OW39040   0.517   0.480  11.674
 9054SOL    HW139041   0.567   0.405  11.642
 9054SOL    HW239042   0.535   0.482  11.768
 9055SOL     OW39043   0.649   1.099  10.370
 9055SOL    HW139044   0.600   1.181  10.364
 9055SOL    HW239045   0.686   1.087  10.283
 9056SOL     OW39046   0.580   1.396  11.227
 9056SOL    HW139047   0.633   1.407  11.306
 9056SOL    HW239048   0.621   1.454  11.163
 9057SOL     OW39049   1.347   0.232   9.977
 9057SOL    HW139050   1.331   0.290  10.052
 9057SOL    HW239051   1.271   0.244   9.921
 9058SOL     OW39052   0.785   0.442  10.009
 9058SOL    HW139053   0.707   0.415  10.058
 9058SOL    HW239054   0.855   0.388  10.045
 9059SOL     OW39055   2.254   0.600  12.984
 9059SOL    HW139056   2.218   0.653  13.056
 9059SOL    HW239057   2.318   0.543  13.026
 9060SOL     OW39058   0.904   1.260  11.205
 9060SOL    HW139059   0.947   1.191  11.155
 9060SOL    HW239060   0.845   1.214  11.264
 9061SOL     OW39061   0.738   1.188   4.048
 9061SOL    HW139062   0.770   1.100   4.067
 9061SOL    HW239063   0.683   1.210   4.123
 9062SOL     OW39064   3.521   4.317  14.453
 9062SOL    HW139065   3.476   4.336  14.371
 9062SOL    HW239066   3.601   4.370  14.450
 9063SOL     OW39067   0.008   1.870   6.446
 9063SOL    HW139068   4.769   1.877   6.356
 9063SOL    HW239069   0.024   1.776   6.458
 9064SOL     OW39070   3.482   2.577  12.172
 9064SOL    HW139071   3.478   2.670  12.149
 9064SOL    HW239072   3.391   2.552  12.183
 9065SOL     OW39073   0.625   0.517  17.229
 9065SOL    HW139074   0.550   0.545  17.177
 9065SOL    HW239075   0.594   0.440  17.277
 9066SOL     OW39076   1.533   2.262  19.981
 9066SOL    HW139077   1.591   2.334  20.003
 9066SOL    HW239078   1.506   2.278  19.891
 9067SOL     OW39079   0.996   0.555  20.784
 9067SOL    HW139080   1.056   0.491  20.823
 9067SOL    HW239081   1.048   0.635  20.778
 9068SOL     OW39082   1.551   2.493   1.690
 9068SOL    HW139083   1.604   2.435   1.745
 9068SOL    HW239084   1.604   2.506   1.611
 9069SOL     OW39085   0.349   0.692  10.223
 9069SOL    HW139086   0.412   0.741  10.276
 9069SOL    HW239087   0.278   0.754  10.206
 9070SOL     OW39088   4.135   3.453  16.641
 9070SOL    HW139089   4.100   3.413  16.561
 9070SOL    HW239090   4.181   3.381  16.685
 9071SOL     OW39091   3.227   0.741  12.989
 9071SOL    HW139092   3.282   0.805  12.943
 9071SOL    HW239093   3.158   0.720  12.926
 9072SOL     OW39094   0.958   1.335  20.926
 9072SOL    HW139095   0.945   1.290  21.010
 9072SOL    HW239096   1.025   1.401  20.945
 9073SOL     OW39097   2.112   2.318   0.202
 9073SOL    HW139098   2.151   2.376   0.268
 9073SOL    HW239099   2.187   2.291   0.148
 9074SOL     OW39100   1.071   1.455  11.753
 9074SOL    HW139101   1.126   1.404  11.812
 9074SOL    HW239102   1.094   1.426  11.665
 9075SOL     OW39103   3.902   0.397   5.846
 9075SOL    HW139104   3.971   0.333   5.856
 9075SOL    HW239105   3.946   0.482   5.854
 9076SOL     OW39106   0.980   3.930   6.335
 9076SOL    HW139107   1.032   3.861   6.376
 9076SOL    HW239108   0.890   3.911   6.362
 9077SOL     OW39109   4.589   4.633  16.147
 9077SOL    HW139110   4.601   4.638  16.052
 9077SOL    HW239111   4.615   4.544  16.170
 9078SOL     OW39112   1.060   3.257   2.432
 9078SOL    HW139113   0.970   3.288   2.424
 9078SOL    HW239114   1.114   3.335   2.419
 9079SOL     OW39115   4.764   0.646   2.867
 9079SOL    HW139116   0.026   0.624   2.792
 9079SOL    HW239117   4.765   0.567   2.921
 9080SOL     OW39118   4.616   2.233   2.012
 9080SOL    HW139119   4.689   2.213   2.070
 9080SOL    HW239120   4.603   2.153   1.961
 9081SOL     OW39121   1.667   0.978   4.243
 9081SOL    HW139122   1.598   0.925   4.204
 9081SOL    HW239123   1.724   0.916   4.288
 9082SOL     OW39124   4.792   0.812  19.357
 9082SOL    HW139125   0.072   0.770  19.402
 9082SOL    HW239126   4.716   0.795  19.414
 9083SOL     OW39127   1.060   2.294  18.477
 9083SOL    HW139128   1.120   2.368  18.482
 9083SOL    HW239129   1.077   2.255  18.391
 9084SOL     OW39130   2.574   0.239   2.074
 9084SOL    HW139131   2.661   0.273   2.095
 9084SOL    HW239132   2.586   0.144   2.067
 9085SOL     OW39133   3.589   2.930   5.376
 9085SOL    HW139134   3.514   2.989   5.372
 9085SOL    HW239135   3.609   2.911   5.284
 9086SOL     OW39136   1.319   1.619   2.692
 9086SOL    HW139137   1.309   1.712   2.710
 9086SOL    HW239138   1.356   1.582   2.772
 9087SOL     OW39139   1.356   2.661   1.790
 9087SOL    HW139140   1.399   2.729   1.843
 9087SOL    HW239141   1.428   2.606   1.760
 9088SOL     OW39142   3.341   1.969   1.590
 9088SOL    HW139143   3.281   1.998   1.658
 9088SOL    HW239144   3.316   1.878   1.573
 9089SOL     OW39145   2.990   4.667  18.388
 9089SOL    HW139146   2.913   4.676  18.443
 9089SOL    HW239147   3.061   4.704  18.440
 9090SOL     OW39148   2.699   1.220  20.398
 9090SOL    HW139149   2.613   1.178  20.406
 9090SOL    HW239150   2.757   1.165  20.451
 9091SOL     OW39151   0.953   3.821   3.156
 9091SOL    HW139152   0.937   3.736   3.198
 9091SOL    HW239153   0.868   3.849   3.124
 9092SOL     OW39154   4.582   4.648   4.100
 9092SOL    HW139155   4.636   4.575   4.069
 9092SOL    HW239156   4.554   4.621   4.187
 9093SOL     OW39157   4.459   1.554   8.442
 9093SOL    HW139158   4.422   1.543   8.354
 9093SOL    HW239159   4.385   1.579   8.497
 9094SOL     OW39160   0.942   3.861  16.400
 9094SOL    HW139161   0.907   3.897  16.481
 9094SOL    HW239162   0.885   3.896  16.331
 9095SOL     OW39163   3.153   4.478  16.372
 9095SOL    HW139164   3.228   4.477  16.313
 9095SOL    HW239165   3.132   4.385  16.386
 9096SOL     OW39166   1.608   0.578  19.550
 9096SOL    HW139167   1.629   0.567  19.458
 9096SOL    HW239168   1.592   0.489  19.582
 9097SOL     OW39169   1.315   1.171   1.107
 9097SOL    HW139170   1.375   1.176   1.033
 9097SOL    HW239171   1.233   1.207   1.073
 9098SOL     OW39172   0.214   3.081   4.260
 9098SOL    HW139173   0.230   2.987   4.268
 9098SOL    HW239174   0.282   3.122   4.313
 9099SOL     OW39175   0.953   2.387   4.483
 9099SOL    HW139176   1.044   2.388   4.452
 9099SOL    HW239177   0.953   2.445   4.559
 9100SOL     OW39178   1.660   3.491  20.066
 9100SOL    HW139179   1.616   3.571  20.093
 9100SOL    HW239180   1.623   3.423  20.122
 9101SOL     OW39181   2.029   0.748   3.515
 9101SOL    HW139182   2.122   0.734   3.531
 9101SOL    HW239183   2.007   0.691   3.442
 9102SOL     OW39184   1.903   1.640  19.129
 9102SOL    HW139185   1.856   1.589  19.196
 9102SOL    HW239186   1.869   1.729  19.137
 9103SOL     OW39187   3.554   1.243   1.852
 9103SOL    HW139188   3.492   1.312   1.827
 9103SOL    HW239189   3.499   1.167   1.868
 9104SOL     OW39190   0.141   4.368   0.193
 9104SOL    HW139191   0.088   4.347   0.270
 9104SOL    HW239192   0.185   4.450   0.216
 9105SOL     OW39193   2.376   2.426  13.840
 9105SOL    HW139194   2.361   2.344  13.794
 9105SOL    HW239195   2.428   2.401  13.917
 9106SOL     OW39196   2.344   1.932  20.874
 9106SOL    HW139197   2.429   1.967  20.846
 9106SOL    HW239198   2.353   1.837  20.863
 9107SOL     OW39199   2.879   0.241  20.831
 9107SOL    HW139200   2.936   0.237  20.754
 9107SOL    HW239201   2.803   0.291  20.801
 9108SOL     OW39202   1.043   3.290  13.969
 9108SOL    HW139203   1.028   3.327  14.056
 9108SOL    HW239204   1.000   3.352  13.909
 9109SOL     OW39205   0.939   2.030  18.835
 9109SOL    HW139206   0.865   2.028  18.774
 9109SOL    HW239207   1.010   2.069  18.785
 9110SOL     OW39208   3.466   2.798   3.984
 9110SOL    HW139209   3.552   2.760   3.997
 9110SOL    HW239210   3.440   2.770   3.896
 9111SOL     OW39211   1.776   4.083   4.492
 9111SOL    HW139212   1.818   4.117   4.413
 9111SOL    HW239213   1.843   4.092   4.561
 9112SOL     OW39214   1.695   4.433   6.585
 9112SOL    HW139215   1.784   4.434   6.549
 9112SOL    HW239216   1.696   4.502   6.652
 9113SOL     OW39217   4.403   3.213   7.146
 9113SOL    HW139218   4.490   3.240   7.175
 9113SOL    HW239219   4.412   3.201   7.051
 9114SOL     OW39220   1.536   1.849  20.059
 9114SOL    HW139221   1.516   1.925  20.113
 9114SOL    HW239222   1.456   1.797  20.059
 9115SOL     OW39223   0.936   3.275   4.377
 9115SOL    HW139224   0.938   3.262   4.472
 9115SOL    HW239225   1.022   3.311   4.356
 9116SOL     OW39226   0.278   0.235  11.839
 9116SOL    HW139227   0.322   0.313  11.871
 9116SOL    HW239228   0.315   0.163  11.891
 9117SOL     OW39229   1.720   4.324  16.840
 9117SOL    HW139230   1.671   4.242  16.835
 9117SOL    HW239231   1.670   4.378  16.902
 9118SOL     OW39232   1.042   4.049   1.010
 9118SOL    HW139233   1.030   3.955   1.023
 9118SOL    HW239234   1.079   4.081   1.092
 9119SOL     OW39235   1.082   2.675  15.618
 9119SOL    HW139236   0.988   2.671  15.633
 9119SOL    HW239237   1.115   2.588  15.642
 9120SOL     OW39238   0.917   1.513  18.566
 9120SOL    HW139239   0.950   1.582  18.625
 9120SOL    HW239240   0.969   1.436  18.589
 9121SOL     OW39241   4.041   2.572   1.662
 9121SOL    HW139242   4.022   2.502   1.599
 9121SOL    HW239243   3.956   2.616   1.675
 9122SOL     OW39244   3.457   1.544  16.323
 9122SOL    HW139245   3.363   1.555  16.337
 9122SOL    HW239246   3.489   1.502  16.403
 9123SOL     OW39247   1.116   3.577   5.427
 9123SOL    HW139248   1.199   3.557   5.470
 9123SOL    HW239249   1.072   3.492   5.419
 9124SOL     OW39250   1.421   0.084   8.893
 9124SOL    HW139251   1.450   0.146   8.960
 9124SOL    HW239252   1.372   0.017   8.942
 9125SOL     OW39253   1.229   2.264   4.907
 9125SOL    HW139254   1.141   2.228   4.908
 9125SOL    HW239255   1.268   2.233   4.989
 9126SOL     OW39256   0.997   2.063   0.722
 9126SOL    HW139257   1.024   2.149   0.691
 9126SOL    HW239258   0.957   2.080   0.807
 9127SOL     OW39259   0.567   4.029   2.755
 9127SOL    HW139260   0.642   3.980   2.723
 9127SOL    HW239261   0.492   3.970   2.741
 9128SOL     OW39262   0.276   0.967   4.311
 9128SOL    HW139263   0.216   0.989   4.239
 9128SOL    HW239264   0.250   0.879   4.337
 9129SOL     OW39265   2.520   4.360  17.274
 9129SOL    HW139266   2.497   4.315  17.193
 9129SOL    HW239267   2.576   4.432  17.246
 9130SOL     OW39268   0.150   1.593  15.410
 9130SOL    HW139269   0.087   1.665  15.401
 9130SOL    HW239270   0.199   1.594  15.328
 9131SOL     OW39271   3.524   2.519   5.102
 9131SOL    HW139272   3.431   2.504   5.090
 9131SOL    HW239273   3.565   2.486   5.022
 9132SOL     OW39274   2.329   0.123  17.273
 9132SOL    HW139275   2.239   0.111  17.243
 9132SOL    HW239276   2.322   0.186  17.344
 9133SOL     OW39277   3.889   4.129  17.153
 9133SOL    HW139278   3.900   4.132  17.248
 9133SOL    HW239279   3.949   4.060  17.124
 9134SOL     OW39280   0.336   4.687   8.184
 9134SOL    HW139281   0.321   4.763   8.240
 9134SOL    HW239282   0.423   4.703   8.145
 9135SOL     OW39283   2.171   3.256   8.585
 9135SOL    HW139284   2.199   3.348   8.590
 9135SOL    HW239285   2.216   3.213   8.658
 9136SOL     OW39286   3.628   0.131  20.722
 9136SOL    HW139287   3.570   0.188  20.672
 9136SOL    HW239288   3.668   0.074  20.657
 9137SOL     OW39289   3.248   2.475  14.736
 9137SOL    HW139290   3.270   2.526  14.658
 9137SOL    HW239291   3.331   2.438  14.765
 9138SOL     OW39292   2.716   4.594   6.284
 9138SOL    HW139293   2.661   4.665   6.252
 9138SOL    HW239294   2.759   4.560   6.205
 9139SOL     OW39295   2.875   4.369  17.330
 9139SOL    HW139296   2.801   4.423  17.357
 9139SOL    HW239297   2.893   4.395  17.240
 9140SOL     OW39298   3.104   2.755   4.840
 9140SOL    HW139299   3.088   2.792   4.753
 9140SOL    HW239300   3.017   2.739   4.876
 9141SOL     OW39301   3.815   0.279   1.031
 9141SOL    HW139302   3.895   0.277   1.082
 9141SOL    HW239303   3.808   0.191   0.993
 9142SOL     OW39304   0.394   0.899   2.605
 9142SOL    HW139305   0.455   0.949   2.658
 9142SOL    HW239306   0.398   0.810   2.641
 9143SOL     OW39307   1.874   2.933  18.670
 9143SOL    HW139308   1.921   3.011  18.701
 9143SOL    HW239309   1.825   2.964  18.594
 9144SOL     OW39310   0.301   0.899  16.889
 9144SOL    HW139311   0.307   0.988  16.854
 9144SOL    HW239312   0.334   0.844  16.818
 9145SOL     OW39313   1.162   1.416   8.366
 9145SOL    HW139314   1.183   1.507   8.385
 9145SOL    HW239315   1.076   1.402   8.407
 9146SOL     OW39316   1.823   4.396   5.040
 9146SOL    HW139317   1.806   4.471   5.098
 9146SOL    HW239318   1.738   4.375   5.002
 9147SOL     OW39319   2.060   2.749  18.805
 9147SOL    HW139320   1.990   2.787  18.752
 9147SOL    HW239321   2.015   2.712  18.881
 9148SOL     OW39322   4.597   1.164   0.032
 9148SOL    HW139323   4.551   1.147  21.222
 9148SOL    HW239324   4.680   1.118   0.023
 9149SOL     OW39325   1.119   2.462  16.747
 9149SOL    HW139326   1.165   2.442  16.828
 9149SOL    HW239327   1.113   2.557  16.745
 9150SOL     OW39328   4.160   0.447  21.270
 9150SOL    HW139329   4.214   0.371   0.016
 9150SOL    HW239330   4.119   0.469   0.081
 9151SOL     OW39331   3.995   0.910   4.194
 9151SOL    HW139332   4.065   0.867   4.243
 9151SOL    HW239333   3.952   0.839   4.147
 9152SOL     OW39334   3.217   4.301   1.477
 9152SOL    HW139335   3.298   4.267   1.439
 9152SOL    HW239336   3.200   4.382   1.429
 9153SOL     OW39337   2.793   0.141   1.738
 9153SOL    HW139338   2.802   0.133   1.833
 9153SOL    HW239339   2.699   0.133   1.722
 9154SOL     OW39340   3.672   1.898  17.675
 9154SOL    HW139341   3.619   1.829  17.635
 9154SOL    HW239342   3.763   1.873  17.655
 9155SOL     OW39343   4.368   1.242   4.279
 9155SOL    HW139344   4.316   1.196   4.213
 9155SOL    HW239345   4.458   1.213   4.262
 9156SOL     OW39346   0.657   1.418  13.134
 9156SOL    HW139347   0.615   1.380  13.057
 9156SOL    HW239348   0.680   1.507  13.107
 9157SOL     OW39349   1.661   4.326  19.438
 9157SOL    HW139350   1.586   4.355  19.386
 9157SOL    HW239351   1.665   4.387  19.511
 9158SOL     OW39352   1.685   0.316   3.556
 9158SOL    HW139353   1.645   0.344   3.474
 9158SOL    HW239354   1.677   0.392   3.614
 9159SOL     OW39355   3.697   3.960   1.541
 9159SOL    HW139356   3.678   4.054   1.543
 9159SOL    HW239357   3.758   3.949   1.469
 9160SOL     OW39358   4.012   0.938   1.801
 9160SOL    HW139359   3.929   0.916   1.845
 9160SOL    HW239360   4.032   1.026   1.832
 9161SOL     OW39361   3.369   2.228  14.850
 9161SOL    HW139362   3.296   2.166  14.843
 9161SOL    HW239363   3.437   2.180  14.897
 9162SOL     OW39364   3.856   1.683  16.208
 9162SOL    HW139365   3.913   1.758  16.226
 9162SOL    HW239366   3.794   1.715  16.143
 9163SOL     OW39367   0.055   1.738   2.993
 9163SOL    HW139368   0.028   1.764   2.906
 9163SOL    HW239369   0.142   1.698   2.980
 9164SOL     OW39370   0.297   0.797  16.576
 9164SOL    HW139371   0.345   0.719  16.602
 9164SOL    HW239372   0.290   0.790  16.481
 9165SOL     OW39373   4.012   4.322  17.450
 9165SOL    HW139374   3.965   4.398  17.417
 9165SOL    HW239375   3.959   4.247  17.422
 9166SOL     OW39376   0.229   3.560   6.080
 9166SOL    HW139377   0.324   3.560   6.070
 9166SOL    HW239378   0.210   3.638   6.130
 9167SOL     OW39379   0.475   0.796   3.321
 9167SOL    HW139380   0.550   0.740   3.304
 9167SOL    HW239381   0.418   0.783   3.245
 9168SOL     OW39382   2.420   2.436  14.342
 9168SOL    HW139383   2.373   2.453  14.423
 9168SOL    HW239384   2.475   2.512  14.329
 9169SOL     OW39385   3.121   3.751  21.142
 9169SOL    HW139386   3.041   3.701  21.122
 9169SOL    HW239387   3.172   3.693  21.198
 9170SOL     OW39388   1.279   3.108   2.382
 9170SOL    HW139389   1.195   3.150   2.361
 9170SOL    HW239390   1.310   3.154   2.460
 9171SOL     OW39391   1.717   1.256   2.775
 9171SOL    HW139392   1.749   1.342   2.747
 9171SOL    HW239393   1.626   1.271   2.799
 9172SOL     OW39394   4.421   3.154  16.353
 9172SOL    HW139395   4.444   3.081  16.411
 9172SOL    HW239396   4.486   3.150  16.283
 9173SOL     OW39397   2.888   3.778   1.798
 9173SOL    HW139398   2.877   3.826   1.880
 9173SOL    HW239399   2.942   3.835   1.744
 9174SOL     OW39400   2.756   3.517  19.152
 9174SOL    HW139401   2.733   3.604  19.183
 9174SOL    HW239402   2.691   3.497  19.085
 9175SOL     OW39403   0.292   3.451  20.845
 9175SOL    HW139404   0.239   3.389  20.795
 9175SOL    HW239405   0.233   3.481  20.915
 9176SOL     OW39406   4.748   4.646  14.262
 9176SOL    HW139407   4.732   4.733  14.298
 9176SOL    HW239408   0.030   4.658  14.203
 9177SOL     OW39409   2.613   3.774   5.311
 9177SOL    HW139410   2.696   3.780   5.265
 9177SOL    HW239411   2.616   3.691   5.357
 9178SOL     OW39412   1.555   1.827  20.815
 9178SOL    HW139413   1.616   1.896  20.790
 9178SOL    HW239414   1.581   1.803  20.904
 9179SOL     OW39415   3.055   4.245   8.134
 9179SOL    HW139416   3.006   4.314   8.088
 9179SOL    HW239417   3.142   4.282   8.146
 9180SOL     OW39418   1.033   0.112  16.523
 9180SOL    HW139419   1.012   0.023  16.552
 9180SOL    HW239420   1.125   0.123  16.546
 9181SOL     OW39421   0.658   1.138   1.657
 9181SOL    HW139422   0.654   1.197   1.733
 9181SOL    HW239423   0.609   1.060   1.684
 9182SOL     OW39424   1.753   3.884   2.494
 9182SOL    HW139425   1.752   3.926   2.408
 9182SOL    HW239426   1.666   3.902   2.530
 9183SOL     OW39427   1.596   3.537   4.739
 9183SOL    HW139428   1.624   3.447   4.724
 9183SOL    HW239429   1.643   3.589   4.674
 9184SOL     OW39430   4.002   1.503   8.337
 9184SOL    HW139431   3.984   1.446   8.262
 9184SOL    HW239432   3.934   1.481   8.401
 9185SOL     OW39433   2.368   4.740   4.695
 9185SOL    HW139434   2.343   4.658   4.652
 9185SOL    HW239435   2.456   4.758   4.663
 9186SOL     OW39436   0.066   2.179   1.832
 9186SOL    HW139437   0.148   2.149   1.870
 9186SOL    HW239438   0.008   2.192   1.908
 9187SOL     OW39439   3.709   2.305  19.834
 9187SOL    HW139440   3.643   2.268  19.776
 9187SOL    HW239441   3.792   2.271  19.800
 9188SOL     OW39442   1.679   1.553   3.240
 9188SOL    HW139443   1.716   1.557   3.328
 9188SOL    HW239444   1.643   1.464   3.233
 9189SOL     OW39445   3.588   4.351  21.014
 9189SOL    HW139446   3.569   4.445  21.023
 9189SOL    HW239447   3.510   4.307  21.048
 9190SOL     OW39448   0.017   3.590  16.204
 9190SOL    HW139449   0.036   3.588  16.110
 9190SOL    HW239450   0.013   3.683  16.225
 9191SOL     OW39451   4.220   3.116   4.577
 9191SOL    HW139452   4.138   3.083   4.539
 9191SOL    HW239453   4.192   3.175   4.647
 9192SOL     OW39454   3.941   4.584  13.554
 9192SOL    HW139455   3.984   4.522  13.613
 9192SOL    HW239456   3.854   4.548  13.540
 9193SOL     OW39457   0.521   3.756   4.208
 9193SOL    HW139458   0.583   3.764   4.136
 9193SOL    HW239459   0.525   3.841   4.252
 9194SOL     OW39460   3.014   0.615   2.385
 9194SOL    HW139461   2.960   0.540   2.409
 9194SOL    HW239462   3.104   0.587   2.401
 9195SOL     OW39463   2.870   1.988   4.464
 9195SOL    HW139464   2.933   2.060   4.477
 9195SOL    HW239465   2.915   1.911   4.500
 9196SOL     OW39466   1.188   1.105   7.111
 9196SOL    HW139467   1.111   1.161   7.101
 9196SOL    HW239468   1.236   1.143   7.185
 9197SOL     OW39469   0.340   4.236   2.217
 9197SOL    HW139470   0.350   4.330   2.231
 9197SOL    HW239471   0.255   4.228   2.172
 9198SOL     OW39472   2.965   3.413   4.694
 9198SOL    HW139473   2.901   3.483   4.707
 9198SOL    HW239474   2.913   3.333   4.692
 9199SOL     OW39475   2.634   0.190   5.737
 9199SOL    HW139476   2.710   0.136   5.757
 9199SOL    HW239477   2.620   0.178   5.643
 9200SOL     OW39478   1.412   3.595   4.924
 9200SOL    HW139479   1.487   3.584   4.866
 9200SOL    HW239480   1.348   3.642   4.871
 9201SOL     OW39481   0.665   4.772   2.451
 9201SOL    HW139482   0.625   4.695   2.491
 9201SOL    HW239483   0.701   4.739   2.368
 9202SOL     OW39484   3.904   4.524  15.801
 9202SOL    HW139485   3.909   4.559  15.712
 9202SOL    HW239486   3.873   4.434  15.790
 9203SOL     OW39487   1.051   4.531   4.862
 9203SOL    HW139488   1.097   4.594   4.806
 9203SOL    HW239489   0.990   4.584   4.913
 9204SOL     OW39490   3.966   0.153  16.656
 9204SOL    HW139491   3.922   0.237  16.669
 9204SOL    HW239492   4.035   0.152  16.723
 9205SOL     OW39493   4.091   2.411   2.030
 9205SOL    HW139494   4.120   2.494   1.992
 9205SOL    HW239495   4.164   2.383   2.085
 9206SOL     OW39496   3.383   0.359  21.094
 9206SOL    HW139497   3.386   0.387  21.185
 9206SOL    HW239498   3.336   0.276  21.096
 9207SOL     OW39499   4.137   4.681   5.460
 9207SOL    HW139500   4.074   4.621   5.502
 9207SOL    HW239501   4.082   4.744   5.414
 9208SOL     OW39502   4.736   0.780   5.985
 9208SOL    HW139503   4.727   0.686   5.972
 9208SOL    HW239504   4.651   0.816   5.957
 9209SOL     OW39505   2.636   3.562  15.203
 9209SOL    HW139506   2.578   3.593  15.273
 9209SOL    HW239507   2.600   3.601  15.124
 9210SOL     OW39508   0.949   2.605   5.660
 9210SOL    HW139509   0.869   2.587   5.710
 9210SOL    HW239510   0.994   2.520   5.658
 9211SOL     OW39511   0.422   3.411   1.893
 9211SOL    HW139512   0.382   3.325   1.880
 9211SOL    HW239513   0.452   3.437   1.806
 9212SOL     OW39514   0.426   3.984  16.721
 9212SOL    HW139515   0.470   4.017  16.798
 9212SOL    HW239516   0.350   3.936  16.755
 9213SOL     OW39517   0.793   3.534   5.626
 9213SOL    HW139518   0.710   3.512   5.668
 9213SOL    HW239519   0.854   3.545   5.699
 9214SOL     OW39520   0.754   2.406   1.618
 9214SOL    HW139521   0.812   2.349   1.670
 9214SOL    HW239522   0.773   2.381   1.527
 9215SOL     OW39523   2.124   3.373  16.627
 9215SOL    HW139524   2.110   3.278  16.622
 9215SOL    HW239525   2.180   3.393  16.552
 9216SOL     OW39526   2.352   2.200  20.393
 9216SOL    HW139527   2.440   2.221  20.424
 9216SOL    HW239528   2.320   2.133  20.453
 9217SOL     OW39529   3.061   1.661  16.883
 9217SOL    HW139530   2.976   1.682  16.922
 9217SOL    HW239531   3.089   1.743  16.842
 9218SOL     OW39532   4.379   3.582   3.674
 9218SOL    HW139533   4.342   3.521   3.738
 9218SOL    HW239534   4.425   3.647   3.728
 9219SOL     OW39535   2.923   0.809   3.654
 9219SOL    HW139536   2.943   0.876   3.589
 9219SOL    HW239537   2.829   0.814   3.666
 9220SOL     OW39538   3.614   2.372  12.279
 9220SOL    HW139539   3.532   2.411  12.249
 9220SOL    HW239540   3.681   2.437  12.256
 9221SOL     OW39541   1.082   0.225  19.011
 9221SOL    HW139542   1.138   0.214  18.935
 9221SOL    HW239543   1.141   0.219  19.086
 9222SOL     OW39544   3.412   4.087  16.609
 9222SOL    HW139545   3.380   4.099  16.520
 9222SOL    HW239546   3.388   3.997  16.632
 9223SOL     OW39547   2.488   4.718   3.900
 9223SOL    HW139548   2.470   4.664   3.977
 9223SOL    HW239549   2.580   4.702   3.880
 9224SOL     OW39550   2.140   1.827  17.569
 9224SOL    HW139551   2.094   1.868  17.642
 9224SOL    HW239552   2.100   1.741  17.559
 9225SOL     OW39553   3.978   3.650   2.667
 9225SOL    HW139554   3.995   3.733   2.623
 9225SOL    HW239555   3.927   3.599   2.603
 9226SOL     OW39556   1.965   0.940  20.178
 9226SOL    HW139557   2.027   0.996  20.131
 9226SOL    HW239558   1.896   0.999  20.207
 9227SOL     OW39559   4.614   1.196  18.645
 9227SOL    HW139560   4.560   1.267  18.611
 9227SOL    HW239561   4.694   1.239  18.676
 9228SOL     OW39562   0.058   3.502   3.800
 9228SOL    HW139563   0.104   3.419   3.811
 9228SOL    HW239564   0.022   3.499   3.711
 9229SOL     OW39565   1.431   1.208  19.953
 9229SOL    HW139566   1.422   1.121  19.914
 9229SOL    HW239567   1.346   1.250  19.939
 9230SOL     OW39568   0.291   3.509  20.450
 9230SOL    HW139569   0.197   3.513  20.437
 9230SOL    HW239570   0.312   3.416  20.454
 9231SOL     OW39571   0.647   3.590  16.454
 9231SOL    HW139572   0.719   3.602  16.392
 9231SOL    HW239573   0.659   3.502  16.488
 9232SOL     OW39574   3.606   2.699  16.429
 9232SOL    HW139575   3.534   2.694  16.492
 9232SOL    HW239576   3.580   2.770  16.369
 9233SOL     OW39577   3.728   1.768   0.164
 9233SOL    HW139578   3.759   1.755   0.075
 9233SOL    HW239579   3.741   1.683   0.206
 9234SOL     OW39580   0.954   2.323   4.938
 9234SOL    HW139581   0.877   2.279   4.901
 9234SOL    HW239582   0.921   2.408   4.966
 9235SOL     OW39583   4.447   4.288   2.251
 9235SOL    HW139584   4.476   4.257   2.336
 9235SOL    HW239585   4.514   4.351   2.224
 9236SOL     OW39586   0.229   1.436  20.042
 9236SOL    HW139587   0.227   1.471  20.131
 9236SOL    HW239588   0.244   1.512  19.987
 9237SOL     OW39589   4.607   4.489   2.168
 9237SOL    HW139590   4.695   4.520   2.190
 9237SOL    HW239591   4.606   4.487   2.072
 9238SOL     OW39592   4.505   3.676  18.532
 9238SOL    HW139593   4.530   3.654  18.442
 9238SOL    HW239594   4.436   3.613  18.553
 9239SOL     OW39595   3.396   1.520  15.870
 9239SOL    HW139596   3.334   1.586  15.900
 9239SOL    HW239597   3.367   1.497  15.782
 9240SOL     OW39598   4.292   2.346   3.623
 9240SOL    HW139599   4.197   2.331   3.620
 9240SOL    HW239600   4.321   2.340   3.532
 9241SOL     OW39601   1.875   2.765  17.129
 9241SOL    HW139602   1.922   2.833  17.178
 9241SOL    HW239603   1.851   2.700  17.196
 9242SOL     OW39604   3.924   1.381   1.492
 9242SOL    HW139605   3.958   1.304   1.537
 9242SOL    HW239606   4.001   1.435   1.475
 9243SOL     OW39607   1.316   1.545   4.927
 9243SOL    HW139608   1.407   1.571   4.941
 9243SOL    HW239609   1.297   1.571   4.837
 9244SOL     OW39610   0.793   0.858   3.266
 9244SOL    HW139611   0.806   0.816   3.351
 9244SOL    HW239612   0.718   0.916   3.280
 9245SOL     OW39613   1.729   1.353  17.359
 9245SOL    HW139614   1.752   1.306  17.439
 9245SOL    HW239615   1.634   1.365  17.365
 9246SOL     OW39616   1.004   0.726  15.540
 9246SOL    HW139617   0.954   0.769  15.610
 9246SOL    HW239618   1.092   0.717  15.576
 9247SOL     OW39619   1.377   3.582   3.891
 9247SOL    HW139620   1.358   3.488   3.882
 9247SOL    HW239621   1.293   3.623   3.908
 9248SOL     OW39622   3.100   4.263   3.624
 9248SOL    HW139623   3.124   4.252   3.532
 9248SOL    HW239624   3.110   4.357   3.639
 9249SOL     OW39625   3.250   0.768  16.951
 9249SOL    HW139626   3.231   0.693  16.894
 9249SOL    HW239627   3.175   0.772  17.010
 9250SOL     OW39628   0.269   3.909   0.884
 9250SOL    HW139629   0.293   3.817   0.884
 9250SOL    HW239630   0.199   3.916   0.820
 9251SOL     OW39631   4.706   4.679   3.777
 9251SOL    HW139632   4.661   4.597   3.757
 9251SOL    HW239633   0.006   4.657   3.775
 9252SOL     OW39634   2.802   0.845   0.222
 9252SOL    HW139635   2.760   0.768   0.259
 9252SOL    HW239636   2.790   0.913   0.288
 9253SOL     OW39637   0.581   4.235   4.610
 9253SOL    HW139638   0.563   4.318   4.654
 9253SOL    HW239639   0.503   4.182   4.624
 9254SOL     OW39640   1.536   4.011  20.438
 9254SOL    HW139641   1.511   4.101  20.459
 9254SOL    HW239642   1.585   4.018  20.356
 9255SOL     OW39643   3.459   1.629   3.313
 9255SOL    HW139644   3.408   1.641   3.232
 9255SOL    HW239645   3.394   1.636   3.383
 9256SOL     OW39646   0.207   1.975  11.966
 9256SOL    HW139647   0.286   2.005  11.922
 9256SOL    HW239648   0.201   1.882  11.945
 9257SOL     OW39649   1.240   2.701  18.917
 9257SOL    HW139650   1.150   2.670  18.926
 9257SOL    HW239651   1.283   2.637  18.861
 9258SOL     OW39652   3.752   2.621  15.658
 9258SOL    HW139653   3.680   2.646  15.601
 9258SOL    HW239654   3.830   2.659  15.617
 9259SOL     OW39655   1.002   3.421  15.443
 9259SOL    HW139656   1.026   3.337  15.403
 9259SOL    HW239657   1.086   3.465  15.458
 9260SOL     OW39658   4.414   3.969   0.271
 9260SOL    HW139659   4.488   3.935   0.321
 9260SOL    HW239660   4.344   3.982   0.336
 9261SOL     OW39661   2.805   0.860   4.729
 9261SOL    HW139662   2.732   0.901   4.683
 9261SOL    HW239663   2.876   0.924   4.724
 9262SOL     OW39664   1.698   0.573  15.593
 9262SOL    HW139665   1.687   0.588  15.687
 9262SOL    HW239666   1.609   0.577  15.557
 9263SOL     OW39667   3.828   0.572   4.290
 9263SOL    HW139668   3.796   0.629   4.221
 9263SOL    HW239669   3.861   0.495   4.245
 9264SOL     OW39670   2.673   2.975   3.840
 9264SOL    HW139671   2.735   2.918   3.796
 9264SOL    HW239672   2.662   3.049   3.780
 9265SOL     OW39673   3.191   3.588   5.379
 9265SOL    HW139674   3.162   3.509   5.334
 9265SOL    HW239675   3.153   3.582   5.467
 9266SOL     OW39676   4.082   4.684   5.012
 9266SOL    HW139677   3.988   4.685   5.026
 9266SOL    HW239678   4.117   4.630   5.083
 9267SOL     OW39679   1.710   2.693  16.728
 9267SOL    HW139680   1.715   2.788  16.720
 9267SOL    HW239681   1.619   2.673  16.707
 9268SOL     OW39682   0.284   1.578   2.147
 9268SOL    HW139683   0.262   1.606   2.236
 9268SOL    HW239684   0.244   1.491   2.139
 9269SOL     OW39685   1.008   0.094   5.229
 9269SOL    HW139686   1.064   0.160   5.270
 9269SOL    HW239687   0.979   0.038   5.302
 9270SOL     OW39688   2.117   2.489  13.945
 9270SOL    HW139689   2.197   2.451  13.909
 9270SOL    HW239690   2.047   2.432  13.916
 9271SOL     OW39691   2.720   0.234   5.446
 9271SOL    HW139692   2.719   0.314   5.497
 9271SOL    HW239693   2.808   0.230   5.408
 9272SOL     OW39694   1.246   0.664   0.101
 9272SOL    HW139695   1.303   0.602   0.146
 9272SOL    HW239696   1.197   0.707   0.171
 9273SOL     OW39697   1.285   1.633  19.816
 9273SOL    HW139698   1.298   1.640  19.910
 9273SOL    HW239699   1.191   1.646  19.803
 9274SOL     OW39700   3.648   2.944  15.388
 9274SOL    HW139701   3.569   2.997  15.375
 9274SOL    HW239702   3.619   2.870  15.440
 9275SOL     OW39703   0.528   3.925   2.446
 9275SOL    HW139704   0.557   3.976   2.370
 9275SOL    HW239705   0.462   3.980   2.488
 9276SOL     OW39706   4.686   3.084   5.272
 9276SOL    HW139707   4.759   3.023   5.279
 9276SOL    HW239708   4.609   3.028   5.266
 9277SOL     OW39709   3.043   1.777   8.299
 9277SOL    HW139710   3.021   1.867   8.325
 9277SOL    HW239711   2.991   1.723   8.359
 9278SOL     OW39712   2.545   3.584   3.760
 9278SOL    HW139713   2.494   3.542   3.829
 9278SOL    HW239714   2.625   3.532   3.753
 9279SOL     OW39715   2.711   2.024   8.109
 9279SOL    HW139716   2.707   2.054   8.200
 9279SOL    HW239717   2.803   2.031   8.085
 9280SOL     OW39718   4.276   2.095   4.270
 9280SOL    HW139719   4.216   2.035   4.314
 9280SOL    HW239720   4.361   2.050   4.274
 9281SOL     OW39721   2.756   0.118   3.588
 9281SOL    HW139722   2.783   0.028   3.602
 9281SOL    HW239723   2.752   0.156   3.676
 9282SOL     OW39724   4.619   1.551  16.260
 9282SOL    HW139725   4.539   1.507  16.232
 9282SOL    HW239726   4.590   1.633  16.298
 9283SOL     OW39727   3.465   2.255   8.838
 9283SOL    HW139728   3.506   2.288   8.918
 9283SOL    HW239729   3.538   2.216   8.789
 9284SOL     OW39730   2.283   0.053  14.992
 9284SOL    HW139731   2.279   0.133  15.045
 9284SOL    HW239732   2.370   0.018  15.008
 9285SOL     OW39733   3.995   3.030   4.822
 9285SOL    HW139734   4.023   3.094   4.888
 9285SOL    HW239735   3.988   2.948   4.869
 9286SOL     OW39736   0.733   1.260   5.136
 9286SOL    HW139737   0.821   1.223   5.130
 9286SOL    HW239738   0.675   1.185   5.130
 9287SOL     OW39739   3.000   3.101  18.421
 9287SOL    HW139740   3.040   3.173  18.373
 9287SOL    HW239741   3.047   3.098  18.504
 9288SOL     OW39742   0.981   3.330  18.833
 9288SOL    HW139743   0.892   3.357  18.852
 9288SOL    HW239744   1.027   3.339  18.917
 9289SOL     OW39745   0.685   1.545   5.015
 9289SOL    HW139746   0.723   1.458   5.031
 9289SOL    HW239747   0.716   1.598   5.089
 9290SOL     OW39748   2.526   2.108  19.628
 9290SOL    HW139749   2.481   2.028  19.656
 9290SOL    HW239750   2.585   2.079  19.558
 9291SOL     OW39751   0.189   1.772  18.549
 9291SOL    HW139752   0.152   1.781  18.461
 9291SOL    HW239753   0.116   1.792  18.608
 9292SOL     OW39754   3.730   3.252   7.404
 9292SOL    HW139755   3.726   3.249   7.500
 9292SOL    HW239756   3.812   3.297   7.385
 9293SOL     OW39757   2.719   0.604   1.392
 9293SOL    HW139758   2.742   0.695   1.373
 9293SOL    HW239759   2.687   0.570   1.308
 9294SOL     OW39760   0.370   1.044  15.824
 9294SOL    HW139761   0.389   1.037  15.731
 9294SOL    HW239762   0.376   1.138  15.843
 9295SOL     OW39763   2.466   2.508  12.969
 9295SOL    HW139764   2.386   2.492  13.020
 9295SOL    HW239765   2.451   2.462  12.886
 9296SOL     OW39766   0.808   0.101   1.629
 9296SOL    HW139767   0.817   0.034   1.562
 9296SOL    HW239768   0.752   0.062   1.696
 9297SOL     OW39769   2.607   4.337   4.816
 9297SOL    HW139770   2.517   4.362   4.836
 9297SOL    HW239771   2.628   4.384   4.736
 9298SOL     OW39772   1.342   2.182  17.557
 9298SOL    HW139773   1.419   2.127  17.573
 9298SOL    HW239774   1.322   2.168  17.464
 9299SOL     OW39775   2.757   0.580  14.489
 9299SOL    HW139776   2.708   0.529  14.553
 9299SOL    HW239777   2.836   0.608  14.536
 9300SOL     OW39778   2.605   3.857  20.332
 9300SOL    HW139779   2.568   3.887  20.249
 9300SOL    HW239780   2.528   3.838  20.386
 9301SOL     OW39781   4.018   4.422  14.732
 9301SOL    HW139782   3.944   4.452  14.786
 9301SOL    HW239783   3.980   4.405  14.646
 9302SOL     OW39784   1.422   0.562  17.145
 9302SOL    HW139785   1.342   0.513  17.167
 9302SOL    HW239786   1.481   0.546  17.218
 9303SOL     OW39787   3.260   0.936   6.666
 9303SOL    HW139788   3.329   1.002   6.655
 9303SOL    HW239789   3.257   0.920   6.761
 9304SOL     OW39790   1.173   0.416  20.928
 9304SOL    HW139791   1.220   0.348  20.879
 9304SOL    HW239792   1.221   0.424  21.011
 9305SOL     OW39793   2.711   1.498  14.403
 9305SOL    HW139794   2.762   1.556  14.346
 9305SOL    HW239795   2.623   1.536  14.403
 9306SOL     OW39796   0.075   3.470   5.378
 9306SOL    HW139797   0.017   3.535   5.338
 9306SOL    HW239798   0.142   3.522   5.423
 9307SOL     OW39799   2.318   1.280   3.125
 9307SOL    HW139800   2.258   1.327   3.067
 9307SOL    HW239801   2.399   1.273   3.075
 9308SOL     OW39802   4.169   1.746   1.649
 9308SOL    HW139803   4.224   1.799   1.707
 9308SOL    HW239804   4.215   1.746   1.565
 9309SOL     OW39805   3.260   3.479   5.845
 9309SOL    HW139806   3.190   3.474   5.779
 9309SOL    HW239807   3.299   3.392   5.845
 9310SOL     OW39808   3.297   2.198  16.576
 9310SOL    HW139809   3.367   2.148  16.533
 9310SOL    HW239810   3.333   2.223  16.661
 9311SOL     OW39811   1.766   4.580  18.973
 9311SOL    HW139812   1.839   4.639  18.992
 9311SOL    HW239813   1.775   4.560  18.880
 9312SOL     OW39814   3.024   4.402  13.100
 9312SOL    HW139815   3.100   4.355  13.065
 9312SOL    HW239816   3.061   4.466  13.160
 9313SOL     OW39817   2.926   2.923   0.432
 9313SOL    HW139818   2.836   2.950   0.416
 9313SOL    HW239819   2.954   2.973   0.509
 9314SOL     OW39820   2.844   2.750   4.419
 9314SOL    HW139821   2.880   2.758   4.331
 9314SOL    HW239822   2.843   2.839   4.454
 9315SOL     OW39823   0.788   4.164   1.971
 9315SOL    HW139824   0.853   4.096   1.957
 9315SOL    HW239825   0.795   4.186   2.064
 9316SOL     OW39826   2.966   1.569  17.352
 9316SOL    HW139827   2.912   1.601  17.280
 9316SOL    HW239828   2.977   1.645  17.409
 9317SOL     OW39829   4.746   2.907  15.292
 9317SOL    HW139830   4.659   2.868  15.304
 9317SOL    HW239831   4.765   2.947  15.377
 9318SOL     OW39832   3.722   4.464  18.037
 9318SOL    HW139833   3.727   4.454  18.132
 9318SOL    HW239834   3.639   4.420  18.014
 9319SOL     OW39835   0.695   2.711  16.121
 9319SOL    HW139836   0.667   2.737  16.208
 9319SOL    HW239837   0.623   2.737  16.064
 9320SOL     OW39838   1.933   3.198   5.699
 9320SOL    HW139839   1.993   3.255   5.747
 9320SOL    HW239840   1.869   3.170   5.764
 9321SOL     OW39841   3.563   0.281   3.211
 9321SOL    HW139842   3.609   0.288   3.128
 9321SOL    HW239843   3.511   0.361   3.217
 9322SOL     OW39844   0.285   2.714   1.256
 9322SOL    HW139845   0.220   2.769   1.212
 9322SOL    HW239846   0.297   2.639   1.198
 9323SOL     OW39847   4.226   1.024   5.023
 9323SOL    HW139848   4.254   1.110   5.053
 9323SOL    HW239849   4.223   1.031   4.928
 9324SOL     OW39850   2.120   3.513  16.975
 9324SOL    HW139851   2.086   3.542  17.060
 9324SOL    HW239852   2.112   3.589  16.918
 9325SOL     OW39853   0.879   2.456   2.787
 9325SOL    HW139854   0.964   2.499   2.791
 9325SOL    HW239855   0.824   2.514   2.734
 9326SOL     OW39856   1.665   1.252  15.912
 9326SOL    HW139857   1.611   1.331  15.900
 9326SOL    HW239858   1.602   1.184  15.935
 9327SOL     OW39859   1.004   3.221   0.907
 9327SOL    HW139860   1.025   3.314   0.917
 9327SOL    HW239861   1.049   3.178   0.980
 9328SOL     OW39862   1.725   0.392   7.503
 9328SOL    HW139863   1.757   0.454   7.437
 9328SOL    HW239864   1.663   0.337   7.455
 9329SOL     OW39865   4.682   2.344   1.092
 9329SOL    HW139866   4.614   2.345   1.160
 9329SOL    HW239867   4.747   2.408   1.124
 9330SOL     OW39868   0.984   4.776  20.873
 9330SOL    HW139869   0.948   4.747  20.789
 9330SOL    HW239870   0.918   4.749  20.937
 9331SOL     OW39871   3.182   0.089  17.003
 9331SOL    HW139872   3.260   0.138  17.027
 9331SOL    HW239873   3.214   0.019  16.946
 9332SOL     OW39874   0.172   3.109  12.931
 9332SOL    HW139875   0.261   3.140  12.949
 9332SOL    HW239876   0.175   3.016  12.951
 9333SOL     OW39877   2.013   2.089  18.142
 9333SOL    HW139878   1.989   2.036  18.067
 9333SOL    HW239879   2.108   2.099  18.134
 9334SOL     OW39880   3.322   2.267  19.481
 9334SOL    HW139881   3.307   2.173  19.497
 9334SOL    HW239882   3.242   2.309  19.511
 9335SOL     OW39883   3.674   0.143   4.579
 9335SOL    HW139884   3.723   0.132   4.497
 9335SOL    HW239885   3.732   0.194   4.635
 9336SOL     OW39886   1.988   4.684  17.465
 9336SOL    HW139887   2.066   4.637  17.434
 9336SOL    HW239888   1.933   4.692  17.387
 9337SOL     OW39889   1.277   2.158   6.966
 9337SOL    HW139890   1.256   2.065   6.975
 9337SOL    HW239891   1.194   2.204   6.978
 9338SOL     OW39892   3.269   2.629  18.899
 9338SOL    HW139893   3.326   2.661  18.969
 9338SOL    HW239894   3.198   2.584  18.944
 9339SOL     OW39895   4.173   1.562   0.715
 9339SOL    HW139896   4.175   1.535   0.806
 9339SOL    HW239897   4.179   1.658   0.718
 9340SOL     OW39898   2.376   1.321  16.935
 9340SOL    HW139899   2.301   1.356  16.887
 9340SOL    HW239900   2.401   1.242  16.886
 9341SOL     OW39901   3.129   4.735  21.186
 9341SOL    HW139902   3.041   4.768  21.201
 9341SOL    HW239903   3.137   4.731  21.090
 9342SOL     OW39904   0.686   1.856  13.166
 9342SOL    HW139905   0.778   1.881  13.161
 9342SOL    HW239906   0.685   1.765  13.137
 9343SOL     OW39907   0.826   2.390  13.688
 9343SOL    HW139908   0.817   2.375  13.782
 9343SOL    HW239909   0.766   2.328  13.648
 9344SOL     OW39910   1.115   3.078   1.123
 9344SOL    HW139911   1.145   3.118   1.205
 9344SOL    HW239912   1.167   2.998   1.115
 9345SOL     OW39913   3.452   1.222  20.803
 9345SOL    HW139914   3.518   1.258  20.744
 9345SOL    HW239915   3.501   1.163  20.860
 9346SOL     OW39916   2.092   0.372  16.007
 9346SOL    HW139917   2.159   0.433  16.037
 9346SOL    HW239918   2.067   0.404  15.920
 9347SOL     OW39919   3.029   1.557   7.016
 9347SOL    HW139920   2.994   1.628   7.071
 9347SOL    HW239921   3.105   1.524   7.065
 9348SOL     OW39922   0.344   1.651   0.643
 9348SOL    HW139923   0.260   1.681   0.678
 9348SOL    HW239924   0.409   1.683   0.705
 9349SOL     OW39925   3.173   2.530   0.835
 9349SOL    HW139926   3.219   2.581   0.902
 9349SOL    HW239927   3.099   2.586   0.809
 9350SOL     OW39928   1.515   4.725  15.498
 9350SOL    HW139929   1.605   4.698  15.509
 9350SOL    HW239930   1.520   0.025  15.475
 9351SOL     OW39931   2.456   3.954  13.343
 9351SOL    HW139932   2.425   3.917  13.260
 9351SOL    HW239933   2.379   4.000  13.377
 9352SOL     OW39934   0.856   2.361   5.953
 9352SOL    HW139935   0.941   2.322   5.976
 9352SOL    HW239936   0.794   2.288   5.958
 9353SOL     OW39937   2.070   0.602   0.923
 9353SOL    HW139938   2.103   0.670   0.981
 9353SOL    HW239939   2.148   0.553   0.896
 9354SOL     OW39940   4.019   3.026   8.306
 9354SOL    HW139941   4.011   3.075   8.224
 9354SOL    HW239942   3.980   2.941   8.287
 9355SOL     OW39943   0.190   3.517  16.960
 9355SOL    HW139944   0.124   3.586  16.964
 9355SOL    HW239945   0.206   3.505  16.866
 9356SOL     OW39946   3.329   0.535  20.018
 9356SOL    HW139947   3.369   0.452  19.993
 9356SOL    HW239948   3.301   0.574  19.936
 9357SOL     OW39949   0.829   4.183  20.547
 9357SOL    HW139950   0.915   4.146  20.528
 9357SOL    HW239951   0.782   4.113  20.592
 9358SOL     OW39952   3.471   2.211   2.532
 9358SOL    HW139953   3.520   2.171   2.604
 9358SOL    HW239954   3.513   2.295   2.518
 9359SOL     OW39955   0.254   2.714  17.107
 9359SOL    HW139956   0.202   2.793  17.097
 9359SOL    HW239957   0.285   2.694  17.019
 9360SOL     OW39958   2.093   4.179  16.224
 9360SOL    HW139959   2.156   4.131  16.171
 9360SOL    HW239960   2.143   4.254  16.258
 9361SOL     OW39961   0.856   0.639  17.357
 9361SOL    HW139962   0.922   0.641  17.287
 9361SOL    HW239963   0.774   0.621  17.311
 9362SOL     OW39964   3.238   2.829   0.681
 9362SOL    HW139965   3.245   2.909   0.629
 9362SOL    HW239966   3.194   2.857   0.762
 9363SOL     OW39967   0.190   2.579   3.079
 9363SOL    HW139968   0.279   2.568   3.112
 9363SOL    HW239969   0.178   2.506   3.017
 9364SOL     OW39970   1.549   4.099  20.166
 9364SOL    HW139971   1.602   4.070  20.092
 9364SOL    HW239972   1.461   4.066  20.147
 9365SOL     OW39973   3.537   4.210   3.724
 9365SOL    HW139974   3.587   4.285   3.755
 9365SOL    HW239975   3.573   4.135   3.770
 9366SOL     OW39976   0.081   3.784   0.435
 9366SOL    HW139977   0.168   3.808   0.403
 9366SOL    HW239978   0.054   3.712   0.378
 9367SOL     OW39979   1.285   3.521  15.465
 9367SOL    HW139980   1.284   3.496  15.558
 9367SOL    HW239981   1.362   3.478  15.429
 9368SOL     OW39982   3.807   1.159  16.334
 9368SOL    HW139983   3.897   1.129  16.349
 9368SOL    HW239984   3.794   1.148  16.240
 9369SOL     OW39985   4.710   3.811  14.303
 9369SOL    HW139986   4.670   3.848  14.224
 9369SOL    HW239987   4.644   3.822  14.371
 9370SOL     OW39988   3.380   0.314  16.977
 9370SOL    HW139989   3.297   0.324  16.931
 9370SOL    HW239990   3.444   0.296  16.907
 9371SOL     OW39991   2.582   4.009   5.984
 9371SOL    HW139992   2.608   4.078   6.044
 9371SOL    HW239993   2.623   3.929   6.020
 9372SOL     OW39994   3.726   0.872   1.165
 9372SOL    HW139995   3.706   0.949   1.219
 9372SOL    HW239996   3.773   0.907   1.090
 9373SOL     OW39997   2.490   2.433  15.674
 9373SOL    HW139998   2.518   2.395  15.757
 9373SOL    HW239999   2.551   2.397  15.610
 9374SOL     OW40000   3.712   0.755  16.807
 9374SOL    HW140001   3.683   0.833  16.760
 9374SOL    HW240002   3.791   0.728  16.760
 9375SOL     OW40003   3.861   4.383  20.900
 9375SOL    HW140004   3.850   4.458  20.841
 9375SOL    HW240005   3.772   4.357  20.923
 9376SOL     OW40006   1.336   3.348   5.534
 9376SOL    HW140007   1.382   3.347   5.450
 9376SOL    HW240008   1.366   3.429   5.576
 9377SOL     OW40009   1.418   2.310  19.178
 9377SOL    HW140010   1.332   2.269  19.174
 9377SOL    HW240011   1.423   2.363  19.098
 9378SOL     OW40012   4.206   4.546  19.839
 9378SOL    HW140013   4.298   4.550  19.864
 9378SOL    HW240014   4.196   4.613  19.772
 9379SOL     OW40015   3.666   2.777   5.720
 9379SOL    HW140016   3.751   2.760   5.761
 9379SOL    HW240017   3.632   2.853   5.766
 9380SOL     OW40018   1.023   1.234  18.524
 9380SOL    HW140019   1.047   1.216  18.433
 9380SOL    HW240020   0.972   1.158  18.551
 9381SOL     OW40021   0.570   4.721  15.488
 9381SOL    HW140022   0.592   4.655  15.422
 9381SOL    HW240023   0.654   4.760  15.512
 9382SOL     OW40024   0.860   3.388   8.423
 9382SOL    HW140025   0.894   3.317   8.368
 9382SOL    HW240026   0.935   3.415   8.476
 9383SOL     OW40027   2.697   3.792   0.312
 9383SOL    HW140028   2.722   3.788   0.404
 9383SOL    HW240029   2.767   3.841   0.270
 9384SOL     OW40030   2.438   3.307  18.330
 9384SOL    HW140031   2.526   3.307  18.293
 9384SOL    HW240032   2.441   3.244  18.402
 9385SOL     OW40033   0.243   0.900  20.947
 9385SOL    HW140034   0.246   0.814  20.904
 9385SOL    HW240035   0.151   0.925  20.942
 9386SOL     OW40036   4.745   4.633   0.976
 9386SOL    HW140037   0.010   4.564   0.945
 9386SOL    HW240038   0.003   4.714   0.966
 9387SOL     OW40039   2.730   4.672   6.578
 9387SOL    HW140040   2.763   4.761   6.594
 9387SOL    HW240041   2.713   4.670   6.484
 9388SOL     OW40042   0.344   0.376   4.794
 9388SOL    HW140043   0.295   0.451   4.759
 9388SOL    HW240044   0.281   0.304   4.792
 9389SOL     OW40045   0.865   4.119  11.604
 9389SOL    HW140046   0.817   4.187  11.651
 9389SOL    HW240047   0.814   4.106  11.524
 9390SOL     OW40048   3.063   3.087  16.547
 9390SOL    HW140049   3.143   3.035  16.535
 9390SOL    HW240050   3.054   3.094  16.642
 9391SOL     OW40051   0.676   0.274  11.220
 9391SOL    HW140052   0.598   0.302  11.173
 9391SOL    HW240053   0.749   0.301  11.164
 9392SOL     OW40054   3.161   2.140  20.514
 9392SOL    HW140055   3.209   2.059  20.500
 9392SOL    HW240056   3.179   2.162  20.606
 9393SOL     OW40057   1.212   1.172  16.229
 9393SOL    HW140058   1.189   1.245  16.172
 9393SOL    HW240059   1.150   1.103  16.206
 9394SOL     OW40060   4.068   3.287  19.029
 9394SOL    HW140061   4.134   3.356  19.036
 9394SOL    HW240062   4.048   3.263  19.119
 9395SOL     OW40063   3.835   1.327  15.196
 9395SOL    HW140064   3.843   1.312  15.290
 9395SOL    HW240065   3.878   1.411  15.182
 9396SOL     OW40066   0.445   3.449   3.308
 9396SOL    HW140067   0.404   3.365   3.286
 9396SOL    HW240068   0.424   3.462   3.401
 9397SOL     OW40069   1.636   3.063  20.575
 9397SOL    HW140070   1.561   3.049  20.517
 9397SOL    HW240071   1.698   3.113  20.521
 9398SOL     OW40072   2.917   2.756  18.856
 9398SOL    HW140073   2.954   2.711  18.932
 9398SOL    HW240074   2.840   2.704  18.832
 9399SOL     OW40075   3.552   3.906  11.893
 9399SOL    HW140076   3.468   3.904  11.847
 9399SOL    HW240077   3.593   3.987  11.865
 9400SOL     OW40078   3.019   3.840   3.211
 9400SOL    HW140079   3.035   3.795   3.129
 9400SOL    HW240080   3.095   3.820   3.265
 9401SOL     OW40081   1.952   0.956   0.903
 9401SOL    HW140082   2.031   1.009   0.893
 9401SOL    HW240083   1.981   0.879   0.953
 9402SOL     OW40084   0.435   3.799  18.819
 9402SOL    HW140085   0.364   3.749  18.859
 9402SOL    HW240086   0.477   3.845  18.891
 9403SOL     OW40087   2.716   3.030   8.234
 9403SOL    HW140088   2.691   3.101   8.175
 9403SOL    HW240089   2.809   3.017   8.217
 9404SOL     OW40090   0.219   4.207  21.115
 9404SOL    HW140091   0.143   4.263  21.131
 9404SOL    HW240092   0.218   4.144  21.187
 9405SOL     OW40093   1.405   4.390  16.824
 9405SOL    HW140094   1.426   4.418  16.914
 9405SOL    HW240095   1.457   4.310  16.811
 9406SOL     OW40096   1.037   2.589  20.153
 9406SOL    HW140097   0.949   2.562  20.180
 9406SOL    HW240098   1.094   2.564  20.226
 9407SOL     OW40099   1.548   0.805   4.592
 9407SOL    HW140100   1.559   0.715   4.563
 9407SOL    HW240101   1.502   0.798   4.676
 9408SOL     OW40102   2.164   3.323   4.866
 9408SOL    HW140103   2.138   3.246   4.917
 9408SOL    HW240104   2.198   3.287   4.785
 9409SOL     OW40105   3.095   4.162  18.690
 9409SOL    HW140106   3.085   4.185  18.782
 9409SOL    HW240107   3.188   4.142  18.680
 9410SOL     OW40108   2.578   4.772  16.064
 9410SOL    HW140109   2.492   0.021  16.075
 9410SOL    HW240110   2.577   4.739  15.974
 9411SOL     OW40111   1.872   0.661   2.444
 9411SOL    HW140112   1.887   0.747   2.483
 9411SOL    HW240113   1.898   0.671   2.352
 9412SOL     OW40114   3.338   3.594  17.886
 9412SOL    HW140115   3.356   3.688  17.879
 9412SOL    HW240116   3.344   3.562  17.796
 9413SOL     OW40117   1.333   2.005  19.042
 9413SOL    HW140118   1.260   1.952  19.010
 9413SOL    HW240119   1.310   2.026  19.133
 9414SOL     OW40120   1.229   2.374   4.455
 9414SOL    HW140121   1.254   2.393   4.545
 9414SOL    HW240122   1.245   2.456   4.408
 9415SOL     OW40123   1.224   4.760   9.098
 9415SOL    HW140124   1.140   4.750   9.055
 9415SOL    HW240125   1.213   0.041   9.156
 9416SOL     OW40126   3.646   4.630  19.542
 9416SOL    HW140127   3.674   4.665  19.627
 9416SOL    HW240128   3.570   4.575  19.563
 9417SOL     OW40129   0.095   3.542   5.689
 9417SOL    HW140130   0.020   3.515   5.636
 9417SOL    HW240131   0.057   3.565   5.774
 9418SOL     OW40132   0.613   1.759   0.383
 9418SOL    HW140133   0.545   1.827   0.377
 9418SOL    HW240134   0.676   1.794   0.446
 9419SOL     OW40135   1.947   3.402   5.478
 9419SOL    HW140136   1.948   3.494   5.503
 9419SOL    HW240137   1.952   3.354   5.561
 9420SOL     OW40138   0.752   3.224   0.250
 9420SOL    HW140139   0.712   3.240   0.165
 9420SOL    HW240140   0.845   3.210   0.231
 9421SOL     OW40141   3.536   0.310   4.196
 9421SOL    HW140142   3.505   0.303   4.286
 9421SOL    HW240143   3.496   0.234   4.151
 9422SOL     OW40144   3.763   3.874   2.074
 9422SOL    HW140145   3.787   3.811   2.007
 9422SOL    HW240146   3.673   3.900   2.052
 9423SOL     OW40147   0.383   0.859  13.442
 9423SOL    HW140148   0.323   0.912  13.495
 9423SOL    HW240149   0.379   0.772  13.481
 9424SOL     OW40150   0.579   2.742   2.135
 9424SOL    HW140151   0.610   2.830   2.155
 9424SOL    HW240152   0.484   2.748   2.141
 9425SOL     OW40153   3.521   0.811  16.536
 9425SOL    HW140154   3.496   0.818  16.444
 9425SOL    HW240155   3.530   0.717  16.551
 9426SOL     OW40156   2.418   3.565   1.586
 9426SOL    HW140157   2.382   3.478   1.601
 9426SOL    HW240158   2.511   3.550   1.566
 9427SOL     OW40159   3.180   0.235  20.676
 9427SOL    HW140160   3.163   0.152  20.721
 9427SOL    HW240161   3.211   0.294  20.745
 9428SOL     OW40162   3.035   0.848   0.412
 9428SOL    HW140163   3.063   0.914   0.348
 9428SOL    HW240164   2.959   0.888   0.456
 9429SOL     OW40165   2.906   1.455   0.095
 9429SOL    HW140166   2.954   1.377   0.122
 9429SOL    HW240167   2.878   1.436   0.006
 9430SOL     OW40168   3.164   2.234  17.010
 9430SOL    HW140169   3.101   2.176  16.967
 9430SOL    HW240170   3.164   2.207  17.101
 9431SOL     OW40171   2.535   3.972  17.586
 9431SOL    HW140172   2.562   4.053  17.542
 9431SOL    HW240173   2.612   3.916  17.581
 9432SOL     OW40174   4.576   3.865  18.220
 9432SOL    HW140175   4.623   3.908  18.292
 9432SOL    HW240176   4.532   3.937  18.175
 9433SOL     OW40177   1.174   0.186   5.626
 9433SOL    HW140178   1.267   0.177   5.643
 9433SOL    HW240179   1.166   0.191   5.531
 9434SOL     OW40180   1.371   4.630   4.122
 9434SOL    HW140181   1.340   4.620   4.212
 9434SOL    HW240182   1.393   4.541   4.094
 9435SOL     OW40183   1.602   1.508   0.162
 9435SOL    HW140184   1.539   1.454   0.113
 9435SOL    HW240185   1.560   1.522   0.247
 9436SOL     OW40186   1.739   3.127   6.155
 9436SOL    HW140187   1.828   3.091   6.157
 9436SOL    HW240188   1.732   3.177   6.237
 9437SOL     OW40189   0.520   2.044   1.925
 9437SOL    HW140190   0.561   1.994   1.855
 9437SOL    HW240191   0.591   2.094   1.964
 9438SOL     OW40192   3.635   4.333  19.200
 9438SOL    HW140193   3.594   4.306  19.282
 9438SOL    HW240194   3.587   4.411  19.174
 9439SOL     OW40195   2.570   2.028  16.906
 9439SOL    HW140196   2.665   2.025  16.898
 9439SOL    HW240197   2.552   2.111  16.950
 9440SOL     OW40198   2.070   1.436   3.410
 9440SOL    HW140199   2.064   1.522   3.452
 9440SOL    HW240200   2.145   1.394   3.452
 9441SOL     OW40201   0.301   1.011  14.367
 9441SOL    HW140202   0.240   1.023  14.294
 9441SOL    HW240203   0.334   0.922  14.357
 9442SOL     OW40204   0.774   3.778   2.473
 9442SOL    HW140205   0.766   3.778   2.378
 9442SOL    HW240206   0.716   3.849   2.501
 9443SOL     OW40207   4.287   0.890  11.847
 9443SOL    HW140208   4.265   0.810  11.896
 9443SOL    HW240209   4.323   0.857  11.764
 9444SOL     OW40210   3.181   0.230  16.061
 9444SOL    HW140211   3.205   0.222  15.968
 9444SOL    HW240212   3.086   0.243  16.060
 9445SOL     OW40213   0.547   1.297  19.715
 9445SOL    HW140214   0.596   1.215  19.708
 9445SOL    HW240215   0.455   1.270  19.711
 9446SOL     OW40216   2.740   4.193   1.573
 9446SOL    HW140217   2.820   4.233   1.538
 9446SOL    HW240218   2.715   4.129   1.507
 9447SOL     OW40219   2.124   3.876  13.171
 9447SOL    HW140220   2.202   3.824  13.153
 9447SOL    HW240221   2.136   3.908  13.260
 9448SOL     OW40222   3.132   0.738   4.856
 9448SOL    HW140223   3.116   0.806   4.791
 9448SOL    HW240224   3.148   0.659   4.805
 9449SOL     OW40225   2.586   1.837   6.677
 9449SOL    HW140226   2.612   1.747   6.659
 9449SOL    HW240227   2.562   1.872   6.591
 9450SOL     OW40228   0.340   1.172  17.434
 9450SOL    HW140229   0.256   1.204  17.401
 9450SOL    HW240230   0.323   1.153  17.527
 9451SOL     OW40231   3.769   2.823  20.737
 9451SOL    HW140232   3.844   2.850  20.791
 9451SOL    HW240233   3.800   2.746  20.689
 9452SOL     OW40234   2.101   2.526   1.994
 9452SOL    HW140235   2.033   2.475   2.038
 9452SOL    HW240236   2.145   2.462   1.937
 9453SOL     OW40237   3.336   1.663  17.118
 9453SOL    HW140238   3.412   1.672  17.060
 9453SOL    HW240239   3.262   1.687  17.063
 9454SOL     OW40240   3.002   0.958  18.449
 9454SOL    HW140241   3.048   1.013  18.512
 9454SOL    HW240242   2.924   0.928  18.496
 9455SOL     OW40243   1.717   1.785  16.673
 9455SOL    HW140244   1.728   1.759  16.582
 9455SOL    HW240245   1.685   1.875  16.669
 9456SOL     OW40246   4.575   3.712   5.676
 9456SOL    HW140247   4.554   3.620   5.695
 9456SOL    HW240248   4.621   3.743   5.754
 9457SOL     OW40249   4.299   3.279  16.779
 9457SOL    HW140250   4.363   3.297  16.847
 9457SOL    HW240251   4.348   3.286  16.697
 9458SOL     OW40252   1.425   2.894   6.403
 9458SOL    HW140253   1.331   2.880   6.413
 9458SOL    HW240254   1.433   2.952   6.328
 9459SOL     OW40255   0.074   4.770  17.909
 9459SOL    HW140256   0.033   0.016  17.986
 9459SOL    HW240257   0.097   0.052  17.854
 9460SOL     OW40258   4.601   4.471  20.341
 9460SOL    HW140259   4.668   4.534  20.316
 9460SOL    HW240260   4.611   4.461  20.436
 9461SOL     OW40261   2.868   3.296  19.554
 9461SOL    HW140262   2.885   3.298  19.649
 9461SOL    HW240263   2.899   3.381  19.523
 9462SOL     OW40264   4.390   1.238   2.463
 9462SOL    HW140265   4.401   1.247   2.558
 9462SOL    HW240266   4.393   1.328   2.431
 9463SOL     OW40267   0.816   1.324  19.512
 9463SOL    HW140268   0.894   1.285  19.551
 9463SOL    HW240269   0.799   1.401  19.566
 9464SOL     OW40270   1.972   0.255  18.191
 9464SOL    HW140271   1.898   0.307  18.223
 9464SOL    HW240272   2.009   0.214  18.269
 9465SOL     OW40273   4.252   1.881   3.770
 9465SOL    HW140274   4.287   1.838   3.848
 9465SOL    HW240275   4.205   1.958   3.803
 9466SOL     OW40276   2.533   2.799  13.080
 9466SOL    HW140277   2.450   2.759  13.104
 9466SOL    HW240278   2.577   2.816  13.163
 9467SOL     OW40279   3.886   0.388  17.951
 9467SOL    HW140280   3.919   0.372  18.039
 9467SOL    HW240281   3.827   0.315  17.933
 9468SOL     OW40282   2.349   3.280   1.566
 9468SOL    HW140283   2.408   3.208   1.586
 9468SOL    HW240284   2.328   3.269   1.473
 9469SOL     OW40285   2.224   0.185  20.285
 9469SOL    HW140286   2.250   0.149  20.201
 9469SOL    HW240287   2.177   0.114  20.329
 9470SOL     OW40288   3.830   3.560   1.296
 9470SOL    HW140289   3.914   3.596   1.267
 9470SOL    HW240290   3.847   3.467   1.310
 9471SOL     OW40291   3.806   2.082   2.208
 9471SOL    HW140292   3.772   2.016   2.148
 9471SOL    HW240293   3.809   2.163   2.157
 9472SOL     OW40294   2.624   0.697  15.215
 9472SOL    HW140295   2.677   0.652  15.149
 9472SOL    HW240296   2.640   0.790  15.200
 9473SOL     OW40297   4.603   3.206  21.175
 9473SOL    HW140298   4.634   3.224  21.086
 9473SOL    HW240299   4.639   3.276  21.228
 9474SOL     OW40300   0.781   3.120   5.891
 9474SOL    HW140301   0.694   3.154   5.868
 9474SOL    HW240302   0.810   3.073   5.812
 9475SOL     OW40303   1.816   0.809  19.300
 9475SOL    HW140304   1.753   0.737  19.289
 9475SOL    HW240305   1.897   0.766  19.328
 9476SOL     OW40306   0.853   4.279   5.861
 9476SOL    HW140307   0.916   4.344   5.829
 9476SOL    HW240308   0.893   4.194   5.839
 9477SOL     OW40309   3.260   4.339  20.015
 9477SOL    HW140310   3.211   4.315  19.937
 9477SOL    HW240311   3.222   4.423  20.043
 9478SOL     OW40312   1.895   1.142  18.971
 9478SOL    HW140313   1.815   1.090  18.960
 9478SOL    HW240314   1.921   1.165  18.882
 9479SOL     OW40315   4.390   0.759  20.776
 9479SOL    HW140316   4.345   0.812  20.841
 9479SOL    HW240317   4.476   0.741  20.815
 9480SOL     OW40318   2.948   0.670  15.955
 9480SOL    HW140319   3.003   0.673  16.034
 9480SOL    HW240320   2.882   0.737  15.969
 9481SOL     OW40321   1.280   1.964  20.913
 9481SOL    HW140322   1.302   1.873  20.891
 9481SOL    HW240323   1.365   2.008  20.921
 9482SOL     OW40324   2.477   0.775  17.156
 9482SOL    HW140325   2.405   0.837  17.156
 9482SOL    HW240326   2.556   0.828  17.168
 9483SOL     OW40327   1.734   4.013   2.252
 9483SOL    HW140328   1.651   4.056   2.273
 9483SOL    HW240329   1.715   3.959   2.175
 9484SOL     OW40330   3.139   0.382  19.340
 9484SOL    HW140331   3.096   0.299  19.359
 9484SOL    HW240332   3.093   0.416  19.264
 9485SOL     OW40333   4.156   4.582   6.703
 9485SOL    HW140334   4.245   4.608   6.727
 9485SOL    HW240335   4.160   4.487   6.697
 9486SOL     OW40336   1.034   1.555   3.352
 9486SOL    HW140337   1.076   1.494   3.413
 9486SOL    HW240338   1.058   1.523   3.265
 9487SOL     OW40339   2.526   2.242  16.300
 9487SOL    HW140340   2.584   2.167  16.311
 9487SOL    HW240341   2.438   2.205  16.300
 9488SOL     OW40342   2.524   3.308  15.310
 9488SOL    HW140343   2.552   3.389  15.267
 9488SOL    HW240344   2.543   3.322  15.402
 9489SOL     OW40345   2.450   3.429   0.771
 9489SOL    HW140346   2.362   3.392   0.765
 9489SOL    HW240347   2.458   3.486   0.695
 9490SOL     OW40348   1.996   0.011   5.285
 9490SOL    HW140349   2.076   0.025   5.336
 9490SOL    HW240350   1.988   0.089   5.230
 9491SOL     OW40351   3.009   0.656  17.934
 9491SOL    HW140352   3.024   0.750  17.938
 9491SOL    HW240353   3.070   0.625  17.867
 9492SOL     OW40354   2.254   0.008  15.733
 9492SOL    HW140355   2.202   0.036  15.658
 9492SOL    HW240356   2.190   4.793  15.804
 9493SOL     OW40357   3.250   4.258  12.555
 9493SOL    HW140358   3.312   4.187  12.576
 9493SOL    HW240359   3.294   4.308  12.486
 9494SOL     OW40360   1.911   0.061  14.415
 9494SOL    HW140361   1.895   0.002  14.342
 9494SOL    HW240362   1.857   0.137  14.396
 9495SOL     OW40363   0.052   3.833  17.543
 9495SOL    HW140364   0.116   3.865  17.479
 9495SOL    HW240365   0.005   3.911  17.572
 9496SOL     OW40366   2.966   4.733   5.055
 9496SOL    HW140367   3.043   4.739   4.999
 9496SOL    HW240368   2.893   4.758   4.999
 9497SOL     OW40369   1.803   2.730  15.112
 9497SOL    HW140370   1.832   2.739  15.202
 9497SOL    HW240371   1.819   2.816  15.073
 9498SOL     OW40372   0.890   3.139  14.510
 9498SOL    HW140373   0.861   3.056  14.549
 9498SOL    HW240374   0.907   3.118  14.418
 9499SOL     OW40375   2.764   1.384  14.650
 9499SOL    HW140376   2.855   1.397  14.678
 9499SOL    HW240377   2.754   1.439  14.572
 9500SOL     OW40378   3.133   0.731   3.000
 9500SOL    HW140379   3.145   0.801   3.064
 9500SOL    HW240380   3.052   0.688   3.025
 9501SOL     OW40381   1.399   0.317  19.744
 9501SOL    HW140382   1.364   0.262  19.814
 9501SOL    HW240383   1.327   0.375  19.720
 9502SOL     OW40384   4.320   2.790   0.880
 9502SOL    HW140385   4.275   2.862   0.924
 9502SOL    HW240386   4.250   2.744   0.833
 9503SOL     OW40387   1.860   0.199  14.690
 9503SOL    HW140388   1.955   0.192  14.685
 9503SOL    HW240389   1.830   0.110  14.706
 9504SOL     OW40390   3.653   1.116  16.933
 9504SOL    HW140391   3.643   1.081  16.845
 9504SOL    HW240392   3.734   1.168  16.928
 9505SOL     OW40393   0.512   1.956   0.599
 9505SOL    HW140394   0.451   1.992   0.535
 9505SOL    HW240395   0.458   1.936   0.675
 9506SOL     OW40396   1.638   0.212   2.717
 9506SOL    HW140397   1.617   0.118   2.723
 9506SOL    HW240398   1.587   0.252   2.787
 9507SOL     OW40399   4.444   1.677   4.153
 9507SOL    HW140400   4.477   1.652   4.066
 9507SOL    HW240401   4.392   1.755   4.137
 9508SOL     OW40402   3.869   2.603  17.007
 9508SOL    HW140403   3.901   2.551  16.934
 9508SOL    HW240404   3.844   2.687  16.968
 9509SOL     OW40405   3.728   4.370   6.561
 9509SOL    HW140406   3.646   4.407   6.592
 9509SOL    HW240407   3.715   4.276   6.564
 9510SOL     OW40408   2.149   2.661  16.172
 9510SOL    HW140409   2.169   2.647  16.079
 9510SOL    HW240410   2.070   2.714  16.172
 9511SOL     OW40411   3.268   4.489   3.375
 9511SOL    HW140412   3.341   4.446   3.420
 9511SOL    HW240413   3.229   4.420   3.322
 9512SOL     OW40414   0.753   1.298   2.345
 9512SOL    HW140415   0.745   1.251   2.262
 9512SOL    HW240416   0.772   1.388   2.319
 9513SOL     OW40417   4.580   1.661  16.944
 9513SOL    HW140418   4.569   1.567  16.961
 9513SOL    HW240419   4.655   1.666  16.885
 9514SOL     OW40420   0.408   3.436   6.645
 9514SOL    HW140421   0.443   3.511   6.692
 9514SOL    HW240422   0.429   3.453   6.553
 9515SOL     OW40423   1.138   1.440  19.307
 9515SOL    HW140424   1.125   1.531  19.281
 9515SOL    HW240425   1.231   1.435  19.328
 9516SOL     OW40426   4.543   0.111  19.712
 9516SOL    HW140427   4.617   0.170  19.731
 9516SOL    HW240428   4.482   0.165  19.662
 9517SOL     OW40429   0.701   0.507  20.768
 9517SOL    HW140430   0.675   0.428  20.816
 9517SOL    HW240431   0.790   0.526  20.799
 9518SOL     OW40432   0.466   2.421  14.362
 9518SOL    HW140433   0.455   2.376  14.278
 9518SOL    HW240434   0.391   2.480  14.368
 9519SOL     OW40435   3.585   3.706   3.014
 9519SOL    HW140436   3.634   3.626   3.033
 9519SOL    HW240437   3.639   3.752   2.950
 9520SOL     OW40438   2.776   2.268  12.916
 9520SOL    HW140439   2.827   2.188  12.916
 9520SOL    HW240440   2.778   2.299  12.826
 9521SOL     OW40441   2.211   3.375   0.414
 9521SOL    HW140442   2.130   3.400   0.460
 9521SOL    HW240443   2.265   3.334   0.481
 9522SOL     OW40444   2.902   1.593   3.093
 9522SOL    HW140445   2.939   1.661   3.149
 9522SOL    HW240446   2.912   1.512   3.142
 9523SOL     OW40447   2.740   1.950  19.052
 9523SOL    HW140448   2.646   1.941  19.072
 9523SOL    HW240449   2.774   1.861  19.057
 9524SOL     OW40450   2.449   4.407   6.066
 9524SOL    HW140451   2.522   4.466   6.049
 9524SOL    HW240452   2.390   4.419   5.992
 9525SOL     OW40453   2.417   4.237   4.466
 9525SOL    HW140454   2.400   4.330   4.478
 9525SOL    HW240455   2.464   4.210   4.546
 9526SOL     OW40456   2.229   0.280   5.234
 9526SOL    HW140457   2.224   0.194   5.193
 9526SOL    HW240458   2.191   0.268   5.321
 9527SOL     OW40459   3.935   1.307   3.672
 9527SOL    HW140460   3.982   1.312   3.588
 9527SOL    HW240461   3.986   1.246   3.725
 9528SOL     OW40462   0.574   2.015   2.949
 9528SOL    HW140463   0.491   2.060   2.967
 9528SOL    HW240464   0.585   2.021   2.854
 9529SOL     OW40465   0.173   2.500   5.997
 9529SOL    HW140466   0.116   2.520   6.071
 9529SOL    HW240467   0.235   2.572   5.994
 9530SOL     OW40468   3.483   2.143  18.560
 9530SOL    HW140469   3.550   2.114  18.499
 9530SOL    HW240470   3.485   2.239  18.555
 9531SOL     OW40471   3.450   2.482   3.091
 9531SOL    HW140472   3.398   2.410   3.127
 9531SOL    HW240473   3.523   2.439   3.047
 9532SOL     OW40474   1.477   0.086   4.648
 9532SOL    HW140475   1.485   0.181   4.654
 9532SOL    HW240476   1.565   0.052   4.665
 9533SOL     OW40477   2.596   4.061  19.432
 9533SOL    HW140478   2.547   4.011  19.497
 9533SOL    HW240479   2.529   4.096  19.374
 9534SOL     OW40480   2.292   4.274   1.868
 9534SOL    HW140481   2.330   4.195   1.907
 9534SOL    HW240482   2.351   4.344   1.896
 9535SOL     OW40483   2.054   3.435   7.453
 9535SOL    HW140484   2.000   3.415   7.530
 9535SOL    HW240485   2.062   3.351   7.407
 9536SOL     OW40486   0.157   1.191   2.725
 9536SOL    HW140487   0.175   1.106   2.764
 9536SOL    HW240488   0.062   1.191   2.711
 9537SOL     OW40489   1.430   4.255  21.053
 9537SOL    HW140490   1.355   4.202  21.079
 9537SOL    HW240491   1.402   4.345  21.069
 9538SOL     OW40492   2.547   0.097   0.092
 9538SOL    HW140493   2.474   0.144   0.130
 9538SOL    HW240494   2.558   0.020   0.148
 9539SOL     OW40495   3.370   3.273   1.392
 9539SOL    HW140496   3.303   3.329   1.352
 9539SOL    HW240497   3.381   3.201   1.331
 9540SOL     OW40498   4.264   0.897   1.917
 9540SOL    HW140499   4.317   0.970   1.883
 9540SOL    HW240500   4.181   0.905   1.870
 9541SOL     OW40501   2.270   1.030   0.530
 9541SOL    HW140502   2.180   1.059   0.545
 9541SOL    HW240503   2.291   0.976   0.606
 9542SOL     OW40504   2.208   3.383  18.114
 9542SOL    HW140505   2.190   3.298  18.074
 9542SOL    HW240506   2.245   3.361  18.200
 9543SOL     OW40507   3.237   4.125   0.080
 9543SOL    HW140508   3.147   4.146   0.104
 9543SOL    HW240509   3.259   4.049   0.133
 9544SOL     OW40510   4.403   3.641  20.344
 9544SOL    HW140511   4.474   3.697  20.375
 9544SOL    HW240512   4.323   3.682  20.377
 9545SOL     OW40513   1.525   1.942  17.632
 9545SOL    HW140514   1.600   1.955  17.575
 9545SOL    HW240515   1.556   1.965  17.719
 9546SOL     OW40516   2.401   1.939   1.766
 9546SOL    HW140517   2.459   1.864   1.781
 9546SOL    HW240518   2.313   1.903   1.771
 9547SOL     OW40519   0.404   2.177  19.971
 9547SOL    HW140520   0.370   2.169  19.882
 9547SOL    HW240521   0.497   2.155  19.964
 9548SOL     OW40522   3.288   2.578   6.534
 9548SOL    HW140523   3.239   2.650   6.574
 9548SOL    HW240524   3.369   2.618   6.504
 9549SOL     OW40525   3.850   1.363   8.507
 9549SOL    HW140526   3.879   1.285   8.460
 9549SOL    HW240527   3.758   1.374   8.481
 9550SOL     OW40528   2.607   4.083  15.381
 9550SOL    HW140529   2.635   3.997  15.349
 9550SOL    HW240530   2.639   4.144  15.314
 9551SOL     OW40531   0.482   1.770  15.128
 9551SOL    HW140532   0.410   1.829  15.153
 9551SOL    HW240533   0.439   1.686  15.110
 9552SOL     OW40534   1.216   0.670  15.207
 9552SOL    HW140535   1.292   0.645  15.154
 9552SOL    HW240536   1.179   0.746  15.163
 9553SOL     OW40537   3.818   4.556   4.766
 9553SOL    HW140538   3.902   4.520   4.738
 9553SOL    HW240539   3.770   4.481   4.801
 9554SOL     OW40540   3.153   2.644  19.279
 9554SOL    HW140541   3.098   2.690  19.215
 9554SOL    HW240542   3.189   2.570  19.231
 9555SOL     OW40543   2.612   2.482   2.226
 9555SOL    HW140544   2.574   2.559   2.268
 9555SOL    HW240545   2.608   2.413   2.293
 9556SOL     OW40546   2.737   2.734   1.415
 9556SOL    HW140547   2.671   2.759   1.480
 9556SOL    HW240548   2.806   2.800   1.425
 9557SOL     OW40549   0.907   0.275  13.712
 9557SOL    HW140550   0.982   0.246  13.660
 9557SOL    HW240551   0.931   0.364  13.740
 9558SOL     OW40552   3.464   3.017   3.617
 9558SOL    HW140553   3.456   2.958   3.542
 9558SOL    HW240554   3.558   3.027   3.630
 9559SOL     OW40555   4.059   3.083   2.972
 9559SOL    HW140556   4.138   3.136   2.961
 9559SOL    HW240557   4.086   3.010   3.027
 9560SOL     OW40558   2.816   3.581  16.330
 9560SOL    HW140559   2.873   3.506  16.344
 9560SOL    HW240560   2.769   3.592  16.413
 9561SOL     OW40561   4.667   3.942  14.071
 9561SOL    HW140562   4.709   3.877  14.014
 9561SOL    HW240563   4.618   3.998  14.011
 9562SOL     OW40564   1.067   4.744  18.181
 9562SOL    HW140565   1.072   4.658  18.140
 9562SOL    HW240566   1.082   4.728  18.274
 9563SOL     OW40567   0.409   4.212   3.324
 9563SOL    HW140568   0.480   4.174   3.376
 9563SOL    HW240569   0.355   4.259   3.388
 9564SOL     OW40570   0.408   1.962  20.137
 9564SOL    HW140571   0.488   1.928  20.096
 9564SOL    HW240572   0.395   2.047  20.095
 9565SOL     OW40573   2.758   0.886   2.132
 9565SOL    HW140574   2.713   0.957   2.087
 9565SOL    HW240575   2.806   0.928   2.203
 9566SOL     OW40576   3.770   2.280   5.905
 9566SOL    HW140577   3.767   2.281   5.809
 9566SOL    HW240578   3.735   2.194   5.929
 9567SOL     OW40579   2.857   3.553  14.936
 9567SOL    HW140580   2.784   3.493  14.952
 9567SOL    HW240581   2.864   3.558  14.841
 9568SOL     OW40582   4.283   4.450   2.108
 9568SOL    HW140583   4.350   4.401   2.156
 9568SOL    HW240584   4.280   4.408   2.022
 9569SOL     OW40585   4.162   3.246  20.467
 9569SOL    HW140586   4.176   3.231  20.373
 9569SOL    HW240587   4.192   3.165  20.509
 9570SOL     OW40588   0.365   4.528  18.709
 9570SOL    HW140589   0.378   4.548  18.617
 9570SOL    HW240590   0.296   4.589  18.738
 9571SOL     OW40591   0.003   3.562   5.953
 9571SOL    HW140592   0.086   3.565   6.001
 9571SOL    HW240593   4.732   3.598   6.014
 9572SOL     OW40594   2.337   0.615   2.329
 9572SOL    HW140595   2.281   0.670   2.275
 9572SOL    HW240596   2.365   0.544   2.271
 9573SOL     OW40597   3.594   1.928   4.682
 9573SOL    HW140598   3.553   1.873   4.748
 9573SOL    HW240599   3.648   1.867   4.630
 9574SOL     OW40600   4.220   4.475  20.849
 9574SOL    HW140601   4.227   4.566  20.818
 9574SOL    HW240602   4.241   4.480  20.942
 9575SOL     OW40603   1.409   1.269   4.099
 9575SOL    HW140604   1.351   1.200   4.130
 9575SOL    HW240605   1.435   1.242   4.011
 9576SOL     OW40606   4.764   2.989   6.890
 9576SOL    HW140607   4.710   2.946   6.824
 9576SOL    HW240608   4.706   3.053   6.931
 9577SOL     OW40609   4.604   0.319  17.629
 9577SOL    HW140610   4.584   0.238  17.582
 9577SOL    HW240611   4.547   0.317  17.706
 9578SOL     OW40612   4.591   2.956   1.555
 9578SOL    HW140613   4.539   2.883   1.521
 9578SOL    HW240614   4.679   2.920   1.565
 9579SOL     OW40615   4.535   1.015  18.440
 9579SOL    HW140616   4.525   1.057  18.354
 9579SOL    HW240617   4.585   1.078  18.492
 9580SOL     OW40618   4.473   4.094   2.780
 9580SOL    HW140619   4.531   4.138   2.841
 9580SOL    HW240620   4.386   4.127   2.802
 9581SOL     OW40621   1.740   0.117   4.660
 9581SOL    HW140622   1.806   0.051   4.680
 9581SOL    HW240623   1.790   0.190   4.623
 9582SOL     OW40624   2.127   4.089   5.024
 9582SOL    HW140625   2.126   4.003   5.066
 9582SOL    HW240626   2.175   4.075   4.942
 9583SOL     OW40627   4.543   2.117   5.788
 9583SOL    HW140628   4.611   2.183   5.772
 9583SOL    HW240629   4.486   2.156   5.854
 9584SOL     OW40630   0.156   3.399   2.500
 9584SOL    HW140631   0.225   3.345   2.463
 9584SOL    HW240632   0.075   3.362   2.465
 9585SOL     OW40633   3.976   0.279  18.981
 9585SOL    HW140634   4.054   0.328  19.007
 9585SOL    HW240635   4.011   0.202  18.936
 9586SOL     OW40636   0.619   2.720  17.121
 9586SOL    HW140637   0.712   2.723  17.099
 9586SOL    HW240638   0.577   2.776  17.057
 9587SOL     OW40639   1.364   2.741   2.632
 9587SOL    HW140640   1.291   2.790   2.669
 9587SOL    HW240641   1.332   2.708   2.548
 9588SOL     OW40642   4.402   4.433  13.410
 9588SOL    HW140643   4.457   4.380  13.468
 9588SOL    HW240644   4.464   4.490  13.364
 9589SOL     OW40645   2.505   2.824   6.302
 9589SOL    HW140646   2.452   2.884   6.354
 9589SOL    HW240647   2.593   2.833   6.339
 9590SOL     OW40648   2.660   2.905  16.590
 9590SOL    HW140649   2.721   2.936  16.656
 9590SOL    HW240650   2.601   2.846  16.637
 9591SOL     OW40651   4.704   4.079  15.935
 9591SOL    HW140652   4.703   4.088  15.840
 9591SOL    HW240653   4.698   4.168  15.969
 9592SOL     OW40654   1.830   0.556   4.981
 9592SOL    HW140655   1.921   0.587   4.975
 9592SOL    HW240656   1.814   0.513   4.897
 9593SOL     OW40657   0.207   2.621  19.061
 9593SOL    HW140658   0.229   2.531  19.038
 9593SOL    HW240659   0.112   2.620  19.075
 9594SOL     OW40660   0.300   4.429   4.762
 9594SOL    HW140661   0.296   4.404   4.855
 9594SOL    HW240662   0.393   4.434   4.742
 9595SOL     OW40663   1.791   2.386  15.803
 9595SOL    HW140664   1.839   2.428  15.875
 9595SOL    HW240665   1.741   2.317  15.846
 9596SOL     OW40666   4.361   2.429  19.524
 9596SOL    HW140667   4.359   2.427  19.620
 9596SOL    HW240668   4.426   2.363  19.500
 9597SOL     OW40669   3.606   2.605  21.115
 9597SOL    HW140670   3.577   2.531  21.062
 9597SOL    HW240671   3.701   2.593  21.123
 9598SOL     OW40672   4.021   3.756   5.619
 9598SOL    HW140673   3.952   3.715   5.670
 9598SOL    HW240674   3.975   3.798   5.546
 9599SOL     OW40675   3.248   1.432  19.955
 9599SOL    HW140676   3.291   1.482  20.024
 9599SOL    HW240677   3.320   1.407  19.895
 9600SOL     OW40678   2.740   0.721   1.753
 9600SOL    HW140679   2.804   0.785   1.725
 9600SOL    HW240680   2.770   0.638   1.716
 9601SOL     OW40681   3.760   0.951   1.917
 9601SOL    HW140682   3.683   1.007   1.926
 9601SOL    HW240683   3.725   0.867   1.887
 9602SOL     OW40684   1.125   2.633   6.215
 9602SOL    HW140685   1.184   2.603   6.284
 9602SOL    HW240686   1.057   2.567   6.211
 9603SOL     OW40687   1.486   4.545   6.073
 9603SOL    HW140688   1.508   4.452   6.071
 9603SOL    HW240689   1.480   4.566   6.166
 9604SOL     OW40690   2.745   1.733   8.078
 9604SOL    HW140691   2.705   1.819   8.071
 9604SOL    HW240692   2.832   1.750   8.114
 9605SOL     OW40693   3.062   2.806  17.448
 9605SOL    HW140694   3.118   2.786  17.373
 9605SOL    HW240695   3.079   2.736  17.510
 9606SOL     OW40696   1.334   2.976  16.488
 9606SOL    HW140697   1.245   2.986  16.454
 9606SOL    HW240698   1.375   2.913  16.429
 9607SOL     OW40699   3.569   4.108  14.774
 9607SOL    HW140700   3.652   4.093  14.820
 9607SOL    HW240701   3.503   4.107  14.843
 9608SOL     OW40702   3.165   4.376  20.316
 9608SOL    HW140703   3.248   4.329  20.310
 9608SOL    HW240704   3.188   4.460  20.356
 9609SOL     OW40705   1.642   4.492  19.689
 9609SOL    HW140706   1.585   4.416  19.700
 9609SOL    HW240707   1.593   4.565  19.726
 9610SOL     OW40708   3.274   0.340  19.615
 9610SOL    HW140709   3.234   0.271  19.562
 9610SOL    HW240710   3.367   0.316  19.620
 9611SOL     OW40711   2.251   3.919   0.339
 9611SOL    HW140712   2.189   3.876   0.280
 9611SOL    HW240713   2.337   3.890   0.308
 9612SOL     OW40714   4.409   3.800   4.362
 9612SOL    HW140715   4.455   3.737   4.417
 9612SOL    HW240716   4.334   3.829   4.415
 9613SOL     OW40717   2.564   2.007   4.626
 9613SOL    HW140718   2.540   1.946   4.696
 9613SOL    HW240719   2.659   1.999   4.619
 9614SOL     OW40720   1.700   2.307   1.808
 9614SOL    HW140721   1.785   2.279   1.774
 9614SOL    HW240722   1.647   2.227   1.810
 9615SOL     OW40723   0.334   0.202  20.702
 9615SOL    HW140724   0.393   0.251  20.645
 9615SOL    HW240725   0.299   0.267  20.762
 9616SOL     OW40726   2.381   3.877  19.516
 9616SOL    HW140727   2.338   3.822  19.581
 9616SOL    HW240728   2.414   3.816  19.450
 9617SOL     OW40729   2.698   2.243  18.121
 9617SOL    HW140730   2.624   2.184  18.138
 9617SOL    HW240731   2.767   2.211  18.180
 9618SOL     OW40732   1.592   3.996   4.239
 9618SOL    HW140733   1.499   3.985   4.221
 9618SOL    HW240734   1.603   3.966   4.329
 9619SOL     OW40735   1.658   1.937   0.263
 9619SOL    HW140736   1.695   1.858   0.223
 9619SOL    HW240737   1.681   1.930   0.356
 9620SOL     OW40738   1.139   0.345   4.337
 9620SOL    HW140739   1.218   0.301   4.307
 9620SOL    HW240740   1.097   0.376   4.256
 9621SOL     OW40741   2.566   0.883  17.583
 9621SOL    HW140742   2.521   0.876  17.668
 9621SOL    HW240743   2.659   0.893  17.606
 9622SOL     OW40744   3.893   2.381   5.247
 9622SOL    HW140745   3.818   2.392   5.304
 9622SOL    HW240746   3.955   2.330   5.298
 9623SOL     OW40747   1.086   2.869  20.188
 9623SOL    HW140748   1.076   2.774  20.182
 9623SOL    HW240749   1.181   2.883  20.186
 9624SOL     OW40750   1.862   4.411   1.051
 9624SOL    HW140751   1.909   4.457   1.120
 9624SOL    HW240752   1.782   4.378   1.094
 9625SOL     OW40753   0.787   2.056   5.886
 9625SOL    HW140754   0.705   2.101   5.906
 9625SOL    HW240755   0.822   2.102   5.809
 9626SOL     OW40756   0.163   0.660   3.340
 9626SOL    HW140757   0.088   0.601   3.335
 9626SOL    HW240758   0.196   0.651   3.429
 9627SOL     OW40759   0.329   0.116  16.983
 9627SOL    HW140760   0.403   0.167  16.949
 9627SOL    HW240761   0.283   0.176  17.042
 9628SOL     OW40762   2.329   3.477   2.343
 9628SOL    HW140763   2.414   3.444   2.371
 9628SOL    HW240764   2.302   3.536   2.413
 9629SOL     OW40765   3.321   3.141   4.135
 9629SOL    HW140766   3.285   3.073   4.077
 9629SOL    HW240767   3.413   3.146   4.112
 9630SOL     OW40768   3.681   4.167  11.843
 9630SOL    HW140769   3.768   4.151  11.881
 9630SOL    HW240770   3.674   4.263  11.840
 9631SOL     OW40771   2.181   4.563  20.080
 9631SOL    HW140772   2.243   4.529  20.144
 9631SOL    HW240773   2.212   4.530  19.996
 9632SOL     OW40774   2.849   0.768  14.104
 9632SOL    HW140775   2.922   0.797  14.159
 9632SOL    HW240776   2.771   0.785  14.157
 9633SOL     OW40777   3.669   4.515   3.764
 9633SOL    HW140778   3.583   4.505   3.805
 9633SOL    HW240779   3.732   4.507   3.836
 9634SOL     OW40780   0.349   2.659   5.258
 9634SOL    HW140781   0.374   2.723   5.191
 9634SOL    HW240782   0.381   2.696   5.340
 9635SOL     OW40783   0.361   2.144  18.032
 9635SOL    HW140784   0.401   2.062  18.061
 9635SOL    HW240785   0.413   2.172  17.957
 9636SOL     OW40786   3.704   4.709  18.296
 9636SOL    HW140787   3.692   4.665  18.380
 9636SOL    HW240788   3.630   4.680  18.242
 9637SOL     OW40789   1.060   2.357   5.662
 9637SOL    HW140790   1.143   2.323   5.695
 9637SOL    HW240791   0.999   2.284   5.669
 9638SOL     OW40792   1.598   2.630  18.994
 9638SOL    HW140793   1.588   2.543  18.955
 9638SOL    HW240794   1.625   2.613  19.085
 9639SOL     OW40795   3.186   4.395   2.743
 9639SOL    HW140796   3.116   4.362   2.800
 9639SOL    HW240797   3.146   4.468   2.696
 9640SOL     OW40798   3.974   0.871  17.032
 9640SOL    HW140799   3.980   0.965  17.017
 9640SOL    HW240800   3.987   0.833  16.945
 9641SOL     OW40801   1.703   0.796   1.022
 9641SOL    HW140802   1.635   0.858   0.996
 9641SOL    HW240803   1.723   0.748   0.942
 9642SOL     OW40804   2.753   0.173   0.542
 9642SOL    HW140805   2.728   0.082   0.555
 9642SOL    HW240806   2.801   0.173   0.459
 9643SOL     OW40807   3.280   0.796  17.847
 9643SOL    HW140808   3.262   0.708  17.812
 9643SOL    HW240809   3.374   0.794  17.868
 9644SOL     OW40810   2.903   3.859  18.139
 9644SOL    HW140811   2.888   3.952  18.156
 9644SOL    HW240812   2.816   3.820  18.137
 9645SOL     OW40813   3.002   1.676   2.390
 9645SOL    HW140814   3.056   1.748   2.357
 9645SOL    HW240815   2.922   1.680   2.338
 9646SOL     OW40816   4.650   4.294  15.500
 9646SOL    HW140817   4.560   4.293  15.468
 9646SOL    HW240818   4.646   4.347  15.580
 9647SOL     OW40819   3.417   0.411  18.020
 9647SOL    HW140820   3.389   0.433  17.932
 9647SOL    HW240821   3.340   0.426  18.075
 9648SOL     OW40822   1.297   1.468   4.268
 9648SOL    HW140823   1.344   1.551   4.274
 9648SOL    HW240824   1.352   1.413   4.212
 9649SOL     OW40825   1.272   3.728  15.264
 9649SOL    HW140826   1.256   3.663  15.332
 9649SOL    HW240827   1.192   3.729  15.212
 9650SOL     OW40828   2.086   4.585   6.562
 9650SOL    HW140829   2.105   4.628   6.478
 9650SOL    HW240830   1.991   4.571   6.561
 9651SOL     OW40831   1.316   3.790  17.845
 9651SOL    HW140832   1.338   3.881  17.824
 9651SOL    HW240833   1.308   3.747  17.760
 9652SOL     OW40834   3.982   3.129   1.505
 9652SOL    HW140835   3.942   3.107   1.589
 9652SOL    HW240836   4.056   3.069   1.497
 9653SOL     OW40837   2.139   2.596   1.338
 9653SOL    HW140838   2.172   2.561   1.421
 9653SOL    HW240839   2.079   2.666   1.363
 9654SOL     OW40840   0.601   1.286  18.261
 9654SOL    HW140841   0.510   1.306  18.282
 9654SOL    HW240842   0.652   1.352  18.307
 9655SOL     OW40843   4.176   3.122   0.507
 9655SOL    HW140844   4.133   3.045   0.470
 9655SOL    HW240845   4.206   3.093   0.593
 9656SOL     OW40846   3.206   0.201   3.856
 9656SOL    HW140847   3.290   0.235   3.825
 9656SOL    HW240848   3.205   0.221   3.950
 9657SOL     OW40849   2.578   3.056  14.655
 9657SOL    HW140850   2.600   2.991  14.587
 9657SOL    HW240851   2.553   3.003  14.731
 9658SOL     OW40852   1.753   1.082   1.754
 9658SOL    HW140853   1.745   1.021   1.681
 9658SOL    HW240854   1.818   1.043   1.813
 9659SOL     OW40855   0.368   1.224   0.935
 9659SOL    HW140856   0.443   1.194   0.883
 9659SOL    HW240857   0.302   1.156   0.923
 9660SOL     OW40858   1.805   2.066   7.038
 9660SOL    HW140859   1.817   1.983   6.992
 9660SOL    HW240860   1.715   2.063   7.070
 9661SOL     OW40861   2.329   1.838  18.509
 9661SOL    HW140862   2.261   1.872  18.451
 9661SOL    HW240863   2.292   1.756  18.543
 9662SOL     OW40864   3.969   3.247  20.188
 9662SOL    HW140865   3.994   3.306  20.117
 9662SOL    HW240866   4.023   3.169  20.175
 9663SOL     OW40867   2.266   0.641   3.608
 9663SOL    HW140868   2.272   0.595   3.525
 9663SOL    HW240869   2.251   0.572   3.673
 9664SOL     OW40870   4.030   0.798   4.829
 9664SOL    HW140871   4.035   0.870   4.892
 9664SOL    HW240872   3.971   0.828   4.761
 9665SOL     OW40873   1.563   3.733  16.749
 9665SOL    HW140874   1.528   3.806  16.698
 9665SOL    HW240875   1.630   3.774  16.804
 9666SOL     OW40876   4.226   4.731   2.976
 9666SOL    HW140877   4.317   4.738   2.948
 9666SOL    HW240878   4.194   4.649   2.939
 9667SOL     OW40879   3.818   4.518   2.827
 9667SOL    HW140880   3.870   4.563   2.760
 9667SOL    HW240881   3.733   4.561   2.825
 9668SOL     OW40882   3.157   3.032   3.916
 9668SOL    HW140883   3.063   3.042   3.898
 9668SOL    HW240884   3.174   2.939   3.898
 9669SOL     OW40885   0.288   0.632  20.640
 9669SOL    HW140886   0.208   0.597  20.679
 9669SOL    HW240887   0.325   0.689  20.707
 9670SOL     OW40888   4.712   1.936   8.225
 9670SOL    HW140889   4.721   1.996   8.152
 9670SOL    HW240890   4.677   1.989   8.296
 9671SOL     OW40891   2.422   2.271  17.001
 9671SOL    HW140892   2.419   2.326  17.079
 9671SOL    HW240893   2.482   2.316  16.942
 9672SOL     OW40894   1.240   1.561   6.726
 9672SOL    HW140895   1.312   1.522   6.676
 9672SOL    HW240896   1.163   1.548   6.671
 9673SOL     OW40897   2.401   1.046  15.492
 9673SOL    HW140898   2.475   1.061  15.549
 9673SOL    HW240899   2.439   1.013  15.410
 9674SOL     OW40900   1.377   3.528   6.054
 9674SOL    HW140901   1.439   3.561   5.989
 9674SOL    HW240902   1.433   3.496   6.125
 9675SOL     OW40903   1.607   4.168   1.914
 9675SOL    HW140904   1.524   4.127   1.937
 9675SOL    HW240905   1.670   4.096   1.910
 9676SOL     OW40906   1.154   1.943  14.128
 9676SOL    HW140907   1.182   1.853  14.143
 9676SOL    HW240908   1.059   1.939  14.124
 9677SOL     OW40909   0.779   3.813   5.194
 9677SOL    HW140910   0.809   3.802   5.284
 9677SOL    HW240911   0.738   3.729   5.172
 9678SOL     OW40912   0.120   2.839  21.046
 9678SOL    HW140913   0.096   2.853  20.954
 9678SOL    HW240914   0.091   2.751  21.065
 9679SOL     OW40915   3.117   2.444   7.227
 9679SOL    HW140916   3.058   2.462   7.154
 9679SOL    HW240917   3.100   2.353   7.250
 9680SOL     OW40918   3.599   2.965  17.075
 9680SOL    HW140919   3.535   3.017  17.124
 9680SOL    HW240920   3.684   3.001  17.101
 9681SOL     OW40921   2.071   2.812   0.849
 9681SOL    HW140922   2.052   2.870   0.776
 9681SOL    HW240923   2.163   2.787   0.836
 9682SOL     OW40924   2.695   1.411   1.903
 9682SOL    HW140925   2.624   1.367   1.950
 9682SOL    HW240926   2.725   1.479   1.964
 9683SOL     OW40927   1.887   1.719  20.461
 9683SOL    HW140928   1.818   1.726  20.395
 9683SOL    HW240929   1.905   1.625  20.466
 9684SOL     OW40930   0.994   4.099  17.399
 9684SOL    HW140931   1.005   4.009  17.369
 9684SOL    HW240932   0.929   4.094  17.469
 9685SOL     OW40933   4.442   0.421   6.992
 9685SOL    HW140934   4.489   0.461   7.066
 9685SOL    HW240935   4.411   0.337   7.026
 9686SOL     OW40936   2.790   4.698   0.238
 9686SOL    HW140937   2.761   4.705   0.330
 9686SOL    HW240938   2.732   4.632   0.201
 9687SOL     OW40939   3.580   3.229  18.529
 9687SOL    HW140940   3.598   3.147  18.483
 9687SOL    HW240941   3.495   3.215  18.571
 9688SOL     OW40942   3.964   1.372   6.662
 9688SOL    HW140943   3.871   1.383   6.684
 9688SOL    HW240944   3.993   1.299   6.717
 9689SOL     OW40945   2.867   3.770  16.146
 9689SOL    HW140946   2.863   3.698  16.209
 9689SOL    HW240947   2.860   3.728  16.061
 9690SOL     OW40948   0.608   1.038  19.685
 9690SOL    HW140949   0.645   0.975  19.622
 9690SOL    HW240950   0.534   0.991  19.725
 9691SOL     OW40951   4.595   1.679   3.238
 9691SOL    HW140952   4.579   1.725   3.320
 9691SOL    HW240953   4.526   1.709   3.179
 9692SOL     OW40954   3.767   3.107  19.852
 9692SOL    HW140955   3.693   3.116  19.793
 9692SOL    HW240956   3.788   3.013  19.850
 9693SOL     OW40957   4.714   0.651   6.878
 9693SOL    HW140958   4.780   0.585   6.855
 9693SOL    HW240959   4.678   0.620   6.962
 9694SOL     OW40960   3.916   0.677  17.855
 9694SOL    HW140961   3.910   0.582  17.843
 9694SOL    HW240962   3.920   0.712  17.766
 9695SOL     OW40963   1.012   2.420  16.454
 9695SOL    HW140964   1.023   2.511  16.425
 9695SOL    HW240965   1.085   2.406  16.515
 9696SOL     OW40966   4.652   1.978   2.772
 9696SOL    HW140967   4.720   1.993   2.837
 9696SOL    HW240968   4.596   2.055   2.777
 9697SOL     OW40969   2.294   4.454  13.544
 9697SOL    HW140970   2.233   4.524  13.564
 9697SOL    HW240971   2.378   4.485  13.577
 9698SOL     OW40972   2.848   4.268   0.446
 9698SOL    HW140973   2.940   4.254   0.422
 9698SOL    HW240974   2.851   4.303   0.535
 9699SOL     OW40975   3.895   3.763   9.394
 9699SOL    HW140976   3.865   3.818   9.466
 9699SOL    HW240977   3.969   3.714   9.430
 9700SOL     OW40978   4.152   3.685  20.277
 9700SOL    HW140979   4.108   3.636  20.347
 9700SOL    HW240980   4.081   3.712  20.219
 9701SOL     OW40981   4.307   4.014  19.097
 9701SOL    HW140982   4.226   3.963  19.089
 9701SOL    HW240983   4.291   4.074  19.169
 9702SOL     OW40984   3.913   1.304   6.394
 9702SOL    HW140985   3.951   1.293   6.481
 9702SOL    HW240986   3.971   1.366   6.350
 9703SOL     OW40987   4.293   3.229  13.939
 9703SOL    HW140988   4.311   3.302  13.999
 9703SOL    HW240989   4.368   3.229  13.880
 9704SOL     OW40990   4.098   0.465  20.064
 9704SOL    HW140991   4.061   0.452  20.152
 9704SOL    HW240992   4.193   0.456  20.076
 9705SOL     OW40993   4.157   1.984   2.592
 9705SOL    HW140994   4.124   1.989   2.682
 9705SOL    HW240995   4.102   2.045   2.542
 9706SOL     OW40996   0.577   0.219  14.506
 9706SOL    HW140997   0.531   0.283  14.561
 9706SOL    HW240998   0.511   0.153  14.486
 9707SOL     OW40999   4.348   4.745   3.430
 9707SOL    HW141000   4.313   0.032   3.392
 9707SOL    HW241001   4.318   4.747   3.521
 9708SOL     OW41002   2.380   3.876   5.194
 9708SOL    HW141003   2.461   3.837   5.228
 9708SOL    HW241004   2.350   3.933   5.265
 9709SOL     OW41005   4.537   3.759   6.884
 9709SOL    HW141006   4.543   3.721   6.797
 9709SOL    HW241007   4.472   3.705   6.929
 9710SOL     OW41008   3.444   4.550  19.694
 9710SOL    HW141009   3.462   4.588  19.780
 9710SOL    HW241010   3.396   4.470  19.712
 9711SOL     OW41011   1.627   0.075   3.285
 9711SOL    HW141012   1.586   0.160   3.275
 9711SOL    HW241013   1.718   0.094   3.309
 9712SOL     OW41014   2.566   4.202  18.831
 9712SOL    HW141015   2.620   4.179  18.907
 9712SOL    HW241016   2.582   4.131  18.768
 9713SOL     OW41017   4.501   1.617   5.041
 9713SOL    HW141018   4.489   1.614   5.136
 9713SOL    HW241019   4.544   1.534   5.019
 9714SOL     OW41020   3.954   0.936   5.958
 9714SOL    HW141021   4.029   0.913   5.903
 9714SOL    HW241022   3.991   0.993   6.025
 9715SOL     OW41023   2.530   0.494  16.336
 9715SOL    HW141024   2.484   0.566  16.293
 9715SOL    HW241025   2.577   0.535  16.408
 9716SOL     OW41026   3.635   1.260  16.544
 9716SOL    HW141027   3.640   1.169  16.574
 9716SOL    HW241028   3.700   1.266  16.474
 9717SOL     OW41029   3.968   4.066   3.660
 9717SOL    HW141030   4.037   4.019   3.708
 9717SOL    HW241031   3.973   4.156   3.693
 9718SOL     OW41032   0.517   3.829  13.892
 9718SOL    HW141033   0.472   3.744  13.898
 9718SOL    HW241034   0.461   3.889  13.942
 9719SOL     OW41035   0.866   0.439  15.117
 9719SOL    HW141036   0.876   0.519  15.168
 9719SOL    HW241037   0.955   0.417  15.089
 9720SOL     OW41038   1.107   3.813  14.618
 9720SOL    HW141039   1.045   3.776  14.554
 9720SOL    HW241040   1.186   3.832  14.567
 9721SOL     OW41041   0.180   0.588   4.982
 9721SOL    HW141042   0.186   0.613   4.890
 9721SOL    HW241043   0.168   0.670   5.029
 9722SOL     OW41044   2.164   1.515   4.494
 9722SOL    HW141045   2.204   1.591   4.537
 9722SOL    HW241046   2.173   1.444   4.557
 9723SOL     OW41047   2.391   2.239   5.721
 9723SOL    HW141048   2.467   2.249   5.779
 9723SOL    HW241049   2.412   2.294   5.645
 9724SOL     OW41050   0.924   1.518   2.880
 9724SOL    HW141051   0.870   1.443   2.855
 9724SOL    HW241052   1.003   1.510   2.826
 9725SOL     OW41053   4.671   4.163   3.244
 9725SOL    HW141054   4.582   4.148   3.276
 9725SOL    HW241055   4.717   4.205   3.317
 9726SOL     OW41056   2.253   2.664  16.822
 9726SOL    HW141057   2.270   2.595  16.757
 9726SOL    HW241058   2.162   2.651  16.847
 9727SOL     OW41059   4.478   2.589  16.118
 9727SOL    HW141060   4.433   2.644  16.182
 9727SOL    HW241061   4.417   2.583  16.045
 9728SOL     OW41062   4.025   0.094  17.289
 9728SOL    HW141063   4.083   0.169  17.304
 9728SOL    HW241064   4.078   0.031  17.240
 9729SOL     OW41065   1.360   3.096  19.065
 9729SOL    HW141066   1.354   3.135  19.152
 9729SOL    HW241067   1.449   3.063  19.059
 9730SOL     OW41068   4.304   3.348   3.544
 9730SOL    HW141069   4.306   3.439   3.575
 9730SOL    HW241070   4.322   3.354   3.450
 9731SOL     OW41071   0.703   4.078   5.193
 9731SOL    HW141072   0.730   3.987   5.183
 9731SOL    HW241073   0.654   4.080   5.276
 9732SOL     OW41074   1.025   0.951   1.752
 9732SOL    HW141075   0.980   0.873   1.720
 9732SOL    HW241076   1.014   0.947   1.847
 9733SOL     OW41077   2.346   1.313   3.394
 9733SOL    HW141078   2.405   1.248   3.432
 9733SOL    HW241079   2.333   1.283   3.304
 9734SOL     OW41080   1.051   1.077   2.688
 9734SOL    HW141081   0.991   1.145   2.656
 9734SOL    HW241082   1.084   1.035   2.608
 9735SOL     OW41083   3.154   0.143  20.149
 9735SOL    HW141084   3.230   0.151  20.091
 9735SOL    HW241085   3.192   0.142  20.238
 9736SOL     OW41086   1.073   1.190   1.434
 9736SOL    HW141087   1.144   1.200   1.497
 9736SOL    HW241088   1.060   1.279   1.399
 9737SOL     OW41089   4.049   1.476  13.712
 9737SOL    HW141090   4.007   1.523  13.784
 9737SOL    HW241091   3.982   1.417  13.679
 9738SOL     OW41092   3.971   1.194   2.801
 9738SOL    HW141093   4.040   1.182   2.866
 9738SOL    HW241094   4.003   1.148   2.723
 9739SOL     OW41095   0.160   0.155  18.462
 9739SOL    HW141096   0.134   0.181  18.550
 9739SOL    HW241097   0.242   0.201  18.446
 9740SOL     OW41098   2.826   1.705  19.045
 9740SOL    HW141099   2.887   1.709  18.971
 9740SOL    HW241100   2.767   1.633  19.023
 9741SOL     OW41101   2.756   0.042  20.146
 9741SOL    HW141102   2.819   0.093  20.094
 9741SOL    HW241103   2.768   0.075  20.235
 9742SOL     OW41104   1.253   3.635   1.011
 9742SOL    HW141105   1.263   3.660   0.919
 9742SOL    HW241106   1.331   3.667   1.054
 9743SOL     OW41107   0.024   1.121   5.398
 9743SOL    HW141108   4.764   1.200   5.412
 9743SOL    HW241109   0.094   1.150   5.339
 9744SOL     OW41110   1.453   1.206  13.829
 9744SOL    HW141111   1.493   1.223  13.744
 9744SOL    HW241112   1.522   1.226  13.893
 9745SOL     OW41113   4.378   0.664   6.298
 9745SOL    HW141114   4.466   0.632   6.316
 9745SOL    HW241115   4.326   0.632   6.372
 9746SOL     OW41116   0.102   3.432  19.256
 9746SOL    HW141117   0.172   3.434  19.321
 9746SOL    HW241118   0.022   3.421  19.307
 9747SOL     OW41119   2.119   4.164   8.036
 9747SOL    HW141120   2.145   4.134   8.123
 9747SOL    HW241121   2.190   4.222   8.009
 9748SOL     OW41122   0.771   3.655   3.878
 9748SOL    HW141123   0.767   3.744   3.913
 9748SOL    HW241124   0.679   3.628   3.871
 9749SOL     OW41125   2.708   0.825   1.123
 9749SOL    HW141126   2.779   0.802   1.183
 9749SOL    HW241127   2.687   0.743   1.078
 9750SOL     OW41128   3.384   3.572   2.530
 9750SOL    HW141129   3.365   3.480   2.550
 9750SOL    HW241130   3.445   3.598   2.599
 9751SOL     OW41131   2.385   2.130  20.110
 9751SOL    HW141132   2.456   2.072  20.141
 9751SOL    HW241133   2.383   2.200  20.175
 9752SOL     OW41134   0.031   2.633   0.834
 9752SOL    HW141135   0.051   2.561   0.894
 9752SOL    HW241136   0.080   2.612   0.755
 9753SOL     OW41137   2.819   1.606   9.669
 9753SOL    HW141138   2.870   1.617   9.749
 9753SOL    HW241139   2.880   1.563   9.608
 9754SOL     OW41140   1.453   1.916   4.382
 9754SOL    HW141141   1.530   1.963   4.416
 9754SOL    HW241142   1.394   1.985   4.352
 9755SOL     OW41143   2.005   3.047   1.026
 9755SOL    HW141144   2.061   2.980   0.986
 9755SOL    HW241145   2.066   3.113   1.059
 9756SOL     OW41146   2.416   3.081   7.067
 9756SOL    HW141147   2.389   2.997   7.102
 9756SOL    HW241148   2.464   3.123   7.139
 9757SOL     OW41149   3.980   2.942   7.040
 9757SOL    HW141150   4.052   2.998   7.069
 9757SOL    HW241151   3.941   2.909   7.120
 9758SOL     OW41152   0.100   4.096  19.917
 9758SOL    HW141153   0.115   4.133  20.004
 9758SOL    HW241154   0.006   4.105  19.903
 9759SOL     OW41155   1.964   1.548   5.909
 9759SOL    HW141156   1.995   1.510   5.827
 9759SOL    HW241157   2.032   1.610   5.935
 9760SOL     OW41158   3.000   0.206   4.693
 9760SOL    HW141159   3.080   0.210   4.743
 9760SOL    HW241160   3.000   0.286   4.640
 9761SOL     OW41161   0.858   0.013  13.695
 9761SOL    HW141162   0.869   0.027  13.601
 9761SOL    HW241163   0.863   0.100  13.733
 9762SOL     OW41164   1.433   4.642   1.575
 9762SOL    HW141165   1.442   4.665   1.668
 9762SOL    HW241166   1.414   4.725   1.532
 9763SOL     OW41167   0.060   3.606   3.476
 9763SOL    HW141168   0.152   3.582   3.462
 9763SOL    HW241169   0.010   3.530   3.445
 9764SOL     OW41170   3.326   1.191   3.609
 9764SOL    HW141171   3.405   1.162   3.562
 9764SOL    HW241172   3.284   1.252   3.548
 9765SOL     OW41173   3.568   0.972  15.825
 9765SOL    HW141174   3.625   0.954  15.900
 9765SOL    HW241175   3.537   0.886  15.797
 9766SOL     OW41176   0.754   1.406   0.849
 9766SOL    HW141177   0.799   1.321   0.851
 9766SOL    HW241178   0.786   1.448   0.770
 9767SOL     OW41179   1.165   4.246   2.910
 9767SOL    HW141180   1.121   4.180   2.963
 9767SOL    HW241181   1.153   4.328   2.958
 9768SOL     OW41182   1.706   3.570  15.036
 9768SOL    HW141183   1.706   3.514  14.958
 9768SOL    HW241184   1.632   3.629  15.022
 9769SOL     OW41185   1.859   0.469   1.011
 9769SOL    HW141186   1.925   0.511   0.955
 9769SOL    HW241187   1.778   0.474   0.959
 9770SOL     OW41188   1.470   1.970   4.707
 9770SOL    HW141189   1.485   1.876   4.716
 9770SOL    HW241190   1.376   1.977   4.691
 9771SOL     OW41191   4.221   0.957  20.040
 9771SOL    HW141192   4.131   0.924  20.041
 9771SOL    HW241193   4.269   0.897  19.985
 9772SOL     OW41194   1.217   4.022   7.970
 9772SOL    HW141195   1.147   3.968   7.933
 9772SOL    HW241196   1.178   4.063   8.048
 9773SOL     OW41197   2.134   1.009  18.554
 9773SOL    HW141198   2.093   0.933  18.512
 9773SOL    HW241199   2.078   1.026  18.630
 9774SOL     OW41200   4.495   4.335  16.167
 9774SOL    HW141201   4.404   4.337  16.196
 9774SOL    HW241202   4.536   4.267  16.221
 9775SOL     OW41203   0.064   3.332  18.304
 9775SOL    HW141204   4.765   3.350  18.284
 9775SOL    HW241205   0.113   3.388  18.243
 9776SOL     OW41206   2.322   3.167   2.570
 9776SOL    HW141207   2.252   3.227   2.597
 9776SOL    HW241208   2.319   3.097   2.634
 9777SOL     OW41209   2.449   1.614  19.301
 9777SOL    HW141210   2.500   1.533  19.292
 9777SOL    HW241211   2.438   1.645  19.211
 9778SOL     OW41212   3.799   1.190   7.416
 9778SOL    HW141213   3.726   1.162   7.471
 9778SOL    HW241214   3.778   1.157   7.329
 9779SOL     OW41215   0.223   3.034   2.363
 9779SOL    HW141216   0.219   3.100   2.294
 9779SOL    HW241217   0.294   3.063   2.420
 9780SOL     OW41218   0.226   0.344  11.164
 9780SOL    HW141219   0.306   0.390  11.139
 9780SOL    HW241220   0.234   0.258  11.124
 9781SOL     OW41221   1.604   0.802   2.949
 9781SOL    HW141222   1.633   0.776   3.037
 9781SOL    HW241223   1.683   0.800   2.896
 9782SOL     OW41224   0.977   2.512  18.895
 9782SOL    HW141225   0.960   2.440  18.835
 9782SOL    HW241226   0.929   2.586  18.858
 9783SOL     OW41227   2.684   3.386  16.142
 9783SOL    HW141228   2.655   3.472  16.171
 9783SOL    HW241229   2.780   3.391  16.146
 9784SOL     OW41230   2.392   4.098   2.861
 9784SOL    HW141231   2.401   4.010   2.900
 9784SOL    HW241232   2.333   4.086   2.787
 9785SOL     OW41233   0.011   0.545  18.927
 9785SOL    HW141234   4.774   0.454  18.936
 9785SOL    HW241235   0.063   0.561  19.006
 9786SOL     OW41236   4.440   2.112  15.198
 9786SOL    HW141237   4.460   2.205  15.210
 9786SOL    HW241238   4.497   2.067  15.261
 9787SOL     OW41239   0.264   3.831   6.143
 9787SOL    HW141240   0.272   3.901   6.209
 9787SOL    HW241241   0.311   3.865   6.067
 9788SOL     OW41242   0.248   4.364   3.974
 9788SOL    HW141243   0.218   4.283   4.015
 9788SOL    HW241244   0.308   4.403   4.038
 9789SOL     OW41245   1.774   0.788  17.628
 9789SOL    HW141246   1.818   0.767  17.711
 9789SOL    HW241247   1.691   0.741  17.632
 9790SOL     OW41248   2.291   2.668  16.409
 9790SOL    HW141249   2.236   2.662  16.330
 9790SOL    HW241250   2.264   2.749  16.452
 9791SOL     OW41251   3.444   0.342  19.321
 9791SOL    HW141252   3.385   0.380  19.387
 9791SOL    HW241253   3.524   0.394  19.328
 9792SOL     OW41254   0.952   0.654  19.892
 9792SOL    HW141255   1.042   0.670  19.921
 9792SOL    HW241256   0.937   0.720  19.825
 9793SOL     OW41257   4.160   3.020  18.215
 9793SOL    HW141258   4.194   2.970  18.290
 9793SOL    HW241259   4.237   3.039  18.162
 9794SOL     OW41260   3.364   3.361   5.467
 9794SOL    HW141261   3.443   3.328   5.509
 9794SOL    HW241262   3.326   3.422   5.530
 9795SOL     OW41263   1.529   3.850  19.000
 9795SOL    HW141264   1.555   3.899  19.079
 9795SOL    HW241265   1.492   3.769  19.033
 9796SOL     OW41266   1.101   1.515  18.168
 9796SOL    HW141267   1.181   1.511  18.220
 9796SOL    HW241268   1.128   1.554  18.085
 9797SOL     OW41269   0.933   0.323  15.440
 9797SOL    HW141270   0.975   0.285  15.362
 9797SOL    HW241271   0.986   0.292  15.513
 9798SOL     OW41272   0.709   1.939   3.271
 9798SOL    HW141273   0.794   1.897   3.284
 9798SOL    HW241274   0.658   1.874   3.221
 9799SOL     OW41275   2.933   0.418   2.857
 9799SOL    HW141276   2.956   0.393   2.947
 9799SOL    HW241277   2.967   0.507   2.848
 9800SOL     OW41278   1.914   0.495   2.955
 9800SOL    HW141279   1.948   0.573   2.910
 9800SOL    HW241280   1.936   0.423   2.897
 9801SOL     OW41281   2.948   0.363   0.687
 9801SOL    HW141282   2.856   0.335   0.684
 9801SOL    HW241283   2.953   0.435   0.624
 9802SOL     OW41284   2.486   2.260   8.790
 9802SOL    HW141285   2.492   2.343   8.838
 9802SOL    HW241286   2.393   2.238   8.792
 9803SOL     OW41287   2.979   2.657  16.305
 9803SOL    HW141288   2.922   2.675  16.381
 9803SOL    HW241289   2.919   2.633  16.235
 9804SOL     OW41290   4.153   2.116   3.884
 9804SOL    HW141291   4.140   2.063   3.963
 9804SOL    HW241292   4.116   2.201   3.905
 9805SOL     OW41293   1.635   0.945  20.445
 9805SOL    HW141294   1.625   0.959  20.540
 9805SOL    HW241295   1.723   0.979  20.426
 9806SOL     OW41296   3.246   4.670  16.827
 9806SOL    HW141297   3.339   4.689  16.844
 9806SOL    HW241298   3.245   4.581  16.794
 9807SOL     OW41299   0.690   0.639   5.247
 9807SOL    HW141300   0.784   0.641   5.230
 9807SOL    HW241301   0.673   0.549   5.277
 9808SOL     OW41302   2.737   3.095  15.582
 9808SOL    HW141303   2.769   3.007  15.604
 9808SOL    HW241304   2.664   3.080  15.522
 9809SOL     OW41305   2.457   0.985   8.338
 9809SOL    HW141306   2.533   0.993   8.280
 9809SOL    HW241307   2.428   1.075   8.350
 9810SOL     OW41308   4.684   1.348  16.750
 9810SOL    HW141309   4.777   1.349  16.773
 9810SOL    HW241310   4.668   1.432  16.708
 9811SOL     OW41311   3.703   3.754  14.280
 9811SOL    HW141312   3.686   3.839  14.240
 9811SOL    HW241313   3.619   3.725  14.314
 9812SOL     OW41314   4.139   4.300  13.486
 9812SOL    HW141315   4.087   4.275  13.410
 9812SOL    HW241316   4.230   4.289  13.457
 9813SOL     OW41317   0.468   2.848  15.108
 9813SOL    HW141318   0.446   2.930  15.063
 9813SOL    HW241319   0.384   2.804  15.120
 9814SOL     OW41320   3.101   3.491   5.631
 9814SOL    HW141321   3.014   3.531   5.627
 9814SOL    HW241322   3.085   3.397   5.622
 9815SOL     OW41323   1.591   0.303  19.560
 9815SOL    HW141324   1.677   0.272  19.589
 9815SOL    HW241325   1.535   0.294  19.638
 9816SOL     OW41326   3.666   1.216  17.946
 9816SOL    HW141327   3.633   1.291  17.896
 9816SOL    HW241328   3.734   1.253  18.002
 9817SOL     OW41329   0.319   3.403  15.102
 9817SOL    HW141330   0.285   3.389  15.014
 9817SOL    HW241331   0.346   3.495  15.104
 9818SOL     OW41332   3.420   0.103  12.814
 9818SOL    HW141333   3.358   0.030  12.825
 9818SOL    HW241334   3.365   0.179  12.798
 9819SOL     OW41335   3.194   1.200  16.862
 9819SOL    HW141336   3.189   1.117  16.815
 9819SOL    HW241337   3.148   1.184  16.944
 9820SOL     OW41338   4.267   0.133   4.303
 9820SOL    HW141339   4.318   0.167   4.376
 9820SOL    HW241340   4.284   0.039   4.304
 9821SOL     OW41341   1.672   1.986   3.010
 9821SOL    HW141342   1.650   1.906   3.058
 9821SOL    HW241343   1.624   1.979   2.927
 9822SOL     OW41344   3.009   1.141  19.561
 9822SOL    HW141345   2.956   1.089  19.501
 9822SOL    HW241346   2.955   1.149  19.640
 9823SOL     OW41347   0.371   1.105   2.121
 9823SOL    HW141348   0.388   1.118   2.028
 9823SOL    HW241349   0.443   1.049   2.151
 9824SOL     OW41350   3.080   1.515  20.918
 9824SOL    HW141351   3.159   1.475  20.955
 9824SOL    HW241352   3.068   1.472  20.834
 9825SOL     OW41353   0.439   0.760   2.024
 9825SOL    HW141354   0.468   0.795   2.108
 9825SOL    HW241355   0.519   0.734   1.980
 9826SOL     OW41356   3.093   2.168   0.570
 9826SOL    HW141357   3.116   2.111   0.644
 9826SOL    HW241358   3.063   2.249   0.611
 9827SOL     OW41359   1.287   4.282   1.436
 9827SOL    HW141360   1.290   4.206   1.494
 9827SOL    HW241361   1.296   4.357   1.495
 9828SOL     OW41362   2.420   0.619   0.943
 9828SOL    HW141363   2.369   0.546   0.911
 9828SOL    HW241364   2.407   0.689   0.879
 9829SOL     OW41365   3.628   4.175  13.857
 9829SOL    HW141366   3.569   4.102  13.839
 9829SOL    HW241367   3.585   4.251  13.817
 9830SOL     OW41368   0.575   0.756  15.542
 9830SOL    HW141369   0.649   0.701  15.516
 9830SOL    HW241370   0.535   0.709  15.616
 9831SOL     OW41371   1.301   1.633   3.861
 9831SOL    HW141372   1.314   1.539   3.850
 9831SOL    HW241373   1.383   1.665   3.899
 9832SOL     OW41374   3.182   2.502  17.046
 9832SOL    HW141375   3.169   2.410  17.025
 9832SOL    HW241376   3.212   2.503  17.137
 9833SOL     OW41377   3.965   0.462   3.956
 9833SOL    HW141378   3.902   0.434   3.889
 9833SOL    HW241379   4.037   0.399   3.948
 9834SOL     OW41380   3.044   0.374  17.280
 9834SOL    HW141381   3.030   0.383  17.186
 9834SOL    HW241382   3.132   0.409  17.295
 9835SOL     OW41383   2.074   4.792   2.183
 9835SOL    HW141384   2.150   4.793   2.242
 9835SOL    HW241385   2.007   4.743   2.231
 9836SOL     OW41386   4.612   2.111   3.190
 9836SOL    HW141387   4.649   2.199   3.183
 9836SOL    HW241388   4.687   2.053   3.192
 9837SOL     OW41389   1.073   1.032  19.894
 9837SOL    HW141390   1.060   1.038  19.988
 9837SOL    HW241391   1.164   1.005  19.884
 9838SOL     OW41392   3.476   4.370   3.496
 9838SOL    HW141393   3.485   4.323   3.579
 9838SOL    HW241394   3.513   4.310   3.431
 9839SOL     OW41395   1.195   2.971  12.547
 9839SOL    HW141396   1.191   2.876  12.558
 9839SOL    HW241397   1.273   2.997  12.597
 9840SOL     OW41398   0.542   0.161   2.160
 9840SOL    HW141399   0.628   0.123   2.142
 9840SOL    HW241400   0.559   0.252   2.181
 9841SOL     OW41401   1.781   3.004   4.607
 9841SOL    HW141402   1.822   2.986   4.523
 9841SOL    HW241403   1.691   3.029   4.586
 9842SOL     OW41404   4.601   0.501  19.964
 9842SOL    HW141405   4.559   0.504  19.878
 9842SOL    HW241406   4.695   0.502  19.945
 9843SOL     OW41407   0.954   0.158   6.342
 9843SOL    HW141408   0.967   0.248   6.313
 9843SOL    HW241409   0.933   0.109   6.262
 9844SOL     OW41410   3.928   1.448   0.334
 9844SOL    HW141411   3.906   1.356   0.322
 9844SOL    HW241412   3.849   1.495   0.309
 9845SOL     OW41413   0.678   1.957  19.369
 9845SOL    HW141414   0.620   2.003  19.430
 9845SOL    HW241415   0.692   1.872  19.408
 9846SOL     OW41416   1.230   3.052   3.384
 9846SOL    HW141417   1.270   3.080   3.302
 9846SOL    HW241418   1.270   2.968   3.403
 9847SOL     OW41419   3.158   3.389   4.044
 9847SOL    HW141420   3.219   3.418   3.976
 9847SOL    HW241421   3.174   3.448   4.117
 9848SOL     OW41422   3.390   2.936   3.213
 9848SOL    HW141423   3.402   2.884   3.293
 9848SOL    HW241424   3.345   2.877   3.153
 9849SOL     OW41425   3.518   3.649  13.712
 9849SOL    HW141426   3.586   3.636  13.779
 9849SOL    HW241427   3.567   3.661  13.631
 9850SOL     OW41428   3.163   4.628  19.939
 9850SOL    HW141429   3.162   4.695  19.870
 9850SOL    HW241430   3.256   4.618  19.961
 9851SOL     OW41431   4.400   3.530  17.924
 9851SOL    HW141432   4.322   3.495  17.881
 9851SOL    HW241433   4.420   3.468  17.994
 9852SOL     OW41434   0.074   3.788   5.474
 9852SOL    HW141435   0.153   3.833   5.501
 9852SOL    HW241436   0.021   3.782   5.554
 9853SOL     OW41437   2.485   1.069   4.863
 9853SOL    HW141438   2.494   1.032   4.950
 9853SOL    HW241439   2.437   1.151   4.876
 9854SOL     OW41440   3.848   3.304  18.634
 9854SOL    HW141441   3.758   3.295  18.601
 9854SOL    HW241442   3.878   3.213  18.644
 9855SOL     OW41443   3.593   1.905   3.993
 9855SOL    HW141444   3.515   1.938   4.038
 9855SOL    HW241445   3.558   1.846   3.926
 9856SOL     OW41446   3.884   0.432   4.587
 9856SOL    HW141447   3.894   0.381   4.668
 9856SOL    HW241448   3.819   0.499   4.609
 9857SOL     OW41449   1.805   0.603   5.252
 9857SOL    HW141450   1.726   0.639   5.214
 9857SOL    HW241451   1.859   0.578   5.177
 9858SOL     OW41452   2.131   4.327   6.596
 9858SOL    HW141453   2.211   4.314   6.546
 9858SOL    HW241454   2.114   4.421   6.591
 9859SOL     OW41455   1.787   2.535   3.481
 9859SOL    HW141456   1.717   2.472   3.495
 9859SOL    HW241457   1.843   2.527   3.558
 9860SOL     OW41458   1.910   0.486   4.314
 9860SOL    HW141459   1.851   0.434   4.259
 9860SOL    HW241460   1.874   0.575   4.310
 9861SOL     OW41461   3.173   1.827  20.834
 9861SOL    HW141462   3.204   1.917  20.845
 9861SOL    HW241463   3.126   1.807  20.916
 9862SOL     OW41464   0.030   3.726  13.968
 9862SOL    HW141465   0.088   3.740  14.044
 9862SOL    HW241466   0.088   3.732  13.893
 9863SOL     OW41467   1.697   0.371  17.910
 9863SOL    HW141468   1.620   0.338  17.958
 9863SOL    HW241469   1.731   0.442  17.965
 9864SOL     OW41470   1.773   2.753   2.822
 9864SOL    HW141471   1.702   2.812   2.793
 9864SOL    HW241472   1.820   2.732   2.742
 9865SOL     OW41473   3.961   0.668  15.496
 9865SOL    HW141474   3.981   0.722  15.573
 9865SOL    HW241475   3.878   0.703  15.463
 9866SOL     OW41476   3.141   4.509  18.120
 9866SOL    HW141477   3.059   4.557  18.116
 9866SOL    HW241478   3.204   4.564  18.074
 9867SOL     OW41479   0.566   3.479   1.671
 9867SOL    HW141480   0.603   3.560   1.636
 9867SOL    HW241481   0.642   3.422   1.684
 9868SOL     OW41482   2.298   1.440  17.429
 9868SOL    HW141483   2.240   1.507  17.394
 9868SOL    HW241484   2.342   1.404  17.353
 9869SOL     OW41485   0.433   0.609   2.340
 9869SOL    HW141486   0.405   0.589   2.250
 9869SOL    HW241487   0.394   0.541   2.393
 9870SOL     OW41488   2.052   2.360  20.803
 9870SOL    HW141489   2.079   2.289  20.861
 9870SOL    HW241490   2.000   2.318  20.735
 9871SOL     OW41491   0.672   1.643  15.332
 9871SOL    HW141492   0.668   1.706  15.403
 9871SOL    HW241493   0.580   1.633  15.304
 9872SOL     OW41494   2.056   2.884  18.223
 9872SOL    HW141495   2.130   2.869  18.283
 9872SOL    HW241496   2.048   2.979  18.220
 9873SOL     OW41497   1.405   0.765   3.562
 9873SOL    HW141498   1.342   0.820   3.514
 9873SOL    HW241499   1.357   0.736   3.639
 9874SOL     OW41500   3.651   1.618   6.298
 9874SOL    HW141501   3.556   1.634   6.297
 9874SOL    HW241502   3.689   1.696   6.258
 9875SOL     OW41503   4.526   2.132   1.559
 9875SOL    HW141504   4.551   2.213   1.515
 9875SOL    HW241505   4.600   2.074   1.547
 9876SOL     OW41506   1.267   0.641   6.942
 9876SOL    HW141507   1.251   0.629   7.036
 9876SOL    HW241508   1.256   0.735   6.928
 9877SOL     OW41509   4.251   3.731  16.043
 9877SOL    HW141510   4.222   3.819  16.067
 9877SOL    HW241511   4.346   3.737  16.041
 9878SOL     OW41512   3.626   4.246   4.640
 9878SOL    HW141513   3.641   4.234   4.734
 9878SOL    HW241514   3.711   4.232   4.600
 9879SOL     OW41515   3.252   0.423  20.861
 9879SOL    HW141516   3.305   0.419  20.941
 9879SOL    HW241517   3.239   0.516  20.845
 9880SOL     OW41518   3.194   0.970  18.037
 9880SOL    HW141519   3.211   0.913  17.962
 9880SOL    HW241520   3.265   1.035  18.035
 9881SOL     OW41521   4.545   0.502  15.013
 9881SOL    HW141522   4.583   0.511  14.926
 9881SOL    HW241523   4.518   0.591  15.037
 9882SOL     OW41524   0.030   0.130   3.622
 9882SOL    HW141525   4.785   0.047   3.651
 9882SOL    HW241526   0.094   0.151   3.689
 9883SOL     OW41527   1.622   2.264   4.049
 9883SOL    HW141528   1.708   2.267   4.007
 9883SOL    HW241529   1.642   2.242   4.141
 9884SOL     OW41530   2.710   4.129  16.909
 9884SOL    HW141531   2.694   4.171  16.824
 9884SOL    HW241532   2.709   4.035  16.890
 9885SOL     OW41533   2.984   1.262   5.289
 9885SOL    HW141534   3.009   1.203   5.360
 9885SOL    HW241535   3.058   1.322   5.280
 9886SOL     OW41536   0.642   0.181  20.646
 9886SOL    HW141537   0.636   0.189  20.741
 9886SOL    HW241538   0.701   0.251  20.619
 9887SOL     OW41539   1.483   2.094  20.156
 9887SOL    HW141540   1.496   2.153  20.082
 9887SOL    HW241541   1.498   2.148  20.233
 9888SOL     OW41542   3.566   0.195  17.518
 9888SOL    HW141543   3.577   0.105  17.549
 9888SOL    HW241544   3.625   0.202  17.443
 9889SOL     OW41545   3.067   1.794   3.201
 9889SOL    HW141546   3.154   1.829   3.183
 9889SOL    HW241547   3.051   1.817   3.293
 9890SOL     OW41548   1.922   2.688   2.586
 9890SOL    HW141549   1.948   2.663   2.497
 9890SOL    HW241550   1.966   2.772   2.601
 9891SOL     OW41551   3.569   2.444  16.793
 9891SOL    HW141552   3.588   2.434  16.886
 9891SOL    HW241553   3.500   2.379  16.775
 9892SOL     OW41554   0.140   4.683  14.571
 9892SOL    HW141555   0.063   4.731  14.540
 9892SOL    HW241556   0.105   4.599  14.600
 9893SOL     OW41557   1.908   0.372  15.274
 9893SOL    HW141558   1.953   0.367  15.190
 9893SOL    HW241559   1.926   0.461  15.306
 9894SOL     OW41560   1.227   3.491   2.031
 9894SOL    HW141561   1.216   3.586   2.027
 9894SOL    HW241562   1.185   3.459   1.951
 9895SOL     OW41563   1.487   2.561  20.319
 9895SOL    HW141564   1.508   2.620  20.391
 9895SOL    HW241565   1.391   2.556  20.318
 9896SOL     OW41566   3.373   3.146  20.919
 9896SOL    HW141567   3.452   3.137  20.866
 9896SOL    HW241568   3.342   3.234  20.901
 9897SOL     OW41569   1.473   3.703  15.025
 9897SOL    HW141570   1.427   3.663  14.951
 9897SOL    HW241571   1.407   3.713  15.093
 9898SOL     OW41572   3.237   2.900  17.833
 9898SOL    HW141573   3.153   2.875  17.795
 9898SOL    HW241574   3.301   2.881  17.764
 9899SOL     OW41575   1.532   3.671  15.524
 9899SOL    HW141576   1.450   3.718  15.508
 9899SOL    HW241577   1.592   3.739  15.554
 9900SOL     OW41578   1.634   2.507   0.091
 9900SOL    HW141579   1.589   2.500   0.007
 9900SOL    HW241580   1.722   2.471   0.074
 9901SOL     OW41581   4.130   2.722  15.303
 9901SOL    HW141582   4.154   2.651  15.242
 9901SOL    HW241583   4.139   2.802  15.251
 9902SOL     OW41584   0.793   3.531  15.308
 9902SOL    HW141585   0.864   3.471  15.331
 9902SOL    HW241586   0.831   3.618  15.316
 9903SOL     OW41587   2.655   4.209  12.841
 9903SOL    HW141588   2.604   4.229  12.763
 9903SOL    HW241589   2.590   4.203  12.911
 9904SOL     OW41590   1.883   2.091   1.767
 9904SOL    HW141591   1.870   2.029   1.838
 9904SOL    HW241592   1.978   2.090   1.752
 9905SOL     OW41593   4.289   2.973   5.140
 9905SOL    HW141594   4.195   2.964   5.122
 9905SOL    HW241595   4.327   2.890   5.109
 9906SOL     OW41596   2.641   0.433  19.976
 9906SOL    HW141597   2.615   0.341  19.981
 9906SOL    HW241598   2.653   0.459  20.067
 9907SOL     OW41599   3.992   3.350   5.532
 9907SOL    HW141600   3.898   3.358   5.514
 9907SOL    HW241601   3.997   3.331   5.625
 9908SOL     OW41602   2.063   3.069   2.136
 9908SOL    HW141603   2.021   3.113   2.209
 9908SOL    HW241604   1.991   3.049   2.076
 9909SOL     OW41605   4.044   2.806   6.625
 9909SOL    HW141606   4.137   2.783   6.625
 9909SOL    HW241607   4.013   2.781   6.538
 9910SOL     OW41608   2.444   3.051  15.498
 9910SOL    HW141609   2.368   3.109  15.496
 9910SOL    HW241610   2.480   3.054  15.410
 9911SOL     OW41611   0.118   3.077   3.629
 9911SOL    HW141612   0.167   3.030   3.563
 9911SOL    HW241613   0.040   3.024   3.645
 9912SOL     OW41614   1.118   1.773   3.681
 9912SOL    HW141615   1.173   1.706   3.723
 9912SOL    HW241616   1.150   1.775   3.590
 9913SOL     OW41617   3.022   4.564   2.563
 9913SOL    HW141618   2.962   4.502   2.605
 9913SOL    HW241619   2.992   4.569   2.472
 9914SOL     OW41620   3.187   0.029   4.887
 9914SOL    HW141621   3.252   0.017   4.818
 9914SOL    HW241622   3.198   0.119   4.915
 9915SOL     OW41623   3.464   1.876   6.044
 9915SOL    HW141624   3.376   1.916   6.045
 9915SOL    HW241625   3.459   1.806   6.108
 9916SOL     OW41626   4.572   4.174   0.189
 9916SOL    HW141627   4.610   4.154   0.103
 9916SOL    HW241628   4.509   4.104   0.204
 9917SOL     OW41629   4.241   0.504  14.132
 9917SOL    HW141630   4.258   0.552  14.213
 9917SOL    HW241631   4.149   0.475  14.140
 9918SOL     OW41632   4.124   0.015  18.966
 9918SOL    HW141633   4.058   4.759  19.015
 9918SOL    HW241634   4.138   4.757  18.887
 9919SOL     OW41635   1.997   4.621   7.012
 9919SOL    HW141636   2.069   4.683   7.019
 9919SOL    HW241637   1.961   4.616   7.100
 9920SOL     OW41638   3.202   3.525  18.587
 9920SOL    HW141639   3.220   3.478  18.668
 9920SOL    HW241640   3.225   3.615  18.606
 9921SOL     OW41641   0.560   2.083  13.000
 9921SOL    HW141642   0.529   2.112  12.914
 9921SOL    HW241643   0.518   1.998  13.013
 9922SOL     OW41644   1.547   4.137   0.550
 9922SOL    HW141645   1.466   4.169   0.588
 9922SOL    HW241646   1.606   4.126   0.624
 9923SOL     OW41647   1.523   0.978   0.963
 9923SOL    HW141648   1.434   0.951   0.941
 9923SOL    HW241649   1.543   1.049   0.903
 9924SOL     OW41650   3.887   3.416  17.681
 9924SOL    HW141651   3.895   3.347  17.615
 9924SOL    HW241652   3.817   3.472  17.649
 9925SOL     OW41653   1.971   0.081  20.728
 9925SOL    HW141654   1.881   0.064  20.701
 9925SOL    HW241655   1.964   0.111  20.819
 9926SOL     OW41656   3.460   2.382   4.314
 9926SOL    HW141657   3.483   2.294   4.286
 9926SOL    HW241658   3.502   2.439   4.249
 9927SOL     OW41659   0.163   1.712   2.451
 9927SOL    HW141660   0.079   1.736   2.489
 9927SOL    HW241661   0.198   1.645   2.510
 9928SOL     OW41662   3.239   4.202   7.914
 9928SOL    HW141663   3.159   4.171   7.957
 9928SOL    HW241664   3.213   4.212   7.822
 9929SOL     OW41665   2.965   1.768   9.108
 9929SOL    HW141666   3.000   1.848   9.068
 9929SOL    HW241667   2.964   1.787   9.202
 9930SOL     OW41668   0.911   2.759   5.402
 9930SOL    HW141669   0.923   2.709   5.483
 9930SOL    HW241670   0.920   2.695   5.332
 9931SOL     OW41671   3.282   3.918   4.559
 9931SOL    HW141672   3.269   3.825   4.582
 9931SOL    HW241673   3.365   3.941   4.600
 9932SOL     OW41674   1.084   2.714  20.616
 9932SOL    HW141675   1.014   2.779  20.611
 9932SOL    HW241676   1.128   2.733  20.699
 9933SOL     OW41677   0.463   1.325  17.873
 9933SOL    HW141678   0.458   1.377  17.954
 9933SOL    HW241679   0.525   1.256  17.894
 9934SOL     OW41680   2.091   2.320  17.537
 9934SOL    HW141681   2.184   2.298  17.546
 9934SOL    HW241682   2.086   2.365  17.453
 9935SOL     OW41683   4.435   1.493   1.302
 9935SOL    HW141684   4.426   1.502   1.207
 9935SOL    HW241685   4.519   1.448   1.313
 9936SOL     OW41686   0.626   4.649  17.448
 9936SOL    HW141687   0.610   4.647  17.543
 9936SOL    HW241688   0.541   4.671  17.410
 9937SOL     OW41689   0.270   3.327  19.017
 9937SOL    HW141690   0.363   3.333  18.994
 9937SOL    HW241691   0.258   3.391  19.086
 9938SOL     OW41692   0.190   1.750  17.395
 9938SOL    HW141693   0.247   1.779  17.324
 9938SOL    HW241694   0.102   1.755  17.359
 9939SOL     OW41695   1.726   0.681   0.689
 9939SOL    HW141696   1.742   0.775   0.695
 9939SOL    HW241697   1.807   0.645   0.652
 9940SOL     OW41698   4.779   3.730  20.560
 9940SOL    HW141699   4.736   3.726  20.646
 9940SOL    HW241700   4.790   3.638  20.535
 9941SOL     OW41701   2.372   1.130  14.658
 9941SOL    HW141702   2.463   1.144  14.682
 9941SOL    HW241703   2.369   1.039  14.629
 9942SOL     OW41704   2.845   4.192  19.313
 9942SOL    HW141705   2.753   4.169  19.328
 9942SOL    HW241706   2.875   4.128  19.248
 9943SOL     OW41707   2.836   4.508  15.864
 9943SOL    HW141708   2.834   4.421  15.904
 9943SOL    HW241709   2.844   4.568  15.939
 9944SOL     OW41710   4.028   1.878  16.180
 9944SOL    HW141711   4.078   1.870  16.099
 9944SOL    HW241712   4.090   1.858  16.249
 9945SOL     OW41713   2.822   0.515   8.983
 9945SOL    HW141714   2.875   0.589   9.014
 9945SOL    HW241715   2.747   0.557   8.941
 9946SOL     OW41716   0.627   2.569   5.057
 9946SOL    HW141717   0.572   2.510   5.108
 9946SOL    HW241718   0.646   2.521   4.977
 9947SOL     OW41719   2.062   4.615   5.794
 9947SOL    HW141720   2.042   4.613   5.701
 9947SOL    HW241721   2.041   4.704   5.822
 9948SOL     OW41722   1.682   1.412   2.003
 9948SOL    HW141723   1.621   1.413   2.076
 9948SOL    HW241724   1.641   1.355   1.938
 9949SOL     OW41725   4.541   2.464   7.194
 9949SOL    HW141726   4.545   2.491   7.285
 9949SOL    HW241727   4.559   2.544   7.144
 9950SOL     OW41728   0.891   1.191  18.856
 9950SOL    HW141729   0.926   1.119  18.909
 9950SOL    HW241730   0.969   1.234  18.821
 9951SOL     OW41731   2.186   2.782   0.544
 9951SOL    HW141732   2.156   2.867   0.576
 9951SOL    HW241733   2.229   2.742   0.620
 9952SOL     OW41734   4.659   1.829   5.035
 9952SOL    HW141735   4.684   1.824   5.127
 9952SOL    HW241736   4.590   1.764   5.025
 9953SOL     OW41737   2.977   3.549   1.865
 9953SOL    HW141738   2.900   3.492   1.867
 9953SOL    HW241739   2.942   3.634   1.838
 9954SOL     OW41740   2.168   3.766  17.785
 9954SOL    HW141741   2.083   3.731  17.760
 9954SOL    HW241742   2.224   3.750  17.709
 9955SOL     OW41743   3.412   2.301   0.628
 9955SOL    HW141744   3.352   2.374   0.642
 9955SOL    HW241745   3.397   2.242   0.701
 9956SOL     OW41746   3.898   1.709  13.874
 9956SOL    HW141747   3.848   1.756  13.808
 9956SOL    HW241748   3.986   1.746  13.868
 9957SOL     OW41749   3.360   0.868  19.138
 9957SOL    HW141750   3.350   0.863  19.043
 9957SOL    HW241751   3.351   0.961  19.158
 9958SOL     OW41752   2.214   0.956  19.157
 9958SOL    HW141753   2.133   1.002  19.180
 9958SOL    HW241754   2.261   0.948  19.239
 9959SOL     OW41755   1.426   3.841   5.351
 9959SOL    HW141756   1.477   3.812   5.276
 9959SOL    HW241757   1.454   3.930   5.367
 9960SOL     OW41758   4.055   4.465   1.659
 9960SOL    HW141759   4.040   4.527   1.730
 9960SOL    HW241760   4.051   4.518   1.579
 9961SOL     OW41761   3.795   2.833  17.330
 9961SOL    HW141762   3.706   2.818  17.362
 9961SOL    HW241763   3.825   2.747  17.300
 9962SOL     OW41764   1.305   4.520  15.515
 9962SOL    HW141765   1.366   4.591  15.497
 9962SOL    HW241766   1.360   4.442  15.524
 9963SOL     OW41767   2.241   1.953  19.373
 9963SOL    HW141768   2.251   1.886  19.441
 9963SOL    HW241769   2.190   1.910  19.304
 9964SOL     OW41770   1.250   0.155   2.715
 9964SOL    HW141771   1.305   0.197   2.650
 9964SOL    HW241772   1.167   0.140   2.671
 9965SOL     OW41773   1.783   1.968  15.016
 9965SOL    HW141774   1.779   1.935  14.926
 9965SOL    HW241775   1.694   1.999  15.034
 9966SOL     OW41776   4.157   1.204  17.384
 9966SOL    HW141777   4.091   1.256  17.337
 9966SOL    HW241778   4.240   1.230  17.343
 9967SOL     OW41779   0.080   0.356  19.295
 9967SOL    HW141780   4.786   0.387  19.272
 9967SOL    HW241781   0.068   0.263  19.314
 9968SOL     OW41782   1.963   1.750  14.112
 9968SOL    HW141783   1.886   1.699  14.087
 9968SOL    HW241784   1.930   1.838  14.126
 9969SOL     OW41785   4.641   1.383   5.010
 9969SOL    HW141786   4.586   1.308   5.032
 9969SOL    HW241787   4.731   1.353   5.025
 9970SOL     OW41788   0.068   0.472  19.906
 9970SOL    HW141789   0.117   0.531  19.848
 9970SOL    HW241790   0.087   0.504  19.994
 9971SOL     OW41791   3.736   0.333  18.802
 9971SOL    HW141792   3.799   0.299  18.739
 9971SOL    HW241793   3.665   0.269  18.802
 9972SOL     OW41794   1.743   3.603   8.489
 9972SOL    HW141795   1.714   3.512   8.499
 9972SOL    HW241796   1.668   3.648   8.450
 9973SOL     OW41797   4.525   2.616  20.652
 9973SOL    HW141798   4.590   2.546  20.657
 9973SOL    HW241799   4.443   2.574  20.679
 9974SOL     OW41800   3.225   2.851   2.009
 9974SOL    HW141801   3.233   2.855   1.913
 9974SOL    HW241802   3.156   2.915   2.029
 9975SOL     OW41803   0.381   3.140   4.917
 9975SOL    HW141804   0.328   3.113   4.992
 9975SOL    HW241805   0.363   3.233   4.907
 9976SOL     OW41806   3.660   2.729  18.262
 9976SOL    HW141807   3.755   2.719  18.257
 9976SOL    HW241808   3.647   2.819  18.291
 9977SOL     OW41809   4.766   1.196   0.871
 9977SOL    HW141810   0.003   1.286   0.858
 9977SOL    HW241811   4.729   1.171   0.787
 9978SOL     OW41812   2.926   0.012   1.541
 9978SOL    HW141813   3.015   4.782   1.570
 9978SOL    HW241814   2.882   0.039   1.621
 9979SOL     OW41815   3.196   2.131  17.551
 9979SOL    HW141816   3.254   2.055  17.565
 9979SOL    HW241817   3.245   2.205  17.588
 9980SOL     OW41818   1.616   3.692  18.780
 9980SOL    HW141819   1.680   3.630  18.814
 9980SOL    HW241820   1.604   3.755  18.851
 9981SOL     OW41821   2.346   0.632   1.490
 9981SOL    HW141822   2.371   0.542   1.509
 9981SOL    HW241823   2.328   0.670   1.576
 9982SOL     OW41824   4.201   3.724  17.405
 9982SOL    HW141825   4.192   3.761  17.493
 9982SOL    HW241826   4.283   3.761  17.371
 9983SOL     OW41827   2.184   1.873  17.155
 9983SOL    HW141828   2.136   1.904  17.078
 9983SOL    HW241829   2.178   1.946  17.217
 9984SOL     OW41830   3.465   0.632  18.401
 9984SOL    HW141831   3.427   0.655  18.316
 9984SOL    HW241832   3.448   0.538  18.410
 9985SOL     OW41833   2.341   0.732  14.828
 9985SOL    HW141834   2.341   0.684  14.745
 9985SOL    HW241835   2.260   0.783  14.825
 9986SOL     OW41836   4.781   2.358   1.647
 9986SOL    HW141837   4.770   2.411   1.727
 9986SOL    HW241838   0.041   2.283   1.675
 9987SOL     OW41839   1.611   2.796   1.935
 9987SOL    HW141840   1.531   2.844   1.959
 9987SOL    HW241841   1.600   2.710   1.974
 9988SOL     OW41842   0.394   0.016   0.947
 9988SOL    HW141843   0.318   0.072   0.960
 9988SOL    HW241844   0.383   4.738   1.011
 9989SOL     OW41845   4.167   2.832   3.048
 9989SOL    HW141846   4.258   2.861   3.047
 9989SOL    HW241847   4.168   2.754   3.104
 9990SOL     OW41848   1.793   3.596   9.681
 9990SOL    HW141849   1.778   3.665   9.746
 9990SOL    HW241850   1.791   3.641   9.597
 9991SOL     OW41851   3.990   3.971   2.240
 9991SOL    HW141852   3.971   3.912   2.312
 9991SOL    HW241853   3.919   3.956   2.177
 9992SOL     OW41854   1.676   3.939  19.935
 9992SOL    HW141855   1.651   3.993  19.859
 9992SOL    HW241856   1.710   3.858  19.896
 9993SOL     OW41857   4.021   2.897   2.493
 9993SOL    HW141858   4.059   2.984   2.484
 9993SOL    HW241859   3.950   2.908   2.556
 9994SOL     OW41860   4.666   4.084   2.247
 9994SOL    HW141861   4.728   4.013   2.268
 9994SOL    HW241862   4.586   4.038   2.221
 9995SOL     OW41863   4.756   0.900   9.772
 9995SOL    HW141864   0.014   0.834   9.818
 9995SOL    HW241865   4.684   0.851   9.733
 9996SOL     OW41866   2.665   2.841   9.534
 9996SOL    HW141867   2.603   2.876   9.598
 9996SOL    HW241868   2.748   2.834   9.582
 9997SOL     OW41869   1.092   2.617   9.673
 9997SOL    HW141870   1.090   2.589   9.582
 9997SOL    HW241871   1.185   2.631   9.692
 9998SOL     OW41872   1.312   3.243   9.613
 9998SOL    HW141873   1.250   3.172   9.596
 9998SOL    HW241874   1.353   3.218   9.696
 9999SOL     OW41875   0.196   3.385  16.477
 9999SOL    HW141876   0.276   3.413  16.522
 9999SOL    HW241877   0.197   3.434  16.394
10000SOL     OW41878   2.174   2.706   9.658
10000SOL    HW141879   2.242   2.764   9.626
10000SOL    HW241880   2.099   2.763   9.674
10001SOL     OW41881   2.563   1.028  18.111
10001SOL    HW141882   2.646   1.057  18.074
10001SOL    HW241883   2.526   1.106  18.152
10002SOL     OW41884   2.207   4.063   8.273
10002SOL    HW141885   2.259   4.129   8.319
10002SOL    HW241886   2.197   3.992   8.337
10003SOL     OW41887   2.252   3.213   8.006
10003SOL    HW141888   2.185   3.145   7.997
10003SOL    HW241889   2.258   3.229   8.100
10004SOL     OW41890   1.408   1.551   0.372
10004SOL    HW141891   1.332   1.580   0.322
10004SOL    HW241892   1.386   1.462   0.399
10005SOL     OW41893   2.225   2.423   9.657
10005SOL    HW141894   2.179   2.507   9.662
10005SOL    HW241895   2.317   2.445   9.667
10006SOL     OW41896   2.516   2.022   7.935
10006SOL    HW141897   2.571   2.038   8.011
10006SOL    HW241898   2.448   2.090   7.940
10007SOL     OW41899   1.568   1.958   9.135
10007SOL    HW141900   1.663   1.943   9.129
10007SOL    HW241901   1.554   2.041   9.090
10008SOL     OW41902   1.637   2.901  10.406
10008SOL    HW141903   1.698   2.969  10.376
10008SOL    HW241904   1.642   2.905  10.501
10009SOL     OW41905   2.878   3.337  11.031
10009SOL    HW141906   2.806   3.311  10.973
10009SOL    HW241907   2.895   3.428  11.009
10010SOL     OW41908   1.662   2.635  10.429
10010SOL    HW141909   1.651   2.730  10.424
10010SOL    HW241910   1.579   2.600  10.396
10011SOL     OW41911   2.904   2.915   9.912
10011SOL    HW141912   2.999   2.916   9.897
10011SOL    HW241913   2.883   2.823   9.928
10012SOL     OW41914   1.711   2.121  10.752
10012SOL    HW141915   1.718   2.163  10.838
10012SOL    HW241916   1.731   2.029  10.769
10013SOL     OW41917   1.513   1.627  10.948
10013SOL    HW141918   1.507   1.550  11.004
10013SOL    HW241919   1.590   1.674  10.981
10014SOL     OW41920   1.923   3.213  11.181
10014SOL    HW141921   2.001   3.159  11.195
10014SOL    HW241922   1.861   3.182  11.247
10015SOL     OW41923   2.423   3.486  11.347
10015SOL    HW141924   2.497   3.505  11.406
10015SOL    HW241925   2.378   3.570  11.338
10016SOL     OW41926   4.465   3.159   9.675
10016SOL    HW141927   4.505   3.177   9.590
10016SOL    HW241928   4.385   3.211   9.675
10017SOL     OW41929   2.159   0.531  10.496
10017SOL    HW141930   2.165   0.600  10.562
10017SOL    HW241931   2.245   0.489  10.496
10018SOL     OW41932   1.910   2.143  10.071
10018SOL    HW141933   1.987   2.124  10.017
10018SOL    HW241934   1.844   2.174  10.009
10019SOL     OW41935   1.076   1.364  11.446
10019SOL    HW141936   1.148   1.352  11.384
10019SOL    HW241937   1.003   1.393  11.392
10020SOL     OW41938   2.830   4.109  11.151
10020SOL    HW141939   2.894   4.176  11.177
10020SOL    HW241940   2.833   4.108  11.056
10021SOL     OW41941   2.890   3.032  11.472
10021SOL    HW141942   2.836   3.011  11.549
10021SOL    HW241943   2.928   2.948  11.446
10022SOL     OW41944   2.827   1.484  11.515
10022SOL    HW141945   2.799   1.410  11.568
10022SOL    HW241946   2.923   1.479  11.516
10023SOL     OW41947   4.014   2.864  11.962
10023SOL    HW141948   4.075   2.795  11.989
10023SOL    HW241949   3.931   2.841  12.004
10024SOL     OW41950   2.086   2.316  12.854
10024SOL    HW141951   2.059   2.406  12.869
10024SOL    HW241952   2.004   2.270  12.833
10025SOL     OW41953   3.011   1.922  11.024
10025SOL    HW141954   2.987   1.910  10.932
10025SOL    HW241955   2.948   1.986  11.057
10026SOL     OW41956   2.743   2.106  12.306
10026SOL    HW141957   2.743   2.175  12.372
10026SOL    HW241958   2.650   2.094  12.284
10027SOL     OW41959   2.168   2.573  12.275
10027SOL    HW141960   2.183   2.482  12.301
10027SOL    HW241961   2.255   2.608  12.257
10028SOL     OW41962   2.346   2.258  12.887
10028SOL    HW141963   2.391   2.234  12.806
10028SOL    HW241964   2.260   2.288  12.859
10029SOL     OW41965   1.728   3.139  11.364
10029SOL    HW141966   1.668   3.081  11.318
10029SOL    HW241967   1.768   3.085  11.432
10030SOL     OW41968   2.263   3.468  12.250
10030SOL    HW141969   2.269   3.546  12.194
10030SOL    HW241970   2.320   3.488  12.324
10031SOL     OW41971   2.233   3.218  12.938
10031SOL    HW141972   2.208   3.299  12.894
10031SOL    HW241973   2.243   3.154  12.868
10032SOL     OW41974   3.220   2.117  11.013
10032SOL    HW141975   3.173   2.191  10.974
10032SOL    HW241976   3.158   2.045  11.008
10033SOL     OW41977   1.782   0.134  16.080
10033SOL    HW141978   1.738   0.168  16.157
10033SOL    HW241979   1.733   0.055  16.057
10034SOL     OW41980   1.748   1.181   0.210
10034SOL    HW141981   1.698   1.204   0.288
10034SOL    HW241982   1.840   1.192   0.236
10035SOL     OW41983   3.750   2.359   7.269
10035SOL    HW141984   3.747   2.314   7.185
10035SOL    HW241985   3.743   2.288   7.334
10036SOL     OW41986   3.577   3.051  18.301
10036SOL    HW141987   3.570   3.065  18.207
10036SOL    HW241988   3.672   3.048  18.318
10037SOL     OW41989   0.414   0.993  18.998
10037SOL    HW141990   0.407   1.004  18.903
10037SOL    HW241991   0.437   0.901  19.010
10038SOL     OW41992   4.306   0.147  17.060
10038SOL    HW141993   4.272   0.145  16.971
10038SOL    HW241994   4.268   0.069  17.102
10039SOL     OW41995   4.254   0.563   6.060
10039SOL    HW141996   4.197   0.501   6.104
10039SOL    HW241997   4.292   0.616   6.130
10040SOL     OW41998   3.297   1.297  17.832
10040SOL    HW141999   3.250   1.379  17.850
10040SOL    HW242000   3.301   1.252  17.916
10041SOL     OW42001   4.502   1.211   1.547
10041SOL    HW142002   4.477   1.144   1.483
10041SOL    HW242003   4.597   1.213   1.543
10042SOL     OW42004   0.633   2.765  19.058
10042SOL    HW142005   0.605   2.679  19.091
10042SOL    HW242006   0.719   2.749  19.019
10043SOL     OW42007   3.149   2.814  12.284
10043SOL    HW142008   3.182   2.725  12.296
10043SOL    HW242009   3.227   2.865  12.259
10044SOL     OW42010   2.416   3.045  16.496
10044SOL    HW142011   2.437   3.139  16.487
10044SOL    HW242012   2.502   3.002  16.501
10045SOL     OW42013   0.788   2.328  16.729
10045SOL    HW142014   0.869   2.326  16.679
10045SOL    HW242015   0.786   2.245  16.776
10046SOL     OW42016   3.365   1.323   6.721
10046SOL    HW142017   3.270   1.332   6.736
10046SOL    HW242018   3.385   1.233   6.746
10047SOL     OW42019   2.778   3.126  20.036
10047SOL    HW142020   2.712   3.193  20.053
10047SOL    HW242021   2.856   3.175  20.009
10048SOL     OW42022   0.860   4.645  13.212
10048SOL    HW142023   0.868   4.622  13.120
10048SOL    HW242024   0.935   4.702  13.230
10049SOL     OW42025   4.290   4.607  15.602
10049SOL    HW142026   4.251   4.693  15.585
10049SOL    HW242027   4.351   4.623  15.674
10050SOL     OW42028   3.732   2.407  13.279
10050SOL    HW142029   3.825   2.430  13.273
10050SOL    HW242030   3.686   2.491  13.272
10051SOL     OW42031   2.404   3.852   2.961
10051SOL    HW142032   2.415   3.778   3.020
10051SOL    HW242033   2.426   3.818   2.874
10052SOL     OW42034   4.207   1.580  18.009
10052SOL    HW142035   4.262   1.559  18.085
10052SOL    HW242036   4.162   1.660  18.035
10053SOL     OW42037   0.725   0.581  16.192
10053SOL    HW142038   0.736   0.524  16.268
10053SOL    HW242039   0.635   0.612  16.198
10054SOL     OW42040   3.569   1.960   5.037
10054SOL    HW142041   3.596   2.042   4.996
10054SOL    HW242042   3.616   1.892   4.989
10055SOL     OW42043   0.873   1.316   4.376
10055SOL    HW142044   0.948   1.258   4.391
10055SOL    HW242045   0.913   1.400   4.353
10056SOL     OW42046   1.428   4.267  15.559
10056SOL    HW142047   1.402   4.194  15.616
10056SOL    HW242048   1.450   4.226  15.476
10057SOL     OW42049   2.315   0.464   5.636
10057SOL    HW142050   2.377   0.518   5.685
10057SOL    HW242051   2.288   0.396   5.698
10058SOL     OW42052   4.511   0.533  18.004
10058SOL    HW142053   4.487   0.621  17.977
10058SOL    HW242054   4.507   0.481  17.924
10059SOL     OW42055   4.754   1.675   3.777
10059SOL    HW142056   4.718   1.717   3.698
10059SOL    HW242057   0.004   1.746   3.824
10060SOL     OW42058   1.178   1.899  19.722
10060SOL    HW142059   1.125   1.821  19.739
10060SOL    HW242060   1.168   1.951  19.802
10061SOL     OW42061   4.598   0.030   7.082
10061SOL    HW142062   4.626   0.058   6.995
10061SOL    HW242063   4.504   0.048   7.084
10062SOL     OW42064   3.890   2.861  13.917
10062SOL    HW142065   3.954   2.790  13.928
10062SOL    HW242066   3.943   2.940  13.909
10063SOL     OW42067   2.949   2.684  13.255
10063SOL    HW142068   2.924   2.592  13.244
10063SOL    HW242069   2.876   2.723  13.303
10064SOL     OW42070   4.771   1.446  12.179
10064SOL    HW142071   4.696   1.398  12.212
10064SOL    HW242072   0.050   1.423  12.237
10065SOL     OW42073   2.156   3.323   1.735
10065SOL    HW142074   2.223   3.305   1.670
10065SOL    HW242075   2.201   3.313   1.819
10066SOL     OW42076   3.658   1.135   4.149
10066SOL    HW142077   3.605   1.175   4.080
10066SOL    HW242078   3.747   1.136   4.115
10067SOL     OW42079   4.555   2.966   2.604
10067SOL    HW142080   4.538   2.883   2.560
10067SOL    HW242081   4.469   2.995   2.635
10068SOL     OW42082   1.089   0.739  18.060
10068SOL    HW142083   1.139   0.820  18.052
10068SOL    HW242084   1.012   0.753  18.005
10069SOL     OW42085   0.894   2.560   3.251
10069SOL    HW142086   0.971   2.588   3.202
10069SOL    HW242087   0.866   2.479   3.209
10070SOL     OW42088   0.845   3.638   1.740
10070SOL    HW142089   0.863   3.684   1.822
10070SOL    HW242090   0.780   3.693   1.696
10071SOL     OW42091   2.232   2.041  13.959
10071SOL    HW142092   2.141   2.049  13.928
10071SOL    HW242093   2.225   2.046  14.054
10072SOL     OW42094   0.178   0.038  20.009
10072SOL    HW142095   0.165   4.740  19.980
10072SOL    HW242096   0.090   0.075  20.013
10073SOL     OW42097   1.566   1.256  19.023
10073SOL    HW142098   1.480   1.222  18.998
10073SOL    HW242099   1.588   1.207  19.103
10074SOL     OW42100   4.410   0.226  21.034
10074SOL    HW142101   4.324   0.257  21.005
10074SOL    HW242102   4.472   0.267  20.974
10075SOL     OW42103   0.092   3.025  19.859
10075SOL    HW142104   0.041   3.084  19.803
10075SOL    HW242105   0.182   3.037  19.830
10076SOL     OW42106   1.946   3.933  13.613
10076SOL    HW142107   1.951   3.838  13.618
10076SOL    HW242108   1.855   3.954  13.632
10077SOL     OW42109   0.451   1.125   5.893
10077SOL    HW142110   0.423   1.127   5.801
10077SOL    HW242111   0.390   1.184   5.938
10078SOL     OW42112   2.225   0.015   6.906
10078SOL    HW142113   2.147   0.051   6.864
10078SOL    HW242114   2.250   0.080   6.971
10079SOL     OW42115   0.556   0.103  20.403
10079SOL    HW142116   0.571   0.127  20.495
10079SOL    HW242117   0.553   0.007  20.404
10080SOL     OW42118   0.827   3.368   6.043
10080SOL    HW142119   0.817   3.288   5.990
10080SOL    HW242120   0.921   3.372   6.061
10081SOL     OW42121   2.019   4.524   1.301
10081SOL    HW142122   2.037   4.616   1.284
10081SOL    HW242123   2.049   4.510   1.391
10082SOL     OW42124   0.543   3.420   1.032
10082SOL    HW142125   0.578   3.508   1.015
10082SOL    HW242126   0.591   3.363   0.972
10083SOL     OW42127   1.932   2.598   0.253
10083SOL    HW142128   1.880   2.530   0.209
10083SOL    HW242129   1.998   2.623   0.189
10084SOL     OW42130   4.553   2.455  18.820
10084SOL    HW142131   4.580   2.503  18.742
10084SOL    HW242132   4.459   2.468  18.825
10085SOL     OW42133   0.589   4.090  16.893
10085SOL    HW142134   0.586   4.083  16.988
10085SOL    HW242135   0.596   4.184  16.876
10086SOL     OW42136   1.795   3.206  19.231
10086SOL    HW142137   1.775   3.265  19.303
10086SOL    HW242138   1.891   3.208  19.223
10087SOL     OW42139   3.700   4.443  11.762
10087SOL    HW142140   3.764   4.489  11.816
10087SOL    HW242141   3.695   4.495  11.682
10088SOL     OW42142   0.464   1.725  21.238
10088SOL    HW142143   0.433   1.656  21.179
10088SOL    HW242144   0.419   1.804  21.208
10089SOL     OW42145   0.289   0.543   5.412
10089SOL    HW142146   0.215   0.577   5.362
10089SOL    HW242147   0.363   0.548   5.352
10090SOL     OW42148   4.343   2.259  16.135
10090SOL    HW142149   4.329   2.245  16.228
10090SOL    HW242150   4.357   2.354  16.126
10091SOL     OW42151   2.264   1.479  15.664
10091SOL    HW142152   2.314   1.554  15.695
10091SOL    HW242153   2.305   1.404  15.706
10092SOL     OW42154   1.635   4.781  17.753
10092SOL    HW142155   1.622   4.704  17.809
10092SOL    HW242156   1.719   0.024  17.780
10093SOL     OW42157   1.601   4.487   5.804
10093SOL    HW142158   1.620   4.394   5.808
10093SOL    HW242159   1.531   4.501   5.868
10094SOL     OW42160   4.219   4.155   2.155
10094SOL    HW142161   4.297   4.209   2.167
10094SOL    HW242162   4.228   4.117   2.067
10095SOL     OW42163   0.124   0.645   1.643
10095SOL    HW142164   0.127   0.740   1.631
10095SOL    HW242165   0.095   0.633   1.733
10096SOL     OW42166   4.319   0.885  13.513
10096SOL    HW142167   4.390   0.847  13.461
10096SOL    HW242168   4.329   0.847  13.600
10097SOL     OW42169   3.240   2.448   3.642
10097SOL    HW142170   3.324   2.452   3.596
10097SOL    HW242171   3.196   2.372   3.605
10098SOL     OW42172   2.893   0.865  14.554
10098SOL    HW142173   2.939   0.794  14.599
10098SOL    HW242174   2.819   0.885  14.611
10099SOL     OW42175   3.866   2.318  19.406
10099SOL    HW142176   3.959   2.320  19.430
10099SOL    HW242177   3.865   2.310  19.311
10100SOL     OW42178   4.776   2.307   5.875
10100SOL    HW142179   0.050   2.239   5.881
10100SOL    HW242180   4.787   2.359   5.954
10101SOL     OW42181   2.920   3.795   2.508
10101SOL    HW142182   2.972   3.801   2.428
10101SOL    HW242183   2.977   3.752   2.571
10102SOL     OW42184   2.959   1.740  17.582
10102SOL    HW142185   2.907   1.715  17.658
10102SOL    HW242186   3.049   1.720  17.607
10103SOL     OW42187   1.188   0.544  19.418
10103SOL    HW142188   1.161   0.625  19.461
10103SOL    HW242189   1.118   0.526  19.355
10104SOL     OW42190   3.262   2.451  20.521
10104SOL    HW142191   3.249   2.362  20.488
10104SOL    HW242192   3.174   2.485  20.534
10105SOL     OW42193   3.115   3.081   7.759
10105SOL    HW142194   3.156   3.036   7.833
10105SOL    HW242195   3.185   3.134   7.722
10106SOL     OW42196   4.512   2.757   2.405
10106SOL    HW142197   4.593   2.707   2.412
10106SOL    HW242198   4.443   2.693   2.418
10107SOL     OW42199   3.607   0.633  19.846
10107SOL    HW142200   3.669   0.596  19.784
10107SOL    HW242201   3.523   0.630  19.800
10108SOL     OW42202   2.455   2.555  19.674
10108SOL    HW142203   2.425   2.611  19.746
10108SOL    HW242204   2.526   2.605  19.633
10109SOL     OW42205   1.288   1.875  18.414
10109SOL    HW142206   1.327   1.956  18.446
10109SOL    HW242207   1.261   1.828  18.493
10110SOL     OW42208   4.128   1.525  12.150
10110SOL    HW142209   4.181   1.451  12.119
10110SOL    HW242210   4.175   1.559  12.226
10111SOL     OW42211   0.217   1.507  18.292
10111SOL    HW142212   0.246   1.525  18.381
10111SOL    HW242213   0.140   1.562  18.279
10112SOL     OW42214   1.708   2.975  19.894
10112SOL    HW142215   1.672   2.887  19.903
10112SOL    HW242216   1.802   2.962  19.888
10113SOL     OW42217   1.221   3.499   2.488
10113SOL    HW142218   1.179   3.534   2.566
10113SOL    HW242219   1.315   3.509   2.503
10114SOL     OW42220   0.977   0.392   4.766
10114SOL    HW142221   0.901   0.411   4.711
10114SOL    HW242222   1.052   0.399   4.706
10115SOL     OW42223   1.675   0.776   1.730
10115SOL    HW142224   1.713   0.830   1.660
10115SOL    HW242225   1.678   0.687   1.695
10116SOL     OW42226   2.701   2.287   0.038
10116SOL    HW142227   2.748   2.355   0.087
10116SOL    HW242228   2.686   2.325  21.224
10117SOL     OW42229   4.581   3.537  15.910
10117SOL    HW142230   4.674   3.554  15.892
10117SOL    HW242231   4.545   3.622  15.933
10118SOL     OW42232   1.605   2.527   5.009
10118SOL    HW142233   1.659   2.448   5.017
10118SOL    HW242234   1.593   2.557   5.100
10119SOL     OW42235   4.740   2.867   3.681
10119SOL    HW142236   4.746   2.775   3.652
10119SOL    HW242237   4.706   2.861   3.770
10120SOL     OW42238   0.525   4.137   3.007
10120SOL    HW142239   0.591   4.206   3.018
10120SOL    HW242240   0.550   4.092   2.927
10121SOL     OW42241   3.186   0.999  20.504
10121SOL    HW142242   3.174   0.907  20.526
10121SOL    HW242243   3.226   0.998  20.417
10122SOL     OW42244   1.973   1.633   6.338
10122SOL    HW142245   1.900   1.640   6.400
10122SOL    HW242246   1.988   1.723   6.309
10123SOL     OW42247   0.397   3.606  14.051
10123SOL    HW142248   0.431   3.669  14.115
10123SOL    HW242249   0.416   3.521  14.089
10124SOL     OW42250   4.615   2.579  17.412
10124SOL    HW142251   4.674   2.629  17.355
10124SOL    HW242252   4.622   2.623  17.497
10125SOL     OW42253   2.290   4.192  21.077
10125SOL    HW142254   2.324   4.115  21.032
10125SOL    HW242255   2.217   4.158  21.129
10126SOL     OW42256   4.016   1.654   5.609
10126SOL    HW142257   4.101   1.640   5.566
10126SOL    HW242258   3.952   1.621   5.546
10127SOL     OW42259   3.866   3.047   6.035
10127SOL    HW142260   3.774   3.045   6.061
10127SOL    HW242261   3.915   3.041   6.116
10128SOL     OW42262   1.101   0.426   1.056
10128SOL    HW142263   1.043   0.378   0.997
10128SOL    HW242264   1.177   0.447   1.003
10129SOL     OW42265   4.096   3.730   8.947
10129SOL    HW142266   4.042   3.688   9.014
10129SOL    HW242267   4.041   3.798   8.911
10130SOL     OW42268   1.612   0.468   1.889
10130SOL    HW142269   1.537   0.489   1.833
10130SOL    HW242270   1.632   0.377   1.869
10131SOL     OW42271   0.859   3.815   4.782
10131SOL    HW142272   0.863   3.910   4.775
10131SOL    HW242273   0.892   3.796   4.870
10132SOL     OW42274   4.661   1.476   4.744
10132SOL    HW142275   4.649   1.442   4.832
10132SOL    HW242276   4.756   1.482   4.734
10133SOL     OW42277   2.735   2.325   5.491
10133SOL    HW142278   2.754   2.296   5.580
10133SOL    HW242279   2.812   2.375   5.464
10134SOL     OW42280   2.496   2.658   1.839
10134SOL    HW142281   2.553   2.730   1.866
10134SOL    HW242282   2.549   2.579   1.852
10135SOL     OW42283   3.060   0.652   5.540
10135SOL    HW142284   3.076   0.613   5.454
10135SOL    HW242285   2.976   0.698   5.530
10136SOL     OW42286   0.917   3.156   2.209
10136SOL    HW142287   0.966   3.116   2.281
10136SOL    HW242288   0.981   3.165   2.139
10137SOL     OW42289   4.442   0.448  18.251
10137SOL    HW142290   4.371   0.388  18.272
10137SOL    HW242291   4.431   0.466  18.158
10138SOL     OW42292   3.192   4.097  18.168
10138SOL    HW142293   3.176   4.128  18.079
10138SOL    HW242294   3.179   4.002  18.162
10139SOL     OW42295   3.514   2.336   1.587
10139SOL    HW142296   3.422   2.315   1.604
10139SOL    HW242297   3.518   2.432   1.592
10140SOL     OW42298   2.027   1.461   6.853
10140SOL    HW142299   1.968   1.475   6.927
10140SOL    HW242300   2.091   1.532   6.861
10141SOL     OW42301   4.418   4.157   4.405
10141SOL    HW142302   4.467   4.111   4.473
10141SOL    HW242303   4.456   4.127   4.323
10142SOL     OW42304   2.015   4.306  19.825
10142SOL    HW142305   2.026   4.240  19.757
10142SOL    HW242306   1.989   4.385  19.778
10143SOL     OW42307   0.600   0.910   5.977
10143SOL    HW142308   0.618   0.891   5.884
10143SOL    HW242309   0.540   0.984   5.974
10144SOL     OW42310   3.866   2.038  13.135
10144SOL    HW142311   3.808   1.984  13.190
10144SOL    HW242312   3.816   2.053  13.055
10145SOL     OW42313   4.683   0.912  13.762
10145SOL    HW142314   4.663   0.896  13.854
10145SOL    HW242315   4.637   0.841  13.715
10146SOL     OW42316   4.719   3.884  16.648
10146SOL    HW142317   4.702   3.863  16.556
10146SOL    HW242318   4.676   3.814  16.697
10147SOL     OW42319   2.080   3.606   1.743
10147SOL    HW142320   2.128   3.623   1.824
10147SOL    HW242321   2.095   3.513   1.726
10148SOL     OW42322   2.482   3.686  15.401
10148SOL    HW142323   2.497   3.712  15.492
10148SOL    HW242324   2.388   3.670  15.396
10149SOL     OW42325   1.390   3.693   3.168
10149SOL    HW142326   1.477   3.721   3.143
10149SOL    HW242327   1.404   3.632   3.241
10150SOL     OW42328   1.698   4.078  14.014
10150SOL    HW142329   1.782   4.056  13.972
10150SOL    HW242330   1.634   4.021  13.971
10151SOL     OW42331   2.436   4.172   6.674
10151SOL    HW142332   2.510   4.188   6.731
10151SOL    HW242333   2.439   4.241   6.609
10152SOL     OW42334   0.339   1.607  21.039
10152SOL    HW142335   0.305   1.529  20.997
10152SOL    HW242336   0.394   1.649  20.972
10153SOL     OW42337   0.508   3.250   5.852
10153SOL    HW142338   0.466   3.208   5.776
10153SOL    HW242339   0.478   3.199   5.927
10154SOL     OW42340   1.633   4.528  21.261
10154SOL    HW142341   1.713   4.543  21.210
10154SOL    HW242342   1.651   4.447   0.037
10155SOL     OW42343   3.443   0.106   4.710
10155SOL    HW142344   3.398   0.053   4.643
10155SOL    HW242345   3.519   0.142   4.664
10156SOL     OW42346   2.371   0.689  19.467
10156SOL    HW142347   2.355   0.629  19.540
10156SOL    HW242348   2.357   0.776  19.504
10157SOL     OW42349   4.469   3.376  19.849
10157SOL    HW142350   4.463   3.401  19.941
10157SOL    HW242351   4.487   3.457  19.802
10158SOL     OW42352   4.314   3.093   2.658
10158SOL    HW142353   4.230   3.051   2.638
10158SOL    HW242354   4.289   3.178   2.695
10159SOL     OW42355   1.473   3.330  20.820
10159SOL    HW142356   1.440   3.242  20.841
10159SOL    HW242357   1.419   3.359  20.746
10160SOL     OW42358   3.479   3.170  15.385
10160SOL    HW142359   3.453   3.165  15.477
10160SOL    HW242360   3.397   3.166  15.337
10161SOL     OW42361   0.657   4.026   5.471
10161SOL    HW142362   0.588   3.968   5.440
10161SOL    HW242363   0.735   3.971   5.473
10162SOL     OW42364   0.297   1.962   1.256
10162SOL    HW142365   0.385   1.924   1.266
10162SOL    HW242366   0.239   1.886   1.247
10163SOL     OW42367   3.121   1.065   5.481
10163SOL    HW142368   3.081   1.004   5.419
10163SOL    HW242369   3.158   1.009   5.549
10164SOL     OW42370   0.468   2.765  15.949
10164SOL    HW142371   0.381   2.732  15.974
10164SOL    HW242372   0.451   2.853  15.915
10165SOL     OW42373   1.176   2.452  21.218
10165SOL    HW142374   1.213   2.469   0.032
10165SOL    HW242375   1.081   2.459  21.231
10166SOL     OW42376   0.784   4.422  18.068
10166SOL    HW142377   0.747   4.355  18.125
10166SOL    HW242378   0.763   4.505  18.112
10167SOL     OW42379   0.699   0.156   2.740
10167SOL    HW142380   0.636   0.143   2.811
10167SOL    HW242381   0.739   0.070   2.727
10168SOL     OW42382   3.204   2.309   2.499
10168SOL    HW142383   3.199   2.298   2.404
10168SOL    HW242384   3.298   2.305   2.519
10169SOL     OW42385   4.484   1.915  21.131
10169SOL    HW142386   4.413   1.900  21.069
10169SOL    HW242387   4.532   1.832  21.134
10170SOL     OW42388   2.466   1.531   7.458
10170SOL    HW142389   2.473   1.435   7.462
10170SOL    HW242390   2.540   1.562   7.510
10171SOL     OW42391   1.858   3.465  15.263
10171SOL    HW142392   1.798   3.484  15.190
10171SOL    HW242393   1.802   3.427  15.330
10172SOL     OW42394   2.716   3.219   8.067
10172SOL    HW142395   2.658   3.195   7.995
10172SOL    HW242396   2.799   3.240   8.025
10173SOL     OW42397   2.743   3.734   1.431
10173SOL    HW142398   2.666   3.713   1.378
10173SOL    HW242399   2.723   3.818   1.472
10174SOL     OW42400   1.199   3.213  14.215
10174SOL    HW142401   1.162   3.277  14.275
10174SOL    HW242402   1.172   3.243  14.128
10175SOL     OW42403   1.423   3.582   2.881
10175SOL    HW142404   1.405   3.653   2.943
10175SOL    HW242405   1.497   3.612   2.829
10176SOL     OW42406   1.740   3.496  19.362
10176SOL    HW142407   1.684   3.573  19.362
10176SOL    HW242408   1.818   3.523  19.314
10177SOL     OW42409   2.856   4.691  20.758
10177SOL    HW142410   2.788   4.638  20.716
10177SOL    HW242411   2.916   4.715  20.688
10178SOL     OW42412   1.297   4.635  15.784
10178SOL    HW142413   1.276   4.560  15.840
10178SOL    HW242414   1.288   4.602  15.695
10179SOL     OW42415   2.563   1.428   4.133
10179SOL    HW142416   2.508   1.490   4.180
10179SOL    HW242417   2.572   1.353   4.193
10180SOL     OW42418   4.686   2.795  19.492
10180SOL    HW142419   4.720   2.880  19.465
10180SOL    HW242420   4.595   2.812  19.514
10181SOL     OW42421   2.899   1.090  20.548
10181SOL    HW142422   2.907   1.003  20.508
10181SOL    HW242423   2.986   1.108  20.584
10182SOL     OW42424   0.978   3.609   6.262
10182SOL    HW142425   1.027   3.547   6.207
10182SOL    HW242426   1.045   3.649   6.317
10183SOL     OW42427   2.889   0.473   6.679
10183SOL    HW142428   2.798   0.446   6.688
10183SOL    HW242429   2.928   0.408   6.622
10184SOL     OW42430   2.211   2.908   5.890
10184SOL    HW142431   2.159   2.886   5.813
10184SOL    HW242432   2.214   2.827   5.941
10185SOL     OW42433   1.223   2.986   4.148
10185SOL    HW142434   1.162   3.060   4.135
10185SOL    HW242435   1.263   2.973   4.062
10186SOL     OW42436   4.369   2.638  14.901
10186SOL    HW142437   4.446   2.692  14.921
10186SOL    HW242438   4.304   2.700  14.870
10187SOL     OW42439   1.398   3.066  20.828
10187SOL    HW142440   1.445   2.982  20.824
10187SOL    HW242441   1.323   3.054  20.771
10188SOL     OW42442   4.636   4.695  15.217
10188SOL    HW142443   4.648   4.608  15.257
10188SOL    HW242444   4.712   4.705  15.159
10189SOL     OW42445   3.866   2.712  19.314
10189SOL    HW142446   3.916   2.793  19.321
10189SOL    HW242447   3.779   2.734  19.347
10190SOL     OW42448   4.133   2.503  18.052
10190SOL    HW142449   4.201   2.439  18.074
10190SOL    HW242450   4.115   2.488  17.959
10191SOL     OW42451   2.786   4.240   1.204
10191SOL    HW142452   2.700   4.249   1.245
10191SOL    HW242453   2.847   4.278   1.266
10192SOL     OW42454   1.827   1.280  15.301
10192SOL    HW142455   1.732   1.273  15.303
10192SOL    HW242456   1.848   1.300  15.209
10193SOL     OW42457   4.493   3.961  20.097
10193SOL    HW142458   4.582   3.968  20.129
10193SOL    HW242459   4.438   3.985  20.172
10194SOL     OW42460   2.598   4.503   4.338
10194SOL    HW142461   2.656   4.577   4.319
10194SOL    HW242462   2.571   4.470   4.252
10195SOL     OW42463   1.641   3.199  19.710
10195SOL    HW142464   1.651   3.138  19.783
10195SOL    HW242465   1.712   3.177  19.650
10196SOL     OW42466   0.100   3.841   4.619
10196SOL    HW142467   0.056   3.798   4.546
10196SOL    HW242468   0.034   3.846   4.688
10197SOL     OW42469   3.825   2.569  13.572
10197SOL    HW142470   3.780   2.585  13.489
10197SOL    HW242471   3.869   2.485  13.560
10198SOL     OW42472   1.887   1.229  18.155
10198SOL    HW142473   1.923   1.226  18.244
10198SOL    HW242474   1.803   1.183  18.162
10199SOL     OW42475   2.990   0.400   5.613
10199SOL    HW142476   3.047   0.343   5.664
10199SOL    HW242477   3.037   0.483   5.607
10200SOL     OW42478   1.296   2.094  20.556
10200SOL    HW142479   1.316   2.008  20.517
10200SOL    HW242480   1.375   2.118  20.603
10201SOL     OW42481   2.543   1.861  15.864
10201SOL    HW142482   2.496   1.785  15.831
10201SOL    HW242483   2.483   1.934  15.851
10202SOL     OW42484   2.160   3.604   2.010
10202SOL    HW142485   2.113   3.597   2.092
10202SOL    HW242486   2.186   3.515   1.988
10203SOL     OW42487   3.219   2.576   1.492
10203SOL    HW142488   3.270   2.530   1.425
10203SOL    HW242489   3.149   2.515   1.514
10204SOL     OW42490   4.716   1.698  11.986
10204SOL    HW142491   4.729   1.612  12.027
10204SOL    HW242492   0.010   1.721  11.953
10205SOL     OW42493   1.139   2.936  15.944
10205SOL    HW142494   1.207   2.881  15.983
10205SOL    HW242495   1.059   2.912  15.989
10206SOL     OW42496   3.519   1.941  20.805
10206SOL    HW142497   3.533   1.879  20.876
10206SOL    HW242498   3.486   2.020  20.848
10207SOL     OW42499   4.268   3.227   0.752
10207SOL    HW142500   4.261   3.303   0.694
10207SOL    HW242501   4.361   3.223   0.775
10208SOL     OW42502   2.657   4.580   5.979
10208SOL    HW142503   2.673   4.582   5.885
10208SOL    HW242504   2.705   4.655   6.014
10209SOL     OW42505   2.645   2.518  17.747
10209SOL    HW142506   2.658   2.548  17.657
10209SOL    HW242507   2.584   2.581  17.784
10210SOL     OW42508   0.249   3.684   3.886
10210SOL    HW142509   0.211   3.621   3.825
10210SOL    HW242510   0.184   3.753   3.894
10211SOL     OW42511   2.629   2.031  19.401
10211SOL    HW142512   2.606   2.024  19.308
10211SOL    HW242513   2.684   1.954  19.417
10212SOL     OW42514   4.155   2.284  19.416
10212SOL    HW142515   4.217   2.256  19.348
10212SOL    HW242516   4.208   2.335  19.478
10213SOL     OW42517   0.651   1.714  20.270
10213SOL    HW142518   0.634   1.808  20.281
10213SOL    HW242519   0.732   1.698  20.318
10214SOL     OW42520   0.014   0.128   1.854
10214SOL    HW142521   4.747   0.196   1.822
10214SOL    HW242522   4.750   0.057   1.883
10215SOL     OW42523   2.635   2.139  20.471
10215SOL    HW142524   2.665   2.109  20.385
10215SOL    HW242525   2.577   2.069  20.502
10216SOL     OW42526   0.749   1.739   6.804
10216SOL    HW142527   0.724   1.647   6.808
10216SOL    HW242528   0.668   1.786   6.786
10217SOL     OW42529   3.309   4.750   4.484
10217SOL    HW142530   3.250   4.681   4.513
10217SOL    HW242531   3.371   4.707   4.425
10218SOL     OW42532   1.397   1.978  14.200
10218SOL    HW142533   1.381   1.904  14.259
10218SOL    HW242534   1.310   2.003  14.169
10219SOL     OW42535   1.077   3.383  17.424
10219SOL    HW142536   0.988   3.417  17.436
10219SOL    HW242537   1.098   3.403  17.333
10220SOL     OW42538   1.565   3.772   2.055
10220SOL    HW142539   1.475   3.802   2.057
10220SOL    HW242540   1.567   3.696   2.112
10221SOL     OW42541   1.307   0.923   0.621
10221SOL    HW142542   1.324   0.936   0.527
10221SOL    HW242543   1.346   0.999   0.664
10222SOL     OW42544   3.333   1.264   1.422
10222SOL    HW142545   3.410   1.247   1.368
10222SOL    HW242546   3.259   1.228   1.373
10223SOL     OW42547   3.748   2.900   0.559
10223SOL    HW142548   3.706   2.907   0.473
10223SOL    HW242549   3.768   2.807   0.568
10224SOL     OW42550   0.276   1.895  21.158
10224SOL    HW142551   0.264   1.922  21.067
10224SOL    HW242552   0.225   1.814  21.165
10225SOL     OW42553   1.101   3.658  21.225
10225SOL    HW142554   1.124   3.578  21.178
10225SOL    HW242555   1.185   3.696  21.250
10226SOL     OW42556   3.976   2.209   1.534
10226SOL    HW142557   3.888   2.202   1.571
10226SOL    HW242558   4.027   2.144   1.582
10227SOL     OW42559   0.043   3.685  17.141
10227SOL    HW142560   0.088   3.630  17.205
10227SOL    HW242561   0.039   3.772  17.181
10228SOL     OW42562   3.830   0.581  11.397
10228SOL    HW142563   3.879   0.655  11.433
10228SOL    HW242564   3.760   0.620  11.346
10229SOL     OW42565   0.419   4.740  20.837
10229SOL    HW142566   0.443   4.784  20.756
10229SOL    HW242567   0.325   4.753  20.844
10230SOL     OW42568   1.628   0.679  20.113
10230SOL    HW142569   1.610   0.586  20.101
10230SOL    HW242570   1.690   0.701  20.044
10231SOL     OW42571   2.466   4.295  20.722
10231SOL    HW142572   2.395   4.350  20.756
10231SOL    HW242573   2.430   4.207  20.722
10232SOL     OW42574   2.791   1.998   0.608
10232SOL    HW142575   2.783   1.938   0.682
10232SOL    HW242576   2.701   2.013   0.579
10233SOL     OW42577   1.788   0.908  17.235
10233SOL    HW142578   1.781   0.838  17.170
10233SOL    HW242579   1.876   0.943  17.222
10234SOL     OW42580   2.313   4.006  15.428
10234SOL    HW142581   2.270   4.073  15.480
10234SOL    HW242582   2.406   4.027  15.435
10235SOL     OW42583   0.627   4.637   3.366
10235SOL    HW142584   0.620   4.709   3.303
10235SOL    HW242585   0.636   4.559   3.312
10236SOL     OW42586   3.181   3.954  11.945
10236SOL    HW142587   3.131   4.035  11.954
10236SOL    HW242588   3.216   3.958  11.856
10237SOL     OW42589   3.728   2.291  18.656
10237SOL    HW142590   3.678   2.338  18.589
10237SOL    HW242591   3.698   2.329  18.739
10238SOL     OW42592   3.207   2.707   6.249
10238SOL    HW142593   3.203   2.792   6.293
10238SOL    HW242594   3.264   2.722   6.173
10239SOL     OW42595   3.482   0.860  21.059
10239SOL    HW142596   3.517   0.777  21.026
10239SOL    HW242597   3.529   0.927  21.009
10240SOL     OW42598   1.866   2.195  12.714
10240SOL    HW142599   1.791   2.248  12.685
10240SOL    HW242600   1.864   2.119  12.656
10241SOL     OW42601   1.091   4.250   5.471
10241SOL    HW142602   1.105   4.157   5.491
10241SOL    HW242603   0.998   4.265   5.488
10242SOL     OW42604   2.144   0.504   1.974
10242SOL    HW142605   2.230   0.482   2.009
10242SOL    HW242606   2.158   0.582   1.920
10243SOL     OW42607   3.763   1.737   4.566
10243SOL    HW142608   3.739   1.670   4.630
10243SOL    HW242609   3.852   1.712   4.538
10244SOL     OW42610   4.090   1.290   1.222
10244SOL    HW142611   4.111   1.367   1.275
10244SOL    HW242612   4.139   1.219   1.262
10245SOL     OW42613   4.307   1.850   8.312
10245SOL    HW142614   4.285   1.923   8.254
10245SOL    HW242615   4.336   1.780   8.253
10246SOL     OW42616   0.786   0.918  20.651
10246SOL    HW142617   0.785   0.828  20.618
10246SOL    HW242618   0.700   0.953  20.628
10247SOL     OW42619   4.368   0.396  17.397
10247SOL    HW142620   4.394   0.334  17.329
10247SOL    HW242621   4.450   0.431  17.430
10248SOL     OW42622   0.387   2.684  15.581
10248SOL    HW142623   0.423   2.712  15.497
10248SOL    HW242624   0.462   2.681  15.640
10249SOL     OW42625   1.279   2.148  19.603
10249SOL    HW142626   1.315   2.061  19.622
10249SOL    HW242627   1.209   2.132  19.540
10250SOL     OW42628   1.979   1.886  16.684
10250SOL    HW142629   1.909   1.831  16.649
10250SOL    HW242630   2.040   1.897  16.611
10251SOL     OW42631   3.123   4.230  18.951
10251SOL    HW142632   3.110   4.319  18.919
10251SOL    HW242633   3.171   4.242  19.033
10252SOL     OW42634   3.029   1.406   2.403
10252SOL    HW142635   3.035   1.500   2.419
10252SOL    HW242636   3.056   1.365   2.485
10253SOL     OW42637   3.781   0.254  17.343
10253SOL    HW142638   3.767   0.347  17.362
10253SOL    HW242639   3.848   0.253  17.275
10254SOL     OW42640   2.917   3.927   0.233
10254SOL    HW142641   2.889   4.018   0.226
10254SOL    HW242642   3.012   3.932   0.243
10255SOL     OW42643   4.327   1.497   5.719
10255SOL    HW142644   4.301   1.470   5.808
10255SOL    HW242645   4.340   1.592   5.726
10256SOL     OW42646   0.312   4.010   6.594
10256SOL    HW142647   0.383   4.068   6.619
10256SOL    HW242648   0.285   3.968   6.676
10257SOL     OW42649   0.588   0.937   3.921
10257SOL    HW142650   0.550   1.024   3.929
10257SOL    HW242651   0.647   0.942   3.846
10258SOL     OW42652   3.093   0.585  19.545
10258SOL    HW142653   3.063   0.640  19.472
10258SOL    HW242654   3.127   0.506  19.502
10259SOL     OW42655   4.416   2.466   3.166
10259SOL    HW142656   4.481   2.462   3.095
10259SOL    HW242657   4.332   2.461   3.121
10260SOL     OW42658   0.255   1.943  15.256
10260SOL    HW142659   0.284   1.924  15.345
10260SOL    HW242660   0.267   2.038  15.248
10261SOL     OW42661   2.049   2.337   4.910
10261SOL    HW142662   2.108   2.373   4.844
10261SOL    HW242663   2.102   2.273   4.958
10262SOL     OW42664   3.893   4.666  19.961
10262SOL    HW142665   3.857   4.712  19.885
10262SOL    HW242666   3.919   4.581  19.928
10263SOL     OW42667   2.930   0.133   3.932
10263SOL    HW142668   2.971   0.056   3.973
10263SOL    HW242669   3.002   0.178   3.888
10264SOL     OW42670   4.617   4.738   1.981
10264SOL    HW142671   4.584   4.688   1.907
10264SOL    HW242672   4.702   4.698   2.002
10265SOL     OW42673   0.600   2.091   0.946
10265SOL    HW142674   0.510   2.074   0.973
10265SOL    HW242675   0.618   2.181   0.972
10266SOL     OW42676   0.838   3.964  17.043
10266SOL    HW142677   0.864   3.978  17.133
10266SOL    HW242678   0.854   3.871  17.027
10267SOL     OW42679   3.691   4.575  13.864
10267SOL    HW142680   3.765   4.522  13.836
10267SOL    HW242681   3.614   4.530  13.828
10268SOL     OW42682   2.125   0.602  19.122
10268SOL    HW142683   2.048   0.575  19.072
10268SOL    HW242684   2.098   0.600  19.213
10269SOL     OW42685   2.202   4.392   1.074
10269SOL    HW142686   2.113   4.398   1.110
10269SOL    HW242687   2.195   4.329   1.003
10270SOL     OW42688   3.412   1.986  15.875
10270SOL    HW142689   3.406   2.072  15.915
10270SOL    HW242690   3.428   2.003  15.782
10271SOL     OW42691   0.845   1.172  15.790
10271SOL    HW142692   0.791   1.154  15.713
10271SOL    HW242693   0.934   1.153  15.762
10272SOL     OW42694   4.362   0.608   1.195
10272SOL    HW142695   4.287   0.569   1.239
10272SOL    HW242696   4.325   0.679   1.143
10273SOL     OW42697   2.078   4.326   0.388
10273SOL    HW142698   2.131   4.287   0.319
10273SOL    HW242699   2.101   4.419   0.386
10274SOL     OW42700   3.817   2.622   0.546
10274SOL    HW142701   3.888   2.585   0.597
10274SOL    HW242702   3.842   2.608   0.455
10275SOL     OW42703   4.298   0.908   6.160
10275SOL    HW142704   4.362   0.935   6.094
10275SOL    HW242705   4.343   0.839   6.210
10276SOL     OW42706   2.760   3.551  15.723
10276SOL    HW142707   2.816   3.571  15.798
10276SOL    HW242708   2.819   3.512  15.659
10277SOL     OW42709   0.589   2.153   2.705
10277SOL    HW142710   0.500   2.137   2.675
10277SOL    HW242711   0.639   2.171   2.625
10278SOL     OW42712   1.245   3.507  13.068
10278SOL    HW142713   1.302   3.432  13.085
10278SOL    HW242714   1.220   3.497  12.976
10279SOL     OW42715   2.596   1.654  20.368
10279SOL    HW142716   2.673   1.651  20.425
10279SOL    HW242717   2.598   1.572  20.320
10280SOL     OW42718   4.215   4.247  17.588
10280SOL    HW142719   4.286   4.296  17.547
10280SOL    HW242720   4.137   4.271  17.538
10281SOL     OW42721   3.088   1.085   4.272
10281SOL    HW142722   3.024   1.016   4.288
10281SOL    HW242723   3.090   1.093   4.177
10282SOL     OW42724   4.682   3.307  20.918
10282SOL    HW142725   4.639   3.375  20.866
10282SOL    HW242726   4.764   3.348  20.947
10283SOL     OW42727   1.221   3.304   0.713
10283SOL    HW142728   1.178   3.369   0.771
10283SOL    HW242729   1.240   3.230   0.771
10284SOL     OW42730   4.740   0.980  15.471
10284SOL    HW142731   4.691   0.958  15.550
10284SOL    HW242732   4.680   1.033  15.419
10285SOL     OW42733   2.080   1.033  13.072
10285SOL    HW142734   2.061   1.004  12.983
10285SOL    HW242735   2.019   1.105  13.088
10286SOL     OW42736   0.037   1.052   0.364
10286SOL    HW142737   4.744   1.013   0.379
10286SOL    HW242738   0.051   1.110   0.439
10287SOL     OW42739   0.172   1.136  12.120
10287SOL    HW142740   0.183   1.209  12.058
10287SOL    HW242741   0.176   1.058  12.065
10288SOL     OW42742   0.813   2.536  20.766
10288SOL    HW142743   0.821   2.567  20.675
10288SOL    HW242744   0.887   2.476  20.776
10289SOL     OW42745   4.494   4.250   2.515
10289SOL    HW142746   4.409   4.209   2.498
10289SOL    HW242747   4.550   4.178   2.545
10290SOL     OW42748   4.547   2.504   1.920
10290SOL    HW142749   4.554   2.411   1.938
10290SOL    HW242750   4.637   2.534   1.908
10291SOL     OW42751   0.643   1.638   3.841
10291SOL    HW142752   0.662   1.573   3.908
10291SOL    HW242753   0.691   1.609   3.763
10292SOL     OW42754   0.446   0.857  19.491
10292SOL    HW142755   0.528   0.854  19.443
10292SOL    HW242756   0.410   0.943  19.472
10293SOL     OW42757   1.706   4.048  19.467
10293SOL    HW142758   1.640   4.001  19.416
10293SOL    HW242759   1.682   4.140  19.457
10294SOL     OW42760   4.637   1.356  15.416
10294SOL    HW142761   4.593   1.306  15.485
10294SOL    HW242762   4.730   1.343  15.434
10295SOL     OW42763   3.177   3.898   0.345
10295SOL    HW142764   3.268   3.868   0.351
10295SOL    HW242765   3.128   3.835   0.398
10296SOL     OW42766   4.015   2.917  20.016
10296SOL    HW142767   4.049   3.004  19.993
10296SOL    HW242768   3.980   2.883  19.933
10297SOL     OW42769   0.480   4.331  21.116
10297SOL    HW142770   0.390   4.309  21.141
10297SOL    HW242771   0.480   4.331  21.020
10298SOL     OW42772   1.773   4.501  18.713
10298SOL    HW142773   1.750   4.564  18.645
10298SOL    HW242774   1.786   4.418  18.666
10299SOL     OW42775   2.538   2.940  16.995
10299SOL    HW142776   2.603   2.890  16.945
10299SOL    HW242777   2.572   2.939  17.085
10300SOL     OW42778   4.748   1.273   2.009
10300SOL    HW142779   0.025   1.311   2.063
10300SOL    HW242780   4.682   1.245   2.072
10301SOL     OW42781   4.304   0.720   4.800
10301SOL    HW142782   4.214   0.754   4.802
10301SOL    HW242783   4.349   0.776   4.736
10302SOL     OW42784   2.179   0.524  18.412
10302SOL    HW142785   2.153   0.454  18.471
10302SOL    HW242786   2.129   0.508  18.332
10303SOL     OW42787   4.212   4.249   2.879
10303SOL    HW142788   4.230   4.250   2.973
10303SOL    HW242789   4.146   4.317   2.867
10304SOL     OW42790   0.954   4.259   4.296
10304SOL    HW142791   1.031   4.207   4.319
10304SOL    HW242792   0.883   4.196   4.290
10305SOL     OW42793   1.739   3.032  11.956
10305SOL    HW142794   1.760   2.959  11.899
10305SOL    HW242795   1.813   3.038  12.017
10306SOL     OW42796   1.332   2.933  20.139
10306SOL    HW142797   1.338   3.000  20.071
10306SOL    HW242798   1.412   2.944  20.190
10307SOL     OW42799   1.354   3.464   4.611
10307SOL    HW142800   1.403   3.543   4.634
10307SOL    HW242801   1.419   3.408   4.566
10308SOL     OW42802   2.130   1.953   5.409
10308SOL    HW142803   2.047   1.906   5.418
10308SOL    HW242804   2.143   1.959   5.315
10309SOL     OW42805   1.125   0.245  15.226
10309SOL    HW142806   1.110   0.261  15.133
10309SOL    HW242807   1.144   0.151  15.232
10310SOL     OW42808   1.308   4.128  17.509
10310SOL    HW142809   1.350   4.168  17.585
10310SOL    HW242810   1.250   4.062  17.546
10311SOL     OW42811   2.422   0.893   9.714
10311SOL    HW142812   2.448   0.801   9.716
10311SOL    HW242813   2.498   0.939   9.680
10312SOL     OW42814   2.573   0.746  16.848
10312SOL    HW142815   2.499   0.760  16.790
10312SOL    HW242816   2.582   0.829  16.896
10313SOL     OW42817   3.032   4.053  16.998
10313SOL    HW142818   3.035   4.148  17.007
10313SOL    HW242819   3.076   4.020  17.077
10314SOL     OW42820   1.675   1.277  16.339
10314SOL    HW142821   1.621   1.346  16.299
10314SOL    HW242822   1.620   1.199  16.333
10315SOL     OW42823   0.736   1.530   2.009
10315SOL    HW142824   0.802   1.515   2.077
10315SOL    HW242825   0.663   1.572   2.054
10316SOL     OW42826   3.455   4.027  18.335
10316SOL    HW142827   3.400   4.105  18.331
10316SOL    HW242828   3.401   3.960  18.375
10317SOL     OW42829   3.160   1.539  20.353
10317SOL    HW142830   3.111   1.588  20.287
10317SOL    HW242831   3.201   1.468  20.304
10318SOL     OW42832   3.712   0.187   0.177
10318SOL    HW142833   3.643   0.244   0.210
10318SOL    HW242834   3.717   0.116   0.241
10319SOL     OW42835   1.549   2.681   6.162
10319SOL    HW142836   1.522   2.650   6.076
10319SOL    HW242837   1.610   2.753   6.145
10320SOL     OW42838   2.979   1.646   2.056
10320SOL    HW142839   3.012   1.559   2.081
10320SOL    HW242840   2.944   1.682   2.137
10321SOL     OW42841   1.299   1.600   0.880
10321SOL    HW142842   1.245   1.540   0.830
10321SOL    HW242843   1.238   1.642   0.941
10322SOL     OW42844   0.642   4.659  18.914
10322SOL    HW142845   0.614   4.584  18.966
10322SOL    HW242846   0.604   4.645  18.827
10323SOL     OW42847   1.498   1.600  16.787
10323SOL    HW142848   1.460   1.522  16.747
10323SOL    HW242849   1.545   1.643  16.715
10324SOL     OW42850   2.624   4.346   2.767
10324SOL    HW142851   2.638   4.289   2.842
10324SOL    HW242852   2.557   4.408   2.796
10325SOL     OW42853   2.707   1.368   4.720
10325SOL    HW142854   2.786   1.329   4.681
10325SOL    HW242855   2.707   1.458   4.689
10326SOL     OW42856   0.440   4.024   8.236
10326SOL    HW142857   0.446   4.032   8.141
10326SOL    HW242858   0.524   4.055   8.268
10327SOL     OW42859   0.247   0.540   0.613
10327SOL    HW142860   0.300   0.495   0.678
10327SOL    HW242861   0.205   0.469   0.564
10328SOL     OW42862   0.853   2.945   4.870
10328SOL    HW142863   0.780   3.004   4.850
10328SOL    HW242864   0.876   2.905   4.786
10329SOL     OW42865   3.928   1.312  17.270
10329SOL    HW142866   3.868   1.367  17.220
10329SOL    HW242867   3.871   1.254  17.320
10330SOL     OW42868   0.387   3.864  14.905
10330SOL    HW142869   0.355   3.874  14.994
10330SOL    HW242870   0.336   3.926  14.853
10331SOL     OW42871   0.150   3.790  13.725
10331SOL    HW142872   0.078   3.854  13.722
10331SOL    HW242873   0.179   3.781  13.635
10332SOL     OW42874   1.734   0.420   4.760
10332SOL    HW142875   1.743   0.338   4.808
10332SOL    HW242876   1.791   0.409   4.683
10333SOL     OW42877   2.314   4.624   6.729
10333SOL    HW142878   2.292   4.670   6.810
10333SOL    HW242879   2.231   4.614   6.683
10334SOL     OW42880   4.244   3.149   8.427
10334SOL    HW142881   4.162   3.104   8.406
10334SOL    HW242882   4.289   3.158   8.343
10335SOL     OW42883   4.449   3.584  14.714
10335SOL    HW142884   4.360   3.556  14.734
10335SOL    HW242885   4.461   3.562  14.622
10336SOL     OW42886   4.073   0.805  15.219
10336SOL    HW142887   4.164   0.834  15.229
10336SOL    HW242888   4.021   0.871  15.264
10337SOL     OW42889   1.341   2.894   3.909
10337SOL    HW142890   1.364   2.802   3.924
10337SOL    HW242891   1.317   2.898   3.817
10338SOL     OW42892   1.792   3.486   3.227
10338SOL    HW142893   1.885   3.489   3.250
10338SOL    HW242894   1.767   3.394   3.241
10339SOL     OW42895   0.849   0.732   5.906
10339SOL    HW142896   0.794   0.730   5.984
10339SOL    HW242897   0.905   0.655   5.914
10340SOL     OW42898   4.537   4.447   3.776
10340SOL    HW142899   4.591   4.397   3.837
10340SOL    HW242900   4.447   4.427   3.802
10341SOL     OW42901   2.068   3.659   5.265
10341SOL    HW142902   2.012   3.587   5.236
10341SOL    HW242903   2.062   3.723   5.194
10342SOL     OW42904   2.382   0.435   2.099
10342SOL    HW142905   2.439   0.499   2.056
10342SOL    HW242906   2.427   0.351   2.087
10343SOL     OW42907   0.544   3.656   6.725
10343SOL    HW142908   0.638   3.673   6.718
10343SOL    HW242909   0.506   3.742   6.744
10344SOL     OW42910   1.025   1.355   2.101
10344SOL    HW142911   1.100   1.383   2.049
10344SOL    HW242912   1.061   1.340   2.189
10345SOL     OW42913   1.341   2.615  18.136
10345SOL    HW142914   1.346   2.706  18.108
10345SOL    HW242915   1.247   2.598  18.144
10346SOL     OW42916   2.272   0.521   1.162
10346SOL    HW142917   2.186   0.552   1.190
10346SOL    HW242918   2.331   0.593   1.182
10347SOL     OW42919   2.790   1.025   3.934
10347SOL    HW142920   2.883   1.041   3.955
10347SOL    HW242921   2.757   1.110   3.906
10348SOL     OW42922   0.004   3.148   1.723
10348SOL    HW142923   0.024   3.235   1.688
10348SOL    HW242924   4.773   3.096   1.646
10349SOL     OW42925   2.403   2.310  18.488
10349SOL    HW142926   2.401   2.291  18.582
10349SOL    HW242927   2.429   2.402  18.484
10350SOL     OW42928   0.694   1.842  17.070
10350SOL    HW142929   0.698   1.761  17.120
10350SOL    HW242930   0.605   1.844  17.034
10351SOL     OW42931   0.692   0.219  18.457
10351SOL    HW142932   0.778   0.233  18.497
10351SOL    HW242933   0.709   0.215  18.363
10352SOL     OW42934   0.849   0.750  16.521
10352SOL    HW142935   0.853   0.833  16.570
10352SOL    HW242936   0.860   0.776  16.430
10353SOL     OW42937   3.660   0.929   3.808
10353SOL    HW142938   3.742   0.899   3.771
10353SOL    HW242939   3.648   1.017   3.771
10354SOL     OW42940   1.034   1.874   4.890
10354SOL    HW142941   0.970   1.923   4.839
10354SOL    HW242942   1.077   1.816   4.827
10355SOL     OW42943   2.215   1.760   2.953
10355SOL    HW142944   2.158   1.798   3.020
10355SOL    HW242945   2.176   1.787   2.870
10356SOL     OW42946   0.403   1.588  17.062
10356SOL    HW142947   0.433   1.636  16.985
10356SOL    HW242948   0.411   1.650  17.134
10357SOL     OW42949   0.087   0.103  15.328
10357SOL    HW142950   0.162   0.134  15.378
10357SOL    HW242951   0.081   0.010  15.349
10358SOL     OW42952   2.321   3.596   6.480
10358SOL    HW142953   2.239   3.613   6.527
10358SOL    HW242954   2.344   3.507   6.505
10359SOL     OW42955   0.717   1.185  20.465
10359SOL    HW142956   0.743   1.268  20.505
10359SOL    HW242957   0.633   1.165  20.507
10360SOL     OW42958   1.193   3.157  21.012
10360SOL    HW142959   1.269   3.129  20.960
10360SOL    HW242960   1.203   3.252  21.019
10361SOL     OW42961   1.535   0.835   6.017
10361SOL    HW142962   1.579   0.854   5.934
10361SOL    HW242963   1.463   0.897   6.021
10362SOL     OW42964   4.617   0.502   6.249
10362SOL    HW142965   4.619   0.544   6.163
10362SOL    HW242966   4.641   0.410   6.232
10363SOL     OW42967   2.524   3.338  19.770
10363SOL    HW142968   2.508   3.386  19.689
10363SOL    HW242969   2.468   3.383  19.835
10364SOL     OW42970   3.809   3.988  20.538
10364SOL    HW142971   3.812   4.016  20.446
10364SOL    HW242972   3.847   4.061  20.587
10365SOL     OW42973   4.787   3.476  20.481
10365SOL    HW142974   4.789   3.387  20.445
10365SOL    HW242975   4.701   3.483  20.522
10366SOL     OW42976   3.477   3.009  15.035
10366SOL    HW142977   3.417   2.998  14.962
10366SOL    HW242978   3.485   2.921  15.073
10367SOL     OW42979   2.567   1.971   6.437
10367SOL    HW142980   2.643   2.028   6.447
10367SOL    HW242981   2.566   1.949   6.344
10368SOL     OW42982   0.270   2.605  19.394
10368SOL    HW142983   0.219   2.618  19.314
10368SOL    HW242984   0.359   2.589  19.363
10369SOL     OW42985   3.825   0.578  19.662
10369SOL    HW142986   3.846   0.489  19.633
10369SOL    HW242987   3.893   0.633  19.623
10370SOL     OW42988   4.353   0.969  18.177
10370SOL    HW142989   4.355   0.898  18.242
10370SOL    HW242990   4.263   0.969  18.144
10371SOL     OW42991   3.322   4.025  15.801
10371SOL    HW142992   3.313   4.089  15.871
10371SOL    HW242993   3.416   4.014  15.790
10372SOL     OW42994   0.286   4.190   2.899
10372SOL    HW142995   0.247   4.170   2.984
10372SOL    HW242996   0.380   4.192   2.915
10373SOL     OW42997   4.691   3.406   1.399
10373SOL    HW142998   4.625   3.475   1.399
10373SOL    HW242999   4.732   3.412   1.485
10374SOL     OW43000   2.628   3.358  15.580
10374SOL    HW143001   2.637   3.435  15.636
10374SOL    HW243002   2.703   3.303  15.603
10375SOL     OW43003   1.447   2.176  21.117
10375SOL    HW143004   1.503   2.199  21.043
10375SOL    HW243005   1.448   2.253  21.173
10376SOL     OW43006   3.954   4.205  20.650
10376SOL    HW143007   3.874   4.226  20.699
10376SOL    HW243008   4.023   4.257  20.693
10377SOL     OW43009   3.315   2.774   8.180
10377SOL    HW143010   3.270   2.844   8.133
10377SOL    HW243011   3.268   2.694   8.153
10378SOL     OW43012   1.026   2.709   4.463
10378SOL    HW143013   1.055   2.668   4.545
10378SOL    HW243014   1.009   2.800   4.488
10379SOL     OW43015   3.741   1.473  16.910
10379SOL    HW143016   3.738   1.479  17.005
10379SOL    HW243017   3.655   1.438  16.886
10380SOL     OW43018   0.137   2.679   2.650
10380SOL    HW143019   0.091   2.599   2.623
10380SOL    HW243020   0.130   2.738   2.575
10381SOL     OW43021   1.459   1.891  19.734
10381SOL    HW143022   1.475   1.928  19.820
10381SOL    HW243023   1.365   1.870  19.733
10382SOL     OW43024   1.922   2.450  18.121
10382SOL    HW143025   1.979   2.526  18.131
10382SOL    HW243026   1.921   2.410  18.208
10383SOL     OW43027   1.676   4.466  18.407
10383SOL    HW143028   1.637   4.472  18.320
10383SOL    HW243029   1.709   4.376  18.412
10384SOL     OW43030   3.347   1.184  19.723
10384SOL    HW143031   3.411   1.245  19.760
10384SOL    HW243032   3.290   1.160  19.796
10385SOL     OW43033   4.200   2.616  16.742
10385SOL    HW143034   4.218   2.585  16.831
10385SOL    HW243035   4.273   2.581  16.690
10386SOL     OW43036   4.239   2.451   1.091
10386SOL    HW143037   4.304   2.441   1.022
10386SOL    HW243038   4.156   2.466   1.044
10387SOL     OW43039   0.997   4.212  14.001
10387SOL    HW143040   0.945   4.283  13.962
10387SOL    HW243041   1.011   4.239  14.092
10388SOL     OW43042   4.551   0.948  19.908
10388SOL    HW143043   4.626   0.948  19.848
10388SOL    HW243044   4.523   1.040  19.910
10389SOL     OW43045   2.080   1.549   5.031
10389SOL    HW143046   2.008   1.488   5.012
10389SOL    HW243047   2.036   1.632   5.050
10390SOL     OW43048   2.632   1.150  14.453
10390SOL    HW143049   2.670   1.154  14.541
10390SOL    HW243050   2.672   1.223  14.406
10391SOL     OW43051   1.003   4.037   0.725
10391SOL    HW143052   1.005   4.040   0.820
10391SOL    HW243053   0.911   4.049   0.703
10392SOL     OW43054   2.014   4.554  15.204
10392SOL    HW143055   2.056   4.552  15.118
10392SOL    HW243056   2.081   4.589  15.262
10393SOL     OW43057   1.133   2.712  14.727
10393SOL    HW143058   1.207   2.761  14.764
10393SOL    HW243059   1.062   2.724  14.790
10394SOL     OW43060   3.160   2.121  15.988
10394SOL    HW143061   3.137   2.096  16.077
10394SOL    HW243062   3.228   2.188  15.998
10395SOL     OW43063   0.495   1.784   5.966
10395SOL    HW143064   0.470   1.693   5.951
10395SOL    HW243065   0.590   1.784   5.957
10396SOL     OW43066   2.845   3.425   1.332
10396SOL    HW143067   2.841   3.517   1.307
10396SOL    HW243068   2.859   3.378   1.249
10397SOL     OW43069   2.909   0.574  19.883
10397SOL    HW143070   2.874   0.609  19.801
10397SOL    HW243071   2.849   0.504  19.908
10398SOL     OW43072   0.438   2.591   1.017
10398SOL    HW143073   0.472   2.570   0.930
10398SOL    HW243074   0.466   2.681   1.033
10399SOL     OW43075   3.474   0.017   0.653
10399SOL    HW143076   3.526   0.098   0.655
10399SOL    HW243077   3.535   4.743   0.622
10400SOL     OW43078   4.158   4.531  19.174
10400SOL    HW143079   4.121   4.614  19.204
10400SOL    HW243080   4.228   4.512  19.237
10401SOL     OW43081   4.082   1.085  16.357
10401SOL    HW143082   4.116   1.001  16.325
10401SOL    HW243083   4.120   1.095  16.444
10402SOL     OW43084   3.989   0.568   5.225
10402SOL    HW143085   4.071   0.589   5.270
10402SOL    HW243086   3.922   0.612   5.276
10403SOL     OW43087   0.853   2.468  17.323
10403SOL    HW143088   0.771   2.418  17.319
10403SOL    HW243089   0.897   2.434  17.401
10404SOL     OW43090   4.652   4.753  18.787
10404SOL    HW143091   4.712   0.022  18.828
10404SOL    HW243092   4.565   4.776  18.821
10405SOL     OW43093   1.365   0.779   1.266
10405SOL    HW143094   1.310   0.757   1.191
10405SOL    HW243095   1.329   0.860   1.300
10406SOL     OW43096   4.294   2.413   3.882
10406SOL    HW143097   4.263   2.397   3.794
10406SOL    HW243098   4.282   2.507   3.896
10407SOL     OW43099   1.545   4.358  14.347
10407SOL    HW143100   1.460   4.337  14.385
10407SOL    HW243101   1.535   4.342  14.254
10408SOL     OW43102   3.860   2.613   7.156
10408SOL    HW143103   3.883   2.522   7.176
10408SOL    HW243104   3.767   2.610   7.136
10409SOL     OW43105   0.217   0.702   1.127
10409SOL    HW143106   0.145   0.758   1.158
10409SOL    HW243107   0.215   0.710   1.032
10410SOL     OW43108   3.405   2.322  17.660
10410SOL    HW143109   3.423   2.252  17.723
10410SOL    HW243110   3.395   2.401  17.714
10411SOL     OW43111   0.770   2.291  15.301
10411SOL    HW143112   0.799   2.367  15.352
10411SOL    HW243113   0.790   2.216  15.356
10412SOL     OW43114   1.573   3.707  19.329
10412SOL    HW143115   1.632   3.749  19.266
10412SOL    HW243116   1.518   3.779  19.362
10413SOL     OW43117   2.116   4.174  18.973
10413SOL    HW143118   2.093   4.256  18.929
10413SOL    HW243119   2.169   4.127  18.910
10414SOL     OW43120   3.586   3.020   5.829
10414SOL    HW143121   3.648   3.091   5.816
10414SOL    HW243122   3.550   3.036   5.916
10415SOL     OW43123   0.480   3.467   0.603
10415SOL    HW143124   0.559   3.522   0.602
10415SOL    HW243125   0.441   3.481   0.516
10416SOL     OW43126   0.834   0.975   4.190
10416SOL    HW143127   0.915   0.999   4.235
10416SOL    HW243128   0.766   0.983   4.258
10417SOL     OW43129   2.535   0.682   9.581
10417SOL    HW143130   2.562   0.611   9.640
10417SOL    HW243131   2.558   0.651   9.494
10418SOL     OW43132   3.051   2.013   1.419
10418SOL    HW143133   2.963   2.040   1.395
10418SOL    HW243134   3.039   1.948   1.488
10419SOL     OW43135   4.762   1.905   5.828
10419SOL    HW143136   0.021   1.941   5.756
10419SOL    HW243137   4.679   1.951   5.823
10420SOL     OW43138   3.234   3.408  18.842
10420SOL    HW143139   3.148   3.414  18.884
10420SOL    HW243140   3.294   3.382  18.912
10421SOL     OW43141   1.387   4.680  16.533
10421SOL    HW143142   1.429   4.621  16.597
10421SOL    HW243143   1.299   4.644  16.522
10422SOL     OW43144   2.217   3.613  20.174
10422SOL    HW143145   2.233   3.651  20.261
10422SOL    HW243146   2.122   3.604  20.169
10423SOL     OW43147   3.094   3.833  20.570
10423SOL    HW143148   3.130   3.922  20.571
10423SOL    HW243149   3.015   3.840  20.517
10424SOL     OW43150   3.903   2.842   3.422
10424SOL    HW143151   3.821   2.871   3.460
10424SOL    HW243152   3.938   2.920   3.378
10425SOL     OW43153   1.197   3.648   3.549
10425SOL    HW143154   1.140   3.645   3.626
10425SOL    HW243155   1.255   3.722   3.565
10426SOL     OW43156   2.178   1.085  20.336
10426SOL    HW143157   2.111   1.029  20.376
10426SOL    HW243158   2.158   1.083  20.242
10427SOL     OW43159   0.453   1.376  19.335
10427SOL    HW143160   0.540   1.415  19.322
10427SOL    HW243161   0.393   1.445  19.308
10428SOL     OW43162   1.542   3.613   2.481
10428SOL    HW143163   1.512   3.699   2.510
10428SOL    HW243164   1.591   3.578   2.556
10429SOL     OW43165   2.232   4.632  16.734
10429SOL    HW143166   2.270   4.566  16.792
10429SOL    HW243167   2.139   4.635  16.758
10430SOL     OW43168   0.329   4.142  18.560
10430SOL    HW143169   0.308   4.054  18.530
10430SOL    HW243170   0.363   4.186  18.483
10431SOL     OW43171   2.096   3.286   3.070
10431SOL    HW143172   2.110   3.354   3.136
10431SOL    HW243173   2.182   3.273   3.030
10432SOL     OW43174   3.668   4.077  19.105
10432SOL    HW143175   3.604   4.058  19.036
10432SOL    HW243176   3.665   4.172  19.114
10433SOL     OW43177   2.432   3.119  16.811
10433SOL    HW143178   2.403   3.198  16.857
10433SOL    HW243179   2.480   3.069  16.877
10434SOL     OW43180   2.301   2.998   2.792
10434SOL    HW143181   2.298   2.976   2.885
10434SOL    HW243182   2.228   2.948   2.753
10435SOL     OW43183   2.750   4.252  20.706
10435SOL    HW143184   2.664   4.239  20.746
10435SOL    HW243185   2.748   4.341  20.671
10436SOL     OW43186   3.469   0.227   3.790
10436SOL    HW143187   3.541   0.193   3.738
10436SOL    HW243188   3.500   0.312   3.822
10437SOL     OW43189   3.085   0.947  20.083
10437SOL    HW143190   3.004   0.910  20.049
10437SOL    HW243191   3.072   1.042  20.079
10438SOL     OW43192   0.748   3.488  20.475
10438SOL    HW143193   0.689   3.516  20.404
10438SOL    HW243194   0.746   3.393  20.471
10439SOL     OW43195   0.815   4.065  13.514
10439SOL    HW143196   0.734   4.041  13.560
10439SOL    HW243197   0.793   4.145  13.467
10440SOL     OW43198   2.993   4.626   0.802
10440SOL    HW143199   3.060   4.691   0.782
10440SOL    HW243200   2.969   4.643   0.893
10441SOL     OW43201   3.421   2.347  19.174
10441SOL    HW143202   3.345   2.293  19.196
10441SOL    HW243203   3.461   2.304  19.099
10442SOL     OW43204   3.964   4.763  15.614
10442SOL    HW143205   3.923   0.008  15.536
10442SOL    HW243206   4.053   0.006  15.614
10443SOL     OW43207   1.346   2.565   6.343
10443SOL    HW143208   1.390   2.628   6.286
10443SOL    HW243209   1.379   2.480   6.314
10444SOL     OW43210   3.051   0.092  16.647
10444SOL    HW143211   3.055   0.018  16.586
10444SOL    HW243212   3.007   0.057  16.724
10445SOL     OW43213   1.384   3.797  20.345
10445SOL    HW143214   1.418   3.885  20.361
10445SOL    HW243215   1.433   3.767  20.268
10446SOL     OW43216   2.801   4.486  17.860
10446SOL    HW143217   2.872   4.442  17.814
10446SOL    HW243218   2.845   4.541  17.926
10447SOL     OW43219   1.670   3.148  18.195
10447SOL    HW143220   1.663   3.177  18.104
10447SOL    HW243221   1.725   3.214  18.237
10448SOL     OW43222   4.542   3.044  19.847
10448SOL    HW143223   4.601   2.971  19.867
10448SOL    HW243224   4.457   3.003  19.833
10449SOL     OW43225   0.160   1.126  16.943
10449SOL    HW143226   0.148   1.034  16.919
10449SOL    HW243227   0.132   1.131  17.034
10450SOL     OW43228   2.326   4.593  18.776
10450SOL    HW143229   2.364   4.679  18.789
10450SOL    HW243230   2.356   4.541  18.851
10451SOL     OW43231   2.328   2.969   8.311
10451SOL    HW143232   2.340   3.063   8.295
10451SOL    HW243233   2.393   2.927   8.256
10452SOL     OW43234   0.802   3.010   1.569
10452SOL    HW143235   0.776   2.934   1.620
10452SOL    HW243236   0.841   3.070   1.633
10453SOL     OW43237   3.758   4.560   0.852
10453SOL    HW143238   3.718   4.491   0.905
10453SOL    HW243239   3.823   4.514   0.798
10454SOL     OW43240   0.181   3.727  19.475
10454SOL    HW143241   0.211   3.761  19.391
10454SOL    HW243242   0.118   3.792  19.506
10455SOL     OW43243   0.891   0.382  17.830
10455SOL    HW143244   0.912   0.455  17.771
10455SOL    HW243245   0.970   0.370  17.882
10456SOL     OW43246   2.717   1.623   4.547
10456SOL    HW143247   2.807   1.656   4.540
10456SOL    HW243248   2.677   1.645   4.463
10457SOL     OW43249   3.029   2.550  17.857
10457SOL    HW143250   2.971   2.474  17.864
10457SOL    HW243251   3.031   2.587  17.945
10458SOL     OW43252   3.431   1.798   3.770
10458SOL    HW143253   3.367   1.727   3.778
10458SOL    HW243254   3.457   1.797   3.678
10459SOL     OW43255   0.032   1.234   2.376
10459SOL    HW143256   4.773   1.292   2.430
10459SOL    HW243257   0.098   1.197   2.436
10460SOL     OW43258   4.285   1.994   1.409
10460SOL    HW143259   4.276   2.080   1.368
10460SOL    HW243260   4.339   2.010   1.486
10461SOL     OW43261   3.174   3.632   2.029
10461SOL    HW143262   3.154   3.553   2.079
10461SOL    HW243263   3.111   3.632   1.957
10462SOL     OW43264   1.156   0.118  15.977
10462SOL    HW143265   1.114   0.115  16.063
10462SOL    HW243266   1.243   0.081  15.992
10463SOL     OW43267   2.793   0.347   2.638
10463SOL    HW143268   2.854   0.355   2.711
10463SOL    HW243269   2.725   0.412   2.655
10464SOL     OW43270   1.791   1.912   2.721
10464SOL    HW143271   1.812   1.947   2.635
10464SOL    HW243272   1.699   1.934   2.734
10465SOL     OW43273   1.039   3.830  19.227
10465SOL    HW143274   1.065   3.749  19.182
10465SOL    HW243275   0.961   3.805  19.276
10466SOL     OW43276   1.615   3.008  14.686
10466SOL    HW143277   1.658   2.951  14.622
10466SOL    HW243278   1.566   2.949  14.742
10467SOL     OW43279   2.429   1.090  17.463
10467SOL    HW143280   2.467   1.007  17.492
10467SOL    HW243281   2.503   1.148  17.454
10468SOL     OW43282   3.754   3.554   7.630
10468SOL    HW143283   3.744   3.463   7.656
10468SOL    HW243284   3.715   3.604   7.701
10469SOL     OW43285   1.818   3.672   4.853
10469SOL    HW143286   1.730   3.651   4.820
10469SOL    HW243287   1.847   3.592   4.896
10470SOL     OW43288   2.725   1.370  15.819
10470SOL    HW143289   2.767   1.397  15.738
10470SOL    HW243290   2.797   1.341  15.875
10471SOL     OW43291   4.620   1.692  15.470
10471SOL    HW143292   4.609   1.598  15.457
10471SOL    HW243293   4.600   1.706  15.563
10472SOL     OW43294   4.542   1.784  16.363
10472SOL    HW143295   4.627   1.828  16.365
10472SOL    HW243296   4.489   1.831  16.428
10473SOL     OW43297   4.558   4.739  11.751
10473SOL    HW143298   4.561   4.680  11.826
10473SOL    HW243299   4.465   4.750  11.732
10474SOL     OW43300   0.527   1.871  19.164
10474SOL    HW143301   0.548   1.941  19.102
10474SOL    HW243302   0.576   1.892  19.243
10475SOL     OW43303   4.624   4.110  21.189
10475SOL    HW143304   4.590   4.108  21.100
10475SOL    HW243305   4.701   4.167  21.184
10476SOL     OW43306   2.882   3.295  20.284
10476SOL    HW143307   2.855   3.366  20.225
10476SOL    HW243308   2.930   3.234  20.228
10477SOL     OW43309   4.479   1.911   0.598
10477SOL    HW143310   4.517   1.992   0.565
10477SOL    HW243311   4.406   1.939   0.653
10478SOL     OW43312   0.276   2.488   2.005
10478SOL    HW143313   0.286   2.400   2.040
10478SOL    HW243314   0.362   2.510   1.969
10479SOL     OW43315   0.678   2.264   6.242
10479SOL    HW143316   0.611   2.237   6.306
10479SOL    HW243317   0.637   2.250   6.157
10480SOL     OW43318   1.919   3.431  19.952
10480SOL    HW143319   1.828   3.440  19.981
10480SOL    HW243320   1.949   3.521  19.938
10481SOL     OW43321   3.303   4.189  16.045
10481SOL    HW143322   3.211   4.216  16.048
10481SOL    HW243323   3.352   4.268  16.070
10482SOL     OW43324   3.888   2.205  17.725
10482SOL    HW143325   3.884   2.274  17.659
10482SOL    HW243326   3.932   2.132  17.680
10483SOL     OW43327   0.692   0.388  16.388
10483SOL    HW143328   0.674   0.320  16.453
10483SOL    HW243329   0.675   0.346  16.304
10484SOL     OW43330   3.145   1.768   5.104
10484SOL    HW143331   3.168   1.861   5.114
10484SOL    HW243332   3.055   1.763   5.134
10485SOL     OW43333   2.655   3.714  18.638
10485SOL    HW143334   2.742   3.704  18.675
10485SOL    HW243335   2.655   3.802  18.600
10486SOL     OW43336   1.540   3.842  20.940
10486SOL    HW143337   1.569   3.776  21.003
10486SOL    HW243338   1.599   3.832  20.866
10487SOL     OW43339   4.064   0.425   8.306
10487SOL    HW143340   4.153   0.442   8.276
10487SOL    HW243341   4.074   0.401   8.398
10488SOL     OW43342   0.742   2.810  16.530
10488SOL    HW143343   0.836   2.826  16.541
10488SOL    HW243344   0.700   2.868  16.594
10489SOL     OW43345   2.297   4.081   0.575
10489SOL    HW143346   2.293   4.039   0.489
10489SOL    HW243347   2.390   4.079   0.598
10490SOL     OW43348   2.026   2.985   0.632
10490SOL    HW143349   2.013   3.071   0.672
10490SOL    HW243350   1.959   2.980   0.564
10491SOL     OW43351   0.592   0.721  16.653
10491SOL    HW143352   0.681   0.740  16.623
10491SOL    HW243353   0.605   0.657  16.723
10492SOL     OW43354   4.197   4.129  18.468
10492SOL    HW143355   4.239   4.043  18.474
10492SOL    HW243356   4.251   4.177  18.405
10493SOL     OW43357   1.800   3.607   1.796
10493SOL    HW143358   1.801   3.515   1.820
10493SOL    HW243359   1.892   3.629   1.778
10494SOL     OW43360   1.190   0.897   6.937
10494SOL    HW143361   1.101   0.932   6.937
10494SOL    HW243362   1.241   0.959   6.990
10495SOL     OW43363   0.183   1.318   2.155
10495SOL    HW143364   0.150   1.288   2.240
10495SOL    HW243365   0.261   1.264   2.139
10496SOL     OW43366   2.484   4.383   3.760
10496SOL    HW143367   2.435   4.464   3.776
10496SOL    HW243368   2.502   4.384   3.666
10497SOL     OW43369   1.183   3.105   2.927
10497SOL    HW143370   1.126   3.145   2.992
10497SOL    HW243371   1.155   3.142   2.844
10498SOL     OW43372   1.723   3.832   6.289
10498SOL    HW143373   1.741   3.898   6.357
10498SOL    HW243374   1.752   3.750   6.328
10499SOL     OW43375   1.066   3.387  20.266
10499SOL    HW143376   1.034   3.344  20.345
10499SOL    HW243377   1.101   3.471  20.297
10500SOL     OW43378   2.108   4.512  19.106
10500SOL    HW143379   2.109   4.600  19.069
10500SOL    HW243380   2.054   4.461  19.046
10501SOL     OW43381   3.642   4.683   7.813
10501SOL    HW143382   3.577   4.619   7.839
10501SOL    HW243383   3.726   4.642   7.833
10502SOL     OW43384   0.680   0.723  19.245
10502SOL    HW143385   0.678   0.686  19.157
10502SOL    HW243386   0.744   0.794  19.240
10503SOL     OW43387   0.593   3.955   1.455
10503SOL    HW143388   0.661   4.019   1.435
10503SOL    HW243389   0.532   3.962   1.381
10504SOL     OW43390   4.173   4.408   3.503
10504SOL    HW143391   4.101   4.354   3.472
10504SOL    HW243392   4.176   4.393   3.598
10505SOL     OW43393   2.693   2.825  17.763
10505SOL    HW143394   2.644   2.907  17.767
10505SOL    HW243395   2.657   2.779  17.687
10506SOL     OW43396   1.054   3.408   3.459
10506SOL    HW143397   1.110   3.485   3.472
10506SOL    HW243398   0.969   3.445   3.435
10507SOL     OW43399   4.374   4.727   5.574
10507SOL    HW143400   4.444   4.698   5.515
10507SOL    HW243401   4.295   4.689   5.537
10508SOL     OW43402   2.214   1.278  11.953
10508SOL    HW143403   2.247   1.191  11.975
10508SOL    HW243404   2.229   1.329  12.032
10509SOL     OW43405   4.041   0.037  19.560
10509SOL    HW143406   4.035   4.735  19.568
10509SOL    HW243407   4.105   0.063  19.626
10510SOL     OW43408   0.244   4.550  13.774
10510SOL    HW143409   0.312   4.488  13.747
10510SOL    HW243410   0.285   4.636  13.766
10511SOL     OW43411   0.131   1.518   4.740
10511SOL    HW143412   0.218   1.532   4.703
10511SOL    HW243413   0.129   1.572   4.819
10512SOL     OW43414   0.593   3.342  20.118
10512SOL    HW143415   0.585   3.396  20.196
10512SOL    HW243416   0.502   3.326  20.090
10513SOL     OW43417   4.184   4.658  17.841
10513SOL    HW143418   4.269   4.689  17.810
10513SOL    HW243419   4.152   4.601  17.771
10514SOL     OW43420   3.926   2.011   2.857
10514SOL    HW143421   3.889   1.943   2.912
10514SOL    HW243422   3.891   1.994   2.769
10515SOL     OW43423   1.849   1.558   1.844
10515SOL    HW143424   1.803   1.538   1.763
10515SOL    HW243425   1.788   1.532   1.913
10516SOL     OW43426   0.859   3.735  20.488
10516SOL    HW143427   0.951   3.729  20.462
10516SOL    HW243428   0.830   3.644  20.494
10517SOL     OW43429   3.554   3.933  21.206
10517SOL    HW143430   3.641   3.942  21.246
10517SOL    HW243431   3.558   3.851  21.157
10518SOL     OW43432   2.760   0.173   4.582
10518SOL    HW143433   2.696   0.141   4.646
10518SOL    HW243434   2.845   0.151   4.619
10519SOL     OW43435   1.329   3.810   0.014
10519SOL    HW143436   1.320   3.828   0.107
10519SOL    HW243437   1.418   3.776   0.005
10520SOL     OW43438   0.115   2.734  20.251
10520SOL    HW143439   0.118   2.740  20.347
10520SOL    HW243440   0.185   2.793  20.221
10521SOL     OW43441   3.551   1.764  17.974
10521SOL    HW143442   3.616   1.829  18.000
10521SOL    HW243443   3.523   1.724  18.056
10522SOL     OW43444   0.303   4.559   3.132
10522SOL    HW143445   0.211   4.561   3.104
10522SOL    HW243446   0.303   4.603   3.217
10523SOL     OW43447   0.058   2.069   2.439
10523SOL    HW143448   0.059   1.985   2.484
10523SOL    HW243449   4.782   2.119   2.484
10524SOL     OW43450   0.665   0.260   6.172
10524SOL    HW143451   0.599   0.233   6.236
10524SOL    HW243452   0.615   0.305   6.104
10525SOL     OW43453   3.522   1.682  16.929
10525SOL    HW143454   3.555   1.737  16.858
10525SOL    HW243455   3.548   1.593  16.905
10526SOL     OW43456   4.072   0.621   2.887
10526SOL    HW143457   4.030   0.550   2.839
10526SOL    HW243458   4.108   0.677   2.818
10527SOL     OW43459   3.337   1.441  20.959
10527SOL    HW143460   3.362   1.500  20.887
10527SOL    HW243461   3.365   1.354  20.928
10528SOL     OW43462   1.671   0.162  19.337
10528SOL    HW143463   1.629   0.222  19.398
10528SOL    HW243464   1.598   0.110  19.301
10529SOL     OW43465   4.351   2.768  16.288
10529SOL    HW143466   4.399   2.828  16.345
10529SOL    HW243467   4.337   2.817  16.207
10530SOL     OW43468   3.268   4.718   3.774
10530SOL    HW143469   3.269   0.008   3.821
10530SOL    HW243470   3.320   4.734   3.695
10531SOL     OW43471   1.539   3.705   4.104
10531SOL    HW143472   1.493   3.786   4.124
10531SOL    HW243473   1.473   3.647   4.065
10532SOL     OW43474   0.724   0.279   5.793
10532SOL    HW143475   0.812   0.298   5.826
10532SOL    HW243476   0.665   0.317   5.858
10533SOL     OW43477   1.814   1.234  11.709
10533SOL    HW143478   1.719   1.221  11.708
10533SOL    HW243479   1.826   1.322  11.742
10534SOL     OW43480   0.855   4.668   6.006
10534SOL    HW143481   0.806   4.586   6.011
10534SOL    HW243482   0.840   4.700   5.917
10535SOL     OW43483   0.989   2.513   5.375
10535SOL    HW143484   1.021   2.494   5.463
10535SOL    HW243485   0.940   2.435   5.350
10536SOL     OW43486   3.869   1.175   0.218
10536SOL    HW143487   3.927   1.116   0.266
10536SOL    HW243488   3.781   1.148   0.244
10537SOL     OW43489   4.081   1.736  21.008
10537SOL    HW143490   4.102   1.691  20.926
10537SOL    HW243491   4.037   1.670  21.061
10538SOL     OW43492   4.262   4.051  20.271
10538SOL    HW143493   4.265   3.980  20.335
10538SOL    HW243494   4.188   4.105  20.299
10539SOL     OW43495   4.145   1.669   3.270
10539SOL    HW143496   4.146   1.674   3.174
10539SOL    HW243497   4.231   1.636   3.294
10540SOL     OW43498   1.673   3.397  17.754
10540SOL    HW143499   1.701   3.329  17.815
10540SOL    HW243500   1.754   3.439  17.725
10541SOL     OW43501   1.628   0.449   0.779
10541SOL    HW143502   1.643   0.537   0.745
10541SOL    HW243503   1.623   0.394   0.702
10542SOL     OW43504   2.478   3.730  17.877
10542SOL    HW143505   2.440   3.817  17.885
10542SOL    HW243506   2.470   3.709  17.783
10543SOL     OW43507   1.466   3.568  14.791
10543SOL    HW143508   1.537   3.510  14.763
10543SOL    HW243509   1.485   3.651  14.745
10544SOL     OW43510   2.725   0.636   5.436
10544SOL    HW143511   2.773   0.634   5.354
10544SOL    HW243512   2.634   0.650   5.410
10545SOL     OW43513   0.679   0.083  12.146
10545SOL    HW143514   0.770   0.113  12.143
10545SOL    HW243515   0.681   0.007  12.203
10546SOL     OW43516   4.505   4.718   2.890
10546SOL    HW143517   4.530   4.789   2.948
10546SOL    HW243518   4.582   4.704   2.835
10547SOL     OW43519   3.243   1.755   2.194
10547SOL    HW143520   3.208   1.794   2.114
10547SOL    HW243521   3.265   1.665   2.170
10548SOL     OW43522   0.980   4.774  15.047
10548SOL    HW143523   0.921   4.778  15.122
10548SOL    HW243524   1.005   0.072  15.030
10549SOL     OW43525   4.302   2.957   3.382
10549SOL    HW143526   4.374   2.995   3.431
10549SOL    HW243527   4.285   2.872   3.424
10550SOL     OW43528   4.146   0.280  14.681
10550SOL    HW143529   4.192   0.316  14.757
10550SOL    HW243530   4.169   0.339  14.609
10551SOL     OW43531   4.612   2.378  17.081
10551SOL    HW143532   4.629   2.443  17.150
10551SOL    HW243533   4.606   2.295  17.128
10552SOL     OW43534   2.647   0.648  16.585
10552SOL    HW143535   2.642   0.698  16.504
10552SOL    HW243536   2.683   0.710  16.649
10553SOL     OW43537   0.757   0.892  18.784
10553SOL    HW143538   0.761   0.939  18.700
10553SOL    HW243539   0.777   0.959  18.850
10554SOL     OW43540   2.011   1.388  12.812
10554SOL    HW143541   1.922   1.356  12.796
10554SOL    HW243542   2.042   1.417  12.726
10555SOL     OW43543   0.656   2.451   2.369
10555SOL    HW143544   0.580   2.480   2.420
10555SOL    HW243545   0.657   2.509   2.293
10556SOL     OW43546   4.635   0.515  17.417
10556SOL    HW143547   4.730   0.528  17.413
10556SOL    HW243548   4.618   0.490  17.508
10557SOL     OW43549   3.829   4.311   0.242
10557SOL    HW143550   3.875   4.228   0.246
10557SOL    HW243551   3.819   4.329   0.149
10558SOL     OW43552   2.635   0.150   1.377
10558SOL    HW143553   2.645   0.116   1.465
10558SOL    HW243554   2.549   0.193   1.377
10559SOL     OW43555   4.442   2.752   1.489
10559SOL    HW143556   4.406   2.747   1.577
10559SOL    HW243557   4.374   2.714   1.433
10560SOL     OW43558   4.236   1.020  16.042
10560SOL    HW143559   4.193   1.105  16.048
10560SOL    HW243560   4.234   0.986  16.132
10561SOL     OW43561   1.162   2.632   4.703
10561SOL    HW143562   1.175   2.700   4.769
10561SOL    HW243563   1.202   2.554   4.741
10562SOL     OW43564   0.984   0.508  10.377
10562SOL    HW143565   1.028   0.433  10.418
10562SOL    HW243566   1.011   0.583  10.430
10563SOL     OW43567   4.397   2.112  17.425
10563SOL    HW143568   4.482   2.147  17.400
10563SOL    HW243569   4.391   2.130  17.519
10564SOL     OW43570   2.870   2.342   6.285
10564SOL    HW143571   2.803   2.352   6.217
10564SOL    HW243572   2.901   2.431   6.301
10565SOL     OW43573   4.502   0.608   2.890
10565SOL    HW143574   4.509   0.659   2.809
10565SOL    HW243575   4.593   0.588   2.913
10566SOL     OW43576   0.808   2.925  14.679
10566SOL    HW143577   0.744   2.854  14.685
10566SOL    HW243578   0.887   2.889  14.720
10567SOL     OW43579   2.525   2.893   3.151
10567SOL    HW143580   2.611   2.855   3.168
10567SOL    HW243581   2.489   2.912   3.238
10568SOL     OW43582   1.943   2.089  15.208
10568SOL    HW143583   1.933   2.039  15.127
10568SOL    HW243584   1.974   2.174  15.180
10569SOL     OW43585   3.908   1.816   5.973
10569SOL    HW143586   3.938   1.853   5.891
10569SOL    HW243587   3.984   1.823   6.031
10570SOL     OW43588   4.631   1.936   5.412
10570SOL    HW143589   4.613   1.869   5.478
10570SOL    HW243590   4.677   1.890   5.343
10571SOL     OW43591   1.048   1.200  19.630
10571SOL    HW143592   1.139   1.210  19.603
10571SOL    HW243593   1.054   1.160  19.717
10572SOL     OW43594   0.070   3.100   4.015
10572SOL    HW143595   0.050   3.008   3.994
10572SOL    HW243596   0.121   3.095   4.096
10573SOL     OW43597   1.941   3.089  16.581
10573SOL    HW143598   1.990   3.008  16.593
10573SOL    HW243599   1.928   3.096  16.487
10574SOL     OW43600   3.053   3.686  17.057
10574SOL    HW143601   3.071   3.597  17.087
10574SOL    HW243602   3.121   3.704  16.992
10575SOL     OW43603   0.305   3.273   5.248
10575SOL    HW143604   0.322   3.322   5.168
10575SOL    HW243605   0.216   3.297   5.273
10576SOL     OW43606   2.039   1.617  19.801
10576SOL    HW143607   1.946   1.630  19.818
10576SOL    HW243608   2.081   1.627  19.887
10577SOL     OW43609   4.096   3.353   6.553
10577SOL    HW143610   4.053   3.371   6.469
10577SOL    HW243611   4.077   3.261   6.570
10578SOL     OW43612   0.328   2.385  20.115
10578SOL    HW143613   0.375   2.315  20.069
10578SOL    HW243614   0.248   2.396  20.065
10579SOL     OW43615   4.477   4.012   5.673
10579SOL    HW143616   4.528   4.092   5.677
10579SOL    HW243617   4.541   3.943   5.657
10580SOL     OW43618   4.562   2.212   5.320
10580SOL    HW143619   4.557   2.123   5.357
10580SOL    HW243620   4.627   2.205   5.250
10581SOL     OW43621   1.891   4.552   7.993
10581SOL    HW143622   1.813   4.586   7.950
10581SOL    HW243623   1.949   4.628   8.001
10582SOL     OW43624   3.264   3.777  16.427
10582SOL    HW143625   3.204   3.702  16.433
10582SOL    HW243626   3.207   3.852  16.409
10583SOL     OW43627   2.695   3.547   1.591
10583SOL    HW143628   2.722   3.633   1.559
10583SOL    HW243629   2.732   3.485   1.528
10584SOL     OW43630   0.344   3.505  16.155
10584SOL    HW143631   0.350   3.596  16.126
10584SOL    HW243632   0.415   3.460  16.108
10585SOL     OW43633   2.501   0.863   0.496
10585SOL    HW143634   2.420   0.911   0.479
10585SOL    HW243635   2.475   0.771   0.492
10586SOL     OW43636   2.295   3.975  13.708
10586SOL    HW143637   2.249   4.041  13.656
10586SOL    HW243638   2.349   4.025  13.768
10587SOL     OW43639   4.189   0.849  16.300
10587SOL    HW143640   4.277   0.878  16.327
10587SOL    HW243641   4.190   0.754  16.315
10588SOL     OW43642   1.350   2.593  19.461
10588SOL    HW143643   1.304   2.520  19.501
10588SOL    HW243644   1.311   2.603  19.375
10589SOL     OW43645   0.465   4.360   1.105
10589SOL    HW143646   0.416   4.400   1.033
10589SOL    HW243647   0.536   4.313   1.062
10590SOL     OW43648   1.671   3.291   4.642
10590SOL    HW143649   1.596   3.258   4.592
10590SOL    HW243650   1.669   3.241   4.724
10591SOL     OW43651   3.609   0.747   8.296
10591SOL    HW143652   3.659   0.816   8.252
10591SOL    HW243653   3.651   0.738   8.382
10592SOL     OW43654   3.485   0.283  16.725
10592SOL    HW143655   3.440   0.244  16.650
10592SOL    HW243656   3.526   0.362  16.690
10593SOL     OW43657   4.072   2.231   0.866
10593SOL    HW143658   3.991   2.179   0.855
10593SOL    HW243659   4.082   2.239   0.961
10594SOL     OW43660   1.483   4.256  19.755
10594SOL    HW143661   1.503   4.164  19.771
10594SOL    HW243662   1.409   4.255  19.694
10595SOL     OW43663   4.486   2.183  19.453
10595SOL    HW143664   4.460   2.106  19.503
10595SOL    HW243665   4.555   2.151  19.395
10596SOL     OW43666   3.155   2.603   7.810
10596SOL    HW143667   3.110   2.595   7.895
10596SOL    HW243668   3.085   2.595   7.745
10597SOL     OW43669   1.116   0.118   2.096
10597SOL    HW143670   1.059   0.192   2.075
10597SOL    HW243671   1.204   0.146   2.071
10598SOL     OW43672   4.340   1.980  19.913
10598SOL    HW143673   4.255   2.018  19.891
10598SOL    HW243674   4.342   1.897  19.867
10599SOL     OW43675   4.571   3.777  20.757
10599SOL    HW143676   4.484   3.770  20.717
10599SOL    HW243677   4.596   3.868  20.745
10600SOL     OW43678   0.668   4.544   4.350
10600SOL    HW143679   0.726   4.578   4.417
10600SOL    HW243680   0.722   4.539   4.271
10601SOL     OW43681   4.217   4.517   2.810
10601SOL    HW143682   4.198   4.513   2.717
10601SOL    HW243683   4.293   4.460   2.822
10602SOL     OW43684   0.365   4.462  14.880
10602SOL    HW143685   0.304   4.531  14.853
10602SOL    HW243686   0.430   4.458  14.810
10603SOL     OW43687   3.228   2.546   4.718
10603SOL    HW143688   3.314   2.565   4.681
10603SOL    HW243689   3.187   2.632   4.729
10604SOL     OW43690   4.522   3.505  20.535
10604SOL    HW143691   4.474   3.547  20.606
10604SOL    HW243692   4.481   3.536  20.455
10605SOL     OW43693   3.157   0.191   3.563
10605SOL    HW143694   3.142   0.109   3.516
10605SOL    HW243695   3.144   0.170   3.655
10606SOL     OW43696   2.516   0.468   5.144
10606SOL    HW143697   2.533   0.402   5.211
10606SOL    HW243698   2.534   0.423   5.061
10607SOL     OW43699   4.216   3.650  18.193
10607SOL    HW143700   4.174   3.672  18.276
10607SOL    HW243701   4.170   3.572  18.162
10608SOL     OW43702   2.749   0.838  18.257
10608SOL    HW143703   2.757   0.875  18.169
10608SOL    HW243704   2.702   0.905  18.307
10609SOL     OW43705   2.109   4.637  13.608
10609SOL    HW143706   2.102   4.731  13.590
10609SOL    HW243707   2.048   4.622  13.680
10610SOL     OW43708   3.304   0.043   0.359
10610SOL    HW143709   3.249   0.066   0.434
10610SOL    HW243710   3.244   0.042   0.284
10611SOL     OW43711   3.810   0.780  19.200
10611SOL    HW143712   3.782   0.774  19.108
10611SOL    HW243713   3.853   0.865  19.206
10612SOL     OW43714   2.131   2.008   6.059
10612SOL    HW143715   2.125   1.930   6.003
10612SOL    HW243716   2.073   2.072   6.018
10613SOL     OW43717   3.613   2.178   4.329
10613SOL    HW143718   3.649   2.214   4.410
10613SOL    HW243719   3.642   2.086   4.329
10614SOL     OW43720   4.046   4.424  18.951
10614SOL    HW143721   4.114   4.384  18.897
10614SOL    HW243722   4.083   4.427  19.039
10615SOL     OW43723   4.044   0.221  15.325
10615SOL    HW143724   3.972   0.158  15.334
10615SOL    HW243725   4.024   0.289  15.389
10616SOL     OW43726   2.845   3.107  15.242
10616SOL    HW143727   2.844   3.099  15.338
10616SOL    HW243728   2.838   3.201  15.226
10617SOL     OW43729   0.105   2.817  20.768
10617SOL    HW143730   0.148   2.800  20.684
10617SOL    HW243731   0.049   2.741  20.782
10618SOL     OW43732   4.276   4.392   3.824
10618SOL    HW143733   4.187   4.367   3.799
10618SOL    HW243734   4.287   4.354   3.911
10619SOL     OW43735   0.899   1.891  20.747
10619SOL    HW143736   0.968   1.955  20.765
10619SOL    HW243737   0.822   1.927  20.791
10620SOL     OW43738   2.539   3.301   3.902
10620SOL    HW143739   2.583   3.249   3.834
10620SOL    HW243740   2.456   3.254   3.917
10621SOL     OW43741   0.941   1.037  13.451
10621SOL    HW143742   0.858   1.000  13.420
10621SOL    HW243743   0.928   1.050  13.545
10622SOL     OW43744   4.646   3.807   3.418
10622SOL    HW143745   4.589   3.794   3.341
10622SOL    HW243746   4.691   3.723   3.428
10623SOL     OW43747   1.866   1.552   0.838
10623SOL    HW143748   1.960   1.560   0.852
10623SOL    HW243749   1.831   1.529   0.924
10624SOL     OW43750   2.215   4.193  19.993
10624SOL    HW143751   2.290   4.237  19.953
10624SOL    HW243752   2.142   4.213  19.935
10625SOL     OW43753   3.538   1.062  15.269
10625SOL    HW143754   3.591   1.083  15.346
10625SOL    HW243755   3.450   1.048  15.304
10626SOL     OW43756   1.566   3.836   4.805
10626SOL    HW143757   1.486   3.842   4.858
10626SOL    HW243758   1.565   3.915   4.751
10627SOL     OW43759   3.257   2.796  16.865
10627SOL    HW143760   3.342   2.776  16.825
10627SOL    HW243761   3.252   2.891  16.863
10628SOL     OW43762   1.710   2.330   1.164
10628SOL    HW143763   1.648   2.345   1.093
10628SOL    HW243764   1.792   2.309   1.120
10629SOL     OW43765   0.757   2.594   0.183
10629SOL    HW143766   0.720   2.647   0.112
10629SOL    HW243767   0.682   2.578   0.241
10630SOL     OW43768   4.248   3.385  19.663
10630SOL    HW143769   4.225   3.478  19.657
10630SOL    HW243770   4.318   3.382  19.728
10631SOL     OW43771   2.178   2.925  20.796
10631SOL    HW143772   2.144   2.987  20.860
10631SOL    HW243773   2.193   2.978  20.717
10632SOL     OW43774   4.716   1.990  18.794
10632SOL    HW143775   4.679   1.920  18.739
10632SOL    HW243776   4.711   2.068  18.739
10633SOL     OW43777   2.653   3.964  14.822
10633SOL    HW143778   2.677   3.937  14.910
10633SOL    HW243779   2.563   3.932  14.811
10634SOL     OW43780   4.461   1.096   2.197
10634SOL    HW143781   4.468   1.122   2.289
10634SOL    HW243782   4.398   1.157   2.159
10635SOL     OW43783   1.269   2.678   5.252
10635SOL    HW143784   1.227   2.598   5.219
10635SOL    HW243785   1.281   2.662   5.345
10636SOL     OW43786   0.141   4.043   2.705
10636SOL    HW143787   0.210   4.058   2.770
10636SOL    HW243788   0.187   4.043   2.621
10637SOL     OW43789   4.022   1.418   5.785
10637SOL    HW143790   4.037   1.496   5.732
10637SOL    HW243791   4.019   1.346   5.721
10638SOL     OW43792   3.911   0.633  20.766
10638SOL    HW143793   3.872   0.546  20.766
10638SOL    HW243794   3.941   0.646  20.856
10639SOL     OW43795   0.896   1.672  20.388
10639SOL    HW143796   0.929   1.756  20.419
10639SOL    HW243797   0.972   1.630  20.348
10640SOL     OW43798   0.399   0.178   5.863
10640SOL    HW143799   0.428   0.092   5.893
10640SOL    HW243800   0.323   0.161   5.808
10641SOL     OW43801   3.107   4.105  15.175
10641SOL    HW143802   3.179   4.140  15.122
10641SOL    HW243803   3.126   4.136  15.264
10642SOL     OW43804   1.967   0.318   1.801
10642SOL    HW143805   1.923   0.367   1.731
10642SOL    HW243806   2.009   0.385   1.854
10643SOL     OW43807   0.509   0.583  15.855
10643SOL    HW143808   0.440   0.517  15.862
10643SOL    HW243809   0.575   0.542  15.799
10644SOL     OW43810   4.061   1.138  17.060
10644SOL    HW143811   4.010   1.177  16.990
10644SOL    HW243812   4.033   1.185  17.139
10645SOL     OW43813   1.184   2.753   1.092
10645SOL    HW143814   1.107   2.768   1.147
10645SOL    HW243815   1.233   2.686   1.140
10646SOL     OW43816   0.031   3.360   4.306
10646SOL    HW143817   0.088   3.395   4.374
10646SOL    HW243818   0.073   3.385   4.224
10647SOL     OW43819   0.806   4.232   2.240
10647SOL    HW143820   0.843   4.314   2.273
10647SOL    HW243821   0.824   4.168   2.309
10648SOL     OW43822   3.968   0.652  19.900
10648SOL    HW143823   4.012   0.579  19.942
10648SOL    HW243824   3.914   0.611  19.832
10649SOL     OW43825   3.519   3.061  16.837
10649SOL    HW143826   3.450   3.004  16.804
10649SOL    HW243827   3.550   3.018  16.917
10650SOL     OW43828   1.879   4.674  13.787
10650SOL    HW143829   1.787   4.655  13.769
10650SOL    HW243830   1.876   4.745  13.851
10651SOL     OW43831   0.045   3.879   3.598
10651SOL    HW143832   4.747   3.904   3.586
10651SOL    HW243833   0.057   3.802   3.542
10652SOL     OW43834   3.500   0.787   6.614
10652SOL    HW143835   3.422   0.807   6.668
10652SOL    HW243836   3.529   0.873   6.583
10653SOL     OW43837   0.685   1.319   3.171
10653SOL    HW143838   0.597   1.356   3.163
10653SOL    HW243839   0.736   1.389   3.212
10654SOL     OW43840   1.558   4.062   5.463
10654SOL    HW143841   1.600   4.144   5.437
10654SOL    HW243842   1.606   4.033   5.540
10655SOL     OW43843   0.049   4.448  14.666
10655SOL    HW143844   0.085   4.382  14.725
10655SOL    HW243845   4.753   4.463  14.697
10656SOL     OW43846   3.361   1.157  16.550
10656SOL    HW143847   3.310   1.193  16.622
10656SOL    HW243848   3.434   1.218  16.539
10657SOL     OW43849   3.815   2.267  13.511
10657SOL    HW143850   3.729   2.276  13.552
10657SOL    HW243851   3.800   2.280  13.418
10658SOL     OW43852   3.695   1.476   0.165
10658SOL    HW143853   3.613   1.445   0.204
10658SOL    HW243854   3.702   1.427   0.083
10659SOL     OW43855   3.071   3.823   2.240
10659SOL    HW143856   3.047   3.742   2.286
10659SOL    HW243857   3.051   3.806   2.148
10660SOL     OW43858   2.865   3.461   6.455
10660SOL    HW143859   2.877   3.507   6.372
10660SOL    HW243860   2.952   3.462   6.496
10661SOL     OW43861   0.551   1.205  14.559
10661SOL    HW143862   0.629   1.259  14.572
10661SOL    HW243863   0.520   1.185  14.647
10662SOL     OW43864   2.893   0.668   5.786
10662SOL    HW143865   2.981   0.635   5.803
10662SOL    HW243866   2.855   0.606   5.724
10663SOL     OW43867   0.758   4.777  14.090
10663SOL    HW143868   0.743   4.720  14.014
10663SOL    HW243869   0.728   0.070  14.061
10664SOL     OW43870   3.916   1.231  14.918
10664SOL    HW143871   3.977   1.252  14.989
10664SOL    HW243872   3.837   1.200  14.962
10665SOL     OW43873   3.794   1.786   0.842
10665SOL    HW143874   3.801   1.760   0.750
10665SOL    HW243875   3.819   1.879   0.843
10666SOL     OW43876   2.524   0.179  20.016
10666SOL    HW143877   2.577   0.108  20.052
10666SOL    HW243878   2.435   0.145  20.013
10667SOL     OW43879   3.385   3.509  20.064
10667SOL    HW143880   3.340   3.477  20.142
10667SOL    HW243881   3.474   3.529  20.094
10668SOL     OW43882   0.735   2.565  17.742
10668SOL    HW143883   0.752   2.532  17.831
10668SOL    HW243884   0.802   2.524  17.688
10669SOL     OW43885   0.622   0.952   4.361
10669SOL    HW143886   0.613   0.951   4.456
10669SOL    HW243887   0.558   0.887   4.331
10670SOL     OW43888   2.311   1.710   0.642
10670SOL    HW143889   2.350   1.777   0.585
10670SOL    HW243890   2.306   1.752   0.728
10671SOL     OW43891   0.049   4.538   2.321
10671SOL    HW143892   0.065   4.617   2.373
10671SOL    HW243893   0.063   4.466   2.383
10672SOL     OW43894   1.904   0.258  17.030
10672SOL    HW143895   1.902   0.354  17.029
10672SOL    HW243896   1.909   0.234  16.937
10673SOL     OW43897   0.946   1.584  15.322
10673SOL    HW143898   0.877   1.647  15.298
10673SOL    HW243899   1.027   1.634  15.317
10674SOL     OW43900   0.807   1.256   0.493
10674SOL    HW143901   0.875   1.320   0.473
10674SOL    HW243902   0.733   1.280   0.437
10675SOL     OW43903   1.891   0.311  19.682
10675SOL    HW143904   1.975   0.352  19.660
10675SOL    HW243905   1.890   0.305  19.777
10676SOL     OW43906   0.462   3.894   3.241
10676SOL    HW143907   0.470   3.971   3.184
10676SOL    HW243908   0.507   3.920   3.321
10677SOL     OW43909   3.360   3.941  20.023
10677SOL    HW143910   3.273   3.977  20.005
10677SOL    HW243911   3.418   4.017  20.023
10678SOL     OW43912   0.688   2.986  15.954
10678SOL    HW143913   0.707   2.984  15.860
10678SOL    HW243914   0.592   2.985  15.958
10679SOL     OW43915   3.214   2.544   5.239
10679SOL    HW143916   3.120   2.526   5.241
10679SOL    HW243917   3.232   2.587   5.323
10680SOL     OW43918   0.893   0.910  19.224
10680SOL    HW143919   0.960   0.926  19.157
10680SOL    HW243920   0.816   0.958  19.193
10681SOL     OW43921   1.996   1.495  16.991
10681SOL    HW143922   2.056   1.535  17.055
10681SOL    HW243923   2.054   1.458  16.925
10682SOL     OW43924   4.605   1.573   4.376
10682SOL    HW143925   4.689   1.592   4.335
10682SOL    HW243926   4.541   1.588   4.306
10683SOL     OW43927   2.831   2.892  19.835
10683SOL    HW143928   2.757   2.948  19.812
10683SOL    HW243929   2.896   2.952  19.872
10684SOL     OW43930   4.235   3.898   4.530
10684SOL    HW143931   4.177   3.969   4.558
10684SOL    HW243932   4.260   3.854   4.611
10685SOL     OW43933   4.702   2.877   2.079
10685SOL    HW143934   4.696   2.783   2.092
10685SOL    HW243935   4.787   2.891   2.037
10686SOL     OW43936   1.705   0.234  15.401
10686SOL    HW143937   1.796   0.256  15.379
10686SOL    HW243938   1.686   0.286  15.479
10687SOL     OW43939   2.208   4.423  16.303
10687SOL    HW143940   2.286   4.440  16.355
10687SOL    HW243941   2.152   4.499  16.317
10688SOL     OW43942   2.646   4.015   5.491
10688SOL    HW143943   2.669   3.951   5.423
10688SOL    HW243944   2.641   4.099   5.445
10689SOL     OW43945   4.445   0.529  12.734
10689SOL    HW143946   4.379   0.500  12.798
10689SOL    HW243947   4.397   0.537  12.652
10690SOL     OW43948   1.146   1.701  19.293
10690SOL    HW143949   1.100   1.705  19.210
10690SOL    HW243950   1.083   1.733  19.357
10691SOL     OW43951   3.933   0.709   0.010
10691SOL    HW143952   3.992   0.689   0.083
10691SOL    HW243953   3.848   0.673   0.037
10692SOL     OW43954   4.604   0.365  15.235
10692SOL    HW143955   4.579   0.434  15.174
10692SOL    HW243956   4.545   0.293  15.216
10693SOL     OW43957   3.763   1.670  18.292
10693SOL    HW143958   3.759   1.636  18.381
10693SOL    HW243959   3.673   1.665  18.261
10694SOL     OW43960   1.397   0.685  12.351
10694SOL    HW143961   1.488   0.717  12.348
10694SOL    HW243962   1.353   0.745  12.412
10695SOL     OW43963   2.149   0.295   3.102
10695SOL    HW143964   2.238   0.262   3.110
10695SOL    HW243965   2.150   0.349   3.023
10696SOL     OW43966   1.512   3.226  18.481
10696SOL    HW143967   1.463   3.177  18.415
10696SOL    HW243968   1.565   3.287  18.431
10697SOL     OW43969   0.981   3.165   3.367
10697SOL    HW143970   0.996   3.257   3.388
10697SOL    HW243971   1.061   3.121   3.393
10698SOL     OW43972   1.209   1.087   4.786
10698SOL    HW143973   1.194   1.158   4.848
10698SOL    HW243974   1.292   1.110   4.743
10699SOL     OW43975   2.176   1.490   6.211
10699SOL    HW143976   2.096   1.521   6.253
10699SOL    HW243977   2.198   1.558   6.147
10700SOL     OW43978   2.985   4.487   3.446
10700SOL    HW143979   3.024   4.556   3.499
10700SOL    HW243980   3.051   4.468   3.379
10701SOL     OW43981   4.252   0.901   3.412
10701SOL    HW143982   4.233   0.994   3.422
10701SOL    HW243983   4.252   0.886   3.318
10702SOL     OW43984   1.108   2.233  18.214
10702SOL    HW143985   1.200   2.210  18.203
10702SOL    HW243986   1.060   2.153  18.197
10703SOL     OW43987   1.135   3.613   4.218
10703SOL    HW143988   1.160   3.695   4.261
10703SOL    HW243989   1.169   3.544   4.275
10704SOL     OW43990   1.970   2.859   9.667
10704SOL    HW143991   1.979   2.921   9.739
10704SOL    HW243992   1.888   2.812   9.685
10705SOL     OW43993   3.712   3.979  14.128
10705SOL    HW143994   3.716   4.074  14.122
10705SOL    HW243995   3.691   3.950  14.039
10706SOL     OW43996   3.680   1.905   4.342
10706SOL    HW143997   3.693   1.840   4.412
10706SOL    HW243998   3.663   1.853   4.264
10707SOL     OW43999   1.832   3.418   4.094
10707SOL    HW144000   1.793   3.425   4.181
10707SOL    HW244001   1.896   3.347   4.102
10708SOL     OW44002   0.814   3.078  14.042
10708SOL    HW144003   0.777   3.140  13.979
10708SOL    HW244004   0.896   3.050  14.002
10709SOL     OW44005   1.075   0.437  16.747
10709SOL    HW144006   0.998   0.469  16.701
10709SOL    HW244007   1.041   0.383  16.818
10710SOL     OW44008   0.309   4.498   6.365
10710SOL    HW144009   0.224   4.454   6.363
10710SOL    HW244010   0.292   4.580   6.411
10711SOL     OW44011   1.457   3.585   3.384
10711SOL    HW144012   1.514   3.559   3.456
10711SOL    HW244013   1.369   3.560   3.413
10712SOL     OW44014   1.714   3.993  15.295
10712SOL    HW144015   1.632   4.018  15.253
10712SOL    HW244016   1.744   3.916  15.245
10713SOL     OW44017   4.236   0.019  20.677
10713SOL    HW144018   4.307   4.751  20.695
10713SOL    HW244019   4.168   4.790  20.740
10714SOL     OW44020   0.357   3.872  12.297
10714SOL    HW144021   0.268   3.893  12.325
10714SOL    HW244022   0.412   3.910  12.365
10715SOL     OW44023   2.607   1.236   8.295
10715SOL    HW144024   2.622   1.312   8.238
10715SOL    HW244025   2.546   1.268   8.362
10716SOL     OW44026   1.022   4.470   3.984
10716SOL    HW144027   1.037   4.557   3.947
10716SOL    HW244028   0.977   4.487   4.067
10717SOL     OW44029   1.321   4.051  15.685
10717SOL    HW144030   1.292   3.969  15.646
10717SOL    HW244031   1.250   4.075  15.745
10718SOL     OW44032   3.300   0.695   1.806
10718SOL    HW144033   3.216   0.737   1.824
10718SOL    HW244034   3.288   0.651   1.722
10719SOL     OW44035   0.807   3.537   2.848
10719SOL    HW144036   0.738   3.589   2.886
10719SOL    HW244037   0.806   3.560   2.755
10720SOL     OW44038   0.456   0.154   5.198
10720SOL    HW144039   0.411   0.234   5.172
10720SOL    HW244040   0.541   0.159   5.155
10721SOL     OW44041   1.566   2.312  16.641
10721SOL    HW144042   1.511   2.322  16.719
10721SOL    HW244043   1.655   2.308  16.674
10722SOL     OW44044   0.890   2.825  11.906
10722SOL    HW144045   0.869   2.748  11.853
10722SOL    HW244046   0.952   2.793  11.971
10723SOL     OW44047   1.456   3.771   1.189
10723SOL    HW144048   1.528   3.708   1.200
10723SOL    HW244049   1.459   3.824   1.268
10724SOL     OW44050   2.596   3.306  20.094
10724SOL    HW144051   2.585   3.370  20.165
10724SOL    HW244052   2.621   3.359  20.018
10725SOL     OW44053   1.996   3.219  18.958
10725SOL    HW144054   1.991   3.123  18.954
10725SOL    HW244055   2.002   3.238  19.052
10726SOL     OW44056   1.177   4.384  17.609
10726SOL    HW144057   1.251   4.358  17.664
10726SOL    HW244058   1.191   4.337  17.527
10727SOL     OW44059   1.185   1.239   2.334
10727SOL    HW144060   1.255   1.195   2.286
10727SOL    HW244061   1.161   1.177   2.403
10728SOL     OW44062   3.951   0.055   3.195
10728SOL    HW144063   3.902   0.089   3.270
10728SOL    HW244064   3.955   4.754   3.209
10729SOL     OW44065   3.022   4.526  12.845
10729SOL    HW144066   3.108   4.569  12.847
10729SOL    HW244067   2.997   4.519  12.937
10730SOL     OW44068   3.350   4.263  19.402
10730SOL    HW144069   3.315   4.289  19.488
10730SOL    HW244070   3.408   4.190  19.422
10731SOL     OW44071   3.972   3.638   3.105
10731SOL    HW144072   3.978   3.637   3.201
10731SOL    HW244073   3.979   3.730   3.081
10732SOL     OW44074   2.628   0.908  14.691
10732SOL    HW144075   2.559   0.905  14.624
10732SOL    HW244076   2.590   0.960  14.762
10733SOL     OW44077   3.998   3.171   6.381
10733SOL    HW144078   4.010   3.225   6.303
10733SOL    HW244079   3.914   3.201   6.417
10734SOL     OW44080   1.972   4.416   2.529
10734SOL    HW144081   1.943   4.506   2.546
10734SOL    HW244082   1.909   4.382   2.466
10735SOL     OW44083   0.328   0.707  18.501
10735SOL    HW144084   0.344   0.763  18.425
10735SOL    HW244085   0.249   0.744  18.542
10736SOL     OW44086   4.702   0.648  15.984
10736SOL    HW144087   4.679   0.631  16.076
10736SOL    HW244088   4.782   0.599  15.970
10737SOL     OW44089   2.539   1.487   6.094
10737SOL    HW144090   2.598   1.562   6.090
10737SOL    HW244091   2.481   1.506   6.168
10738SOL     OW44092   2.452   2.466   0.192
10738SOL    HW144093   2.507   2.499   0.121
10738SOL    HW244094   2.397   2.400   0.150
10739SOL     OW44095   4.501   3.522  14.429
10739SOL    HW144096   4.425   3.464  14.425
10739SOL    HW244097   4.470   3.606  14.395
10740SOL     OW44098   0.561   4.106   2.242
10740SOL    HW144099   0.494   4.165   2.209
10740SOL    HW244100   0.640   4.159   2.249
10741SOL     OW44101   2.227   2.664   8.236
10741SOL    HW144102   2.173   2.597   8.194
10741SOL    HW244103   2.290   2.691   8.168
10742SOL     OW44104   4.717   0.973   2.312
10742SOL    HW144105   4.722   1.067   2.294
10742SOL    HW244106   4.790   0.936   2.261
10743SOL     OW44107   4.001   1.340   0.038
10743SOL    HW144108   3.943   1.284   0.091
10743SOL    HW244109   4.021   1.414   0.094
10744SOL     OW44110   3.865   0.359  19.353
10744SOL    HW144111   3.918   0.432  19.320
10744SOL    HW244112   3.806   0.338  19.280
10745SOL     OW44113   4.311   4.751  20.983
10745SOL    HW144114   4.218   4.771  20.983
10745SOL    HW244115   4.354   0.043  20.985
10746SOL     OW44116   4.236   2.611  15.989
10746SOL    HW144117   4.208   2.523  16.012
10746SOL    HW244118   4.162   2.667  16.013
10747SOL     OW44119   3.568   1.781   2.490
10747SOL    HW144120   3.573   1.723   2.414
10747SOL    HW244121   3.526   1.860   2.456
10748SOL     OW44122   2.121   1.012  17.772
10748SOL    HW144123   2.189   1.072  17.741
10748SOL    HW244124   2.055   1.069  17.810
10749SOL     OW44125   1.670   3.160   1.432
10749SOL    HW144126   1.623   3.077   1.441
10749SOL    HW244127   1.689   3.186   1.522
10750SOL     OW44128   2.750   0.123  19.341
10750SOL    HW144129   2.718   0.035  19.319
10750SOL    HW244130   2.753   0.124  19.437
10751SOL     OW44131   1.460   4.449   4.641
10751SOL    HW144132   1.441   4.356   4.647
10751SOL    HW244133   1.443   4.483   4.729
10752SOL     OW44134   4.664   2.552  18.584
10752SOL    HW144135   4.607   2.530  18.510
10752SOL    HW244136   4.753   2.541  18.550
10753SOL     OW44137   1.437   0.434  16.040
10753SOL    HW144138   1.365   0.483  15.999
10753SOL    HW244139   1.450   0.476  16.125
10754SOL     OW44140   3.706   4.440  13.532
10754SOL    HW144141   3.701   4.370  13.467
10754SOL    HW244142   3.676   4.399  13.613
10755SOL     OW44143   2.918   0.664   4.106
10755SOL    HW144144   2.829   0.697   4.115
10755SOL    HW244145   2.910   0.569   4.118
10756SOL     OW44146   0.923   4.343  19.878
10756SOL    HW144147   1.018   4.341  19.884
10756SOL    HW244148   0.893   4.278  19.942
10757SOL     OW44149   4.285   0.231   0.855
10757SOL    HW144150   4.350   0.297   0.828
10757SOL    HW244151   4.282   0.169   0.782
10758SOL     OW44152   3.712   3.463   6.675
10758SOL    HW144153   3.726   3.406   6.750
10758SOL    HW244154   3.678   3.545   6.713
10759SOL     OW44155   3.525   2.512   3.503
10759SOL    HW144156   3.568   2.564   3.435
10759SOL    HW244157   3.504   2.429   3.460
10760SOL     OW44158   1.710   2.256   2.439
10760SOL    HW144159   1.754   2.301   2.366
10760SOL    HW244160   1.707   2.164   2.412
10761SOL     OW44161   0.408   4.760   4.063
10761SOL    HW144162   0.438   4.670   4.061
10761SOL    HW244163   0.343   4.765   3.993
10762SOL     OW44164   1.832   2.333  19.380
10762SOL    HW144165   1.771   2.259  19.380
10762SOL    HW244166   1.869   2.334  19.469
10763SOL     OW44167   0.311   1.894   0.175
10763SOL    HW144168   0.278   1.919   0.089
10763SOL    HW244169   0.393   1.848   0.157
10764SOL     OW44170   4.202   1.614  16.766
10764SOL    HW144171   4.195   1.661  16.849
10764SOL    HW244172   4.113   1.585  16.747
10765SOL     OW44173   2.759   0.934  19.713
10765SOL    HW144174   2.760   0.877  19.636
10765SOL    HW244175   2.669   0.932  19.744
10766SOL     OW44176   1.985   3.759   2.637
10766SOL    HW144177   1.933   3.770   2.717
10766SOL    HW244178   1.934   3.804   2.570
10767SOL     OW44179   3.492   4.762   2.192
10767SOL    HW144180   3.484   4.671   2.221
10767SOL    HW244181   3.444   4.765   2.109
10768SOL     OW44182   3.843   0.944  20.848
10768SOL    HW144183   3.899   0.869  20.827
10768SOL    HW244184   3.873   0.974  20.934
10769SOL     OW44185   2.712   2.716   8.079
10769SOL    HW144186   2.644   2.784   8.076
10769SOL    HW244187   2.663   2.634   8.091
10770SOL     OW44188   1.489   0.398  16.488
10770SOL    HW144189   1.440   0.438  16.560
10770SOL    HW244190   1.488   0.464  16.419
10771SOL     OW44191   4.151   1.563  19.333
10771SOL    HW144192   4.214   1.632  19.309
10771SOL    HW244193   4.190   1.520  19.409
10772SOL     OW44194   0.162   0.544  14.948
10772SOL    HW144195   0.155   0.633  14.984
10772SOL    HW244196   0.175   0.489  15.025
10773SOL     OW44197   0.288   1.928   3.263
10773SOL    HW144198   0.361   1.931   3.325
10773SOL    HW244199   0.299   2.008   3.210
10774SOL     OW44200   4.425   3.969  19.824
10774SOL    HW144201   4.427   4.002  19.914
10774SOL    HW244202   4.503   4.006  19.783
10775SOL     OW44203   1.501   2.203   1.312
10775SOL    HW144204   1.574   2.249   1.269
10775SOL    HW244205   1.441   2.274   1.337
10776SOL     OW44206   1.709   3.712   5.654
10776SOL    HW144207   1.761   3.654   5.710
10776SOL    HW244208   1.762   3.723   5.575
10777SOL     OW44209   2.762   0.526   0.908
10777SOL    HW144210   2.693   0.513   0.843
10777SOL    HW244211   2.811   0.602   0.875
10778SOL     OW44212   3.071   1.425   1.664
10778SOL    HW144213   3.007   1.363   1.630
10778SOL    HW244214   3.022   1.481   1.724
10779SOL     OW44215   0.062   2.874  16.245
10779SOL    HW144216   0.016   2.843  16.167
10779SOL    HW244217   4.786   2.910  16.301
10780SOL     OW44218   1.562   3.063   6.632
10780SOL    HW144219   1.513   3.034   6.556
10780SOL    HW244220   1.518   3.143   6.660
10781SOL     OW44221   2.585   3.593  19.967
10781SOL    HW144222   2.622   3.659  19.910
10781SOL    HW244223   2.655   3.572  20.029
10782SOL     OW44224   2.232   1.420   3.701
10782SOL    HW144225   2.212   1.327   3.702
10782SOL    HW244226   2.167   1.459   3.760
10783SOL     OW44227   3.457   0.681  20.229
10783SOL    HW144228   3.397   0.749  20.260
10783SOL    HW244229   3.426   0.660  20.141
10784SOL     OW44230   2.321   2.410   3.424
10784SOL    HW144231   2.399   2.455   3.456
10784SOL    HW244232   2.354   2.328   3.386
10785SOL     OW44233   3.502   0.418   4.774
10785SOL    HW144234   3.472   0.333   4.744
10785SOL    HW244235   3.587   0.400   4.815
10786SOL     OW44236   1.480   1.677   4.242
10786SOL    HW144237   1.476   1.720   4.156
10786SOL    HW244238   1.485   1.748   4.305
10787SOL     OW44239   0.728   0.082   5.140
10787SOL    HW144240   0.791   0.056   5.207
10787SOL    HW244241   0.776   0.145   5.085
10788SOL     OW44242   0.837   1.567   2.309
10788SOL    HW144243   0.798   1.653   2.324
10788SOL    HW244244   0.932   1.584   2.313
10789SOL     OW44245   2.894   3.110   0.636
10789SOL    HW144246   2.801   3.109   0.659
10789SOL    HW244247   2.907   3.196   0.595
10790SOL     OW44248   0.460   4.699   0.684
10790SOL    HW144249   0.455   4.749   0.766
10790SOL    HW244250   0.553   4.686   0.670
10791SOL     OW44251   4.486   2.761   5.500
10791SOL    HW144252   4.474   2.852   5.473
10791SOL    HW244253   4.493   2.712   5.417
10792SOL     OW44254   3.465   4.550   6.440
10792SOL    HW144255   3.435   4.531   6.528
10792SOL    HW244256   3.467   4.645   6.435
10793SOL     OW44257   1.776   2.905   0.480
10793SOL    HW144258   1.697   2.931   0.528
10793SOL    HW244259   1.797   2.818   0.514
10794SOL     OW44260   2.598   4.448  19.886
10794SOL    HW144261   2.596   4.365  19.935
10794SOL    HW244262   2.691   4.472  19.885
10795SOL     OW44263   2.095   0.364  20.130
10795SOL    HW144264   2.149   0.439  20.156
10795SOL    HW244265   2.142   0.288  20.164
10796SOL     OW44266   3.079   1.436  20.649
10796SOL    HW144267   3.136   1.487  20.591
10796SOL    HW244268   3.121   1.350  20.654
10797SOL     OW44269   2.505   0.634  17.484
10797SOL    HW144270   2.557   0.706  17.518
10797SOL    HW244271   2.432   0.676  17.439
10798SOL     OW44272   3.020   2.147   2.656
10798SOL    HW144273   3.053   2.218   2.600
10798SOL    HW244274   3.017   2.185   2.744
10799SOL     OW44275   3.394   2.625  16.572
10799SOL    HW144276   3.313   2.587  16.537
10799SOL    HW244277   3.411   2.574  16.652
10800SOL     OW44278   0.969   1.157   0.052
10800SOL    HW144279   0.977   1.126  21.235
10800SOL    HW244280   0.940   1.248   0.044
10801SOL     OW44281   1.462   0.938   3.939
10801SOL    HW144282   1.374   0.937   3.902
10801SOL    HW244283   1.499   0.853   3.915
10802SOL     OW44284   0.203   2.123   5.856
10802SOL    HW144285   0.210   2.058   5.925
10802SOL    HW244286   0.273   2.186   5.874
10803SOL     OW44287   0.339   3.358   1.342
10803SOL    HW144288   0.314   3.349   1.250
10803SOL    HW244289   0.432   3.340   1.344
10804SOL     OW44290   3.771   0.107  20.199
10804SOL    HW144291   3.675   0.102  20.200
10804SOL    HW244292   3.795   0.075  20.112
10805SOL     OW44293   2.149   3.350  20.373
10805SOL    HW144294   2.092   3.350  20.450
10805SOL    HW244295   2.089   3.358  20.299
10806SOL     OW44296   4.391   3.001   5.378
10806SOL    HW144297   4.327   3.044   5.434
10806SOL    HW244298   4.345   2.987   5.295
10807SOL     OW44299   0.443   4.016  17.665
10807SOL    HW144300   0.364   4.065  17.645
10807SOL    HW244301   0.456   4.029  17.759
10808SOL     OW44302   1.929   3.703   5.504
10808SOL    HW144303   1.984   3.771   5.545
10808SOL    HW244304   1.970   3.689   5.418
10809SOL     OW44305   0.742   2.803   2.381
10809SOL    HW144306   0.796   2.745   2.327
10809SOL    HW244307   0.720   2.876   2.323
10810SOL     OW44308   2.179   2.618   5.497
10810SOL    HW144309   2.258   2.660   5.462
10810SOL    HW244310   2.197   2.524   5.488
10811SOL     OW44311   4.565   3.549  17.603
10811SOL    HW144312   4.634   3.539  17.536
10811SOL    HW244313   4.525   3.463  17.609
10812SOL     OW44314   4.439   2.809  17.154
10812SOL    HW144315   4.489   2.756  17.091
10812SOL    HW244316   4.361   2.836  17.106
10813SOL     OW44317   0.667   0.953  16.141
10813SOL    HW144318   0.623   0.891  16.199
10813SOL    HW244319   0.642   0.923  16.053
10814SOL     OW44320   3.041   3.966  19.232
10814SOL    HW144321   3.014   3.925  19.314
10814SOL    HW244322   3.131   3.936  19.218
10815SOL     OW44323   1.996   4.252   5.198
10815SOL    HW144324   2.045   4.198   5.135
10815SOL    HW244325   1.924   4.289   5.146
10816SOL     OW44326   0.016   2.810   0.173
10816SOL    HW144327   0.065   2.767   0.103
10816SOL    HW244328   4.725   2.831   0.134
10817SOL     OW44329   0.997   3.268  20.767
10817SOL    HW144330   1.044   3.239  20.845
10817SOL    HW244331   0.946   3.343  20.796
10818SOL     OW44332   1.133   0.035   8.716
10818SOL    HW144333   1.198   0.105   8.713
10818SOL    HW244334   1.053   0.077   8.746
10819SOL     OW44335   3.480   3.138  12.950
10819SOL    HW144336   3.409   3.127  12.886
10819SOL    HW244337   3.435   3.151  13.033
10820SOL     OW44338   2.382   0.272  20.486
10820SOL    HW144339   2.328   0.236  20.416
10820SOL    HW244340   2.324   0.271  20.563
10821SOL     OW44341   2.730   3.970  18.902
10821SOL    HW144342   2.793   3.917  18.950
10821SOL    HW244343   2.726   3.929  18.815
10822SOL     OW44344   0.243   1.507   2.752
10822SOL    HW144345   0.273   1.469   2.670
10822SOL    HW244346   0.149   1.488   2.754
10823SOL     OW44347   3.581   0.529  16.602
10823SOL    HW144348   3.596   0.506  16.510
10823SOL    HW244349   3.668   0.535  16.640
10824SOL     OW44350   1.954   2.056   5.850
10824SOL    HW144351   2.002   1.978   5.824
10824SOL    HW244352   1.978   2.122   5.784
10825SOL     OW44353   2.280   0.792  17.527
10825SOL    HW144354   2.207   0.734  17.505
10825SOL    HW244355   2.240   0.860  17.582
10826SOL     OW44356   0.465   1.191  16.974
10826SOL    HW144357   0.402   1.187  16.903
10826SOL    HW244358   0.413   1.209  17.052
10827SOL     OW44359   4.616   0.172   6.678
10827SOL    HW144360   4.563   0.238   6.723
10827SOL    HW244361   4.578   0.166   6.591
10828SOL     OW44362   4.096   4.413   8.544
10828SOL    HW144363   4.192   4.417   8.549
10828SOL    HW244364   4.066   4.481   8.604
10829SOL     OW44365   2.135   0.829   4.170
10829SOL    HW144366   2.109   0.904   4.117
10829SOL    HW244367   2.206   0.861   4.225
10830SOL     OW44368   0.334   4.641  18.022
10830SOL    HW144369   0.270   4.655  17.952
10830SOL    HW244370   0.332   4.722  18.073
10831SOL     OW44371   3.005   2.699   6.816
10831SOL    HW144372   3.013   2.604   6.823
10831SOL    HW244373   3.009   2.730   6.906
10832SOL     OW44374   2.737   1.720  16.886
10832SOL    HW144375   2.742   1.771  16.805
10832SOL    HW244376   2.646   1.727  16.913
10833SOL     OW44377   1.515   1.587  20.498
10833SOL    HW144378   1.535   1.512  20.554
10833SOL    HW244379   1.592   1.596  20.442
10834SOL     OW44380   0.388   2.049   6.107
10834SOL    HW144381   0.303   2.017   6.137
10834SOL    HW244382   0.431   1.971   6.073
10835SOL     OW44383   4.003   2.618   2.363
10835SOL    HW144384   3.957   2.604   2.446
10835SOL    HW244385   4.001   2.713   2.351
10836SOL     OW44386   2.958   1.381   4.627
10836SOL    HW144387   3.046   1.419   4.635
10836SOL    HW244388   2.949   1.359   4.535
10837SOL     OW44389   0.009   4.069  18.972
10837SOL    HW144390   4.763   4.155  18.965
10837SOL    HW244391   4.772   4.021  18.895
10838SOL     OW44392   4.018   4.759   7.740
10838SOL    HW144393   3.975   4.698   7.799
10838SOL    HW244394   4.081   4.705   7.691
10839SOL     OW44395   2.116   4.525  14.958
10839SOL    HW144396   2.191   4.500  14.904
10839SOL    HW244397   2.041   4.484  14.915
10840SOL     OW44398   3.413   4.328   6.308
10840SOL    HW144399   3.408   4.378   6.389
10840SOL    HW244400   3.507   4.324   6.288
10841SOL     OW44401   2.010   4.197  16.982
10841SOL    HW144402   2.010   4.285  16.943
10841SOL    HW244403   2.009   4.213  17.076
10842SOL     OW44404   0.083   4.387   2.845
10842SOL    HW144405   0.164   4.342   2.865
10842SOL    HW244406   0.054   4.422   2.930
10843SOL     OW44407   3.632   2.958   6.456
10843SOL    HW144408   3.648   2.878   6.405
10843SOL    HW244409   3.634   2.928   6.547
10844SOL     OW44410   0.356   0.907   1.426
10844SOL    HW144411   0.382   0.867   1.509
10844SOL    HW244412   0.439   0.915   1.377
10845SOL     OW44413   0.284   2.866   2.135
10845SOL    HW144414   0.263   2.900   2.047
10845SOL    HW244415   0.235   2.922   2.194
10846SOL     OW44416   3.379   3.356   3.431
10846SOL    HW144417   3.345   3.366   3.520
10846SOL    HW244418   3.469   3.326   3.443
10847SOL     OW44419   3.110   0.427   1.899
10847SOL    HW144420   3.128   0.518   1.878
10847SOL    HW244421   3.097   0.426   1.994
10848SOL     OW44422   0.426   0.563  17.540
10848SOL    HW144423   0.454   0.544  17.629
10848SOL    HW244424   0.424   0.659  17.535
10849SOL     OW44425   1.752   2.645  15.716
10849SOL    HW144426   1.782   2.562  15.753
10849SOL    HW244427   1.738   2.627  15.624
10850SOL     OW44428   4.671   1.905  19.754
10850SOL    HW144429   4.702   1.838  19.693
10850SOL    HW244430   4.583   1.876  19.778
10851SOL     OW44431   3.347   3.856  15.041
10851SOL    HW144432   3.438   3.877  15.063
10851SOL    HW244433   3.331   3.772  15.086
10852SOL     OW44434   4.774   3.874   6.895
10852SOL    HW144435   4.709   3.806   6.912
10852SOL    HW244436   4.746   3.948   6.948
10853SOL     OW44437   2.144   0.526  20.996
10853SOL    HW144438   2.092   0.605  21.015
10853SOL    HW244439   2.208   0.556  20.931
10854SOL     OW44440   3.105   1.765   9.856
10854SOL    HW144441   3.153   1.709   9.794
10854SOL    HW244442   3.032   1.711   9.886
10855SOL     OW44443   3.549   0.115   1.361
10855SOL    HW144444   3.478   0.116   1.297
10855SOL    HW244445   3.617   0.061   1.321
10856SOL     OW44446   4.203   2.872  19.059
10856SOL    HW144447   4.178   2.888  18.968
10856SOL    HW244448   4.269   2.803  19.053
10857SOL     OW44449   0.731   1.331   2.832
10857SOL    HW144450   0.768   1.243   2.843
10857SOL    HW244451   0.637   1.319   2.849
10858SOL     OW44452   2.620   3.775  15.609
10858SOL    HW144453   2.639   3.691  15.651
10858SOL    HW244454   2.700   3.827  15.622
10859SOL     OW44455   3.394   4.316   0.224
10859SOL    HW144456   3.449   4.363   0.161
10859SOL    HW244457   3.318   4.287   0.173
10860SOL     OW44458   0.122   0.739   4.217
10860SOL    HW144459   0.080   0.654   4.229
10860SOL    HW244460   0.054   0.803   4.241
10861SOL     OW44461   2.448   0.391   5.407
10861SOL    HW144462   2.399   0.424   5.482
10861SOL    HW244463   2.381   0.349   5.352
10862SOL     OW44464   1.752   4.446   4.575
10862SOL    HW144465   1.825   4.439   4.636
10862SOL    HW244466   1.674   4.451   4.632
10863SOL     OW44467   2.305   3.147  20.145
10863SOL    HW144468   2.385   3.145  20.092
10863SOL    HW244469   2.335   3.177  20.232
10864SOL     OW44470   0.061   4.047   5.225
10864SOL    HW144471   0.100   4.114   5.281
10864SOL    HW244472   4.779   4.014   5.275
10865SOL     OW44473   1.317   0.507   0.908
10865SOL    HW144474   1.330   0.602   0.899
10865SOL    HW244475   1.399   0.475   0.946
10866SOL     OW44476   1.370   1.680   3.044
10866SOL    HW144477   1.287   1.710   3.080
10866SOL    HW244478   1.436   1.732   3.090
10867SOL     OW44479   4.336   3.894   5.152
10867SOL    HW144480   4.355   3.806   5.120
10867SOL    HW244481   4.411   3.946   5.122
10868SOL     OW44482   3.035   0.711  20.580
10868SOL    HW144483   2.996   0.771  20.515
10868SOL    HW244484   2.977   0.635  20.579
10869SOL     OW44485   0.599   3.640  19.788
10869SOL    HW144486   0.591   3.585  19.710
10869SOL    HW244487   0.684   3.684  19.777
10870SOL     OW44488   0.431   1.360  19.032
10870SOL    HW144489   0.445   1.331  19.122
10870SOL    HW244490   0.494   1.311  18.980
10871SOL     OW44491   2.030   1.961  18.751
10871SOL    HW144492   2.001   1.871  18.733
10871SOL    HW244493   2.011   1.975  18.843
10872SOL     OW44494   2.091   1.293  20.525
10872SOL    HW144495   2.157   1.310  20.592
10872SOL    HW244496   2.141   1.263  20.448
10873SOL     OW44497   0.055   1.760  15.184
10873SOL    HW144498   0.114   1.832  15.205
10873SOL    HW244499   4.760   1.796  15.197
10874SOL     OW44500   0.336   3.081  16.850
10874SOL    HW144501   0.252   3.039  16.869
10874SOL    HW244502   0.373   3.101  16.935
10875SOL     OW44503   4.356   3.548  17.092
10875SOL    HW144504   4.354   3.631  17.139
10875SOL    HW244505   4.449   3.533  17.074
10876SOL     OW44506   0.062   3.683   1.509
10876SOL    HW144507   0.111   3.718   1.434
10876SOL    HW244508   0.124   3.626   1.553
10877SOL     OW44509   3.358   3.449  17.224
10877SOL    HW144510   3.338   3.449  17.131
10877SOL    HW244511   3.273   3.459  17.266
10878SOL     OW44512   0.598   0.977  20.287
10878SOL    HW144513   0.576   1.048  20.226
10878SOL    HW244514   0.671   1.012  20.339
10879SOL     OW44515   1.481   0.276   0.143
10879SOL    HW144516   1.574   0.291   0.122
10879SOL    HW244517   1.458   0.349   0.200
10880SOL     OW44518   0.276   3.538   1.536
10880SOL    HW144519   0.368   3.564   1.538
10880SOL    HW244520   0.268   3.483   1.459
10881SOL     OW44521   0.614   2.616  15.053
10881SOL    HW144522   0.571   2.697  15.080
10881SOL    HW244523   0.581   2.550  15.114
10882SOL     OW44524   0.826   1.803   1.560
10882SOL    HW144525   0.855   1.886   1.596
10882SOL    HW244526   0.907   1.755   1.540
10883SOL     OW44527   1.415   3.196   1.638
10883SOL    HW144528   1.406   3.287   1.609
10883SOL    HW244529   1.466   3.154   1.569
10884SOL     OW44530   1.900   3.380   4.903
10884SOL    HW144531   1.982   3.363   4.856
10884SOL    HW244532   1.839   3.314   4.871
10885SOL     OW44533   4.536   4.490   0.012
10885SOL    HW144534   4.564   4.538   0.090
10885SOL    HW244535   4.594   4.414   0.009
10886SOL     OW44536   3.289   1.268  18.709
10886SOL    HW144537   3.290   1.276  18.804
10886SOL    HW244538   3.258   1.354  18.678
10887SOL     OW44539   3.079   0.952  16.792
10887SOL    HW144540   3.068   0.918  16.881
10887SOL    HW244541   3.129   0.885  16.746
10888SOL     OW44542   1.123   3.970   2.677
10888SOL    HW144543   1.156   4.043   2.728
10888SOL    HW244544   1.198   3.939   2.627
10889SOL     OW44545   3.274   0.168  20.418
10889SOL    HW144546   3.213   0.197  20.486
10889SOL    HW244547   3.311   0.086  20.452
10890SOL     OW44548   2.698   2.871  20.212
10890SOL    HW144549   2.694   2.961  20.245
10890SOL    HW244550   2.789   2.859  20.186
10891SOL     OW44551   0.799   0.630  16.957
10891SOL    HW144552   0.856   0.670  16.891
10891SOL    HW244553   0.858   0.579  17.012
10892SOL     OW44554   2.652   2.393  16.886
10892SOL    HW144555   2.676   2.376  16.795
10892SOL    HW244556   2.722   2.353  16.938
10893SOL     OW44557   1.031   0.796  16.886
10893SOL    HW144558   1.074   0.830  16.808
10893SOL    HW244559   1.035   0.868  16.950
10894SOL     OW44560   0.499   1.537  15.795
10894SOL    HW144561   0.586   1.576  15.804
10894SOL    HW244562   0.470   1.563  15.708
10895SOL     OW44563   2.220   3.118  18.473
10895SOL    HW144564   2.313   3.116  18.448
10895SOL    HW244565   2.205   3.033  18.515
10896SOL     OW44566   2.234   4.090  17.451
10896SOL    HW144567   2.303   4.079  17.516
10896SOL    HW244568   2.169   4.023  17.474
10897SOL     OW44569   2.445   2.771  19.862
10897SOL    HW144570   2.386   2.729  19.924
10897SOL    HW244571   2.461   2.858  19.900
10898SOL     OW44572   1.933   4.377  19.444
10898SOL    HW144573   1.845   4.340  19.455
10898SOL    HW244574   1.968   4.333  19.367
10899SOL     OW44575   3.097   1.980   0.841
10899SOL    HW144576   3.172   1.926   0.815
10899SOL    HW244577   3.134   2.065   0.862
10900SOL     OW44578   4.305   3.992   5.415
10900SOL    HW144579   4.307   3.988   5.319
10900SOL    HW244580   4.385   4.038   5.439
10901SOL     OW44581   4.007   2.158  18.054
10901SOL    HW144582   4.039   2.247  18.064
10901SOL    HW244583   3.978   2.133  18.142
10902SOL     OW44584   2.265   0.329  17.469
10902SOL    HW144585   2.249   0.372  17.385
10902SOL    HW244586   2.191   0.355  17.524
10903SOL     OW44587   1.714   3.638   1.230
10903SOL    HW144588   1.763   3.720   1.225
10903SOL    HW244589   1.782   3.570   1.235
10904SOL     OW44590   4.556   2.024  16.900
10904SOL    HW144591   4.483   1.964  16.914
10904SOL    HW244592   4.541   2.059  16.812
10905SOL     OW44593   1.665   4.349  17.785
10905SOL    HW144594   1.712   4.272  17.818
10905SOL    HW244595   1.730   4.394  17.730
10906SOL     OW44596   2.228   3.625   2.557
10906SOL    HW144597   2.301   3.675   2.595
10906SOL    HW244598   2.150   3.674   2.583
10907SOL     OW44599   1.048   4.210  18.300
10907SOL    HW144600   1.079   4.166  18.379
10907SOL    HW244601   1.014   4.294  18.331
10908SOL     OW44602   2.677   0.621   2.408
10908SOL    HW144603   2.614   0.647   2.341
10908SOL    HW244604   2.762   0.624   2.363
10909SOL     OW44605   3.826   0.595  20.477
10909SOL    HW144606   3.747   0.628  20.520
10909SOL    HW244607   3.898   0.639  20.522
10910SOL     OW44608   0.936   3.906  15.977
10910SOL    HW144609   0.888   3.923  16.058
10910SOL    HW244610   0.907   3.819  15.950
10911SOL     OW44611   2.440   0.882  17.849
10911SOL    HW144612   2.344   0.874  17.850
10911SOL    HW244613   2.461   0.932  17.927
10912SOL     OW44614   2.404   4.338   6.433
10912SOL    HW144615   2.390   4.287   6.353
10912SOL    HW244616   2.493   4.372   6.424
10913SOL     OW44617   3.018   3.029  20.527
10913SOL    HW144618   2.984   2.958  20.581
10913SOL    HW244619   3.007   2.999  20.437
10914SOL     OW44620   0.343   2.365   4.229
10914SOL    HW144621   0.284   2.328   4.164
10914SOL    HW244622   0.315   2.326   4.312
10915SOL     OW44623   0.634   4.152  19.399
10915SOL    HW144624   0.678   4.075  19.437
10915SOL    HW244625   0.597   4.198  19.475
10916SOL     OW44626   1.677   3.462  19.636
10916SOL    HW144627   1.670   3.377  19.680
10916SOL    HW244628   1.683   3.441  19.543
10917SOL     OW44629   3.127   3.661  17.547
10917SOL    HW144630   3.194   3.593  17.544
10917SOL    HW244631   3.162   3.726  17.608
10918SOL     OW44632   2.758   4.621   2.997
10918SOL    HW144633   2.772   4.654   2.908
10918SOL    HW244634   2.670   4.585   2.996
10919SOL     OW44635   4.438   3.195   1.529
10919SOL    HW144636   4.434   3.267   1.591
10919SOL    HW244637   4.511   3.141   1.559
10920SOL     OW44638   1.225   0.512  15.434
10920SOL    HW144639   1.204   0.577  15.367
10920SOL    HW244640   1.196   0.429  15.397
10921SOL     OW44641   1.956   1.514  17.880
10921SOL    HW144642   1.969   1.531  17.973
10921SOL    HW244643   2.038   1.473  17.851
10922SOL     OW44644   1.765   2.601   1.233
10922SOL    HW144645   1.801   2.646   1.156
10922SOL    HW244646   1.772   2.508   1.212
10923SOL     OW44647   0.513   2.059   4.086
10923SOL    HW144648   0.503   1.965   4.070
10923SOL    HW244649   0.447   2.079   4.153
10924SOL     OW44650   3.774   4.534   5.820
10924SOL    HW144651   3.752   4.467   5.755
10924SOL    HW244652   3.706   4.526   5.887
10925SOL     OW44653   1.517   3.398  17.287
10925SOL    HW144654   1.452   3.345  17.333
10925SOL    HW244655   1.507   3.374  17.195
10926SOL     OW44656   4.718   0.665  20.318
10926SOL    HW144657   4.789   0.718  20.354
10926SOL    HW244658   4.653   0.728  20.287
10927SOL     OW44659   1.239   1.146   2.042
10927SOL    HW144660   1.162   1.093   2.024
10927SOL    HW244661   1.300   1.125   1.971
10928SOL     OW44662   0.919   1.980  16.179
10928SOL    HW144663   0.999   2.024  16.152
10928SOL    HW244664   0.903   2.011  16.269
10929SOL     OW44665   1.830   0.181   5.515
10929SOL    HW144666   1.925   0.189   5.522
10929SOL    HW244667   1.797   0.209   5.601
10930SOL     OW44668   3.468   3.667   0.063
10930SOL    HW144669   3.549   3.652   0.113
10930SOL    HW244670   3.496   3.666  21.244
10931SOL     OW44671   3.069   1.459  19.731
10931SOL    HW144672   3.115   1.425  19.655
10931SOL    HW244673   3.137   1.470  19.798
10932SOL     OW44674   3.219   2.601  16.055
10932SOL    HW144675   3.284   2.667  16.031
10932SOL    HW244676   3.201   2.619  16.147
10933SOL     OW44677   2.616   0.667   8.861
10933SOL    HW144678   2.544   0.605   8.853
10933SOL    HW244679   2.628   0.701   8.773
10934SOL     OW44680   2.718   1.822  16.619
10934SOL    HW144681   2.778   1.879  16.571
10934SOL    HW244682   2.673   1.771  16.552
10935SOL     OW44683   0.348   3.946  18.348
10935SOL    HW144684   0.310   3.975  18.265
10935SOL    HW244685   0.288   3.876  18.378
10936SOL     OW44686   4.092   4.010   2.877
10936SOL    HW144687   4.033   4.017   2.802
10936SOL    HW244688   4.157   4.079   2.864
10937SOL     OW44689   0.759   2.003  20.950
10937SOL    HW144690   0.829   2.059  20.984
10937SOL    HW244691   0.690   2.064  20.922
10938SOL     OW44692   3.722   2.647  13.835
10938SOL    HW144693   3.735   2.633  13.741
10938SOL    HW244694   3.771   2.727  13.855
10939SOL     OW44695   0.019   0.856  17.931
10939SOL    HW144696   4.720   0.860  17.959
10939SOL    HW244697   0.040   0.947  17.908
10940SOL     OW44698   0.000   1.414   8.168
10940SOL    HW144699   0.008   1.507   8.145
10940SOL    HW244700   0.006   1.368   8.084
10941SOL     OW44701   4.370   0.524  21.016
10941SOL    HW144702   4.319   0.461  20.966
10941SOL    HW244703   4.308   0.561  21.079
10942SOL     OW44704   3.873   2.633  16.341
10942SOL    HW144705   3.932   2.704  16.367
10942SOL    HW244706   3.786   2.675  16.338
10943SOL     OW44707   2.681   4.362  19.565
10943SOL    HW144708   2.621   4.291  19.543
10943SOL    HW244709   2.757   4.317  19.602
10944SOL     OW44710   2.129   3.971   6.299
10944SOL    HW144711   2.097   3.971   6.389
10944SOL    HW244712   2.224   3.957   6.308
10945SOL     OW44713   4.691   0.864  21.163
10945SOL    HW144714   4.621   0.834  21.222
10945SOL    HW244715   4.734   0.935  21.212
10946SOL     OW44716   2.015   0.379   3.345
10946SOL    HW144717   2.066   0.367   3.265
10946SOL    HW244718   2.065   0.334   3.413
10947SOL     OW44719   4.658   0.453  19.551
10947SOL    HW144720   4.752   0.473  19.548
10947SOL    HW244721   4.641   0.406  19.469
10948SOL     OW44722   1.500   3.611   1.748
10948SOL    HW144723   1.485   3.656   1.831
10948SOL    HW244724   1.594   3.595   1.745
10949SOL     OW44725   4.790   2.817   3.955
10949SOL    HW144726   4.766   2.790   4.043
10949SOL    HW244727   0.091   2.800   3.949
10950SOL     OW44728   3.662   4.268  19.788
10950SOL    HW144729   3.647   4.183  19.746
10950SOL    HW244730   3.611   4.330  19.735
10951SOL     OW44731   3.281   1.716   1.497
10951SOL    HW144732   3.305   1.694   1.407
10951SOL    HW244733   3.312   1.642   1.549
10952SOL     OW44734   0.480   4.302  18.359
10952SOL    HW144735   0.487   4.358  18.282
10952SOL    HW244736   0.501   4.214  18.327
10953SOL     OW44737   1.904   4.259   4.052
10953SOL    HW144738   1.869   4.320   4.117
10953SOL    HW244739   1.885   4.172   4.087
10954SOL     OW44740   1.844   2.751  17.805
10954SOL    HW144741   1.776   2.732  17.870
10954SOL    HW244742   1.890   2.669  17.792
10955SOL     OW44743   3.232   3.182  19.856
10955SOL    HW144744   3.197   3.222  19.776
10955SOL    HW244745   3.275   3.102  19.827
10956SOL     OW44746   2.719   2.558  21.002
10956SOL    HW144747   2.779   2.513  21.061
10956SOL    HW244748   2.701   2.641  21.044
10957SOL     OW44749   2.688   3.819  19.775
10957SOL    HW144750   2.745   3.892  19.800
10957SOL    HW244751   2.748   3.753  19.741
10958SOL     OW44752   0.664   2.980  19.987
10958SOL    HW144753   0.634   3.057  19.939
10958SOL    HW244754   0.602   2.911  19.965
10959SOL     OW44755   3.290   4.472   1.715
10959SOL    HW144756   3.280   4.398   1.776
10959SOL    HW244757   3.238   4.447   1.639
10960SOL     OW44758   1.686   1.854  18.808
10960SOL    HW144759   1.739   1.855  18.888
10960SOL    HW244760   1.644   1.768  18.808
10961SOL     OW44761   4.497   1.463   0.998
10961SOL    HW144762   4.510   1.555   0.975
10961SOL    HW244763   4.522   1.416   0.918
10962SOL     OW44764   2.228   3.648  16.372
10962SOL    HW144765   2.210   3.656  16.466
10962SOL    HW244766   2.273   3.729  16.350
10963SOL     OW44767   1.998   2.629   4.081
10963SOL    HW144768   2.041   2.550   4.049
10963SOL    HW244769   1.925   2.598   4.133
10964SOL     OW44770   1.936   1.724  18.657
10964SOL    HW144771   1.871   1.773  18.607
10964SOL    HW244772   1.969   1.658  18.596
10965SOL     OW44773   1.108   4.685  19.392
10965SOL    HW144774   1.146   4.674  19.304
10965SOL    HW244775   1.111   4.779  19.408
10966SOL     OW44776   0.294   1.610   3.247
10966SOL    HW144777   0.288   1.705   3.244
10966SOL    HW244778   0.204   1.581   3.264
10967SOL     OW44779   3.512   4.292  20.496
10967SOL    HW144780   3.464   4.224  20.449
10967SOL    HW244781   3.578   4.322  20.433
10968SOL     OW44782   3.953   0.137  16.365
10968SOL    HW144783   3.899   0.216  16.366
10968SOL    HW244784   3.998   0.138  16.449
10969SOL     OW44785   0.808   1.718   5.231
10969SOL    HW144786   0.721   1.683   5.250
10969SOL    HW244787   0.867   1.643   5.241
10970SOL     OW44788   2.327   3.976  17.895
10970SOL    HW144789   2.250   4.026  17.924
10970SOL    HW244790   2.291   3.910  17.836
10971SOL     OW44791   2.029   3.004  15.847
10971SOL    HW144792   2.085   3.060  15.793
10971SOL    HW244793   1.980   3.065  15.902
10972SOL     OW44794   4.313   2.953   3.713
10972SOL    HW144795   4.351   2.969   3.799
10972SOL    HW244796   4.389   2.946   3.654
10973SOL     OW44797   3.664   0.464   1.722
10973SOL    HW144798   3.755   0.448   1.695
10973SOL    HW244799   3.618   0.384   1.700
10974SOL     OW44800   4.699   2.975  18.192
10974SOL    HW144801   4.607   2.973  18.168
10974SOL    HW244802   4.746   2.956  18.111
10975SOL     OW44803   0.662   1.951  12.668
10975SOL    HW144804   0.667   1.958  12.764
10975SOL    HW244805   0.667   1.857  12.651
10976SOL     OW44806   1.289   0.645   0.526
10976SOL    HW144807   1.329   0.727   0.555
10976SOL    HW244808   1.224   0.671   0.461
10977SOL     OW44809   4.772   3.485   0.733
10977SOL    HW144810   0.066   3.446   0.740
10977SOL    HW244811   4.712   3.415   0.756
10978SOL     OW44812   3.970   3.819   0.271
10978SOL    HW144813   4.044   3.864   0.233
10978SOL    HW244814   3.951   3.867   0.352
10979SOL     OW44815   0.062   1.082  17.491
10979SOL    HW144816   4.791   1.012  17.479
10979SOL    HW244817   0.014   1.152  17.535
10980SOL     OW44818   4.105   4.201  16.560
10980SOL    HW144819   4.117   4.213  16.654
10980SOL    HW244820   4.101   4.106  16.548
10981SOL     OW44821   1.507   1.358   0.922
10981SOL    HW144822   1.437   1.423   0.914
10981SOL    HW244823   1.566   1.395   0.987
10982SOL     OW44824   0.819   1.157  16.063
10982SOL    HW144825   0.835   1.153  15.968
10982SOL    HW244826   0.749   1.093  16.078
10983SOL     OW44827   3.390   4.026   4.253
10983SOL    HW144828   3.371   3.940   4.289
10983SOL    HW244829   3.358   4.023   4.163
10984SOL     OW44830   1.014   3.093   7.877
10984SOL    HW144831   1.080   3.125   7.816
10984SOL    HW244832   0.970   3.022   7.830
10985SOL     OW44833   3.810   2.096  20.029
10985SOL    HW144834   3.806   2.156  19.954
10985SOL    HW244835   3.732   2.042  20.020
10986SOL     OW44836   2.965   3.830  19.960
10986SOL    HW144837   3.016   3.866  20.034
10986SOL    HW244838   2.995   3.739  19.953
10987SOL     OW44839   3.564   3.680  16.992
10987SOL    HW144840   3.546   3.751  17.054
10987SOL    HW244841   3.587   3.725  16.910
10988SOL     OW44842   3.865   1.088  21.154
10988SOL    HW144843   3.952   1.082  21.114
10988SOL    HW244844   3.882   1.110  21.246
10989SOL     OW44845   4.111   2.012  19.392
10989SOL    HW144846   4.100   2.106  19.400
10989SOL    HW244847   4.040   1.984  19.334
10990SOL     OW44848   4.005   1.556   5.180
10990SOL    HW144849   4.010   1.461   5.182
10990SOL    HW244850   3.965   1.580   5.264
10991SOL     OW44851   0.785   3.352   9.326
10991SOL    HW144852   0.798   3.389   9.239
10991SOL    HW244853   0.768   3.259   9.311
10992SOL     OW44854   1.743   2.056   0.895
10992SOL    HW144855   1.744   1.979   0.838
10992SOL    HW244856   1.664   2.045   0.948
10993SOL     OW44857   0.977   1.559   8.179
10993SOL    HW144858   0.938   1.614   8.247
10993SOL    HW244859   1.064   1.596   8.166
10994SOL     OW44860   3.288   1.633   1.866
10994SOL    HW144861   3.225   1.702   1.846
10994SOL    HW244862   3.292   1.580   1.786
10995SOL     OW44863   0.453   1.687  17.911
10995SOL    HW144864   0.468   1.652  17.823
10995SOL    HW244865   0.448   1.610  17.967
10996SOL     OW44866   1.455   0.852   9.155
10996SOL    HW144867   1.476   0.905   9.231
10996SOL    HW244868   1.483   0.764   9.178
10997SOL     OW44869   3.003   2.480   1.624
10997SOL    HW144870   2.953   2.506   1.702
10997SOL    HW244871   2.936   2.453   1.561
10998SOL     OW44872   2.458   1.124   6.548
10998SOL    HW144873   2.453   1.219   6.543
10998SOL    HW244874   2.529   1.107   6.610
10999SOL     OW44875   4.090   2.790  18.451
10999SOL    HW144876   4.185   2.799  18.444
10999SOL    HW244877   4.063   2.864  18.504
11000SOL     OW44878   4.102   2.469   4.402
11000SOL    HW144879   4.195   2.465   4.380
11000SOL    HW244880   4.071   2.379   4.389
11001SOL     OW44881   3.253   1.574   8.283
11001SOL    HW144882   3.335   1.594   8.329
11001SOL    HW244883   3.197   1.650   8.300
11002SOL     OW44884   1.593   3.398  21.071
11002SOL    HW144885   1.558   3.367  20.987
11002SOL    HW244886   1.539   3.353  21.137
11003SOL     OW44887   3.524   3.044   0.628
11003SOL    HW144888   3.516   3.070   0.720
11003SOL    HW244889   3.610   3.004   0.621
11004SOL     OW44890   3.539   0.030   8.063
11004SOL    HW144891   3.463   0.055   8.010
11004SOL    HW244892   3.610   0.085   8.029
11005SOL     OW44893   2.873   3.317   8.681
11005SOL    HW144894   2.934   3.277   8.743
11005SOL    HW244895   2.788   3.316   8.725
11006SOL     OW44896   2.128   1.138  20.085
11006SOL    HW144897   2.156   1.217  20.131
11006SOL    HW244898   2.183   1.135  20.007
11007SOL     OW44899   1.443   3.805  10.530
11007SOL    HW144900   1.384   3.766  10.595
11007SOL    HW244901   1.429   3.899  10.538
11008SOL     OW44902   2.073   3.708   9.705
11008SOL    HW144903   2.003   3.662   9.659
11008SOL    HW244904   2.027   3.762   9.770
11009SOL     OW44905   0.577   3.158  11.413
11009SOL    HW144906   0.636   3.213  11.465
11009SOL    HW244907   0.636   3.098  11.366
11010SOL     OW44908   4.754   3.874   4.877
11010SOL    HW144909   4.713   3.794   4.845
11010SOL    HW244910   0.016   3.845   4.950
11011SOL     OW44911   0.162   3.491   9.225
11011SOL    HW144912   0.121   3.572   9.256
11011SOL    HW244913   0.239   3.480   9.280
11012SOL     OW44914   2.803   3.003  10.202
11012SOL    HW144915   2.767   3.074  10.255
11012SOL    HW244916   2.731   2.978  10.144
11013SOL     OW44917   1.013   3.611   9.355
11013SOL    HW144918   0.989   3.564   9.276
11013SOL    HW244919   1.067   3.550   9.405
11014SOL     OW44920   3.019   0.012   9.451
11014SOL    HW144921   2.936   4.761   9.438
11014SOL    HW244922   3.027   0.072   9.377
11015SOL     OW44923   2.901   4.155  10.320
11015SOL    HW144924   2.983   4.192  10.287
11015SOL    HW244925   2.844   4.231  10.331
11016SOL     OW44926   1.997   3.483  12.348
11016SOL    HW144927   2.078   3.465  12.300
11016SOL    HW244928   1.988   3.408  12.407
11017SOL     OW44929   2.118   3.888  11.771
11017SOL    HW144930   2.029   3.858  11.785
11017SOL    HW244931   2.160   3.819  11.721
11018SOL     OW44932   3.254   0.246  11.976
11018SOL    HW144933   3.322   0.243  12.043
11018SOL    HW244934   3.211   0.160  11.981
11019SOL     OW44935   3.717   4.681  11.900
11019SOL    HW144936   3.804   4.656  11.928
11019SOL    HW244937   3.699   4.762  11.947
11020SOL     OW44938   2.161   3.105  11.181
11020SOL    HW144939   2.236   3.161  11.163
11020SOL    HW244940   2.190   3.017  11.157
11021SOL     OW44941   2.110   2.614  12.848
11021SOL    HW144942   2.188   2.575  12.888
11021SOL    HW244943   2.144   2.671  12.779
11022SOL     OW44944   2.946   0.018  11.594
11022SOL    HW144945   3.034   4.772  11.602
11022SOL    HW244946   2.945   0.087  11.661
11023SOL     OW44947   3.711   3.025  12.882
11023SOL    HW144948   3.712   2.959  12.952
11023SOL    HW244949   3.644   3.088  12.910
11024SOL     OW44950   1.129   4.511  11.022
11024SOL    HW144951   1.182   4.432  11.035
11024SOL    HW244952   1.046   4.479  10.987
11025SOL     OW44953   2.487   2.240  12.245
11025SOL    HW144954   2.548   2.312  12.261
11025SOL    HW244955   2.406   2.267  12.290
11026SOL     OW44956   2.450   3.548  10.817
11026SOL    HW144957   2.518   3.603  10.777
11026SOL    HW244958   2.486   3.459  10.812
11027SOL     OW44959   2.332   2.213  17.564
11027SOL    HW144960   2.349   2.246  17.652
11027SOL    HW244961   2.390   2.137  17.556
11028SOL     OW44962   2.406   3.251  11.162
11028SOL    HW144963   2.418   3.325  11.222
11028SOL    HW244964   2.494   3.230  11.132
11029SOL     OW44965   1.980   3.234  10.917
11029SOL    HW144966   2.063   3.187  10.915
11029SOL    HW244967   1.957   3.240  11.009
11030SOL     OW44968   2.062   0.378  11.814
11030SOL    HW144969   2.088   0.351  11.725
11030SOL    HW244970   2.125   0.334  11.871
11031SOL     OW44971   2.666   2.240  12.556
11031SOL    HW144972   2.683   2.327  12.591
11031SOL    HW244973   2.584   2.213  12.597
11032SOL     OW44974   3.523   2.769  16.764
11032SOL    HW144975   3.617   2.775  16.747
11032SOL    HW244976   3.485   2.744  16.679
11033SOL     OW44977   1.447   4.627  18.979
11033SOL    HW144978   1.479   4.605  18.892
11033SOL    HW244979   1.378   4.563  18.996
11034SOL     OW44980   3.902   3.234  15.207
11034SOL    HW144981   3.898   3.239  15.303
11034SOL    HW244982   3.816   3.202  15.181
11035SOL     OW44983   2.972   2.638   3.069
11035SOL    HW144984   2.992   2.550   3.100
11035SOL    HW244985   2.983   2.633   2.974
11036SOL     OW44986   1.001   1.110  20.468
11036SOL    HW144987   1.006   1.016  20.450
11036SOL    HW244988   0.917   1.121  20.512
11037SOL     OW44989   3.349   0.687   5.611
11037SOL    HW144990   3.263   0.692   5.653
11037SOL    HW244991   3.389   0.608   5.647
11038SOL     OW44992   0.223   2.296   2.410
11038SOL    HW144993   0.167   2.218   2.408
11038SOL    HW244994   0.298   2.273   2.355
11039SOL     OW44995   1.251   3.618   5.764
11039SOL    HW144996   1.334   3.592   5.805
11039SOL    HW244997   1.278   3.658   5.681
11040SOL     OW44998   1.311   2.336  13.284
11040SOL    HW144999   1.242   2.272  13.299
11040SOL    HW245000   1.293   2.369  13.196
11041SOL     OW45001   2.488   1.851   8.279
11041SOL    HW145002   2.548   1.924   8.296
11041SOL    HW245003   2.530   1.776   8.321
11042SOL     OW45004   3.849   0.407   7.431
11042SOL    HW145005   3.898   0.395   7.512
11042SOL    HW245006   3.829   0.500   7.429
11043SOL     OW45007   1.612   0.702   8.350
11043SOL    HW145008   1.653   0.778   8.310
11043SOL    HW245009   1.548   0.737   8.411
11044SOL     OW45010   4.214   0.502   2.505
11044SOL    HW145011   4.172   0.445   2.569
11044SOL    HW245012   4.172   0.481   2.422
11045SOL     OW45013   0.280   2.436  17.063
11045SOL    HW145014   0.364   2.393  17.078
11045SOL    HW245015   0.288   2.520  17.109
11046SOL     OW45016   2.291   2.132  16.808
11046SOL    HW145017   2.245   2.201  16.759
11046SOL    HW245018   2.342   2.179  16.874
11047SOL     OW45019   1.559   4.718  11.875
11047SOL    HW145020   1.479   4.717  11.928
11047SOL    HW245021   1.547   4.790  11.813
11048SOL     OW45022   0.613   3.622   5.447
11048SOL    HW145023   0.689   3.613   5.504
11048SOL    HW245024   0.573   3.535   5.446
11049SOL     OW45025   4.621   3.689  17.902
11049SOL    HW145026   4.579   3.751  17.843
11049SOL    HW245027   4.551   3.631  17.931
11050SOL     OW45028   3.832   0.913   6.924
11050SOL    HW145029   3.924   0.895   6.909
11050SOL    HW245030   3.787   0.831   6.902
11051SOL     OW45031   0.878   3.332  19.968
11051SOL    HW145032   0.925   3.274  20.029
11051SOL    HW245033   0.786   3.317  19.987
11052SOL     OW45034   3.618   4.125   6.647
11052SOL    HW145035   3.638   4.032   6.662
11052SOL    HW245036   3.566   4.126   6.566
11053SOL     OW45037   0.044   0.874  13.387
11053SOL    HW145038   0.105   0.923  13.333
11053SOL    HW245039   0.010   0.938  13.450
11054SOL     OW45040   0.234   1.929  20.898
11054SOL    HW145041   0.247   1.852  20.843
11054SOL    HW245042   0.151   1.967  20.868
11055SOL     OW45043   0.569   1.552  18.404
11055SOL    HW145044   0.511   1.560  18.480
11055SOL    HW245045   0.635   1.621  18.417
11056SOL     OW45046   0.395   2.161   5.445
11056SOL    HW145047   0.433   2.073   5.434
11056SOL    HW245048   0.301   2.146   5.451
11057SOL     OW45049   3.524   2.831  20.572
11057SOL    HW145050   3.610   2.849  20.610
11057SOL    HW245051   3.469   2.904  20.601
11058SOL     OW45052   3.573   2.286   4.876
11058SOL    HW145053   3.544   2.279   4.967
11058SOL    HW245054   3.664   2.314   4.881
11059SOL     OW45055   0.626   3.046   0.562
11059SOL    HW145056   0.581   2.969   0.526
11059SOL    HW245057   0.719   3.029   0.544
11060SOL     OW45058   4.698   3.316  18.936
11060SOL    HW145059   4.611   3.323  18.975
11060SOL    HW245060   4.743   3.250  18.989
11061SOL     OW45061   2.015   3.801   4.269
11061SOL    HW145062   2.108   3.807   4.290
11061SOL    HW245063   2.004   3.711   4.237
11062SOL     OW45064   1.602   2.391  20.524
11062SOL    HW145065   1.555   2.425  20.448
11062SOL    HW245066   1.634   2.305  20.496
11063SOL     OW45067   3.093   2.881   7.990
11063SOL    HW145068   3.048   2.936   8.053
11063SOL    HW245069   3.042   2.800   7.988
11064SOL     OW45070   3.977   0.731  11.882
11064SOL    HW145071   3.977   0.813  11.932
11064SOL    HW245072   4.063   0.693  11.899
11065SOL     OW45073   2.874   1.953  18.820
11065SOL    HW145074   2.820   1.947  18.741
11065SOL    HW245075   2.811   1.963  18.892
11066SOL     OW45076   0.207   0.534   6.135
11066SOL    HW145077   0.264   0.579   6.072
11066SOL    HW245078   0.123   0.525   6.090
11067SOL     OW45079   1.068   0.312  15.783
11067SOL    HW145080   1.094   0.265  15.862
11067SOL    HW245081   1.063   0.245  15.715
11068SOL     OW45082   2.410   0.967  20.188
11068SOL    HW145083   2.363   1.022  20.250
11068SOL    HW245084   2.383   0.877  20.209
11069SOL     OW45085   2.213   3.995  11.193
11069SOL    HW145086   2.183   3.926  11.251
11069SOL    HW245087   2.146   4.062  11.197
11070SOL     OW45088   3.809   1.980  12.779
11070SOL    HW145089   3.862   2.059  12.789
11070SOL    HW245090   3.873   1.910  12.764
11071SOL     OW45091   4.249   4.258  17.078
11071SOL    HW145092   4.343   4.257  17.061
11071SOL    HW245093   4.214   4.185  17.028
11072SOL     OW45094   0.724   1.648  18.116
11072SOL    HW145095   0.769   1.569  18.148
11072SOL    HW245096   0.786   1.686  18.053
11073SOL     OW45097   0.365   3.640  20.679
11073SOL    HW145098   0.368   3.587  20.599
11073SOL    HW245099   0.308   3.591  20.738
11074SOL     OW45100   3.944   3.589   3.369
11074SOL    HW145101   4.014   3.599   3.433
11074SOL    HW245102   3.865   3.612   3.416
11075SOL     OW45103   4.325   2.732   4.970
11075SOL    HW145104   4.313   2.729   4.875
11075SOL    HW245105   4.281   2.653   5.002
11076SOL     OW45106   0.915   2.954   5.665
11076SOL    HW145107   0.950   2.866   5.672
11076SOL    HW245108   0.984   3.004   5.621
11077SOL     OW45109   2.278   3.234   8.292
11077SOL    HW145110   2.242   3.322   8.296
11077SOL    HW245111   2.265   3.198   8.380
11078SOL     OW45112   1.697   1.119   6.457
11078SOL    HW145113   1.707   1.113   6.362
11078SOL    HW245114   1.787   1.122   6.490
11079SOL     OW45115   2.252   3.260   0.687
11079SOL    HW145116   2.159   3.245   0.699
11079SOL    HW245117   2.291   3.172   0.689
11080SOL     OW45118   3.815   2.629  20.500
11080SOL    HW145119   3.735   2.594  20.540
11080SOL    HW245120   3.788   2.659  20.414
11081SOL     OW45121   0.525   1.008  20.737
11081SOL    HW145122   0.466   1.082  20.735
11081SOL    HW245123   0.595   1.034  20.797
11082SOL     OW45124   0.153   4.571   3.798
11082SOL    HW145125   0.180   4.511   3.867
11082SOL    HW245126   0.227   4.632   3.790
11083SOL     OW45127   2.455   2.376   1.489
11083SOL    HW145128   2.431   2.460   1.529
11083SOL    HW245129   2.446   2.313   1.561
11084SOL     OW45130   0.145   2.562  17.879
11084SOL    HW145131   0.231   2.589  17.910
11084SOL    HW245132   0.084   2.593  17.946
11085SOL     OW45133   1.104   2.245   2.991
11085SOL    HW145134   1.182   2.299   2.979
11085SOL    HW245135   1.032   2.307   2.993
11086SOL     OW45136   1.446   0.691  13.067
11086SOL    HW145137   1.483   0.679  12.980
11086SOL    HW245138   1.473   0.779  13.093
11087SOL     OW45139   2.397   0.906  14.532
11087SOL    HW145140   2.355   0.820  14.529
11087SOL    HW245141   2.392   0.939  14.443
11088SOL     OW45142   4.224   2.090   0.502
11088SOL    HW145143   4.293   2.132   0.451
11088SOL    HW245144   4.148   2.147   0.492
11089SOL     OW45145   2.214   2.359   5.435
11089SOL    HW145146   2.135   2.317   5.400
11089SOL    HW245147   2.276   2.357   5.362
11090SOL     OW45148   0.520   3.862   2.146
11090SOL    HW145149   0.445   3.825   2.192
11090SOL    HW245150   0.536   3.945   2.190
11091SOL     OW45151   1.553   1.368  20.604
11091SOL    HW145152   1.603   1.323  20.672
11091SOL    HW245153   1.479   1.310  20.585
11092SOL     OW45154   3.807   1.314   1.917
11092SOL    HW145155   3.819   1.260   1.994
11092SOL    HW245156   3.717   1.297   1.889
11093SOL     OW45157   3.329   2.705   2.504
11093SOL    HW145158   3.381   2.737   2.429
11093SOL    HW245159   3.239   2.731   2.484
11094SOL     OW45160   4.734   3.023  15.542
11094SOL    HW145161   4.684   3.036  15.623
11094SOL    HW245162   0.032   3.022  15.571
11095SOL     OW45163   1.871   4.546   6.369
11095SOL    HW145164   1.909   4.519   6.285
11095SOL    HW245165   1.785   4.581   6.346
11096SOL     OW45166   2.185   4.002  10.914
11096SOL    HW145167   2.214   4.021  11.003
11096SOL    HW245168   2.104   3.952  10.924
11097SOL     OW45169   4.759   3.048  17.540
11097SOL    HW145170   0.008   2.985  17.483
11097SOL    HW245171   4.688   3.084  17.488
11098SOL     OW45172   3.807   1.620  17.885
11098SOL    HW145173   3.725   1.669  17.884
11098SOL    HW245174   3.819   1.593  17.794
11099SOL     OW45175   2.038   4.793  15.950
11099SOL    HW145176   2.015   0.037  16.035
11099SOL    HW245177   2.031   0.073  15.889
11100SOL     OW45178   0.856   1.672  11.753
11100SOL    HW145179   0.937   1.634  11.719
11100SOL    HW245180   0.850   1.758  11.710
11101SOL     OW45181   3.852   3.504  20.114
11101SOL    HW145182   3.804   3.587  20.112
11101SOL    HW245183   3.879   3.495  20.206
11102SOL     OW45184   4.216   2.671   0.630
11102SOL    HW145185   4.263   2.630   0.557
11102SOL    HW245186   4.131   2.627   0.632
11103SOL     OW45187   0.813   2.664   3.773
11103SOL    HW145188   0.793   2.754   3.799
11103SOL    HW245189   0.811   2.614   3.855
11104SOL     OW45190   3.685   2.518   2.207
11104SOL    HW145191   3.740   2.453   2.163
11104SOL    HW245192   3.633   2.467   2.270
11105SOL     OW45193   0.762   4.693  19.311
11105SOL    HW145194   0.760   4.625  19.378
11105SOL    HW245195   0.795   4.771  19.356
11106SOL     OW45196   1.640   2.012   3.361
11106SOL    HW145197   1.619   2.013   3.454
11106SOL    HW245198   1.726   2.055   3.356
11107SOL     OW45199   4.012   0.116  15.860
11107SOL    HW145200   3.929   0.154  15.885
11107SOL    HW245201   3.989   0.038  15.808
11108SOL     OW45202   1.139   3.203  20.089
11108SOL    HW145203   1.059   3.151  20.089
11108SOL    HW245204   1.129   3.263  20.162
11109SOL     OW45205   1.581   3.457   5.241
11109SOL    HW145206   1.517   3.386   5.232
11109SOL    HW245207   1.613   3.449   5.331
11110SOL     OW45208   4.091   0.526  16.272
11110SOL    HW145209   4.065   0.443  16.232
11110SOL    HW245210   4.050   0.592  16.217
11111SOL     OW45211   0.632   2.493  16.975
11111SOL    HW145212   0.637   2.572  17.028
11111SOL    HW245213   0.710   2.497  16.919
11112SOL     OW45214   1.376   0.600   1.470
11112SOL    HW145215   1.373   0.674   1.410
11112SOL    HW245216   1.333   0.529   1.422
11113SOL     OW45217   4.445   1.139  18.846
11113SOL    HW145218   4.469   1.057  18.889
11113SOL    HW245219   4.513   1.153  18.780
11114SOL     OW45220   3.705   4.674   1.247
11114SOL    HW145221   3.644   4.621   1.196
11114SOL    HW245222   3.753   4.726   1.182
11115SOL     OW45223   2.566   4.510   6.719
11115SOL    HW145224   2.482   4.556   6.722
11115SOL    HW245225   2.631   4.579   6.711
11116SOL     OW45226   1.499   2.950   2.282
11116SOL    HW145227   1.458   2.889   2.220
11116SOL    HW245228   1.433   3.017   2.297
11117SOL     OW45229   2.409   3.680   8.983
11117SOL    HW145230   2.386   3.632   9.062
11117SOL    HW245231   2.487   3.730   9.007
11118SOL     OW45232   2.270   1.661  16.113
11118SOL    HW145233   2.241   1.734  16.058
11118SOL    HW245234   2.208   1.660  16.186
11119SOL     OW45235   0.252   4.048   0.542
11119SOL    HW145236   0.230   4.012   0.456
11119SOL    HW245237   0.180   4.022   0.599
11120SOL     OW45238   2.624   1.940   0.319
11120SOL    HW145239   2.687   1.875   0.353
11120SOL    HW245240   2.660   1.964   0.234
11121SOL     OW45241   4.428   2.584  12.764
11121SOL    HW145242   4.367   2.553  12.696
11121SOL    HW245243   4.453   2.672  12.735
11122SOL     OW45244   3.141   2.627  13.547
11122SOL    HW145245   3.202   2.700  13.560
11122SOL    HW245246   3.177   2.556  13.600
11123SOL     OW45247   2.859   0.924  20.891
11123SOL    HW145248   2.832   0.990  20.954
11123SOL    HW245249   2.945   0.954  20.861
11124SOL     OW45250   0.260   2.149   1.057
11124SOL    HW145251   0.273   2.076   1.117
11124SOL    HW245252   0.280   2.227   1.108
11125SOL     OW45253   2.289   0.416   0.816
11125SOL    HW145254   2.288   0.441   0.724
11125SOL    HW245255   2.345   0.339   0.820
11126SOL     OW45256   0.666   2.081  16.566
11126SOL    HW145257   0.574   2.108  16.559
11126SOL    HW245258   0.694   2.115  16.651
11127SOL     OW45259   4.788   0.414  10.757
11127SOL    HW145260   0.033   0.380  10.838
11127SOL    HW245261   0.057   0.390  10.689
11128SOL     OW45262   4.124   1.432  21.034
11128SOL    HW145263   4.219   1.430  21.027
11128SOL    HW245264   4.107   1.429  21.128
11129SOL     OW45265   3.447   2.190  13.093
11129SOL    HW145266   3.406   2.199  13.007
11129SOL    HW245267   3.539   2.211  13.079
11130SOL     OW45268   2.234   3.362  14.808
11130SOL    HW145269   2.317   3.408  14.799
11130SOL    HW245270   2.184   3.413  14.870
11131SOL     OW45271   1.658   0.574  15.858
11131SOL    HW145272   1.750   0.573  15.886
11131SOL    HW245273   1.622   0.493  15.893
11132SOL     OW45274   1.579   1.967  19.165
11132SOL    HW145275   1.549   1.903  19.229
11132SOL    HW245276   1.500   1.995  19.119
11133SOL     OW45277   1.053   4.063   5.800
11133SOL    HW145278   1.135   4.109   5.785
11133SOL    HW245279   1.068   4.011   5.879
11134SOL     OW45280   1.055   3.717  12.891
11134SOL    HW145281   1.119   3.666  12.840
11134SOL    HW245282   1.071   3.691  12.982
11135SOL     OW45283   4.157   2.426   9.761
11135SOL    HW145284   4.205   2.440   9.680
11135SOL    HW245285   4.073   2.389   9.734
11136SOL     OW45286   1.089   1.129  14.754
11136SOL    HW145287   1.096   1.148  14.847
11136SOL    HW245288   1.169   1.167  14.716
11137SOL     OW45289   3.584   1.679  13.614
11137SOL    HW145290   3.626   1.764  13.622
11137SOL    HW245291   3.540   1.682  13.529
11138SOL     OW45292   1.232   0.522   5.204
11138SOL    HW145293   1.295   0.453   5.183
11138SOL    HW245294   1.263   0.559   5.287
11139SOL     OW45295   4.768   1.241   4.347
11139SOL    HW145296   4.780   1.284   4.262
11139SOL    HW245297   0.044   1.277   4.402
11140SOL     OW45298   0.039   0.356   7.196
11140SOL    HW145299   4.761   0.292   7.196
11140SOL    HW245300   0.016   0.417   7.267
11141SOL     OW45301   4.197   3.356  15.968
11141SOL    HW145302   4.138   3.282  15.987
11141SOL    HW245303   4.160   3.429  16.017
11142SOL     OW45304   2.881   3.960   1.174
11142SOL    HW145305   2.822   4.031   1.198
11142SOL    HW245306   2.840   3.918   1.098
11143SOL     OW45307   0.127   2.150  20.148
11143SOL    HW145308   0.202   2.183  20.100
11143SOL    HW245309   0.095   2.076  20.096
11144SOL     OW45310   0.332   4.230   4.379
11144SOL    HW145311   0.300   4.195   4.462
11144SOL    HW245312   0.339   4.324   4.393
11145SOL     OW45313   3.459   2.838  12.121
11145SOL    HW145314   3.547   2.875  12.117
11145SOL    HW245315   3.402   2.914  12.134
11146SOL     OW45316   0.301   0.988   0.470
11146SOL    HW145317   0.332   1.039   0.395
11146SOL    HW245318   0.212   0.962   0.446
11147SOL     OW45319   0.053   3.932   0.671
11147SOL    HW145320   4.757   3.958   0.696
11147SOL    HW245321   0.041   3.881   0.591
11148SOL     OW45322   0.231   4.792  14.226
11148SOL    HW145323   0.289   4.745  14.167
11148SOL    HW245324   0.207   0.078  14.177
11149SOL     OW45325   0.244   3.500   4.432
11149SOL    HW145326   0.337   3.480   4.423
11149SOL    HW245327   0.231   3.512   4.526
11150SOL     OW45328   1.510   4.083  20.812
11150SOL    HW145329   1.500   3.995  20.849
11150SOL    HW245330   1.496   4.142  20.886
11151SOL     OW45331   0.581   0.359  19.603
11151SOL    HW145332   0.516   0.288  19.610
11151SOL    HW245333   0.665   0.315  19.615
11152SOL     OW45334   2.505   2.999  19.998
11152SOL    HW145335   2.534   2.946  20.072
11152SOL    HW245336   2.574   3.065  19.988
11153SOL     OW45337   1.610   3.942   5.765
11153SOL    HW145338   1.627   3.858   5.722
11153SOL    HW245339   1.671   3.944   5.838
11154SOL     OW45340   2.647   1.873   5.355
11154SOL    HW145341   2.638   1.912   5.268
11154SOL    HW245342   2.576   1.910   5.406
11155SOL     OW45343   0.697   2.595   1.172
11155SOL    HW145344   0.624   2.609   1.111
11155SOL    HW245345   0.681   2.656   1.243
11156SOL     OW45346   4.333   2.622  17.317
11156SOL    HW145347   4.418   2.598  17.354
11156SOL    HW245348   4.352   2.694  17.257
11157SOL     OW45349   1.299   1.476  15.313
11157SOL    HW145350   1.359   1.487  15.387
11157SOL    HW245351   1.249   1.557  15.310
11158SOL     OW45352   0.098   1.352  15.524
11158SOL    HW145353   0.108   1.398  15.607
11158SOL    HW245354   0.126   1.415  15.458
11159SOL     OW45355   1.679   2.478  20.052
11159SOL    HW145356   1.746   2.469  20.119
11159SOL    HW245357   1.607   2.524  20.095
11160SOL     OW45358   2.660   4.102   3.435
11160SOL    HW145359   2.715   4.046   3.489
11160SOL    HW245360   2.689   4.191   3.454
11161SOL     OW45361   3.482   4.539  18.249
11161SOL    HW145362   3.473   4.513  18.157
11161SOL    HW245363   3.490   4.456  18.297
11162SOL     OW45364   4.194   2.189  20.123
11162SOL    HW145365   4.284   2.168  20.148
11162SOL    HW245366   4.155   2.226  20.202
11163SOL     OW45367   2.593   0.549   3.065
11163SOL    HW145368   2.518   0.530   3.008
11163SOL    HW245369   2.621   0.464   3.097
11164SOL     OW45370   3.149   2.825   1.376
11164SOL    HW145371   3.151   2.738   1.415
11164SOL    HW245372   3.241   2.845   1.358
11165SOL     OW45373   2.139   2.708   0.095
11165SOL    HW145374   2.193   2.766   0.149
11165SOL    HW245375   2.197   2.683   0.023
11166SOL     OW45376   1.788   4.017   6.498
11166SOL    HW145377   1.743   4.063   6.568
11166SOL    HW245378   1.848   4.081   6.461
11167SOL     OW45379   2.822   1.487  21.105
11167SOL    HW145380   2.877   1.526  21.037
11167SOL    HW245381   2.734   1.488  21.067
11168SOL     OW45382   4.437   0.498  20.689
11168SOL    HW145383   4.409   0.588  20.701
11168SOL    HW245384   4.358   0.446  20.701
11169SOL     OW45385   2.949   3.727  14.682
11169SOL    HW145386   3.024   3.668  14.671
11169SOL    HW245387   2.986   3.805  14.724
11170SOL     OW45388   1.372   3.803  17.403
11170SOL    HW145389   1.343   3.767  17.488
11170SOL    HW245390   1.297   3.855  17.373
11171SOL     OW45391   4.434   3.521   0.962
11171SOL    HW145392   4.502   3.503   1.027
11171SOL    HW245393   4.455   3.462   0.889
11172SOL     OW45394   4.490   4.452   4.334
11172SOL    HW145395   4.579   4.430   4.360
11172SOL    HW245396   4.446   4.367   4.323
11173SOL     OW45397   4.459   1.758  12.045
11173SOL    HW145398   4.426   1.672  12.072
11173SOL    HW245399   4.543   1.739  12.001
11174SOL     OW45400   0.322   2.948   3.915
11174SOL    HW145401   0.273   2.871   3.885
11174SOL    HW245402   0.369   2.919   3.993
11175SOL     OW45403   4.141   0.353   4.177
11175SOL    HW145404   4.211   0.306   4.221
11175SOL    HW245405   4.110   0.417   4.241
11176SOL     OW45406   4.626   1.884  19.039
11176SOL    HW145407   4.543   1.922  19.011
11176SOL    HW245408   4.690   1.915  18.975
11177SOL     OW45409   3.390   2.261  16.844
11177SOL    HW145410   3.453   2.202  16.886
11177SOL    HW245411   3.320   2.272  16.908
11178SOL     OW45412   0.091   0.075  19.310
11178SOL    HW145413   0.121   0.029  19.388
11178SOL    HW245414   0.169   0.082  19.255
11179SOL     OW45415   0.897   3.429  13.805
11179SOL    HW145416   0.802   3.438  13.806
11179SOL    HW245417   0.927   3.500  13.748
11180SOL     OW45418   4.416   1.914  20.599
11180SOL    HW145419   4.438   1.928  20.507
11180SOL    HW245420   4.410   1.819  20.608
11181SOL     OW45421   1.407   2.960   4.333
11181SOL    HW145422   1.391   2.874   4.373
11181SOL    HW245423   1.326   2.980   4.287
11182SOL     OW45424   0.552   4.506   4.681
11182SOL    HW145425   0.510   4.581   4.639
11182SOL    HW245426   0.637   4.538   4.710
11183SOL     OW45427   3.993   2.738  15.553
11183SOL    HW145428   4.059   2.770  15.615
11183SOL    HW245429   4.038   2.736  15.469
11184SOL     OW45430   0.645   1.118  11.138
11184SOL    HW145431   0.633   1.190  11.200
11184SOL    HW245432   0.703   1.057  11.184
11185SOL     OW45433   2.951   1.956   0.397
11185SOL    HW145434   3.015   2.028   0.399
11185SOL    HW245435   2.894   1.973   0.473
11186SOL     OW45436   2.254   2.864   4.654
11186SOL    HW145437   2.272   2.927   4.585
11186SOL    HW245438   2.162   2.880   4.678
11187SOL     OW45439   4.775   1.494   0.845
11187SOL    HW145440   4.746   1.585   0.847
11187SOL    HW245441   0.040   1.486   0.920
11188SOL     OW45442   4.437   0.614   5.874
11188SOL    HW145443   4.364   0.606   5.936
11188SOL    HW245444   4.436   0.532   5.825
11189SOL     OW45445   2.468   1.391  19.576
11189SOL    HW145446   2.372   1.395  19.579
11189SOL    HW245447   2.491   1.325  19.641
11190SOL     OW45448   1.513   0.027   5.984
11190SOL    HW145449   1.573   0.025   6.059
11190SOL    HW245450   1.459   4.742   5.996
11191SOL     OW45451   4.604   1.482   1.706
11191SOL    HW145452   4.563   1.499   1.621
11191SOL    HW245453   4.558   1.405   1.740
11192SOL     OW45454   0.606   4.094  15.852
11192SOL    HW145455   0.684   4.137  15.887
11192SOL    HW245456   0.590   4.138  15.768
11193SOL     OW45457   3.676   2.377  12.720
11193SOL    HW145458   3.591   2.354  12.758
11193SOL    HW245459   3.708   2.297  12.679
11194SOL     OW45460   1.711   0.017   6.549
11194SOL    HW145461   1.766   4.765   6.613
11194SOL    HW245462   1.751   0.104   6.541
11195SOL     OW45463   2.899   3.314  16.486
11195SOL    HW145464   2.961   3.250  16.519
11195SOL    HW245465   2.815   3.291  16.527
11196SOL     OW45466   1.223   0.188  20.384
11196SOL    HW145467   1.132   0.213  20.402
11196SOL    HW245468   1.254   0.149  20.466
11197SOL     OW45469   3.097   3.480  13.077
11197SOL    HW145470   3.183   3.463  13.038
11197SOL    HW245471   3.041   3.410  13.044
11198SOL     OW45472   1.609   2.579   5.275
11198SOL    HW145473   1.654   2.660   5.299
11198SOL    HW245474   1.523   2.586   5.317
11199SOL     OW45475   0.024   2.561  20.812
11199SOL    HW145476   4.758   2.497  20.773
11199SOL    HW245477   0.022   2.541  20.906
11200SOL     OW45478   0.717   2.833  17.478
11200SOL    HW145479   0.694   2.915  17.437
11200SOL    HW245480   0.742   2.856  17.568
11201SOL     OW45481   0.957   1.107  17.689
11201SOL    HW145482   1.012   1.169  17.642
11201SOL    HW245483   0.890   1.081  17.626
11202SOL     OW45484   1.372   4.120   6.040
11202SOL    HW145485   1.314   4.154   6.109
11202SOL    HW245486   1.365   4.024   6.049
11203SOL     OW45487   2.772   4.625   3.291
11203SOL    HW145488   2.769   4.646   3.198
11203SOL    HW245489   2.862   4.645   3.318
11204SOL     OW45490   4.202   2.659   4.091
11204SOL    HW145491   4.166   2.658   4.179
11204SOL    HW245492   4.297   2.664   4.103
11205SOL     OW45493   3.497   4.109   1.265
11205SOL    HW145494   3.565   4.042   1.256
11205SOL    HW245495   3.519   4.154   1.347
11206SOL     OW45496   1.026   1.240  13.887
11206SOL    HW145497   0.980   1.265  13.967
11206SOL    HW245498   0.983   1.291  13.818
11207SOL     OW45499   3.468   0.994   4.288
11207SOL    HW145500   3.545   1.027   4.241
11207SOL    HW245501   3.407   0.968   4.219
11208SOL     OW45502   2.224   0.121  16.518
11208SOL    HW145503   2.136   0.154  16.500
11208SOL    HW245504   2.210   0.036  16.559
11209SOL     OW45505   3.451   0.025   4.124
11209SOL    HW145506   3.405   4.746   4.166
11209SOL    HW245507   3.543   0.012   4.147
11210SOL     OW45508   3.232   2.524  12.259
11210SOL    HW145509   3.243   2.434  12.292
11210SOL    HW245510   3.142   2.527  12.229
11211SOL     OW45511   3.679   0.940   5.555
11211SOL    HW145512   3.631   0.870   5.510
11211SOL    HW245513   3.641   1.021   5.520
11212SOL     OW45514   2.679   1.391   2.360
11212SOL    HW145515   2.748   1.331   2.331
11212SOL    HW245516   2.677   1.381   2.455
11213SOL     OW45517   0.649   3.890   0.073
11213SOL    HW145518   0.664   3.953   0.003
11213SOL    HW245519   0.731   3.840   0.078
11214SOL     OW45520   3.465   1.285   4.746
11214SOL    HW145521   3.448   1.252   4.834
11214SOL    HW245522   3.518   1.216   4.705
11215SOL     OW45523   2.996   2.968   3.328
11215SOL    HW145524   3.072   2.944   3.275
11215SOL    HW245525   3.025   2.957   3.419
11216SOL     OW45526   3.117   0.725  18.406
11216SOL    HW145527   3.083   0.815  18.410
11216SOL    HW245528   3.039   0.671  18.395
11217SOL     OW45529   3.640   3.197   4.833
11217SOL    HW145530   3.636   3.125   4.771
11217SOL    HW245531   3.717   3.247   4.807
11218SOL     OW45532   3.821   1.847   0.571
11218SOL    HW145533   3.750   1.886   0.520
11218SOL    HW245534   3.882   1.814   0.505
11219SOL     OW45535   3.741   4.285  14.186
11219SOL    HW145536   3.769   4.345  14.255
11219SOL    HW245537   3.645   4.294  14.185
11220SOL     OW45538   4.763   2.341  15.318
11220SOL    HW145539   4.779   2.251  15.291
11220SOL    HW245540   4.668   2.347  15.326
11221SOL     OW45541   3.438   2.693   0.554
11221SOL    HW145542   3.368   2.725   0.611
11221SOL    HW245543   3.504   2.763   0.555
11222SOL     OW45544   2.765   3.536  17.670
11222SOL    HW145545   2.677   3.521  17.634
11222SOL    HW245546   2.759   3.506  17.761
11223SOL     OW45547   2.654   3.615  16.551
11223SOL    HW145548   2.691   3.669  16.622
11223SOL    HW245549   2.593   3.556  16.595
11224SOL     OW45550   3.787   0.479   3.258
11224SOL    HW145551   3.733   0.539   3.207
11224SOL    HW245552   3.876   0.495   3.227
11225SOL     OW45553   4.264   3.500   0.215
11225SOL    HW145554   4.333   3.472   0.274
11225SOL    HW245555   4.184   3.496   0.268
11226SOL     OW45556   4.479   2.675   5.939
11226SOL    HW145557   4.468   2.651   5.847
11226SOL    HW245558   4.427   2.612   5.987
11227SOL     OW45559   4.014   1.940  19.928
11227SOL    HW145560   3.966   2.001  19.983
11227SOL    HW245561   4.016   1.981  19.841
11228SOL     OW45562   2.149   3.793  19.318
11228SOL    HW145563   2.230   3.838  19.296
11228SOL    HW245564   2.175   3.722  19.377
11229SOL     OW45565   1.072   1.217  18.229
11229SOL    HW145566   1.071   1.304  18.188
11229SOL    HW245567   1.086   1.157  18.156
11230SOL     OW45568   2.490   4.453   1.943
11230SOL    HW145569   2.575   4.496   1.935
11230SOL    HW245570   2.487   4.422   2.033
11231SOL     OW45571   3.596   1.626   1.288
11231SOL    HW145572   3.615   1.708   1.335
11231SOL    HW245573   3.660   1.624   1.217
11232SOL     OW45574   0.160   0.539  15.641
11232SOL    HW145575   0.103   0.463  15.633
11232SOL    HW245576   0.239   0.506  15.685
11233SOL     OW45577   0.705   0.246  13.921
11233SOL    HW145578   0.777   0.272  13.864
11233SOL    HW245579   0.634   0.222  13.861
11234SOL     OW45580   1.346   0.508  20.405
11234SOL    HW145581   1.419   0.447  20.415
11234SOL    HW245582   1.388   0.594  20.396
11235SOL     OW45583   3.832   1.263  18.150
11235SOL    HW145584   3.854   1.354  18.171
11235SOL    HW245585   3.906   1.212  18.182
11236SOL     OW45586   2.079   1.120   4.953
11236SOL    HW145587   2.153   1.087   4.902
11236SOL    HW245588   2.034   1.041   4.983
11237SOL     OW45589   0.126   3.321   2.115
11237SOL    HW145590   0.069   3.248   2.137
11237SOL    HW245591   0.085   3.364   2.040
11238SOL     OW45592   4.105   3.101  16.731
11238SOL    HW145593   4.167   3.033  16.708
11238SOL    HW245594   4.159   3.172  16.767
11239SOL     OW45595   4.259   4.408  17.333
11239SOL    HW145596   4.253   4.409  17.238
11239SOL    HW245597   4.172   4.383  17.363
11240SOL     OW45598   0.036   1.373  18.725
11240SOL    HW145599   0.087   1.358  18.805
11240SOL    HW245600   0.101   1.369  18.654
11241SOL     OW45601   1.958   0.207  16.404
11241SOL    HW145602   1.954   0.297  16.372
11241SOL    HW245603   1.875   0.195  16.451
11242SOL     OW45604   1.771   4.697  14.622
11242SOL    HW145605   1.836   4.731  14.561
11242SOL    HW245606   1.700   4.665  14.566
11243SOL     OW45607   2.333   2.164   1.027
11243SOL    HW145608   2.281   2.232   1.070
11243SOL    HW245609   2.307   2.168   0.935
11244SOL     OW45610   4.273   0.898  20.968
11244SOL    HW145611   4.201   0.957  20.992
11244SOL    HW245612   4.277   0.835  21.041
11245SOL     OW45613   3.417   1.108   4.964
11245SOL    HW145614   3.507   1.076   4.970
11245SOL    HW245615   3.399   1.143   5.052
11246SOL     OW45616   0.351   4.301   0.605
11246SOL    HW145617   0.408   4.243   0.554
11246SOL    HW245618   0.268   4.254   0.612
11247SOL     OW45619   4.780   0.239  19.763
11247SOL    HW145620   0.016   0.326  19.792
11247SOL    HW245621   0.065   0.199  19.726
11248SOL     OW45622   0.475   0.180  13.173
11248SOL    HW145623   0.522   0.117  13.119
11248SOL    HW245624   0.472   0.260  13.119
11249SOL     OW45625   3.941   2.576  16.695
11249SOL    HW145626   3.900   2.660  16.673
11249SOL    HW245627   4.035   2.594  16.692
11250SOL     OW45628   2.829   2.576   5.794
11250SOL    HW145629   2.757   2.639   5.795
11250SOL    HW245630   2.854   2.571   5.701
11251SOL     OW45631   0.812   0.504  16.623
11251SOL    HW145632   0.847   0.580  16.576
11251SOL    HW245633   0.786   0.443  16.554
11252SOL     OW45634   1.046   1.944   2.918
11252SOL    HW145635   0.963   1.899   2.903
11252SOL    HW245636   1.022   2.035   2.933
11253SOL     OW45637   3.157   2.743   7.060
11253SOL    HW145638   3.173   2.820   7.006
11253SOL    HW245639   3.218   2.751   7.133
11254SOL     OW45640   1.779   0.990   4.714
11254SOL    HW145641   1.742   1.022   4.631
11254SOL    HW245642   1.773   1.065   4.773
11255SOL     OW45643   3.679   2.170   7.022
11255SOL    HW145644   3.700   2.120   6.944
11255SOL    HW245645   3.755   2.158   7.079
11256SOL     OW45646   1.619   1.241  14.049
11256SOL    HW145647   1.582   1.172  14.104
11256SOL    HW245648   1.677   1.290  14.107
11257SOL     OW45649   4.146   2.094  15.288
11257SOL    HW145650   4.114   2.168  15.236
11257SOL    HW245651   4.238   2.087  15.265
11258SOL     OW45652   1.232   4.695  13.069
11258SOL    HW145653   1.219   4.652  12.985
11258SOL    HW245654   1.325   4.683  13.089
11259SOL     OW45655   3.454   0.891  16.265
11259SOL    HW145656   3.473   0.971  16.215
11259SOL    HW245657   3.378   0.914  16.319
11260SOL     OW45658   2.839   1.652  20.239
11260SOL    HW145659   2.784   1.609  20.172
11260SOL    HW245660   2.829   1.745  20.222
11261SOL     OW45661   2.491   0.193   6.780
11261SOL    HW145662   2.457   0.110   6.814
11261SOL    HW245663   2.435   0.214   6.706
11262SOL     OW45664   4.049   3.938   1.695
11262SOL    HW145665   4.039   4.023   1.651
11262SOL    HW245666   4.090   3.882   1.629
11263SOL     OW45667   2.580   2.277  19.839
11263SOL    HW145668   2.576   2.217  19.764
11263SOL    HW245669   2.651   2.242  19.893
11264SOL     OW45670   2.623   1.205  20.865
11264SOL    HW145671   2.658   1.143  20.929
11264SOL    HW245672   2.696   1.264  20.845
11265SOL     OW45673   1.783   0.919   1.535
11265SOL    HW145674   1.735   0.925   1.453
11265SOL    HW245675   1.872   0.946   1.513
11266SOL     OW45676   3.756   2.355   6.514
11266SOL    HW145677   3.743   2.260   6.520
11266SOL    HW245678   3.676   2.392   6.551
11267SOL     OW45679   3.709   1.637   2.681
11267SOL    HW145680   3.690   1.694   2.606
11267SOL    HW245681   3.703   1.548   2.646
11268SOL     OW45682   1.324   0.675  16.910
11268SOL    HW145683   1.386   0.642  16.976
11268SOL    HW245684   1.344   0.625  16.831
11269SOL     OW45685   2.311   1.614   3.191
11269SOL    HW145686   2.299   1.522   3.171
11269SOL    HW245687   2.283   1.660   3.111
11270SOL     OW45688   2.319   0.987  17.234
11270SOL    HW145689   2.241   1.042  17.225
11270SOL    HW245690   2.356   1.012  17.319
11271SOL     OW45691   1.364   2.842  17.944
11271SOL    HW145692   1.420   2.835  17.866
11271SOL    HW245693   1.422   2.877  18.012
11272SOL     OW45694   1.524   0.329   3.284
11272SOL    HW145695   1.554   0.362   3.199
11272SOL    HW245696   1.459   0.393   3.313
11273SOL     OW45697   1.396   1.336  18.805
11273SOL    HW145698   1.360   1.303  18.722
11273SOL    HW245699   1.491   1.327  18.795
11274SOL     OW45700   4.306   0.766  20.303
11274SOL    HW145701   4.347   0.795  20.222
11274SOL    HW245702   4.325   0.672  20.308
11275SOL     OW45703   4.757   4.530  16.943
11275SOL    HW145704   4.777   4.609  16.994
11275SOL    HW245705   0.045   4.480  16.945
11276SOL     OW45706   1.837   1.887  19.841
11276SOL    HW145707   1.822   1.903  19.748
11276SOL    HW245708   1.773   1.819  19.864
11277SOL     OW45709   2.909   2.420   0.382
11277SOL    HW145710   2.892   2.451   0.292
11277SOL    HW245711   2.910   2.500   0.435
11278SOL     OW45712   2.577   3.917  17.125
11278SOL    HW145713   2.641   3.896  17.057
11278SOL    HW245714   2.581   4.013  17.133
11279SOL     OW45715   1.388   0.765   4.830
11279SOL    HW145716   1.427   0.678   4.833
11279SOL    HW245717   1.299   0.753   4.864
11280SOL     OW45718   1.405   3.712  17.113
11280SOL    HW145719   1.421   3.737  17.204
11280SOL    HW245720   1.487   3.670  17.085
11281SOL     OW45721   1.574   0.775   2.070
11281SOL    HW145722   1.541   0.753   1.983
11281SOL    HW245723   1.547   0.701   2.125
11282SOL     OW45724   0.046   0.803  16.645
11282SOL    HW145725   0.012   0.806  16.555
11282SOL    HW245726   0.141   0.804  16.634
11283SOL     OW45727   1.188   4.727  19.114
11283SOL    HW145728   1.245   4.691  19.046
11283SOL    HW245729   1.135   4.793  19.068
11284SOL     OW45730   1.257   4.628  20.522
11284SOL    HW145731   1.176   4.609  20.474
11284SOL    HW245732   1.227   4.643  20.612
11285SOL     OW45733   3.179   0.663   0.774
11285SOL    HW145734   3.134   0.643   0.692
11285SOL    HW245735   3.145   0.599   0.836
11286SOL     OW45736   1.301   1.327  11.228
11286SOL    HW145737   1.252   1.329  11.146
11286SOL    HW245738   1.387   1.362  11.207
11287SOL     OW45739   0.134   1.212   4.939
11287SOL    HW145740   0.128   1.144   4.872
11287SOL    HW245741   0.212   1.262   4.915
11288SOL     OW45742   4.409   2.620  21.000
11288SOL    HW145743   4.466   2.546  21.020
11288SOL    HW245744   4.365   2.595  20.918
11289SOL     OW45745   4.622   2.815  18.466
11289SOL    HW145746   4.622   2.758  18.543
11289SOL    HW245747   4.695   2.875  18.480
11290SOL     OW45748   3.371   2.557  15.050
11290SOL    HW145749   3.415   2.571  15.134
11290SOL    HW245750   3.442   2.539  14.989
11291SOL     OW45751   3.778   0.398   2.503
11291SOL    HW145752   3.780   0.305   2.528
11291SOL    HW245753   3.732   0.399   2.418
11292SOL     OW45754   0.311   3.119   4.626
11292SOL    HW145755   0.357   3.121   4.710
11292SOL    HW245756   0.264   3.036   4.627
11293SOL     OW45757   2.708   2.081   2.612
11293SOL    HW145758   2.794   2.120   2.631
11293SOL    HW245759   2.706   2.000   2.663
11294SOL     OW45760   2.855   0.955  17.597
11294SOL    HW145761   2.897   1.001  17.669
11294SOL    HW245762   2.905   0.873  17.588
11295SOL     OW45763   1.878   4.310  15.456
11295SOL    HW145764   1.825   4.348  15.526
11295SOL    HW245765   1.819   4.249  15.412
11296SOL     OW45766   1.388   1.411   0.039
11296SOL    HW145767   1.317   1.468   0.010
11296SOL    HW245768   1.401   1.351  21.238
11297SOL     OW45769   4.057   1.164  18.287
11297SOL    HW145770   4.148   1.193  18.289
11297SOL    HW245771   4.046   1.115  18.368
11298SOL     OW45772   1.431   4.351   3.993
11298SOL    HW145773   1.467   4.269   4.025
11298SOL    HW245774   1.350   4.326   3.947
11299SOL     OW45775   3.769   1.596   3.903
11299SOL    HW145776   3.678   1.605   3.932
11299SOL    HW245777   3.762   1.573   3.810
11300SOL     OW45778   4.265   1.315   0.903
11300SOL    HW145779   4.349   1.348   0.933
11300SOL    HW245780   4.211   1.312   0.982
11301SOL     OW45781   4.195   2.227  19.864
11301SOL    HW145782   4.200   2.211  19.958
11301SOL    HW245783   4.232   2.315  19.853
11302SOL     OW45784   2.021   1.115   4.434
11302SOL    HW145785   1.974   1.174   4.375
11302SOL    HW245786   2.103   1.095   4.388
11303SOL     OW45787   4.220   0.237  19.068
11303SOL    HW145788   4.169   0.162  19.037
11303SOL    HW245789   4.299   0.236  19.013
11304SOL     OW45790   1.588   4.508   8.613
11304SOL    HW145791   1.655   4.475   8.554
11304SOL    HW245792   1.538   4.430   8.638
11305SOL     OW45793   1.150   0.613   3.982
11305SOL    HW145794   1.103   0.534   4.009
11305SOL    HW245795   1.082   0.680   3.975
11306SOL     OW45796   3.615   2.732  17.706
11306SOL    HW145797   3.610   2.738  17.801
11306SOL    HW245798   3.682   2.796  17.681
11307SOL     OW45799   4.441   0.731   6.643
11307SOL    HW145800   4.493   0.655   6.616
11307SOL    HW245801   4.488   0.806   6.606
11308SOL     OW45802   3.321   2.351  16.062
11308SOL    HW145803   3.291   2.441  16.050
11308SOL    HW245804   3.359   2.327  15.978
11309SOL     OW45805   2.719   2.979  16.330
11309SOL    HW145806   2.731   2.951  16.421
11309SOL    HW245807   2.694   2.899  16.283
11310SOL     OW45808   3.607   3.560   5.552
11310SOL    HW145809   3.635   3.470   5.569
11310SOL    HW245810   3.656   3.586   5.474
11311SOL     OW45811   3.430   3.377  18.232
11311SOL    HW145812   3.363   3.369  18.300
11311SOL    HW245813   3.429   3.470  18.209
11312SOL     OW45814   2.629   0.392  14.697
11312SOL    HW145815   2.535   0.377  14.686
11312SOL    HW245816   2.667   0.304  14.694
11313SOL     OW45817   3.125   3.466   2.826
11313SOL    HW145818   3.137   3.378   2.791
11313SOL    HW245819   3.184   3.470   2.902
11314SOL     OW45820   3.064   2.250  19.215
11314SOL    HW145821   3.093   2.172  19.168
11314SOL    HW245822   3.001   2.217  19.279
11315SOL     OW45823   0.418   2.606  17.916
11315SOL    HW145824   0.485   2.623  17.982
11315SOL    HW245825   0.465   2.561  17.845
11316SOL     OW45826   2.773   2.267   4.738
11316SOL    HW145827   2.739   2.270   4.649
11316SOL    HW245828   2.770   2.174   4.762
11317SOL     OW45829   1.209   1.838   0.375
11317SOL    HW145830   1.173   1.904   0.436
11317SOL    HW245831   1.277   1.884   0.328
11318SOL     OW45832   0.192   3.827  16.956
11318SOL    HW145833   0.233   3.899  17.004
11318SOL    HW245834   0.142   3.779  17.022
11319SOL     OW45835   0.779   2.396  18.177
11319SOL    HW145836   0.791   2.438  18.263
11319SOL    HW245837   0.695   2.350  18.185
11320SOL     OW45838   2.574   2.457   0.562
11320SOL    HW145839   2.582   2.393   0.633
11320SOL    HW245840   2.565   2.404   0.483
11321SOL     OW45841   2.980   3.379  19.793
11321SOL    HW145842   3.010   3.373  19.884
11321SOL    HW245843   3.058   3.403  19.743
11322SOL     OW45844   1.458   0.258  16.874
11322SOL    HW145845   1.523   0.293  16.935
11322SOL    HW245846   1.426   0.178  16.915
11323SOL     OW45847   1.714   2.375  11.674
11323SOL    HW145848   1.640   2.426  11.643
11323SOL    HW245849   1.781   2.386  11.606
11324SOL     OW45850   0.462   4.734  14.979
11324SOL    HW145851   0.458   0.035  14.961
11324SOL    HW245852   0.542   4.705  14.935
11325SOL     OW45853   3.124   1.649   2.796
11325SOL    HW145854   3.040   1.619   2.763
11325SOL    HW245855   3.150   1.721   2.738
11326SOL     OW45856   3.284   2.670   1.744
11326SOL    HW145857   3.368   2.658   1.700
11326SOL    HW245858   3.219   2.661   1.674
11327SOL     OW45859   2.098   1.192   8.793
11327SOL    HW145860   2.182   1.170   8.832
11327SOL    HW245861   2.084   1.126   8.726
11328SOL     OW45862   3.292   4.293  18.304
11328SOL    HW145863   3.258   4.223  18.248
11328SOL    HW245864   3.279   4.373  18.253
11329SOL     OW45865   1.725   0.676  16.175
11329SOL    HW145866   1.729   0.601  16.116
11329SOL    HW245867   1.795   0.733  16.145
11330SOL     OW45868   1.707   4.167   6.706
11330SOL    HW145869   1.785   4.212   6.737
11330SOL    HW245870   1.634   4.222   6.735
11331SOL     OW45871   1.736   2.845   5.351
11331SOL    HW145872   1.735   2.922   5.408
11331SOL    HW245873   1.817   2.800   5.374
11332SOL     OW45874   2.046   1.878   6.547
11332SOL    HW145875   2.034   1.973   6.551
11332SOL    HW245876   1.961   1.844   6.517
11333SOL     OW45877   2.555   0.470  19.402
11333SOL    HW145878   2.515   0.391  19.364
11333SOL    HW245879   2.492   0.540  19.383
11334SOL     OW45880   4.443   0.956   5.911
11334SOL    HW145881   4.393   0.900   5.851
11334SOL    HW245882   4.508   0.998   5.855
11335SOL     OW45883   3.096   3.294  20.086
11335SOL    HW145884   3.157   3.242  20.035
11335SOL    HW245885   3.150   3.360  20.129
11336SOL     OW45886   4.133   3.206  18.012
11336SOL    HW145887   4.105   3.134  18.069
11336SOL    HW245888   4.109   3.177  17.924
11337SOL     OW45889   1.142   2.358   4.128
11337SOL    HW145890   1.093   2.426   4.174
11337SOL    HW245891   1.232   2.391   4.125
11338SOL     OW45892   2.824   4.039   2.773
11338SOL    HW145893   2.899   4.043   2.714
11338SOL    HW245894   2.833   4.116   2.829
11339SOL     OW45895   0.049   0.037   4.989
11339SOL    HW145896   0.067   0.001   4.902
11339SOL    HW245897   0.096   4.774   5.049
11340SOL     OW45898   4.526   3.919  15.067
11340SOL    HW145899   4.562   3.997  15.109
11340SOL    HW245900   4.536   3.850  15.132
11341SOL     OW45901   4.652   1.930  15.065
11341SOL    HW145902   4.605   1.938  15.148
11341SOL    HW245903   4.663   2.020  15.035
11342SOL     OW45904   3.367   3.363   6.317
11342SOL    HW145905   3.378   3.282   6.367
11342SOL    HW245906   3.452   3.406   6.322
11343SOL     OW45907   0.121   3.310  20.707
11343SOL    HW145908   0.073   3.339  20.629
11343SOL    HW245909   0.091   3.220  20.721
11344SOL     OW45910   0.256   1.212  19.638
11344SOL    HW145911   0.213   1.294  19.615
11344SOL    HW245912   0.209   1.181  19.715
11345SOL     OW45913   2.527   4.158  17.839
11345SOL    HW145914   2.485   4.075  17.862
11345SOL    HW245915   2.466   4.198  17.777
11346SOL     OW45916   2.498   1.379  18.841
11346SOL    HW145917   2.405   1.403  18.849
11346SOL    HW245918   2.497   1.284  18.831
11347SOL     OW45919   1.243   4.230   5.796
11347SOL    HW145920   1.313   4.197   5.852
11347SOL    HW245921   1.287   4.253   5.714
11348SOL     OW45922   0.691   3.671  13.507
11348SOL    HW145923   0.739   3.628  13.436
11348SOL    HW245924   0.651   3.598  13.556
11349SOL     OW45925   2.592   0.944  13.341
11349SOL    HW145926   2.603   1.025  13.291
11349SOL    HW245927   2.579   0.973  13.431
11350SOL     OW45928   3.354   4.267  14.703
11350SOL    HW145929   3.436   4.268  14.654
11350SOL    HW245930   3.380   4.241  14.791
11351SOL     OW45931   2.488   3.286   3.299
11351SOL    HW145932   2.491   3.368   3.348
11351SOL    HW245933   2.570   3.242   3.322
11352SOL     OW45934   2.242   2.390   6.117
11352SOL    HW145935   2.312   2.330   6.092
11352SOL    HW245936   2.273   2.476   6.089
11353SOL     OW45937   4.458   4.669   7.777
11353SOL    HW145938   4.448   4.644   7.869
11353SOL    HW245939   4.545   4.639   7.753
11354SOL     OW45940   2.099   3.193  16.894
11354SOL    HW145941   2.082   3.281  16.860
11354SOL    HW245942   2.159   3.154  16.830
11355SOL     OW45943   1.851   2.839   1.638
11355SOL    HW145944   1.875   2.893   1.714
11355SOL    HW245945   1.885   2.752   1.658
11356SOL     OW45946   2.958   0.188   5.324
11356SOL    HW145947   2.904   0.147   5.256
11356SOL    HW245948   3.011   0.117   5.360
11357SOL     OW45949   1.723   1.997   2.350
11357SOL    HW145950   1.807   1.953   2.341
11357SOL    HW245951   1.660   1.937   2.311
11358SOL     OW45952   1.380   2.217   0.946
11358SOL    HW145953   1.391   2.296   1.000
11358SOL    HW245954   1.411   2.243   0.859
11359SOL     OW45955   0.824   3.415   0.443
11359SOL    HW145956   0.843   3.328   0.479
11359SOL    HW245957   0.759   3.399   0.375
11360SOL     OW45958   0.051   2.109   2.174
11360SOL    HW145959   0.034   2.026   2.130
11360SOL    HW245960   0.048   2.089   2.267
11361SOL     OW45961   1.520   1.480  15.890
11361SOL    HW145962   1.478   1.512  15.969
11361SOL    HW245963   1.502   1.546  15.823
11362SOL     OW45964   2.502   0.612   5.735
11362SOL    HW145965   2.498   0.636   5.828
11362SOL    HW245966   2.581   0.560   5.726
11363SOL     OW45967   1.672   2.323  15.343
11363SOL    HW145968   1.606   2.392  15.350
11363SOL    HW245969   1.739   2.360  15.285
11364SOL     OW45970   3.487   0.870  19.649
11364SOL    HW145971   3.574   0.863  19.611
11364SOL    HW245972   3.427   0.858  19.575
11365SOL     OW45973   4.172   3.289  16.410
11365SOL    HW145974   4.157   3.334  16.327
11365SOL    HW245975   4.258   3.249  16.401
11366SOL     OW45976   1.824   4.431   1.546
11366SOL    HW145977   1.805   4.524   1.536
11366SOL    HW245978   1.822   4.416   1.641
11367SOL     OW45979   0.336   2.448  16.123
11367SOL    HW145980   0.339   2.524  16.065
11367SOL    HW245981   0.403   2.389  16.089
11368SOL     OW45982   0.021   2.456   2.562
11368SOL    HW145983   0.051   2.393   2.496
11368SOL    HW245984   4.730   2.421   2.592
11369SOL     OW45985   2.074   0.755  17.762
11369SOL    HW145986   2.090   0.849  17.767
11369SOL    HW245987   2.158   0.715  17.783
11370SOL     OW45988   3.264   1.888   2.846
11370SOL    HW145989   3.256   1.926   2.758
11370SOL    HW245990   3.180   1.845   2.861
11371SOL     OW45991   3.768   3.325  20.698
11371SOL    HW145992   3.810   3.411  20.703
11371SOL    HW245993   3.705   3.332  20.627
11372SOL     OW45994   1.720   2.606  15.453
11372SOL    HW145995   1.746   2.691  15.418
11372SOL    HW245996   1.641   2.583  15.405
11373SOL     OW45997   1.607   0.192   1.815
11373SOL    HW145998   1.567   0.177   1.729
11373SOL    HW245999   1.701   0.185   1.800
11374SOL     OW46000   0.798   2.081  17.158
11374SOL    HW146001   0.755   2.028  17.091
11374SOL    HW246002   0.774   2.171  17.137
11375SOL     OW46003   2.775   3.810   2.963
11375SOL    HW146004   2.818   3.732   2.927
11375SOL    HW246005   2.831   3.883   2.937
11376SOL     OW46006   3.172   4.038   2.382
11376SOL    HW146007   3.169   3.951   2.342
11376SOL    HW246008   3.265   4.054   2.399
11377SOL     OW46009   1.487   3.450  18.283
11377SOL    HW146010   1.439   3.406  18.354
11377SOL    HW246011   1.453   3.410  18.203
11378SOL     OW46012   3.689   3.530   5.054
11378SOL    HW146013   3.617   3.486   5.101
11378SOL    HW246014   3.667   3.520   4.962
11379SOL     OW46015   0.296   2.301  15.323
11379SOL    HW146016   0.229   2.368  15.335
11379SOL    HW246017   0.272   2.258  15.240
11380SOL     OW46018   0.409   4.621  16.312
11380SOL    HW146019   0.424   4.715  16.308
11380SOL    HW246020   0.336   4.606  16.251
11381SOL     OW46021   1.084   0.939  16.651
11381SOL    HW146022   1.139   1.010  16.618
11381SOL    HW246023   0.996   0.959  16.618
11382SOL     OW46024   1.997   4.061  18.179
11382SOL    HW146025   2.005   4.046  18.085
11382SOL    HW246026   1.993   4.156  18.188
11383SOL     OW46027   1.572   1.811   3.183
11383SOL    HW146028   1.636   1.739   3.180
11383SOL    HW246029   1.591   1.855   3.265
11384SOL     OW46030   3.560   2.329  20.241
11384SOL    HW146031   3.576   2.423  20.231
11384SOL    HW246032   3.645   2.292  20.266
11385SOL     OW46033   0.251   3.611  16.683
11385SOL    HW146034   0.156   3.610  16.692
11385SOL    HW246035   0.270   3.692  16.636
11386SOL     OW46036   1.896   1.498  15.932
11386SOL    HW146037   1.938   1.490  15.846
11386SOL    HW246038   1.820   1.440  15.927
11387SOL     OW46039   1.609   1.958  17.882
11387SOL    HW146040   1.574   2.043  17.909
11387SOL    HW246041   1.678   1.940  17.946
11388SOL     OW46042   1.267   0.019  15.258
11388SOL    HW146043   1.330   4.762  15.309
11388SOL    HW246044   1.255   4.761  15.178
11389SOL     OW46045   0.840   3.913   2.751
11389SOL    HW146046   0.827   3.950   2.838
11389SOL    HW246047   0.933   3.928   2.732
11390SOL     OW46048   3.782   4.037  17.849
11390SOL    HW146049   3.854   4.044  17.787
11390SOL    HW246050   3.750   3.947  17.838
11391SOL     OW46051   1.349   1.000   0.348
11391SOL    HW146052   1.279   1.023   0.287
11391SOL    HW246053   1.412   0.950   0.296
11392SOL     OW46054   0.556   1.232   3.625
11392SOL    HW146055   0.612   1.277   3.562
11392SOL    HW246056   0.524   1.155   3.578
11393SOL     OW46057   4.454   3.033  16.908
11393SOL    HW146058   4.534   3.028  16.855
11393SOL    HW246059   4.410   2.949  16.892
11394SOL     OW46060   2.519   2.094  20.762
11394SOL    HW146061   2.593   2.080  20.821
11394SOL    HW246062   2.489   2.183  20.781
11395SOL     OW46063   2.177   2.228  14.172
11395SOL    HW146064   2.161   2.229  14.267
11395SOL    HW246065   2.230   2.306  14.156
11396SOL     OW46066   3.230   0.944   1.038
11396SOL    HW146067   3.289   0.967   0.967
11396SOL    HW246068   3.157   0.900   0.995
11397SOL     OW46069   0.091   3.958   3.348
11397SOL    HW146070   0.007   3.920   3.324
11397SOL    HW246071   0.080   3.987   3.439
11398SOL     OW46072   1.945   0.848   4.533
11398SOL    HW146073   1.953   0.938   4.501
11398SOL    HW246074   1.890   0.855   4.611
11399SOL     OW46075   3.176   0.349   0.383
11399SOL    HW146076   3.195   0.422   0.323
11399SOL    HW246077   3.089   0.319   0.356
11400SOL     OW46078   4.330   1.796  19.034
11400SOL    HW146079   4.268   1.855  18.991
11400SOL    HW246080   4.395   1.776  18.967
11401SOL     OW46081   3.995   1.778   0.376
11401SOL    HW146082   4.080   1.770   0.333
11401SOL    HW246083   3.933   1.788   0.303
11402SOL     OW46084   1.070   4.579   3.003
11402SOL    HW146085   1.092   4.561   2.911
11402SOL    HW246086   1.152   4.561   3.050
11403SOL     OW46087   2.440   1.708  19.018
11403SOL    HW146088   2.494   1.710  18.939
11403SOL    HW246089   2.379   1.636  19.003
11404SOL     OW46090   3.474   0.312  20.555
11404SOL    HW146091   3.391   0.336  20.597
11404SOL    HW246092   3.449   0.295  20.464
11405SOL     OW46093   0.417   3.028   3.686
11405SOL    HW146094   0.401   3.122   3.674
11405SOL    HW246095   0.399   3.013   3.779
11406SOL     OW46096   4.325   2.842  20.082
11406SOL    HW146097   4.269   2.824  20.157
11406SOL    HW246098   4.414   2.842  20.117
11407SOL     OW46099   0.416   0.293  18.418
11407SOL    HW146100   0.428   0.373  18.366
11407SOL    HW246101   0.499   0.246  18.408
11408SOL     OW46102   0.214   1.489  19.570
11408SOL    HW146103   0.121   1.472  19.584
11408SOL    HW246104   0.227   1.473  19.477
11409SOL     OW46105   3.975   4.127   2.019
11409SOL    HW146106   4.017   4.103   2.102
11409SOL    HW246107   4.012   4.066   1.955
11410SOL     OW46108   4.177   4.766   2.332
11410SOL    HW146109   4.215   4.695   2.384
11410SOL    HW246110   4.213   0.052   2.370
11411SOL     OW46111   1.763   1.633   5.218
11411SOL    HW146112   1.786   1.617   5.309
11411SOL    HW246113   1.755   1.546   5.179
11412SOL     OW46114   0.228   4.420  16.970
11412SOL    HW146115   0.300   4.447  16.914
11412SOL    HW246116   0.247   4.461  17.055
11413SOL     OW46117   0.891   1.849  16.849
11413SOL    HW146118   0.956   1.831  16.916
11413SOL    HW246119   0.825   1.780  16.860
11414SOL     OW46120   2.755   2.503  18.999
11414SOL    HW146121   2.669   2.530  19.031
11414SOL    HW246122   2.751   2.407  18.997
11415SOL     OW46123   2.695   1.237  20.033
11415SOL    HW146124   2.632   1.194  20.091
11415SOL    HW246125   2.776   1.241  20.085
11416SOL     OW46126   0.319   4.156   2.492
11416SOL    HW146127   0.317   4.162   2.396
11416SOL    HW246128   0.268   4.232   2.521
11417SOL     OW46129   2.580   2.073   3.470
11417SOL    HW146130   2.570   2.096   3.562
11417SOL    HW246131   2.523   1.998   3.457
11418SOL     OW46132   1.675   4.227  17.492
11418SOL    HW146133   1.643   4.306  17.536
11418SOL    HW246134   1.612   4.212  17.422
11419SOL     OW46135   2.302   2.822  18.688
11419SOL    HW146136   2.213   2.804  18.718
11419SOL    HW246137   2.351   2.742  18.705
11420SOL     OW46138   3.708   3.913  16.505
11420SOL    HW146139   3.666   4.000  16.506
11420SOL    HW246140   3.791   3.928  16.460
11421SOL     OW46141   4.129   0.261  16.163
11421SOL    HW146142   4.094   0.207  16.234
11421SOL    HW246143   4.155   0.198  16.095
11422SOL     OW46144   0.119   2.717  17.673
11422SOL    HW146145   0.198   2.735  17.622
11422SOL    HW246146   0.145   2.649  17.735
11423SOL     OW46147   4.480   0.125   0.429
11423SOL    HW146148   4.454   0.050   0.482
11423SOL    HW246149   4.507   0.087   0.345
11424SOL     OW46150   3.699   0.017   3.659
11424SOL    HW146151   3.700   4.718   3.687
11424SOL    HW246152   3.620   0.025   3.607
11425SOL     OW46153   4.585   1.823  17.578
11425SOL    HW146154   4.645   1.884  17.620
11425SOL    HW246155   4.590   1.743  17.631
11426SOL     OW46156   2.577   3.846  16.140
11426SOL    HW146157   2.539   3.858  16.228
11426SOL    HW246158   2.575   3.752  16.125
11427SOL     OW46159   0.789   3.618  14.053
11427SOL    HW146160   0.801   3.628  13.959
11427SOL    HW246161   0.725   3.686  14.076
11428SOL     OW46162   4.759   4.619   7.770
11428SOL    HW146163   4.781   4.584   7.857
11428SOL    HW246164   0.013   4.562   7.709
11429SOL     OW46165   0.258   4.246  17.609
11429SOL    HW146166   0.207   4.253  17.690
11429SOL    HW246167   0.327   4.312  17.618
11430SOL     OW46168   4.777   3.907   1.640
11430SOL    HW146169   4.790   3.820   1.604
11430SOL    HW246170   4.763   3.963   1.564
11431SOL     OW46171   1.178   3.743   2.978
11431SOL    HW146172   1.099   3.789   3.005
11431SOL    HW246173   1.230   3.733   3.058
11432SOL     OW46174   3.427   2.880   1.355
11432SOL    HW146175   3.479   2.946   1.401
11432SOL    HW246176   3.445   2.896   1.262
11433SOL     OW46177   0.286   3.928  17.360
11433SOL    HW146178   0.291   3.878  17.279
11433SOL    HW246179   0.374   3.926  17.396
11434SOL     OW46180   1.305   3.401  18.939
11434SOL    HW146181   1.354   3.377  18.860
11434SOL    HW246182   1.298   3.320  18.989
11435SOL     OW46183   1.519   0.712  20.355
11435SOL    HW146184   1.575   0.703  20.278
11435SOL    HW246185   1.556   0.786  20.403
11436SOL     OW46186   1.823   4.732   7.715
11436SOL    HW146187   1.747   4.695   7.760
11436SOL    HW246188   1.860   0.001   7.777
11437SOL     OW46189   0.263   0.640  19.807
11437SOL    HW146190   0.351   0.607  19.787
11437SOL    HW246191   0.273   0.684  19.891
11438SOL     OW46192   3.211   1.805  19.789
11438SOL    HW146193   3.166   1.742  19.845
11438SOL    HW246194   3.269   1.852  19.848
11439SOL     OW46195   3.236   3.683   1.408
11439SOL    HW146196   3.149   3.709   1.378
11439SOL    HW246197   3.270   3.761   1.454
11440SOL     OW46198   1.310   2.418  17.946
11440SOL    HW146199   1.277   2.368  18.021
11440SOL    HW246200   1.357   2.492  17.984
11441SOL     OW46201   4.337   0.615  13.921
11441SOL    HW146202   4.248   0.611  13.887
11441SOL    HW246203   4.330   0.587  14.012
11442SOL     OW46204   4.348   3.761  15.452
11442SOL    HW146205   4.430   3.803  15.427
11442SOL    HW246206   4.346   3.769  15.548
11443SOL     OW46207   1.433   3.149  19.524
11443SOL    HW146208   1.475   3.082  19.469
11443SOL    HW246209   1.502   3.177  19.584
11444SOL     OW46210   0.568   2.031  15.194
11444SOL    HW146211   0.531   1.946  15.169
11444SOL    HW246212   0.660   2.025  15.170
11445SOL     OW46213   4.304   0.047  20.398
11445SOL    HW146214   4.373   0.109  20.423
11445SOL    HW246215   4.259   0.027  20.480
11446SOL     OW46216   3.919   2.495   0.100
11446SOL    HW146217   3.898   2.554   0.027
11446SOL    HW246218   3.979   2.430   0.062
11447SOL     OW46219   4.142   0.709  15.795
11447SOL    HW146220   4.207   0.644  15.821
11447SOL    HW246221   4.058   0.667  15.810
11448SOL     OW46222   0.957   1.294   7.141
11448SOL    HW146223   1.017   1.325   7.073
11448SOL    HW246224   0.914   1.373   7.173
11449SOL     OW46225   0.614   2.644  18.107
11449SOL    HW146226   0.694   2.595  18.128
11449SOL    HW246227   0.635   2.734  18.130
11450SOL     OW46228   2.876   3.630  19.752
11450SOL    HW146229   2.946   3.649  19.690
11450SOL    HW246230   2.895   3.541  19.783
11451SOL     OW46231   3.670   1.177   3.684
11451SOL    HW146232   3.653   1.162   3.591
11451SOL    HW246233   3.759   1.213   3.687
11452SOL     OW46234   4.462   0.691   2.631
11452SOL    HW146235   4.548   0.718   2.598
11452SOL    HW246236   4.422   0.644   2.558
11453SOL     OW46237   4.272   1.210   3.424
11453SOL    HW146238   4.334   1.209   3.350
11453SOL    HW246239   4.324   1.243   3.497
11454SOL     OW46240   0.816   3.456   3.354
11454SOL    HW146241   0.823   3.508   3.275
11454SOL    HW246242   0.735   3.405   3.343
11455SOL     OW46243   2.875   3.800  19.102
11455SOL    HW146244   2.846   3.787  19.192
11455SOL    HW246245   2.931   3.878  19.106
11456SOL     OW46246   2.696   2.889  15.832
11456SOL    HW146247   2.646   2.855  15.758
11456SOL    HW246248   2.633   2.890  15.905
11457SOL     OW46249   4.239   3.801   1.525
11457SOL    HW146250   4.209   3.731   1.467
11457SOL    HW246251   4.311   3.842   1.477
11458SOL     OW46252   2.740   4.507  20.591
11458SOL    HW146253   2.768   4.501  20.499
11458SOL    HW246254   2.645   4.512  20.587
11459SOL     OW46255   3.981   2.738   6.354
11459SOL    HW146256   4.008   2.646   6.357
11459SOL    HW246257   3.904   2.738   6.298
11460SOL     OW46258   3.518   3.321   0.573
11460SOL    HW146259   3.545   3.235   0.607
11460SOL    HW246260   3.442   3.345   0.626
11461SOL     OW46261   1.743   0.924   8.141
11461SOL    HW146262   1.746   0.928   8.045
11461SOL    HW246263   1.802   0.994   8.170
11462SOL     OW46264   3.897   2.664  21.112
11462SOL    HW146265   3.944   2.732  21.159
11462SOL    HW246266   3.932   2.667  21.023
11463SOL     OW46267   1.629   2.863   5.762
11463SOL    HW146268   1.580   2.865   5.680
11463SOL    HW246269   1.587   2.794   5.814
11464SOL     OW46270   2.226   4.129  19.585
11464SOL    HW146271   2.260   4.043  19.563
11464SOL    HW246272   2.145   4.112  19.633
11465SOL     OW46273   2.180   2.420  16.288
11465SOL    HW146274   2.159   2.501  16.241
11465SOL    HW246275   2.098   2.396  16.331
11466SOL     OW46276   4.063   3.456  16.210
11466SOL    HW146277   4.048   3.526  16.273
11466SOL    HW246278   3.982   3.406  16.208
11467SOL     OW46279   1.902   0.398  20.834
11467SOL    HW146280   1.969   0.371  20.897
11467SOL    HW246281   1.821   0.360  20.868
11468SOL     OW46282   0.374   1.517   5.029
11468SOL    HW146283   0.373   1.462   4.951
11468SOL    HW246284   0.464   1.551   5.033
11469SOL     OW46285   3.343   3.703  20.591
11469SOL    HW146286   3.252   3.733  20.588
11469SOL    HW246287   3.394   3.781  20.610
11470SOL     OW46288   0.896   1.617  13.960
11470SOL    HW146289   0.804   1.632  13.939
11470SOL    HW246290   0.897   1.530  14.001
11471SOL     OW46291   1.230   3.179  16.078
11471SOL    HW146292   1.217   3.108  16.016
11471SOL    HW246293   1.279   3.140  16.150
11472SOL     OW46294   3.518   3.550  19.352
11472SOL    HW146295   3.569   3.474  19.323
11472SOL    HW246296   3.582   3.613  19.383
11473SOL     OW46297   3.159   2.164  20.247
11473SOL    HW146298   3.140   2.161  20.341
11473SOL    HW246299   3.250   2.136  20.240
11474SOL     OW46300   3.917   0.138  20.442
11474SOL    HW146301   3.877   0.137  20.356
11474SOL    HW246302   3.874   0.210  20.488
11475SOL     OW46303   1.197   1.538  15.662
11475SOL    HW146304   1.136   1.487  15.608
11475SOL    HW246305   1.284   1.506  15.638
11476SOL     OW46306   3.008   0.756  17.559
11476SOL    HW146307   3.050   0.674  17.583
11476SOL    HW246308   3.040   0.775  17.471
11477SOL     OW46309   1.957   1.725  16.083
11477SOL    HW146310   1.938   1.641  16.041
11477SOL    HW246311   2.020   1.768  16.024
11478SOL     OW46312   1.946   4.479   0.714
11478SOL    HW146313   1.908   4.465   0.800
11478SOL    HW246314   1.988   4.395   0.692
11479SOL     OW46315   4.090   1.093   6.133
11479SOL    HW146316   4.096   1.138   6.217
11479SOL    HW246317   4.162   1.030   6.135
11480SOL     OW46318   0.879   2.073   4.469
11480SOL    HW146319   0.818   2.063   4.396
11480SOL    HW246320   0.901   2.166   4.468
11481SOL     OW46321   4.338   3.333  15.746
11481SOL    HW146322   4.411   3.353  15.806
11481SOL    HW246323   4.260   3.333  15.802
11482SOL     OW46324   3.502   1.081   2.191
11482SOL    HW146325   3.483   1.029   2.269
11482SOL    HW246326   3.588   1.049   2.162
11483SOL     OW46327   4.031   2.414  15.757
11483SOL    HW146328   4.068   2.497  15.727
11483SOL    HW246329   4.014   2.427  15.850
11484SOL     OW46330   0.062   1.699  16.554
11484SOL    HW146331   0.009   1.696  16.634
11484SOL    HW246332   0.031   1.776  16.508
11485SOL     OW46333   4.063   3.768   6.420
11485SOL    HW146334   4.073   3.805   6.332
11485SOL    HW246335   4.053   3.674   6.406
11486SOL     OW46336   1.137   4.308  17.275
11486SOL    HW146337   1.073   4.297  17.205
11486SOL    HW246338   1.118   4.237  17.337
11487SOL     OW46339   1.378   2.329   3.021
11487SOL    HW146340   1.393   2.266   3.092
11487SOL    HW246341   1.437   2.402   3.040
11488SOL     OW46342   1.252   1.729  18.640
11488SOL    HW146343   1.157   1.717  18.646
11488SOL    HW246344   1.284   1.719  18.730
11489SOL     OW46345   2.438   4.515   1.189
11489SOL    HW146346   2.391   4.572   1.249
11489SOL    HW246347   2.370   4.467   1.142
11490SOL     OW46348   0.821   0.848   8.146
11490SOL    HW146349   0.878   0.923   8.164
11490SOL    HW246350   0.877   0.771   8.159
11491SOL     OW46351   2.826   0.825   6.032
11491SOL    HW146352   2.787   0.872   5.959
11491SOL    HW246353   2.792   0.736   6.025
11492SOL     OW46354   2.711   3.722   2.214
11492SOL    HW146355   2.627   3.756   2.244
11492SOL    HW246356   2.726   3.767   2.130
11493SOL     OW46357   2.538   2.233   0.367
11493SOL    HW146358   2.569   2.273   0.286
11493SOL    HW246359   2.568   2.143   0.362
11494SOL     OW46360   1.260   1.595  20.476
11494SOL    HW146361   1.355   1.585  20.471
11494SOL    HW246362   1.228   1.507  20.495
11495SOL     OW46363   0.806   2.711   2.668
11495SOL    HW146364   0.790   2.785   2.726
11495SOL    HW246365   0.759   2.733   2.587
11496SOL     OW46366   0.507   0.516  10.104
11496SOL    HW146367   0.474   0.596  10.144
11496SOL    HW246368   0.435   0.485  10.050
11497SOL     OW46369   1.843   2.393   2.921
11497SOL    HW146370   1.784   2.422   2.852
11497SOL    HW246371   1.925   2.441   2.904
11498SOL     OW46372   0.351   0.624  19.357
11498SOL    HW146373   0.430   0.594  19.311
11498SOL    HW246374   0.383   0.691  19.417
11499SOL     OW46375   2.320   0.295  14.263
11499SOL    HW146376   2.281   0.225  14.211
11499SOL    HW246377   2.250   0.359  14.274
11500SOL     OW46378   0.279   4.765  17.589
11500SOL    HW146379   0.221   0.031  17.638
11500SOL    HW246380   0.359   4.761  17.641
11501SOL     OW46381   4.503   0.387   5.514
11501SOL    HW146382   4.444   0.351   5.581
11501SOL    HW246383   4.522   0.313   5.457
11502SOL     OW46384   2.063   3.632   2.291
11502SOL    HW146385   2.090   3.723   2.302
11502SOL    HW246386   2.083   3.590   2.375
11503SOL     OW46387   0.250   0.285   3.823
11503SOL    HW146388   0.320   0.248   3.768
11503SOL    HW246389   0.217   0.359   3.773
11504SOL     OW46390   0.806   2.050   3.058
11504SOL    HW146391   0.719   2.029   3.024
11504SOL    HW246392   0.802   2.029   3.151
11505SOL     OW46393   0.123   2.013   6.168
11505SOL    HW146394   0.088   2.085   6.221
11505SOL    HW246395   0.045   1.966   6.137
11506SOL     OW46396   3.699   2.359  16.033
11506SOL    HW146397   3.708   2.299  15.960
11506SOL    HW246398   3.636   2.317  16.091
11507SOL     OW46399   0.760   0.469   2.854
11507SOL    HW146400   0.763   0.462   2.758
11507SOL    HW246401   0.846   0.439   2.883
11508SOL     OW46402   3.240   4.634   2.059
11508SOL    HW146403   3.199   4.566   2.112
11508SOL    HW246404   3.235   4.600   1.969
11509SOL     OW46405   2.172   0.134  15.499
11509SOL    HW146406   2.105   0.080  15.457
11509SOL    HW246407   2.227   0.165  15.427
11510SOL     OW46408   4.638   3.166   4.232
11510SOL    HW146409   4.690   3.241   4.261
11510SOL    HW246410   4.644   3.168   4.136
11511SOL     OW46411   0.286   0.088  19.106
11511SOL    HW146412   0.370   0.125  19.079
11511SOL    HW246413   0.224   0.120  19.041
11512SOL     OW46414   0.376   4.622  15.954
11512SOL    HW146415   0.381   4.717  15.947
11512SOL    HW246416   0.383   4.590  15.864
11513SOL     OW46417   0.976   2.669  17.490
11513SOL    HW146418   0.968   2.584  17.535
11513SOL    HW246419   0.895   2.715  17.512
11514SOL     OW46420   1.134   1.466  21.205
11514SOL    HW146421   1.050   1.461  21.250
11514SOL    HW246422   1.119   1.527  21.132
11515SOL     OW46423   1.871   2.548   6.404
11515SOL    HW146424   1.928   2.483   6.362
11515SOL    HW246425   1.932   2.611   6.444
11516SOL     OW46426   2.311   1.987  18.775
11516SOL    HW146427   2.223   1.982  18.738
11516SOL    HW246428   2.365   1.936  18.713
11517SOL     OW46429   0.726   3.942   1.072
11517SOL    HW146430   0.794   3.992   1.026
11517SOL    HW246431   0.734   3.969   1.163
11518SOL     OW46432   0.368   0.339  20.262
11518SOL    HW146433   0.392   0.341  20.169
11518SOL    HW246434   0.322   0.256  20.274
11519SOL     OW46435   1.644   2.531  16.408
11519SOL    HW146436   1.738   2.512  16.411
11519SOL    HW246437   1.611   2.503  16.494
11520SOL     OW46438   2.197   3.574  15.374
11520SOL    HW146439   2.176   3.623  15.295
11520SOL    HW246440   2.129   3.598  15.437
11521SOL     OW46441   4.400   1.420   7.507
11521SOL    HW146442   4.396   1.324   7.502
11521SOL    HW246443   4.347   1.450   7.433
11522SOL     OW46444   0.413   1.772   5.621
11522SOL    HW146445   0.464   1.692   5.609
11522SOL    HW246446   0.448   1.812   5.700
11523SOL     OW46447   0.675   0.234  17.412
11523SOL    HW146448   0.709   0.179  17.342
11523SOL    HW246449   0.634   0.173  17.473
11524SOL     OW46450   0.008   0.077  18.168
11524SOL    HW146451   4.756   0.148  18.214
11524SOL    HW246452   0.052   0.027  18.237
11525SOL     OW46453   1.002   2.200  19.049
11525SOL    HW146454   0.977   2.147  18.973
11525SOL    HW246455   0.924   2.202  19.104
11526SOL     OW46456   0.581   4.531  19.712
11526SOL    HW146457   0.569   4.475  19.788
11526SOL    HW246458   0.616   4.613  19.747
11527SOL     OW46459   3.029   3.820   7.583
11527SOL    HW146460   2.948   3.776   7.557
11527SOL    HW246461   3.036   3.803   7.677
11528SOL     OW46462   1.658   0.549   3.661
11528SOL    HW146463   1.724   0.617   3.677
11528SOL    HW246464   1.592   0.591   3.607
11529SOL     OW46465   3.859   1.402   0.695
11529SOL    HW146466   3.910   1.469   0.649
11529SOL    HW246467   3.773   1.441   0.708
11530SOL     OW46468   2.579   2.861   0.556
11530SOL    HW146469   2.586   2.787   0.496
11530SOL    HW246470   2.639   2.927   0.520
11531SOL     OW46471   3.943   4.699  14.301
11531SOL    HW146472   3.916   4.742  14.220
11531SOL    HW246473   4.023   4.652  14.278
11532SOL     OW46474   3.004   2.499   4.408
11532SOL    HW146475   3.081   2.499   4.351
11532SOL    HW246476   2.986   2.591   4.425
11533SOL     OW46477   1.573   3.510  13.867
11533SOL    HW146478   1.652   3.459  13.851
11533SOL    HW246479   1.533   3.522  13.781
11534SOL     OW46480   1.727   2.838  15.955
11534SOL    HW146481   1.705   2.788  15.876
11534SOL    HW246482   1.709   2.778  16.027
11535SOL     OW46483   0.799   3.159   6.717
11535SOL    HW146484   0.875   3.171   6.661
11535SOL    HW246485   0.751   3.242   6.711
11536SOL     OW46486   4.046   4.663   6.227
11536SOL    HW146487   3.983   4.719   6.182
11536SOL    HW246488   3.997   4.585   6.251
11537SOL     OW46489   0.202   0.464  18.480
11537SOL    HW146490   0.258   0.394  18.448
11537SOL    HW246491   0.248   0.545  18.455
11538SOL     OW46492   0.713   4.014   0.700
11538SOL    HW146493   0.618   4.017   0.710
11538SOL    HW246494   0.741   3.949   0.765
11539SOL     OW46495   3.538   3.240  17.227
11539SOL    HW146496   3.580   3.292  17.158
11539SOL    HW246497   3.452   3.280  17.237
11540SOL     OW46498   4.124   4.382  15.648
11540SOL    HW146499   4.056   4.375  15.581
11540SOL    HW246500   4.160   4.471  15.636
11541SOL     OW46501   0.155   0.178  17.725
11541SOL    HW146502   0.196   0.205  17.808
11541SOL    HW246503   0.084   0.240  17.712
11542SOL     OW46504   0.799   2.796   6.176
11542SOL    HW146505   0.870   2.746   6.136
11542SOL    HW246506   0.812   2.786   6.270
11543SOL     OW46507   4.757   2.649   2.297
11543SOL    HW146508   0.042   2.594   2.296
11543SOL    HW246509   4.786   2.732   2.334
11544SOL     OW46510   0.856   0.452  19.713
11544SOL    HW146511   0.839   0.507  19.637
11544SOL    HW246512   0.884   0.513  19.781
11545SOL     OW46513   0.599   4.218   3.689
11545SOL    HW146514   0.627   4.309   3.678
11545SOL    HW246515   0.679   4.172   3.713
11546SOL     OW46516   3.270   3.982   1.475
11546SOL    HW146517   3.355   3.960   1.435
11546SOL    HW246518   3.225   4.034   1.408
11547SOL     OW46519   3.816   3.699  15.228
11547SOL    HW146520   3.753   3.702  15.301
11547SOL    HW246521   3.845   3.789  15.217
11548SOL     OW46522   2.333   0.621  19.752
11548SOL    HW146523   2.427   0.626  19.766
11548SOL    HW246524   2.313   0.527  19.758
11549SOL     OW46525   1.734   4.624   3.974
11549SOL    HW146526   1.812   4.634   3.921
11549SOL    HW246527   1.672   4.578   3.917
11550SOL     OW46528   4.250   4.417   7.128
11550SOL    HW146529   4.182   4.463   7.078
11550SOL    HW246530   4.326   4.474   7.122
11551SOL     OW46531   1.813   4.222  21.076
11551SOL    HW146532   1.725   4.235  21.039
11551SOL    HW246533   1.805   4.145  21.131
11552SOL     OW46534   2.793   4.538  19.100
11552SOL    HW146535   2.854   4.520  19.172
11552SOL    HW246536   2.847   4.580  19.033
11553SOL     OW46537   0.026   3.186  19.130
11553SOL    HW146538   0.113   3.226  19.120
11553SOL    HW246539   0.008   3.190  19.224
11554SOL     OW46540   3.823   2.239  20.259
11554SOL    HW146541   3.854   2.171  20.199
11554SOL    HW246542   3.843   2.321  20.214
11555SOL     OW46543   0.706   0.072   4.595
11555SOL    HW146544   0.688   0.099   4.686
11555SOL    HW246545   0.778   0.010   4.603
11556SOL     OW46546   0.194   4.224   1.053
11556SOL    HW146547   0.175   4.247   1.144
11556SOL    HW246548   0.127   4.159   1.031
11557SOL     OW46549   3.094   0.575   6.830
11557SOL    HW146550   3.023   0.519   6.798
11557SOL    HW246551   3.053   0.659   6.848
11558SOL     OW46552   3.486   2.685  19.522
11558SOL    HW146553   3.497   2.638  19.439
11558SOL    HW246554   3.569   2.673  19.568
11559SOL     OW46555   2.012   4.119  20.314
11559SOL    HW146556   1.985   4.203  20.276
11559SOL    HW246557   1.941   4.059  20.292
11560SOL     OW46558   0.181   2.030   4.885
11560SOL    HW146559   0.229   2.073   4.955
11560SOL    HW246560   0.248   1.998   4.826
11561SOL     OW46561   4.538   0.528  17.001
11561SOL    HW146562   4.478   0.586  17.047
11561SOL    HW246563   4.614   0.584  16.981
11562SOL     OW46564   2.444   3.485   3.518
11562SOL    HW146565   2.477   3.523   3.600
11562SOL    HW246566   2.349   3.479   3.531
11563SOL     OW46567   1.550   4.306   0.176
11563SOL    HW146568   1.550   4.215   0.204
11563SOL    HW246569   1.468   4.317   0.127
11564SOL     OW46570   0.143   2.532   1.075
11564SOL    HW146571   0.175   2.461   1.131
11564SOL    HW246572   0.218   2.555   1.020
11565SOL     OW46573   4.080   3.455  18.076
11565SOL    HW146574   3.985   3.456  18.067
11565SOL    HW246575   4.104   3.363  18.068
11566SOL     OW46576   4.269   0.857   0.479
11566SOL    HW146577   4.342   0.890   0.532
11566SOL    HW246578   4.277   0.762   0.485
11567SOL     OW46579   3.188   0.516   4.726
11567SOL    HW146580   3.132   0.516   4.648
11567SOL    HW246581   3.277   0.516   4.691
11568SOL     OW46582   1.690   0.258   5.251
11568SOL    HW146583   1.718   0.278   5.340
11568SOL    HW246584   1.768   0.269   5.197
11569SOL     OW46585   1.416   4.242   2.815
11569SOL    HW146586   1.470   4.193   2.878
11569SOL    HW246587   1.336   4.263   2.863
11570SOL     OW46588   3.577   0.647  20.920
11570SOL    HW146589   3.650   0.588  20.940
11570SOL    HW246590   3.500   0.590  20.919
11571SOL     OW46591   1.994   3.444  15.995
11571SOL    HW146592   2.047   3.365  15.991
11571SOL    HW246593   2.003   3.474  16.086
11572SOL     OW46594   0.390   2.190   1.427
11572SOL    HW146595   0.465   2.150   1.471
11572SOL    HW246596   0.370   2.130   1.355
11573SOL     OW46597   3.368   4.540   4.819
11573SOL    HW146598   3.396   4.604   4.884
11573SOL    HW246599   3.421   4.559   4.741
11574SOL     OW46600   2.249   0.163   5.945
11574SOL    HW146601   2.315   0.095   5.935
11574SOL    HW246602   2.289   0.228   6.003
11575SOL     OW46603   1.202   2.513  20.951
11575SOL    HW146604   1.210   2.506  21.047
11575SOL    HW246605   1.139   2.445  20.928
11576SOL     OW46606   4.647   3.234   3.631
11576SOL    HW146607   4.571   3.292   3.626
11576SOL    HW246608   4.715   3.279   3.580
11577SOL     OW46609   2.134   2.892  20.119
11577SOL    HW146610   2.125   2.987  20.130
11577SOL    HW246611   2.212   2.870  20.170
11578SOL     OW46612   1.709   3.047  18.496
11578SOL    HW146613   1.651   3.108  18.542
11578SOL    HW246614   1.742   3.097  18.422
11579SOL     OW46615   3.349   2.833  18.465
11579SOL    HW146616   3.348   2.851  18.558
11579SOL    HW246617   3.319   2.914  18.424
11580SOL     OW46618   3.733   0.386   7.144
11580SOL    HW146619   3.641   0.405   7.160
11580SOL    HW246620   3.780   0.432   7.213
11581SOL     OW46621   3.499   0.269   0.339
11581SOL    HW146622   3.534   0.299   0.423
11581SOL    HW246623   3.437   0.200   0.363
11582SOL     OW46624   4.155   2.183  19.061
11582SOL    HW146625   4.228   2.137  19.021
11582SOL    HW246626   4.106   2.115  19.108
11583SOL     OW46627   0.632   0.899   5.333
11583SOL    HW146628   0.652   0.806   5.329
11583SOL    HW246629   0.662   0.934   5.249
11584SOL     OW46630   4.534   0.379   0.506
11584SOL    HW146631   4.612   0.378   0.449
11584SOL    HW246632   4.489   0.297   0.486
11585SOL     OW46633   4.262   4.470  15.332
11585SOL    HW146634   4.202   4.397  15.350
11585SOL    HW246635   4.270   4.515  15.416
11586SOL     OW46636   3.182   1.410   4.979
11586SOL    HW146637   3.131   1.419   4.899
11586SOL    HW246638   3.138   1.341   5.028
11587SOL     OW46639   3.309   1.336   6.455
11587SOL    HW146640   3.360   1.304   6.529
11587SOL    HW246641   3.370   1.390   6.405
11588SOL     OW46642   4.699   0.440   5.014
11588SOL    HW146643   4.729   0.388   5.088
11588SOL    HW246644   4.772   0.500   4.996
11589SOL     OW46645   1.701   0.055  20.668
11589SOL    HW146646   1.682   0.111  20.593
11589SOL    HW246647   1.636   4.778  20.663
11590SOL     OW46648   1.851   2.675   4.861
11590SOL    HW146649   1.892   2.617   4.925
11590SOL    HW246650   1.799   2.618   4.805
11591SOL     OW46651   4.766   2.970  17.807
11591SOL    HW146652   4.774   3.010  17.721
11591SOL    HW246653   0.023   2.889  17.802
11592SOL     OW46654   2.722   3.526   5.489
11592SOL    HW146655   2.770   3.478   5.421
11592SOL    HW246656   2.630   3.502   5.475
11593SOL     OW46657   0.841   0.100  15.265
11593SOL    HW146658   0.829   0.095  15.360
11593SOL    HW246659   0.835   0.194  15.245
11594SOL     OW46660   3.040   3.236   3.510
11594SOL    HW146661   3.061   3.291   3.586
11594SOL    HW246662   3.074   3.150   3.532
11595SOL     OW46663   0.687   3.054   6.959
11595SOL    HW146664   0.707   3.102   6.880
11595SOL    HW246665   0.592   3.040   6.955
11596SOL     OW46666   1.078   4.041   3.071
11596SOL    HW146667   1.054   3.950   3.090
11596SOL    HW246668   1.134   4.067   3.144
11597SOL     OW46669   1.553   2.332  18.938
11597SOL    HW146670   1.596   2.282  19.007
11597SOL    HW246671   1.524   2.266  18.874
11598SOL     OW46672   3.340   0.376   0.700
11598SOL    HW146673   3.245   0.368   0.707
11598SOL    HW246674   3.374   0.326   0.774
11599SOL     OW46675   1.898   3.411  16.442
11599SOL    HW146676   1.927   3.332  16.397
11599SOL    HW246677   1.931   3.483  16.388
11600SOL     OW46678   4.766   2.595  16.101
11600SOL    HW146679   4.762   2.510  16.144
11600SOL    HW246680   4.679   2.633  16.114
11601SOL     OW46681   4.535   2.176  19.924
11601SOL    HW146682   4.458   2.129  19.891
11601SOL    HW246683   4.585   2.199  19.845
11602SOL     OW46684   1.726   1.009  15.062
11602SOL    HW146685   1.669   0.953  15.010
11602SOL    HW246686   1.677   1.026  15.142
11603SOL     OW46687   3.343   4.005   2.759
11603SOL    HW146688   3.407   4.073   2.781
11603SOL    HW246689   3.394   3.939   2.710
11604SOL     OW46690   2.357   4.540  19.246
11604SOL    HW146691   2.343   4.466  19.306
11604SOL    HW246692   2.270   4.557  19.209
11605SOL     OW46693   0.769   1.235   2.079
11605SOL    HW146694   0.854   1.278   2.068
11605SOL    HW246695   0.713   1.275   2.012
11606SOL     OW46696   4.197   0.704  19.357
11606SOL    HW146697   4.243   0.753  19.290
11606SOL    HW246698   4.121   0.667  19.313
11607SOL     OW46699   1.615   4.634  14.396
11607SOL    HW146700   1.580   4.544  14.397
11607SOL    HW246701   1.572   4.675  14.321
11608SOL     OW46702   1.836   2.758   6.691
11608SOL    HW146703   1.920   2.767   6.646
11608SOL    HW246704   1.771   2.777   6.623
11609SOL     OW46705   2.134   0.651   5.589
11609SOL    HW146706   2.112   0.658   5.496
11609SOL    HW246707   2.194   0.577   5.595
11610SOL     OW46708   0.977   4.776  20.390
11610SOL    HW146709   0.919   4.755  20.463
11610SOL    HW246710   0.977   0.078  20.385
11611SOL     OW46711   0.108   2.236   5.434
11611SOL    HW146712   0.160   2.275   5.364
11611SOL    HW246713   0.067   2.311   5.477
11612SOL     OW46714   0.269   0.052  20.314
11612SOL    HW146715   0.363   0.063  20.333
11612SOL    HW246716   0.264   0.049  20.219
11613SOL     OW46717   1.742   0.293   4.223
11613SOL    HW146718   1.665   0.298   4.281
11613SOL    HW246719   1.744   0.201   4.195
11614SOL     OW46720   2.300   3.376  16.418
11614SOL    HW146721   2.385   3.351  16.382
11614SOL    HW246722   2.287   3.466  16.390
11615SOL     OW46723   3.961   1.000  19.256
11615SOL    HW146724   4.022   1.019  19.185
11615SOL    HW246725   3.995   1.048  19.331
11616SOL     OW46726   2.521   3.361   2.727
11616SOL    HW146727   2.579   3.437   2.722
11616SOL    HW246728   2.453   3.379   2.662
11617SOL     OW46729   3.206   3.464  19.710
11617SOL    HW146730   3.226   3.471  19.617
11617SOL    HW246731   3.281   3.418  19.747
11618SOL     OW46732   4.302   0.026  15.250
11618SOL    HW146733   4.266   0.094  15.193
11618SOL    HW246734   4.284   4.737  15.204
11619SOL     OW46735   1.494   4.748  13.155
11619SOL    HW146736   1.481   0.047  13.177
11619SOL    HW246737   1.579   4.746  13.110
11620SOL     OW46738   1.396   0.783   4.350
11620SOL    HW146739   1.383   0.688   4.340
11620SOL    HW246740   1.473   0.790   4.407
11621SOL     OW46741   1.167   0.808  17.267
11621SOL    HW146742   1.122   0.734  17.225
11621SOL    HW246743   1.222   0.845  17.199
11622SOL     OW46744   3.371   1.625   5.022
11622SOL    HW146745   3.307   1.686   5.058
11622SOL    HW246746   3.322   1.544   5.008
11623SOL     OW46747   4.481   1.333   1.911
11623SOL    HW146748   4.576   1.346   1.923
11623SOL    HW246749   4.442   1.383   1.983
11624SOL     OW46750   3.188   0.468  18.621
11624SOL    HW146751   3.257   0.418  18.579
11624SOL    HW246752   3.107   0.427  18.590
11625SOL     OW46753   4.785   0.157  17.373
11625SOL    HW146754   0.018   0.186  17.460
11625SOL    HW246755   4.696   0.124  17.384
11626SOL     OW46756   2.988   2.409   4.827
11626SOL    HW146757   2.908   2.359   4.814
11626SOL    HW246758   3.057   2.357   4.786
11627SOL     OW46759   4.020   1.726  17.285
11627SOL    HW146760   4.042   1.779  17.362
11627SOL    HW246761   3.924   1.722  17.286
11628SOL     OW46762   3.094   1.359   5.889
11628SOL    HW146763   3.007   1.398   5.886
11628SOL    HW246764   3.080   1.273   5.928
11629SOL     OW46765   1.259   2.038   8.839
11629SOL    HW146766   1.241   2.026   8.746
11629SOL    HW246767   1.191   2.098   8.869
11630SOL     OW46768   3.560   1.540   5.200
11630SOL    HW146769   3.490   1.555   5.135
11630SOL    HW246770   3.539   1.600   5.271
11631SOL     OW46771   3.712   3.924   1.140
11631SOL    HW146772   3.679   3.838   1.114
11631SOL    HW246773   3.744   3.963   1.059
11632SOL     OW46774   2.729   4.616  19.507
11632SOL    HW146775   2.659   4.648  19.564
11632SOL    HW246776   2.722   4.521  19.513
11633SOL     OW46777   2.613   4.071   4.052
11633SOL    HW146778   2.561   4.090   3.974
11633SOL    HW246779   2.552   4.082   4.125
11634SOL     OW46780   1.344   1.858  17.420
11634SOL    HW146781   1.382   1.898  17.498
11634SOL    HW246782   1.415   1.805  17.383
11635SOL     OW46783   2.731   0.055  12.798
11635SOL    HW146784   2.685   0.136  12.819
11635SOL    HW246785   2.663   4.788  12.768
11636SOL     OW46786   2.413   2.036  14.252
11636SOL    HW146787   2.454   1.951  14.239
11636SOL    HW246788   2.438   2.087  14.175
11637SOL     OW46789   1.341   4.562  18.385
11637SOL    HW146790   1.248   4.539  18.383
11637SOL    HW246791   1.387   4.480  18.373
11638SOL     OW46792   0.544   1.731   3.140
11638SOL    HW146793   0.581   1.756   3.056
11638SOL    HW246794   0.457   1.695   3.119
11639SOL     OW46795   4.146   0.967   1.552
11639SOL    HW146796   4.203   0.891   1.565
11639SOL    HW246797   4.080   0.960   1.622
11640SOL     OW46798   2.408   1.915   0.497
11640SOL    HW146799   2.346   1.983   0.471
11640SOL    HW246800   2.476   1.918   0.430
11641SOL     OW46801   3.338   3.108   4.759
11641SOL    HW146802   3.308   3.093   4.849
11641SOL    HW246803   3.337   3.203   4.749
11642SOL     OW46804   4.570   0.005   4.906
11642SOL    HW146805   4.522   4.747   4.971
11642SOL    HW246806   4.648   0.036   4.952
11643SOL     OW46807   2.187   2.410   3.676
11643SOL    HW146808   2.238   2.403   3.595
11643SOL    HW246809   2.161   2.502   3.680
11644SOL     OW46810   3.958   0.270  14.385
11644SOL    HW146811   3.951   0.274  14.481
11644SOL    HW246812   3.938   0.180  14.363
11645SOL     OW46813   3.873   0.246   1.514
11645SOL    HW146814   3.831   0.308   1.454
11645SOL    HW246815   3.959   0.230   1.477
11646SOL     OW46816   3.477   2.097   1.419
11646SOL    HW146817   3.413   2.163   1.391
11646SOL    HW246818   3.425   2.033   1.468
11647SOL     OW46819   1.510   4.049   0.248
11647SOL    HW146820   1.532   4.078   0.336
11647SOL    HW246821   1.418   4.074   0.237
11648SOL     OW46822   2.100   3.394   5.771
11648SOL    HW146823   2.114   3.484   5.801
11648SOL    HW246824   2.152   3.340   5.830
11649SOL     OW46825   4.570   0.175  13.831
11649SOL    HW146826   4.587   0.099  13.886
11649SOL    HW246827   4.586   0.145  13.741
11650SOL     OW46828   2.408   0.201   3.105
11650SOL    HW146829   2.429   0.250   3.185
11650SOL    HW246830   2.444   0.114   3.119
11651SOL     OW46831   2.012   1.475  18.163
11651SOL    HW146832   2.101   1.461  18.193
11651SOL    HW246833   1.981   1.389  18.135
11652SOL     OW46834   4.021   2.459   5.709
11652SOL    HW146835   3.958   2.517   5.667
11652SOL    HW246836   4.084   2.438   5.640
11653SOL     OW46837   4.524   1.130  16.764
11653SOL    HW146838   4.578   1.208  16.775
11653SOL    HW246839   4.474   1.123  16.845
11654SOL     OW46840   2.602   4.717  19.749
11654SOL    HW146841   2.511   4.690  19.734
11654SOL    HW246842   2.634   4.656  19.816
11655SOL     OW46843   0.142   1.075   4.107
11655SOL    HW146844   0.119   1.161   4.143
11655SOL    HW246845   0.072   1.055   4.045
11656SOL     OW46846   3.334   3.560   6.791
11656SOL    HW146847   3.266   3.591   6.851
11656SOL    HW246848   3.348   3.468   6.817
11657SOL     OW46849   0.113   0.633  19.551
11657SOL    HW146850   0.153   0.646  19.636
11657SOL    HW246851   0.178   0.583  19.501
11658SOL     OW46852   3.652   0.206  17.944
11658SOL    HW146853   3.578   0.253  17.982
11658SOL    HW246854   3.624   0.114  17.943
11659SOL     OW46855   1.127   0.186  14.936
11659SOL    HW146856   1.144   0.276  14.906
11659SOL    HW246857   1.191   0.133  14.890
11660SOL     OW46858   0.534   1.415  20.456
11660SOL    HW146859   0.468   1.452  20.397
11660SOL    HW246860   0.591   1.490  20.478
11661SOL     OW46861   0.984   2.359   3.862
11661SOL    HW146862   1.066   2.382   3.817
11661SOL    HW246863   1.008   2.285   3.919
11662SOL     OW46864   3.095   2.796  19.880
11662SOL    HW146865   3.078   2.807  19.973
11662SOL    HW246866   3.011   2.770  19.843
11663SOL     OW46867   2.400   1.240   2.766
11663SOL    HW146868   2.350   1.317   2.739
11663SOL    HW246869   2.451   1.270   2.841
11664SOL     OW46870   1.279   0.866   0.877
11664SOL    HW146871   1.288   0.871   0.782
11664SOL    HW246872   1.185   0.865   0.892
11665SOL     OW46873   0.439   3.004   5.974
11665SOL    HW146874   0.437   2.995   5.878
11665SOL    HW246875   0.347   3.002   6.000
11666SOL     OW46876   3.892   1.597  18.985
11666SOL    HW146877   3.801   1.599  18.955
11666SOL    HW246878   3.900   1.516  19.035
11667SOL     OW46879   3.313   4.698  17.993
11667SOL    HW146880   3.338   4.682  17.902
11667SOL    HW246881   3.263   4.780  17.990
11668SOL     OW46882   4.535   0.376   4.801
11668SOL    HW146883   4.445   0.376   4.834
11668SOL    HW246884   4.587   0.413   4.873
11669SOL     OW46885   3.946   1.024  15.334
11669SOL    HW146886   3.856   1.006  15.307
11669SOL    HW246887   3.940   1.105  15.384
11670SOL     OW46888   3.137   0.623   5.941
11670SOL    HW146889   3.205   0.689   5.955
11670SOL    HW246890   3.060   0.659   5.985
11671SOL     OW46891   3.731   4.218   1.994
11671SOL    HW146892   3.814   4.170   1.996
11671SOL    HW246893   3.666   4.154   2.023
11672SOL     OW46894   3.748   0.323  19.106
11672SOL    HW146895   3.825   0.292  19.058
11672SOL    HW246896   3.704   0.383  19.046
11673SOL     OW46897   0.576   4.432  14.705
11673SOL    HW146898   0.639   4.361  14.701
11673SOL    HW246899   0.623   4.503  14.749
11674SOL     OW46900   3.710   2.597   7.457
11674SOL    HW146901   3.747   2.516   7.421
11674SOL    HW246902   3.760   2.612   7.537
11675SOL     OW46903   4.393   1.809  16.790
11675SOL    HW146904   4.328   1.746  16.761
11675SOL    HW246905   4.461   1.757  16.833
11676SOL     OW46906   2.267   0.759  16.730
11676SOL    HW146907   2.213   0.748  16.809
11676SOL    HW246908   2.207   0.797  16.666
11677SOL     OW46909   4.709   4.642   7.499
11677SOL    HW146910   4.706   4.659   7.593
11677SOL    HW246911   4.740   4.551   7.493
11678SOL     OW46912   2.473   4.126   5.066
11678SOL    HW146913   2.432   4.099   4.984
11678SOL    HW246914   2.463   4.051   5.124
11679SOL     OW46915   2.696   2.132  17.249
11679SOL    HW146916   2.608   2.097  17.238
11679SOL    HW246917   2.687   2.200  17.315
11680SOL     OW46918   2.130   2.894   8.883
11680SOL    HW146919   2.096   2.983   8.887
11680SOL    HW246920   2.130   2.872   8.790
11681SOL     OW46921   2.655   3.415  18.585
11681SOL    HW146922   2.599   3.376  18.653
11681SOL    HW246923   2.652   3.509  18.603
11682SOL     OW46924   3.328   3.014  20.670
11682SOL    HW146925   3.259   3.057  20.618
11682SOL    HW246926   3.319   3.053  20.757
11683SOL     OW46927   2.695   2.500  17.150
11683SOL    HW146928   2.785   2.521  17.176
11683SOL    HW246929   2.690   2.524  17.058
11684SOL     OW46930   1.111   1.554  16.256
11684SOL    HW146931   1.044   1.543  16.324
11684SOL    HW246932   1.083   1.497  16.185
11685SOL     OW46933   3.841   2.939   0.812
11685SOL    HW146934   3.808   2.921   0.724
11685SOL    HW246935   3.903   3.012   0.800
11686SOL     OW46936   4.236   1.515  18.953
11686SOL    HW146937   4.317   1.549  18.915
11686SOL    HW246938   4.195   1.592  18.993
11687SOL     OW46939   4.287   2.349   5.803
11687SOL    HW146940   4.351   2.382   5.740
11687SOL    HW246941   4.217   2.414   5.802
11688SOL     OW46942   1.195   3.470  20.992
11688SOL    HW146943   1.127   3.482  20.926
11688SOL    HW246944   1.262   3.535  20.971
11689SOL     OW46945   3.342   3.888   1.169
11689SOL    HW146946   3.305   3.976   1.174
11689SOL    HW246947   3.414   3.889   1.233
11690SOL     OW46948   3.072   3.516   3.616
11690SOL    HW146949   3.068   3.600   3.571
11690SOL    HW246950   3.165   3.497   3.623
11691SOL     OW46951   1.192   2.491  14.585
11691SOL    HW146952   1.203   2.561  14.650
11691SOL    HW246953   1.115   2.517  14.535
11692SOL     OW46954   4.400   1.772   3.088
11692SOL    HW146955   4.361   1.729   3.012
11692SOL    HW246956   4.431   1.856   3.054
11693SOL     OW46957   3.513   2.551  13.694
11693SOL    HW146958   3.570   2.481  13.663
11693SOL    HW246959   3.554   2.580  13.776
11694SOL     OW46960   3.568   1.801   7.219
11694SOL    HW146961   3.474   1.816   7.212
11694SOL    HW246962   3.581   1.713   7.182
11695SOL     OW46963   0.005   2.928  19.046
11695SOL    HW146964   0.096   2.898  19.052
11695SOL    HW246965   0.011   3.023  19.048
11696SOL     OW46966   4.775   3.077  20.661
11696SOL    HW146967   4.776   3.017  20.736
11696SOL    HW246968   4.690   3.120  20.665
11697SOL     OW46969   0.128   1.613  14.942
11697SOL    HW146970   0.074   1.610  14.863
11697SOL    HW246971   0.091   1.683  14.995
11698SOL     OW46972   3.124   0.144   6.903
11698SOL    HW146973   3.164   0.222   6.865
11698SOL    HW246974   3.196   0.099   6.947
11699SOL     OW46975   1.818   3.487   0.124
11699SOL    HW146976   1.765   3.538   0.185
11699SOL    HW246977   1.793   3.396   0.140
11700SOL     OW46978   0.977   3.988  12.951
11700SOL    HW146979   1.025   4.037  13.018
11700SOL    HW246980   1.034   3.913  12.931
11701SOL     OW46981   4.444   3.819  17.311
11701SOL    HW146982   4.499   3.807  17.388
11701SOL    HW246983   4.487   3.888  17.261
11702SOL     OW46984   2.401   1.609   1.328
11702SOL    HW146985   2.430   1.520   1.349
11702SOL    HW246986   2.481   1.662   1.335
11703SOL     OW46987   4.724   1.169  17.870
11703SOL    HW146988   4.636   1.131  17.866
11703SOL    HW246989   4.730   1.223  17.791
11704SOL     OW46990   3.111   1.623   0.751
11704SOL    HW146991   3.167   1.571   0.809
11704SOL    HW246992   3.163   1.701   0.732
11705SOL     OW46993   0.851   0.656   4.635
11705SOL    HW146994   0.761   0.622   4.635
11705SOL    HW246995   0.846   0.738   4.684
11706SOL     OW46996   1.101   2.800  17.280
11706SOL    HW146997   1.037   2.753  17.334
11706SOL    HW246998   1.048   2.864  17.232
11707SOL     OW46999   4.235   3.605  20.914
11707SOL    HW147000   4.196   3.522  20.885
11707SOL    HW247001   4.170   3.643  20.972
11708SOL     OW47002   0.733   2.811   0.725
11708SOL    HW147003   0.804   2.873   0.740
11708SOL    HW247004   0.657   2.866   0.704
11709SOL     OW47005   3.500   3.598   2.284
11709SOL    HW147006   3.489   3.523   2.226
11709SOL    HW247007   3.436   3.584   2.354
11710SOL     OW47008   3.215   3.445  16.739
11710SOL    HW147009   3.154   3.433  16.812
11710SOL    HW247010   3.160   3.478  16.667
11711SOL     OW47011   2.343   2.781   0.823
11711SOL    HW147012   2.384   2.840   0.887
11711SOL    HW247013   2.380   2.695   0.843
11712SOL     OW47014   1.612   2.567   5.886
11712SOL    HW147015   1.624   2.473   5.874
11712SOL    HW247016   1.698   2.604   5.867
11713SOL     OW47017   3.458   0.907   1.432
11713SOL    HW147018   3.515   0.958   1.374
11713SOL    HW247019   3.509   0.894   1.512
11714SOL     OW47020   0.961   4.533   4.249
11714SOL    HW147021   1.047   4.554   4.286
11714SOL    HW247022   0.959   4.437   4.248
11715SOL     OW47023   0.892   0.157   3.852
11715SOL    HW147024   0.813   0.154   3.907
11715SOL    HW247025   0.860   0.181   3.765
11716SOL     OW47026   1.489   2.181  17.078
11716SOL    HW147027   1.544   2.240  17.026
11716SOL    HW247028   1.528   2.094  17.064
11717SOL     OW47029   2.707   1.283   5.232
11717SOL    HW147030   2.678   1.331   5.155
11717SOL    HW247031   2.781   1.333   5.265
11718SOL     OW47032   4.774   2.344  19.428
11718SOL    HW147033   4.698   2.301  19.390
11718SOL    HW247034   4.774   2.432  19.390
11719SOL     OW47035   2.398   1.681   4.228
11719SOL    HW147036   2.306   1.692   4.254
11719SOL    HW247037   2.395   1.685   4.132
11720SOL     OW47038   3.799   3.468  15.976
11720SOL    HW147039   3.718   3.478  15.925
11720SOL    HW247040   3.801   3.375  15.999
11721SOL     OW47041   4.345   4.669  20.108
11721SOL    HW147042   4.274   4.707  20.160
11721SOL    HW247043   4.330   4.702  20.019
11722SOL     OW47044   3.124   3.093   1.756
11722SOL    HW147045   3.092   3.063   1.671
11722SOL    HW247046   3.192   3.158   1.734
11723SOL     OW47047   3.083   4.074  15.650
11723SOL    HW147048   3.160   4.047  15.700
11723SOL    HW247049   3.028   4.121  15.712
11724SOL     OW47050   2.028   0.843   1.383
11724SOL    HW147051   1.957   0.874   1.326
11724SOL    HW247052   2.020   0.748   1.381
11725SOL     OW47053   2.005   0.416  17.539
11725SOL    HW147054   1.954   0.340  17.508
11725SOL    HW247055   1.995   0.413  17.635
11726SOL     OW47056   3.507   2.585   2.779
11726SOL    HW147057   3.535   2.668   2.820
11726SOL    HW247058   3.416   2.574   2.808
11727SOL     OW47059   0.127   3.839   7.989
11727SOL    HW147060   0.064   3.788   7.938
11727SOL    HW247061   0.210   3.795   7.976
11728SOL     OW47062   2.209   1.498   1.131
11728SOL    HW147063   2.195   1.432   1.199
11728SOL    HW247064   2.276   1.556   1.167
11729SOL     OW47065   4.232   3.598   5.718
11729SOL    HW147066   4.176   3.675   5.716
11729SOL    HW247067   4.224   3.560   5.631
11730SOL     OW47068   4.118   3.398   2.726
11730SOL    HW147069   4.066   3.478   2.717
11730SOL    HW247070   4.208   3.429   2.727
11731SOL     OW47071   0.850   3.575   6.626
11731SOL    HW147072   0.838   3.508   6.559
11731SOL    HW247073   0.864   3.526   6.707
11732SOL     OW47074   1.954   1.306   2.437
11732SOL    HW147075   1.982   1.217   2.413
11732SOL    HW247076   1.908   1.338   2.360
11733SOL     OW47077   4.186   1.654  14.910
11733SOL    HW147078   4.091   1.648  14.904
11733SOL    HW247079   4.216   1.566  14.888
11734SOL     OW47080   3.210   4.583   8.056
11734SOL    HW147081   3.152   4.598   7.981
11734SOL    HW247082   3.171   4.634   8.127
11735SOL     OW47083   2.921   2.138   4.101
11735SOL    HW147084   2.841   2.191   4.104
11735SOL    HW247085   2.964   2.167   4.020
11736SOL     OW47086   1.980   3.702  19.899
11736SOL    HW147087   1.966   3.701  19.805
11736SOL    HW247088   2.027   3.784  19.915
11737SOL     OW47089   2.330   3.041  19.521
11737SOL    HW147090   2.283   2.960  19.539
11737SOL    HW247091   2.389   3.052  19.596
11738SOL     OW47092   4.531   1.944   4.290
11738SOL    HW147093   4.553   1.994   4.368
11738SOL    HW247094   4.579   1.862   4.299
11739SOL     OW47095   1.237   0.918   3.800
11739SOL    HW147096   1.198   0.998   3.767
11739SOL    HW247097   1.163   0.864   3.828
11740SOL     OW47098   2.181   3.629   4.821
11740SOL    HW147099   2.176   3.537   4.848
11740SOL    HW247100   2.147   3.629   4.731
11741SOL     OW47101   3.822   2.969   3.928
11741SOL    HW147102   3.812   2.879   3.896
11741SOL    HW247103   3.897   2.965   3.987
11742SOL     OW47104   2.832   0.474  19.401
11742SOL    HW147105   2.848   0.384  19.428
11742SOL    HW247106   2.736   0.480  19.393
11743SOL     OW47107   4.770   2.222   6.336
11743SOL    HW147108   0.031   2.238   6.413
11743SOL    HW247109   4.691   2.182   6.371
11744SOL     OW47110   0.085   1.644  17.051
11744SOL    HW147111   0.077   1.739  17.046
11744SOL    HW247112   0.151   1.622  16.986
11745SOL     OW47113   2.612   0.546   1.141
11745SOL    HW147114   2.662   0.513   1.067
11745SOL    HW247115   2.537   0.590   1.101
11746SOL     OW47116   1.616   0.053   2.382
11746SOL    HW147117   1.643   4.784   2.450
11746SOL    HW247118   1.521   0.041   2.375
11747SOL     OW47119   4.547   3.108  17.908
11747SOL    HW147120   4.516   3.156  17.832
11747SOL    HW247121   4.612   3.047  17.873
11748SOL     OW47122   2.002   3.559  17.262
11748SOL    HW147123   2.001   3.654  17.252
11748SOL    HW247124   1.940   3.541  17.332
11749SOL     OW47125   3.476   3.548   5.232
11749SOL    HW147126   3.413   3.500   5.286
11749SOL    HW247127   3.553   3.558   5.287
11750SOL     OW47128   0.859   2.270  13.942
11750SOL    HW147129   0.954   2.274  13.954
11750SOL    HW247130   0.839   2.176  13.945
11751SOL     OW47131   1.204   2.010  16.776
11751SOL    HW147132   1.154   2.039  16.852
11751SOL    HW247133   1.287   1.978  16.812
11752SOL     OW47134   1.652   3.213   1.167
11752SOL    HW147135   1.575   3.267   1.186
11752SOL    HW247136   1.689   3.193   1.253
11753SOL     OW47137   4.439   0.993   3.812
11753SOL    HW147138   4.495   0.915   3.813
11753SOL    HW247139   4.494   1.063   3.847
11754SOL     OW47140   1.408   3.975   1.848
11754SOL    HW147141   1.356   4.035   1.795
11754SOL    HW247142   1.473   3.939   1.787
11755SOL     OW47143   4.239   3.010   1.005
11755SOL    HW147144   4.293   3.031   1.081
11755SOL    HW247145   4.219   3.095   0.965
11756SOL     OW47146   4.248   2.320   0.650
11756SOL    HW147147   4.177   2.309   0.713
11756SOL    HW247148   4.265   2.232   0.616
11757SOL     OW47149   0.040   3.035  20.139
11757SOL    HW147150   4.779   3.112  20.156
11757SOL    HW247151   0.059   3.039  20.046
11758SOL     OW47152   3.856   1.606   3.346
11758SOL    HW147153   3.949   1.598   3.366
11758SOL    HW247154   3.814   1.623   3.430
11759SOL     OW47155   1.393   2.911   5.130
11759SOL    HW147156   1.416   2.950   5.214
11759SOL    HW247157   1.396   2.817   5.145
11760SOL     OW47158   4.592   1.346   0.239
11760SOL    HW147159   4.609   1.272   0.181
11760SOL    HW247160   4.496   1.351   0.245
11761SOL     OW47161   4.581   3.595  15.555
11761SOL    HW147162   4.527   3.519  15.530
11761SOL    HW247163   4.535   3.634  15.629
11762SOL     OW47164   3.012   3.651   0.133
11762SOL    HW147165   2.979   3.738   0.156
11762SOL    HW247166   3.100   3.647   0.171
11763SOL     OW47167   3.607   2.228  18.965
11763SOL    HW147168   3.530   2.255  18.916
11763SOL    HW247169   3.618   2.135  18.944
11764SOL     OW47170   2.439   3.544   2.061
11764SOL    HW147171   2.457   3.453   2.039
11764SOL    HW247172   2.363   3.540   2.118
11765SOL     OW47173   2.980   3.629   6.817
11765SOL    HW147174   3.000   3.563   6.750
11765SOL    HW247175   3.042   3.612   6.887
11766SOL     OW47176   2.536   2.805   2.555
11766SOL    HW147177   2.532   2.826   2.648
11766SOL    HW247178   2.629   2.800   2.534
11767SOL     OW47179   2.758   0.040   2.614
11767SOL    HW147180   2.728   0.129   2.632
11767SOL    HW247181   2.692   4.777   2.654
11768SOL     OW47182   2.657   1.270   3.891
11768SOL    HW147183   2.598   1.325   3.942
11768SOL    HW247184   2.630   1.282   3.801
11769SOL     OW47185   0.429   3.165  18.294
11769SOL    HW147186   0.334   3.165  18.291
11769SOL    HW247187   0.456   3.124  18.211
11770SOL     OW47188   0.963   2.172  21.041
11770SOL    HW147189   0.975   2.201  21.132
11770SOL    HW247190   1.050   2.178  21.002
11771SOL     OW47191   3.518   3.609   5.795
11771SOL    HW147192   3.536   3.597   5.702
11771SOL    HW247193   3.446   3.549   5.814
11772SOL     OW47194   0.062   1.502   6.782
11772SOL    HW147195   0.142   1.511   6.834
11772SOL    HW247196   4.788   1.549   6.832
11773SOL     OW47197   0.335   3.105  19.789
11773SOL    HW147198   0.288   3.188  19.787
11773SOL    HW247199   0.424   3.127  19.817
11774SOL     OW47200   2.544   0.093  14.538
11774SOL    HW147201   2.482   0.067  14.606
11774SOL    HW247202   2.630   0.091  14.581
11775SOL     OW47203   1.534   1.979   5.302
11775SOL    HW147204   1.466   2.035   5.340
11775SOL    HW247205   1.587   1.952   5.377
11776SOL     OW47206   0.854   4.670   0.646
11776SOL    HW147207   0.940   4.636   0.624
11776SOL    HW247208   0.841   4.649   0.738
11777SOL     OW47209   1.353   4.609  17.417
11777SOL    HW147210   1.445   4.630  17.430
11777SOL    HW247211   1.308   4.653  17.490
11778SOL     OW47212   3.658   2.641   3.270
11778SOL    HW147213   3.606   2.590   3.209
11778SOL    HW247214   3.719   2.691   3.215
11779SOL     OW47215   3.854   4.316   1.370
11779SOL    HW147216   3.911   4.274   1.434
11779SOL    HW247217   3.833   4.401   1.407
11780SOL     OW47218   4.364   3.958   7.471
11780SOL    HW147219   4.328   4.028   7.416
11780SOL    HW247220   4.292   3.933   7.528
11781SOL     OW47221   1.894   2.577  16.287
11781SOL    HW147222   1.869   2.667  16.310
11781SOL    HW247223   1.945   2.546  16.362
11782SOL     OW47224   1.648   0.903   0.465
11782SOL    HW147225   1.728   0.940   0.427
11782SOL    HW247226   1.655   0.921   0.558
11783SOL     OW47227   1.269   4.317  19.547
11783SOL    HW147228   1.234   4.396  19.589
11783SOL    HW247229   1.292   4.345  19.458
11784SOL     OW47230   3.599   2.477  20.582
11784SOL    HW147231   3.504   2.467  20.588
11784SOL    HW247232   3.631   2.390  20.559
11785SOL     OW47233   0.020   0.576   0.120
11785SOL    HW147234   4.739   0.636   0.108
11785SOL    HW247235   0.067   0.579   0.036
11786SOL     OW47236   4.297   2.142   4.652
11786SOL    HW147237   4.202   2.149   4.656
11786SOL    HW247238   4.328   2.199   4.722
11787SOL     OW47239   2.064   0.743  15.167
11787SOL    HW147240   2.150   0.711  15.141
11787SOL    HW247241   2.063   0.835  15.139
11788SOL     OW47242   2.000   3.218   4.491
11788SOL    HW147243   2.077   3.163   4.482
11788SOL    HW247244   1.928   3.165   4.456
11789SOL     OW47245   3.476   2.106  17.799
11789SOL    HW147246   3.533   2.045  17.753
11789SOL    HW247247   3.422   2.050  17.855
11790SOL     OW47248   0.421   4.115   0.943
11790SOL    HW147249   0.366   4.134   1.019
11790SOL    HW247250   0.372   4.049   0.893
11791SOL     OW47251   3.173   4.547   9.404
11791SOL    HW147252   3.158   4.633   9.444
11791SOL    HW247253   3.182   4.566   9.310
11792SOL     OW47254   2.943   0.081   8.046
11792SOL    HW147255   3.000   0.065   8.121
11792SOL    HW247256   2.952   0.174   8.028
11793SOL     OW47257   4.274   3.010   4.168
11793SOL    HW147258   4.310   2.955   4.238
11793SOL    HW247259   4.269   3.097   4.207
11794SOL     OW47260   4.634   2.659  16.555
11794SOL    HW147261   4.703   2.666  16.621
11794SOL    HW247262   4.676   2.616  16.480
11795SOL     OW47263   2.664   0.786   7.604
11795SOL    HW147264   2.583   0.765   7.651
11795SOL    HW247265   2.713   0.703   7.602
11796SOL     OW47266   0.898   1.174   0.829
11796SOL    HW147267   0.848   1.097   0.856
11796SOL    HW247268   0.918   1.159   0.737
11797SOL     OW47269   0.657   0.022   9.193
11797SOL    HW147270   0.657   0.050   9.101
11797SOL    HW247271   0.569   4.779   9.207
11798SOL     OW47272   0.958   4.772   9.021
11798SOL    HW147273   0.938   0.069   9.049
11798SOL    HW247274   0.929   4.768   8.930
11799SOL     OW47275   3.789   0.982  10.295
11799SOL    HW147276   3.825   0.904  10.338
11799SOL    HW247277   3.810   1.054  10.355
11800SOL     OW47278   1.866   0.745  10.408
11800SOL    HW147279   1.936   0.806  10.428
11800SOL    HW247280   1.809   0.792  10.347
11801SOL     OW47281   2.660   0.964  10.488
11801SOL    HW147282   2.588   0.926  10.437
11801SOL    HW247283   2.649   0.929  10.576
11802SOL     OW47284   1.944   1.022  10.530
11802SOL    HW147285   1.932   1.021  10.625
11802SOL    HW247286   2.010   1.089  10.514
11803SOL     OW47287   2.841   0.231  10.508
11803SOL    HW147288   2.808   0.170  10.573
11803SOL    HW247289   2.862   0.311  10.557
11804SOL     OW47290   2.213   0.883  11.074
11804SOL    HW147291   2.307   0.897  11.084
11804SOL    HW247292   2.206   0.810  11.011
11805SOL     OW47293   3.180   0.833  12.037
11805SOL    HW147294   3.181   0.813  11.944
11805SOL    HW247295   3.235   0.765  12.077
11806SOL     OW47296   1.824   0.975  11.623
11806SOL    HW147297   1.812   1.064  11.655
11806SOL    HW247298   1.790   0.977  11.534
11807SOL     OW47299   2.807   1.601  12.214
11807SOL    HW147300   2.773   1.684  12.249
11807SOL    HW247301   2.881   1.580  12.272
11808SOL     OW47302   2.241   2.288  12.342
11808SOL    HW147303   2.178   2.325  12.404
11808SOL    HW247304   2.195   2.214  12.303
11809SOL     OW47305   3.701   1.095  12.997
11809SOL    HW147306   3.609   1.080  13.019
11809SOL    HW247307   3.729   1.165  13.055
11810SOL     OW47308   3.414   0.454   9.745
11810SOL    HW147309   3.324   0.451   9.777
11810SOL    HW247310   3.467   0.430   9.821
11811SOL     OW47311   2.502   0.744  13.178
11811SOL    HW147312   2.544   0.787  13.252
11811SOL    HW247313   2.450   0.814  13.137
11812SOL     OW47314   1.860   0.424  11.969
11812SOL    HW147315   1.880   0.371  12.047
11812SOL    HW247316   1.931   0.405  11.908
11813SOL     OW47317   0.423   0.053  12.021
11813SOL    HW147318   0.517   0.067  12.020
11813SOL    HW247319   0.412   4.759  12.059
11814SOL     OW47320   0.973   1.669  12.004
11814SOL    HW147321   0.901   1.643  11.947
11814SOL    HW247322   1.035   1.596  11.997
11815SOL     OW47323   0.988   3.685   5.804
11815SOL    HW147324   1.081   3.681   5.782
11815SOL    HW247325   0.983   3.743   5.880
11816SOL     OW47326   2.937   1.363  16.230
11816SOL    HW147327   2.966   1.342  16.141
11816SOL    HW247328   2.883   1.441  16.220
11817SOL     OW47329   0.482   3.315   5.460
11817SOL    HW147330   0.490   3.236   5.512
11817SOL    HW247331   0.433   3.289   5.382
11818SOL     OW47332   4.590   3.358  18.251
11818SOL    HW147333   4.546   3.442  18.266
11818SOL    HW247334   4.530   3.309  18.194
11819SOL     OW47335   3.648   2.237  20.811
11819SOL    HW147336   3.599   2.226  20.729
11819SOL    HW247337   3.734   2.269  20.784
11820SOL     OW47338   0.989   1.112   0.589
11820SOL    HW147339   1.023   1.057   0.519
11820SOL    HW247340   0.919   1.163   0.549
11821SOL     OW47341   2.419   0.488   6.352
11821SOL    HW147342   2.513   0.472   6.356
11821SOL    HW247343   2.406   0.569   6.401
11822SOL     OW47344   0.042   2.853   1.461
11822SOL    HW147345   0.043   2.802   1.380
11822SOL    HW247346   0.027   2.943   1.433
11823SOL     OW47347   0.483   0.421  11.060
11823SOL    HW147348   0.541   0.403  10.987
11823SOL    HW247349   0.470   0.516  11.058
11824SOL     OW47350   3.928   1.659  14.133
11824SOL    HW147351   3.918   1.732  14.072
11824SOL    HW247352   4.021   1.655  14.151
11825SOL     OW47353   4.459   2.666  15.639
11825SOL    HW147354   4.485   2.574  15.647
11825SOL    HW247355   4.524   2.713  15.690
11826SOL     OW47356   1.305   3.821   6.115
11826SOL    HW147357   1.330   3.741   6.068
11826SOL    HW247358   1.299   3.794   6.206
11827SOL     OW47359   3.707   4.403   0.461
11827SOL    HW147360   3.618   4.381   0.489
11827SOL    HW247361   3.716   4.358   0.377
11828SOL     OW47362   2.245   0.827  21.196
11828SOL    HW147363   2.154   0.813  21.225
11828SOL    HW247364   2.258   0.921  21.204
11829SOL     OW47365   4.756   3.932  17.229
11829SOL    HW147366   4.676   3.961  17.183
11829SOL    HW247367   4.762   3.992  17.304
11830SOL     OW47368   1.784   1.042   3.909
11830SOL    HW147369   1.716   1.002   3.964
11830SOL    HW247370   1.774   1.000   3.824
11831SOL     OW47371   0.106   4.551   1.242
11831SOL    HW147372   0.032   4.560   1.303
11831SOL    HW247373   0.070   4.578   1.157
11832SOL     OW47374   4.088   2.789  16.404
11832SOL    HW147375   4.081   2.884  16.392
11832SOL    HW247376   4.165   2.764  16.353
11833SOL     OW47377   3.500   4.343  17.253
11833SOL    HW147378   3.536   4.317  17.168
11833SOL    HW247379   3.560   4.409  17.286
11834SOL     OW47380   2.120   3.235  19.544
11834SOL    HW147381   2.115   3.284  19.626
11834SOL    HW247382   2.204   3.188  19.549
11835SOL     OW47383   2.300   2.466   2.343
11835SOL    HW147384   2.309   2.553   2.306
11835SOL    HW247385   2.326   2.407   2.272
11836SOL     OW47386   4.725   4.629   2.705
11836SOL    HW147387   4.661   4.562   2.683
11836SOL    HW247388   4.790   4.584   2.759
11837SOL     OW47389   1.752   3.620   6.455
11837SOL    HW147390   1.843   3.623   6.482
11837SOL    HW247391   1.702   3.630   6.536
11838SOL     OW47392   3.426   2.286  17.179
11838SOL    HW147393   3.386   2.208  17.141
11838SOL    HW247394   3.443   2.263  17.270
11839SOL     OW47395   1.937   4.542  17.922
11839SOL    HW147396   1.881   4.582  17.988
11839SOL    HW247397   1.957   4.455  17.957
11840SOL     OW47398   3.459   3.310  14.413
11840SOL    HW147399   3.472   3.381  14.350
11840SOL    HW247400   3.496   3.343  14.495
11841SOL     OW47401   4.163   4.299   4.478
11841SOL    HW147402   4.157   4.374   4.419
11841SOL    HW247403   4.223   4.239   4.434
11842SOL     OW47404   2.172   2.235  21.102
11842SOL    HW147405   2.222   2.216  21.181
11842SOL    HW247406   2.175   2.330  21.094
11843SOL     OW47407   0.763   2.146  16.009
11843SOL    HW147408   0.773   2.233  16.047
11843SOL    HW247409   0.833   2.094  16.050
11844SOL     OW47410   2.962   4.044  17.809
11844SOL    HW147411   2.886   4.101  17.793
11844SOL    HW247412   3.037   4.102  17.805
11845SOL     OW47413   4.291   1.816  19.332
11845SOL    HW147414   4.294   1.833  19.238
11845SOL    HW247415   4.247   1.892  19.369
11846SOL     OW47416   1.100   3.091  16.817
11846SOL    HW147417   1.106   3.142  16.737
11846SOL    HW247418   1.028   3.029  16.801
11847SOL     OW47419   3.514   4.572   1.814
11847SOL    HW147420   3.571   4.495   1.807
11847SOL    HW247421   3.429   4.541   1.784
11848SOL     OW47422   0.539   0.522  16.890
11848SOL    HW147423   0.627   0.548  16.914
11848SOL    HW247424   0.534   0.429  16.913
11849SOL     OW47425   0.551   4.424  17.886
11849SOL    HW147426   0.630   4.370  17.888
11849SOL    HW247427   0.532   4.441  17.979
11850SOL     OW47428   2.175   0.359  19.639
11850SOL    HW147429   2.256   0.308  19.635
11850SOL    HW247430   2.139   0.354  19.550
11851SOL     OW47431   3.869   2.873  16.906
11851SOL    HW147432   3.829   2.851  16.822
11851SOL    HW247433   3.847   2.965  16.920
11852SOL     OW47434   4.565   1.221   3.876
11852SOL    HW147435   4.656   1.207   3.853
11852SOL    HW247436   4.567   1.291   3.942
11853SOL     OW47437   2.818   3.614  12.856
11853SOL    HW147438   2.819   3.559  12.934
11853SOL    HW247439   2.889   3.676  12.869
11854SOL     OW47440   1.654   3.217  15.317
11854SOL    HW147441   1.639   3.222  15.411
11854SOL    HW247442   1.742   3.181  15.308
11855SOL     OW47443   0.975   0.981  20.823
11855SOL    HW147444   1.046   0.921  20.801
11855SOL    HW247445   0.899   0.947  20.775
11856SOL     OW47446   3.474   3.722  19.903
11856SOL    HW147447   3.434   3.650  19.952
11856SOL    HW247448   3.407   3.790  19.902
11857SOL     OW47449   0.754   2.720   4.481
11857SOL    HW147450   0.756   2.805   4.526
11857SOL    HW247451   0.839   2.714   4.438
11858SOL     OW47452   1.250   1.122  20.728
11858SOL    HW147453   1.238   1.109  20.634
11858SOL    HW247454   1.161   1.133  20.762
11859SOL     OW47455   1.510   0.262   4.408
11859SOL    HW147456   1.453   0.247   4.333
11859SOL    HW247457   1.459   0.233   4.483
11860SOL     OW47458   0.732   4.659  18.191
11860SOL    HW147459   0.731   4.665  18.287
11860SOL    HW247460   0.727   4.750  18.161
11861SOL     OW47461   2.221   4.577   6.306
11861SOL    HW147462   2.163   4.533   6.245
11861SOL    HW247463   2.291   4.514   6.324
11862SOL     OW47464   3.349   3.495  15.759
11862SOL    HW147465   3.354   3.585  15.729
11862SOL    HW247466   3.269   3.460  15.719
11863SOL     OW47467   2.637   1.782   5.775
11863SOL    HW147468   2.655   1.744   5.861
11863SOL    HW247469   2.718   1.769   5.725
11864SOL     OW47470   4.597   4.571  17.421
11864SOL    HW147471   4.575   4.643  17.481
11864SOL    HW247472   4.678   4.599  17.380
11865SOL     OW47473   4.370   4.088   0.790
11865SOL    HW147474   4.426   4.157   0.825
11865SOL    HW247475   4.430   4.016   0.768
11866SOL     OW47476   4.749   0.507   5.956
11866SOL    HW147477   4.696   0.449   5.901
11866SOL    HW247478   0.020   0.545   5.895
11867SOL     OW47479   3.978   3.503   6.331
11867SOL    HW147480   3.889   3.478   6.355
11867SOL    HW247481   4.000   3.448   6.256
11868SOL     OW47482   2.958   0.071  17.771
11868SOL    HW147483   2.999   0.011  17.710
11868SOL    HW247484   2.909   0.132  17.716
11869SOL     OW47485   0.316   2.170   3.565
11869SOL    HW147486   0.389   2.142   3.510
11869SOL    HW247487   0.338   2.138   3.652
11870SOL     OW47488   2.639   0.089  16.772
11870SOL    HW147489   2.553   0.105  16.810
11870SOL    HW247490   2.700   0.104  16.844
11871SOL     OW47491   1.676   4.767   4.215
11871SOL    HW147492   1.681   4.694   4.154
11871SOL    HW247493   1.671   4.726   4.301
11872SOL     OW47494   2.369   3.342  15.736
11872SOL    HW147495   2.458   3.317  15.710
11872SOL    HW247496   2.318   3.335  15.655
11873SOL     OW47497   4.028   0.983   0.368
11873SOL    HW147498   4.104   0.928   0.390
11873SOL    HW247499   3.954   0.938   0.408
11874SOL     OW47500   1.222   0.428   1.842
11874SOL    HW147501   1.194   0.514   1.872
11874SOL    HW247502   1.292   0.445   1.779
11875SOL     OW47503   4.218   3.881   9.152
11875SOL    HW147504   4.127   3.910   9.147
11875SOL    HW247505   4.238   3.850   9.064
11876SOL     OW47506   1.572   1.685  18.060
11876SOL    HW147507   1.636   1.658  18.125
11876SOL    HW247508   1.625   1.719  17.987
11877SOL     OW47509   0.631   4.086   7.208
11877SOL    HW147510   0.675   4.115   7.288
11877SOL    HW247511   0.538   4.085   7.230
11878SOL     OW47512   4.287   2.900  16.666
11878SOL    HW147513   4.246   2.815  16.677
11878SOL    HW247514   4.357   2.885  16.602
11879SOL     OW47515   0.205   1.588  20.261
11879SOL    HW147516   0.134   1.652  20.270
11879SOL    HW247517   0.276   1.624  20.314
11880SOL     OW47518   0.182   3.698   2.583
11880SOL    HW147519   0.089   3.722   2.589
11880SOL    HW247520   0.181   3.603   2.571
11881SOL     OW47521   3.225   0.547  17.766
11881SOL    HW147522   3.155   0.520  17.706
11881SOL    HW247523   3.305   0.512  17.728
11882SOL     OW47524   2.418   4.493  17.895
11882SOL    HW147525   2.444   4.544  17.972
11882SOL    HW247526   2.330   4.461  17.916
11883SOL     OW47527   0.172   4.562  20.161
11883SOL    HW147528   0.163   4.555  20.066
11883SOL    HW247529   0.246   4.504  20.182
11884SOL     OW47530   0.720   0.766   2.558
11884SOL    HW147531   0.730   0.859   2.538
11884SOL    HW247532   0.768   0.753   2.639
11885SOL     OW47533   0.085   4.033   4.300
11885SOL    HW147534   0.055   4.060   4.387
11885SOL    HW247535   0.180   4.037   4.305
11886SOL     OW47536   3.373   0.433   1.372
11886SOL    HW147537   3.446   0.487   1.340
11886SOL    HW247538   3.319   0.417   1.295
11887SOL     OW47539   0.530   1.918  17.333
11887SOL    HW147540   0.599   1.984  17.319
11887SOL    HW247541   0.541   1.890  17.423
11888SOL     OW47542   2.082   1.000   2.129
11888SOL    HW147543   2.164   0.955   2.110
11888SOL    HW247544   2.014   0.933   2.121
11889SOL     OW47545   3.848   4.028  20.952
11889SOL    HW147546   3.876   3.954  20.898
11889SOL    HW247547   3.797   4.083  20.893
11890SOL     OW47548   1.816   4.684  21.036
11890SOL    HW147549   1.857   4.769  21.020
11890SOL    HW247550   1.856   4.625  20.973
11891SOL     OW47551   4.627   0.552   6.526
11891SOL    HW147552   4.632   0.546   6.430
11891SOL    HW247553   4.718   0.560   6.554
11892SOL     OW47554   3.241   1.919   6.959
11892SOL    HW147555   3.302   1.993   6.964
11892SOL    HW247556   3.155   1.960   6.946
11893SOL     OW47557   2.766   1.462  16.584
11893SOL    HW147558   2.757   1.374  16.547
11893SOL    HW247559   2.705   1.464  16.658
11894SOL     OW47560   1.595   2.888  21.269
11894SOL    HW147561   1.540   2.841  21.206
11894SOL    HW247562   1.677   2.839  21.270
11895SOL     OW47563   4.242   1.720  18.448
11895SOL    HW147564   4.164   1.665  18.440
11895SOL    HW247565   4.243   1.748  18.540
11896SOL     OW47566   1.274   1.294   8.572
11896SOL    HW147567   1.206   1.290   8.505
11896SOL    HW247568   1.306   1.384   8.567
11897SOL     OW47569   3.685   1.939   7.636
11897SOL    HW147570   3.651   1.957   7.549
11897SOL    HW247571   3.776   1.912   7.621
11898SOL     OW47572   1.449   1.436  15.571
11898SOL    HW147573   1.542   1.445  15.594
11898SOL    HW247574   1.418   1.363  15.624
11899SOL     OW47575   0.052   2.092  19.666
11899SOL    HW147576   4.782   2.024  19.689
11899SOL    HW247577   0.004   2.174  19.676
11900SOL     OW47578   3.704   3.949  16.197
11900SOL    HW147579   3.731   3.882  16.134
11900SOL    HW247580   3.632   3.909  16.245
11901SOL     OW47581   2.061   0.301   2.787
11901SOL    HW147582   2.015   0.361   2.728
11901SOL    HW247583   2.124   0.256   2.731
11902SOL     OW47584   1.605   2.052  12.781
11902SOL    HW147585   1.587   2.077  12.871
11902SOL    HW247586   1.572   2.126  12.729
11903SOL     OW47587   2.021   1.682   2.007
11903SOL    HW147588   1.958   1.636   1.952
11903SOL    HW247589   2.072   1.613   2.049
11904SOL     OW47590   4.607   0.942   6.517
11904SOL    HW147591   4.653   1.026   6.517
11904SOL    HW247592   4.651   0.891   6.449
11905SOL     OW47593   1.257   0.608   5.773
11905SOL    HW147594   1.283   0.576   5.860
11905SOL    HW247595   1.332   0.588   5.717
11906SOL     OW47596   0.281   4.516  19.334
11906SOL    HW147597   0.237   4.540  19.415
11906SOL    HW247598   0.372   4.500  19.360
11907SOL     OW47599   0.548   0.565   0.873
11907SOL    HW147600   0.591   0.519   0.945
11907SOL    HW247601   0.585   0.653   0.875
11908SOL     OW47602   0.062   1.052   1.801
11908SOL    HW147603   0.016   0.975   1.834
11908SOL    HW247604   0.027   1.125   1.852
11909SOL     OW47605   2.114   1.649   1.374
11909SOL    HW147606   2.209   1.646   1.386
11909SOL    HW247607   2.100   1.716   1.307
11910SOL     OW47608   3.727   1.287  20.685
11910SOL    HW147609   3.789   1.353  20.713
11910SOL    HW247610   3.780   1.210  20.664
11911SOL     OW47611   3.980   0.911   2.193
11911SOL    HW147612   4.062   0.876   2.227
11911SOL    HW247613   3.920   0.837   2.195
11912SOL     OW47614   4.504   4.404  17.914
11912SOL    HW147615   4.562   4.461  17.864
11912SOL    HW247616   4.546   4.318  17.911
11913SOL     OW47617   4.528   3.778  15.979
11913SOL    HW147618   4.506   3.869  15.998
11913SOL    HW247619   4.621   3.770  16.001
11914SOL     OW47620   0.697   1.706  19.458
11914SOL    HW147621   0.658   1.651  19.526
11914SOL    HW247622   0.694   1.653  19.379
11915SOL     OW47623   3.837   3.864   5.455
11915SOL    HW147624   3.807   3.777   5.429
11915SOL    HW247625   3.831   3.916   5.375
11916SOL     OW47626   0.855   2.506  19.439
11916SOL    HW147627   0.916   2.543  19.503
11916SOL    HW247628   0.909   2.448  19.385
11917SOL     OW47629   2.319   3.046   2.028
11917SOL    HW147630   2.317   2.954   2.003
11917SOL    HW247631   2.230   3.065   2.057
11918SOL     OW47632   3.965   2.629   4.248
11918SOL    HW147633   3.877   2.594   4.235
11918SOL    HW247634   4.010   2.562   4.300
11919SOL     OW47635   4.501   0.752  15.507
11919SOL    HW147636   4.453   0.835  15.506
11919SOL    HW247637   4.536   0.745  15.596
11920SOL     OW47638   0.856   2.264   2.361
11920SOL    HW147639   0.890   2.225   2.281
11920SOL    HW247640   0.784   2.319   2.332
11921SOL     OW47641   2.777   1.290  18.626
11921SOL    HW147642   2.798   1.293  18.719
11921SOL    HW247643   2.752   1.199  18.610
11922SOL     OW47644   3.538   2.306  18.136
11922SOL    HW147645   3.597   2.324  18.063
11922SOL    HW247646   3.475   2.378  18.135
11923SOL     OW47647   3.800   0.458   1.351
11923SOL    HW147648   3.815   0.552   1.340
11923SOL    HW247649   3.714   0.443   1.312
11924SOL     OW47650   1.218   1.912   2.687
11924SOL    HW147651   1.167   1.886   2.764
11924SOL    HW247652   1.253   1.998   2.710
11925SOL     OW47653   2.683   3.444   2.191
11925SOL    HW147654   2.709   3.420   2.102
11925SOL    HW247655   2.633   3.524   2.181
11926SOL     OW47656   1.367   3.553   0.620
11926SOL    HW147657   1.455   3.590   0.629
11926SOL    HW247658   1.362   3.487   0.689
11927SOL     OW47659   4.302   4.705   6.374
11927SOL    HW147660   4.295   0.007   6.370
11927SOL    HW247661   4.217   4.673   6.344
11928SOL     OW47662   4.736   3.221  20.360
11928SOL    HW147663   4.690   3.170  20.427
11928SOL    HW247664   4.681   3.214  20.282
11929SOL     OW47665   0.909   1.879  20.135
11929SOL    HW147666   0.854   1.844  20.206
11929SOL    HW247667   0.996   1.886  20.173
11930SOL     OW47668   0.337   3.747  16.011
11930SOL    HW147669   0.422   3.754  15.967
11930SOL    HW247670   0.328   3.827  16.062
11931SOL     OW47671   3.039   1.579   4.146
11931SOL    HW147672   3.122   1.530   4.143
11931SOL    HW247673   3.061   1.662   4.189
11932SOL     OW47674   0.240   4.088  13.668
11932SOL    HW147675   0.221   4.008  13.717
11932SOL    HW247676   0.279   4.058  13.586
11933SOL     OW47677   1.205   4.587  19.627
11933SOL    HW147678   1.268   4.654  19.654
11933SOL    HW247679   1.181   4.610  19.538
11934SOL     OW47680   2.683   2.031  16.374
11934SOL    HW147681   2.761   1.979  16.397
11934SOL    HW247682   2.627   1.969  16.327
11935SOL     OW47683   1.658   3.682   2.784
11935SOL    HW147684   1.633   3.760   2.735
11935SOL    HW247685   1.733   3.710   2.836
11936SOL     OW47686   2.873   3.439   0.148
11936SOL    HW147687   2.927   3.516   0.133
11936SOL    HW247688   2.785   3.466   0.118
11937SOL     OW47689   3.777   0.843   0.437
11937SOL    HW147690   3.712   0.874   0.374
11937SOL    HW247691   3.737   0.767   0.478
11938SOL     OW47692   4.217   1.263  18.795
11938SOL    HW147693   4.219   1.344  18.845
11938SOL    HW247694   4.295   1.215  18.824
11939SOL     OW47695   0.478   0.790   4.138
11939SOL    HW147696   0.444   0.879   4.143
11939SOL    HW247697   0.503   0.779   4.046
11940SOL     OW47698   0.106   1.414  19.101
11940SOL    HW147699   0.161   1.423  19.023
11940SOL    HW247700   0.073   1.502  19.117
11941SOL     OW47701   2.577   1.328   0.075
11941SOL    HW147702   2.549   1.264   0.010
11941SOL    HW247703   2.534   1.410   0.049
11942SOL     OW47704   1.607   1.645   7.411
11942SOL    HW147705   1.629   1.676   7.499
11942SOL    HW247706   1.514   1.624   7.416
11943SOL     OW47707   1.961   0.580   0.623
11943SOL    HW147708   2.002   0.594   0.708
11943SOL    HW247709   1.982   0.489   0.601
11944SOL     OW47710   1.072   3.263  16.571
11944SOL    HW147711   1.055   3.331  16.506
11944SOL    HW247712   1.023   3.291  16.649
11945SOL     OW47713   1.385   0.368   4.673
11945SOL    HW147714   1.321   0.431   4.639
11945SOL    HW247715   1.428   0.413   4.745
11946SOL     OW47716   2.495   3.718   6.326
11946SOL    HW147717   2.559   3.758   6.385
11946SOL    HW247718   2.425   3.688   6.384
11947SOL     OW47719   1.445   3.350   2.119
11947SOL    HW147720   1.490   3.417   2.170
11947SOL    HW247721   1.359   3.387   2.101
11948SOL     OW47722   4.172   1.498   2.026
11948SOL    HW147723   4.141   1.586   2.048
11948SOL    HW247724   4.194   1.503   1.933
11949SOL     OW47725   0.814   3.111   3.596
11949SOL    HW147726   0.866   3.065   3.662
11949SOL    HW247727   0.861   3.096   3.514
11950SOL     OW47728   2.756   3.753   4.044
11950SOL    HW147729   2.786   3.681   3.988
11950SOL    HW247730   2.662   3.738   4.054
11951SOL     OW47731   1.672   1.935  16.261
11951SOL    HW147732   1.586   1.941  16.302
11951SOL    HW247733   1.666   1.859  16.203
11952SOL     OW47734   2.645   3.751  14.999
11952SOL    HW147735   2.714   3.709  14.947
11952SOL    HW247736   2.574   3.765  14.937
11953SOL     OW47737   4.669   4.397   4.044
11953SOL    HW147738   4.709   4.398   4.131
11953SOL    HW247739   4.647   4.305   4.029
11954SOL     OW47740   1.183   3.752  16.434
11954SOL    HW147741   1.257   3.777  16.379
11954SOL    HW247742   1.106   3.790  16.390
11955SOL     OW47743   2.232   3.849   8.463
11955SOL    HW147744   2.303   3.790   8.439
11955SOL    HW247745   2.154   3.794   8.462
11956SOL     OW47746   2.222   3.845   6.897
11956SOL    HW147747   2.223   3.843   6.993
11956SOL    HW247748   2.204   3.936   6.875
11957SOL     OW47749   0.517   0.417  19.240
11957SOL    HW147750   0.477   0.332  19.257
11957SOL    HW247751   0.584   0.400  19.174
11958SOL     OW47752   0.586   3.008   6.220
11958SOL    HW147753   0.632   2.926   6.203
11958SOL    HW247754   0.547   3.032   6.136
11959SOL     OW47755   1.106   3.602  18.314
11959SOL    HW147756   1.145   3.653  18.243
11959SOL    HW247757   1.032   3.556  18.272
11960SOL     OW47758   3.776   1.743  19.532
11960SOL    HW147759   3.833   1.800  19.480
11960SOL    HW247760   3.726   1.694  19.468
11961SOL     OW47761   3.400   2.365  18.813
11961SOL    HW147762   3.333   2.419  18.854
11961SOL    HW247763   3.472   2.425  18.795
11962SOL     OW47764   2.703   1.144  19.316
11962SOL    HW147765   2.775   1.082  19.326
11962SOL    HW247766   2.713   1.204  19.390
11963SOL     OW47767   2.789   3.027   4.098
11963SOL    HW147768   2.844   3.102   4.118
11963SOL    HW247769   2.784   3.026   4.002
11964SOL     OW47770   0.252   0.259  12.283
11964SOL    HW147771   0.189   0.202  12.240
11964SOL    HW247772   0.201   0.336  12.308
11965SOL     OW47773   1.351   1.841  20.402
11965SOL    HW147774   1.429   1.795  20.431
11965SOL    HW247775   1.281   1.776  20.404
11966SOL     OW47776   1.971   3.052   2.832
11966SOL    HW147777   2.005   3.122   2.776
11966SOL    HW247778   1.973   2.974   2.777
11967SOL     OW47779   2.546   0.057   7.279
11967SOL    HW147780   2.574   0.102   7.199
11967SOL    HW247781   2.489   4.779   7.248
11968SOL     OW47782   2.451   2.141   3.701
11968SOL    HW147783   2.426   2.232   3.689
11968SOL    HW247784   2.368   2.095   3.713
11969SOL     OW47785   0.923   3.703   1.415
11969SOL    HW147786   0.842   3.727   1.461
11969SOL    HW247787   0.993   3.730   1.475
11970SOL     OW47788   4.200   0.867   0.771
11970SOL    HW147789   4.119   0.857   0.720
11970SOL    HW247790   4.232   0.954   0.749
11971SOL     OW47791   2.737   0.432  17.586
11971SOL    HW147792   2.647   0.403  17.600
11971SOL    HW247793   2.734   0.482  17.505
11972SOL     OW47794   3.500   0.467   5.657
11972SOL    HW147795   3.580   0.519   5.646
11972SOL    HW247796   3.532   0.380   5.680
11973SOL     OW47797   2.330   3.517  19.934
11973SOL    HW147798   2.413   3.557  19.959
11973SOL    HW247799   2.267   3.551  19.998
11974SOL     OW47800   3.395   1.180  17.437
11974SOL    HW147801   3.401   1.094  17.480
11974SOL    HW247802   3.477   1.190  17.390
11975SOL     OW47803   4.484   4.560   6.498
11975SOL    HW147804   4.444   4.481   6.463
11975SOL    HW247805   4.427   4.631   6.468
11976SOL     OW47806   1.157   2.573  20.399
11976SOL    HW147807   1.134   2.633  20.469
11976SOL    HW247808   1.132   2.487  20.432
11977SOL     OW47809   1.182   1.530   6.010
11977SOL    HW147810   1.251   1.505   5.949
11977SOL    HW247811   1.132   1.597   5.964
11978SOL     OW47812   1.333   3.718  12.666
11978SOL    HW147813   1.254   3.742  12.618
11978SOL    HW247814   1.338   3.622  12.659
11979SOL     OW47815   1.252   2.684   0.287
11979SOL    HW147816   1.157   2.685   0.299
11979SOL    HW247817   1.271   2.596   0.255
11980SOL     OW47818   3.764   4.515   4.387
11980SOL    HW147819   3.820   4.566   4.445
11980SOL    HW247820   3.810   4.432   4.377
11981SOL     OW47821   0.666   0.124   0.120
11981SOL    HW147822   0.672   0.034   0.152
11981SOL    HW247823   0.584   0.158   0.158
11982SOL     OW47824   4.222   2.768  18.028
11982SOL    HW147825   4.147   2.818  17.996
11982SOL    HW247826   4.185   2.687  18.062
11983SOL     OW47827   3.328   0.568  19.741
11983SOL    HW147828   3.269   0.616  19.683
11983SOL    HW247829   3.316   0.476  19.718
11984SOL     OW47830   3.788   3.989   0.070
11984SOL    HW147831   3.855   4.031   0.017
11984SOL    HW247832   3.833   3.962   0.150
11985SOL     OW47833   1.114   1.227  17.507
11985SOL    HW147834   1.174   1.171  17.556
11985SOL    HW247835   1.113   1.189  17.419
11986SOL     OW47836   3.910   1.598  16.701
11986SOL    HW147837   3.843   1.552  16.752
11986SOL    HW247838   3.860   1.648  16.637
11987SOL     OW47839   1.861   1.532   0.209
11987SOL    HW147840   1.765   1.530   0.204
11987SOL    HW247841   1.883   1.459   0.267
11988SOL     OW47842   3.074   3.508  16.511
11988SOL    HW147843   3.137   3.486  16.443
11988SOL    HW247844   3.018   3.430  16.518
11989SOL     OW47845   1.661   2.841   7.317
11989SOL    HW147846   1.582   2.823   7.366
11989SOL    HW247847   1.643   2.808   7.229
11990SOL     OW47848   3.819   2.302  16.705
11990SOL    HW147849   3.730   2.331  16.725
11990SOL    HW247850   3.866   2.383  16.684
11991SOL     OW47851   0.824   3.121   1.322
11991SOL    HW147852   0.917   3.116   1.300
11991SOL    HW247853   0.821   3.115   1.417
11992SOL     OW47854   4.527   3.437   5.647
11992SOL    HW147855   4.576   3.373   5.595
11992SOL    HW247856   4.450   3.457   5.594
11993SOL     OW47857   3.243   4.029   7.664
11993SOL    HW147858   3.149   4.010   7.666
11993SOL    HW247859   3.262   4.045   7.572
11994SOL     OW47860   4.336   1.738  15.388
11994SOL    HW147861   4.427   1.734  15.419
11994SOL    HW247862   4.342   1.774  15.300
11995SOL     OW47863   0.993   3.515   1.233
11995SOL    HW147864   0.960   3.583   1.292
11995SOL    HW247865   1.082   3.498   1.264
11996SOL     OW47866   3.291   2.353   0.150
11996SOL    HW147867   3.224   2.301   0.194
11996SOL    HW247868   3.336   2.398   0.222
11997SOL     OW47869   2.772   0.178  16.286
11997SOL    HW147870   2.677   0.163  16.292
11997SOL    HW247871   2.811   0.093  16.307
11998SOL     OW47872   1.456   1.741   6.871
11998SOL    HW147873   1.428   1.677   6.936
11998SOL    HW247874   1.383   1.804   6.867
11999SOL     OW47875   4.015   0.160  21.237
11999SOL    HW147876   3.998   0.067  21.222
11999SOL    HW247877   3.949   0.205  21.185
12000SOL     OW47878   4.215   0.025  16.028
12000SOL    HW147879   4.194   4.725  16.031
12000SOL    HW247880   4.148   0.063  15.971
12001SOL     OW47881   0.391   2.869   6.421
12001SOL    HW147882   0.426   2.944   6.469
12001SOL    HW247883   0.457   2.801   6.433
12002SOL     OW47884   0.873   1.988   1.804
12002SOL    HW147885   0.798   1.933   1.826
12002SOL    HW247886   0.946   1.951   1.853
12003SOL     OW47887   2.193   3.112  19.817
12003SOL    HW147888   2.196   3.207  19.828
12003SOL    HW247889   2.274   3.081  19.859
12004SOL     OW47890   2.226   1.330   1.336
12004SOL    HW147891   2.174   1.311   1.414
12004SOL    HW247892   2.316   1.332   1.367
12005SOL     OW47893   0.914   2.644  19.753
12005SOL    HW147894   0.858   2.658  19.829
12005SOL    HW247895   0.993   2.604  19.788
12006SOL     OW47896   4.593   4.160  18.218
12006SOL    HW147897   4.510   4.204  18.240
12006SOL    HW247898   4.598   4.164  18.123
12007SOL     OW47899   3.937   4.716   6.612
12007SOL    HW147900   3.888   4.670   6.545
12007SOL    HW247901   4.006   4.655   6.638
12008SOL     OW47902   0.750   0.957   2.119
12008SOL    HW147903   0.732   0.943   2.212
12008SOL    HW247904   0.751   1.053   2.110
12009SOL     OW47905   1.971   4.568  18.260
12009SOL    HW147906   1.932   4.491  18.302
12009SOL    HW247907   2.039   4.532  18.203
12010SOL     OW47908   0.700   0.130  13.339
12010SOL    HW147909   0.634   0.144  13.271
12010SOL    HW247910   0.661   0.064  13.397
12011SOL     OW47911   3.621   4.216   1.511
12011SOL    HW147912   3.659   4.228   1.598
12011SOL    HW247913   3.674   4.273   1.455
12012SOL     OW47914   1.148   3.419  16.183
12012SOL    HW147915   1.162   3.328  16.157
12012SOL    HW247916   1.234   3.460  16.177
12013SOL     OW47917   1.911   4.634  16.763
12013SOL    HW147918   1.896   4.717  16.717
12013SOL    HW247919   1.911   4.568  16.695
12014SOL     OW47920   4.406   3.670  19.475
12014SOL    HW147921   4.401   3.656  19.570
12014SOL    HW247922   4.499   3.666  19.455
12015SOL     OW47923   0.496   2.399   5.224
12015SOL    HW147924   0.417   2.416   5.275
12015SOL    HW247925   0.552   2.348   5.283
12016SOL     OW47926   1.137   2.974   5.260
12016SOL    HW147927   1.192   2.899   5.240
12016SOL    HW247928   1.117   3.013   5.174
12017SOL     OW47929   2.624   1.212   4.272
12017SOL    HW147930   2.713   1.179   4.254
12017SOL    HW247931   2.610   1.193   4.365
12018SOL     OW47932   3.934   1.305   5.124
12018SOL    HW147933   3.894   1.325   5.039
12018SOL    HW247934   3.860   1.294   5.183
12019SOL     OW47935   2.201   0.039  14.137
12019SOL    HW147936   2.256   4.774  14.084
12019SOL    HW247937   2.213   0.008  14.226
12020SOL     OW47938   0.324   0.320   0.796
12020SOL    HW147939   0.346   0.334   0.888
12020SOL    HW247940   0.342   0.227   0.782
12021SOL     OW47941   4.505   2.180  19.036
12021SOL    HW147942   4.504   2.151  19.127
12021SOL    HW247943   4.597   2.202  19.019
12022SOL     OW47944   3.884   1.626  15.184
12022SOL    HW147945   3.965   1.628  15.234
12022SOL    HW247946   3.819   1.668  15.241
12023SOL     OW47947   3.404   2.847   4.713
12023SOL    HW147948   3.387   2.927   4.762
12023SOL    HW247949   3.334   2.844   4.647
12024SOL     OW47950   3.885   2.547   4.557
12024SOL    HW147951   3.968   2.517   4.522
12024SOL    HW247952   3.908   2.621   4.614
12025SOL     OW47953   1.100   0.670   3.513
12025SOL    HW147954   1.148   0.595   3.477
12025SOL    HW247955   1.060   0.636   3.592
12026SOL     OW47956   3.734   0.886  18.361
12026SOL    HW147957   3.822   0.864  18.393
12026SOL    HW247958   3.677   0.823  18.405
12027SOL     OW47959   1.432   1.054   6.166
12027SOL    HW147960   1.495   1.126   6.173
12027SOL    HW247961   1.394   1.047   6.253
12028SOL     OW47962   0.175   2.079  18.322
12028SOL    HW147963   0.259   2.035  18.336
12028SOL    HW247964   0.195   2.154  18.267
12029SOL     OW47965   0.810   4.255  16.037
12029SOL    HW147966   0.899   4.272  16.068
12029SOL    HW247967   0.813   4.278  15.944
12030SOL     OW47968   3.479   0.644   0.142
12030SOL    HW147969   3.448   0.645   0.233
12030SOL    HW247970   3.439   0.721   0.103
12031SOL     OW47971   0.923   2.451   0.011
12031SOL    HW147972   0.855   2.386   0.032
12031SOL    HW247973   0.897   2.529   0.061
12032SOL     OW47974   4.408   0.528   0.236
12032SOL    HW147975   4.411   0.498   0.326
12032SOL    HW247976   4.435   0.452   0.184
12033SOL     OW47977   0.297   4.709  16.808
12033SOL    HW147978   0.311   4.764  16.886
12033SOL    HW247979   0.217   4.744  16.768
12034SOL     OW47980   4.329   1.036  14.998
12034SOL    HW147981   4.309   1.042  15.091
12034SOL    HW247982   4.293   1.117  14.961
12035SOL     OW47983   3.344   3.141  17.860
12035SOL    HW147984   3.299   3.057  17.872
12035SOL    HW247985   3.289   3.204  17.906
12036SOL     OW47986   0.907   2.442   1.213
12036SOL    HW147987   0.835   2.505   1.201
12036SOL    HW247988   0.961   2.480   1.282
12037SOL     OW47989   4.292   3.204  19.947
12037SOL    HW147990   4.274   3.129  19.889
12037SOL    HW247991   4.358   3.255  19.899
12038SOL     OW47992   0.319   4.365   3.537
12038SOL    HW147993   0.371   4.428   3.587
12038SOL    HW247994   0.268   4.319   3.603
12039SOL     OW47995   2.733   1.266  17.210
12039SOL    HW147996   2.769   1.299  17.128
12039SOL    HW247997   2.810   1.241  17.261
12040SOL     OW47998   0.982   0.287  16.962
12040SOL    HW147999   1.026   0.206  16.987
12040SOL    HW248000   0.954   0.327  17.045
12041SOL     OW48001   3.947   3.582  15.487
12041SOL    HW148002   3.984   3.670  15.493
12041SOL    HW248003   3.917   3.575  15.397
12042SOL     OW48004   1.825   3.272   0.946
12042SOL    HW148005   1.730   3.258   0.949
12042SOL    HW248006   1.862   3.199   0.995
12043SOL     OW48007   0.794   1.245   3.793
12043SOL    HW148008   0.770   1.248   3.886
12043SOL    HW248009   0.723   1.292   3.749
12044SOL     OW48010   3.507   2.170  17.436
12044SOL    HW148011   3.480   2.189  17.526
12044SOL    HW248012   3.598   2.200  17.431
12045SOL     OW48013   0.116   4.123   5.941
12045SOL    HW148014   0.177   4.052   5.919
12045SOL    HW248015   0.172   4.201   5.949
12046SOL     OW48016   4.148   1.829  12.314
12046SOL    HW148017   4.191   1.747  12.340
12046SOL    HW248018   4.079   1.841  12.378
12047SOL     OW48019   2.892   1.666  17.840
12047SOL    HW148020   2.817   1.608  17.833
12047SOL    HW248021   2.882   1.711  17.924
12048SOL     OW48022   2.773   4.250  20.417
12048SOL    HW148023   2.691   4.219  20.378
12048SOL    HW248024   2.759   4.243  20.511
12049SOL     OW48025   0.701   0.880   7.442
12049SOL    HW148026   0.685   0.852   7.351
12049SOL    HW248027   0.671   0.807   7.495
12050SOL     OW48028   1.864   3.536  18.846
12050SOL    HW148029   1.823   3.465  18.896
12050SOL    HW248030   1.832   3.524  18.757
12051SOL     OW48031   4.268   4.491  21.127
12051SOL    HW148032   4.276   4.586  21.129
12051SOL    HW248033   4.303   4.462  21.212
12052SOL     OW48034   2.924   2.225  15.880
12052SOL    HW148035   2.971   2.306  15.863
12052SOL    HW248036   2.991   2.164  15.910
12053SOL     OW48037   4.424   2.673  15.367
12053SOL    HW148038   4.329   2.686  15.362
12053SOL    HW248039   4.443   2.672  15.460
12054SOL     OW48040   3.370   4.417  16.188
12054SOL    HW148041   3.444   4.403  16.247
12054SOL    HW248042   3.406   4.468  16.115
12055SOL     OW48043   2.742   2.412  19.300
12055SOL    HW148044   2.728   2.345  19.232
12055SOL    HW248045   2.792   2.367  19.368
12056SOL     OW48046   4.448   1.692  18.801
12056SOL    HW148047   4.498   1.617  18.768
12056SOL    HW248048   4.459   1.760  18.735
12057SOL     OW48049   1.455   1.752   0.715
12057SOL    HW148050   1.392   1.822   0.702
12057SOL    HW248051   1.422   1.705   0.792
12058SOL     OW48052   3.368   0.376   3.552
12058SOL    HW148053   3.310   0.300   3.555
12058SOL    HW248054   3.319   0.445   3.596
12059SOL     OW48055   3.168   2.219   7.411
12059SOL    HW148056   3.239   2.275   7.440
12059SOL    HW248057   3.205   2.130   7.413
12060SOL     OW48058   4.349   4.278  18.298
12060SOL    HW148059   4.380   4.349  18.354
12060SOL    HW248060   4.306   4.322  18.225
12061SOL     OW48061   3.660   2.864  19.392
12061SOL    HW148062   3.626   2.938  19.342
12061SOL    HW248063   3.581   2.820  19.426
12062SOL     OW48064   1.121   1.304   0.935
12062SOL    HW148065   1.156   1.314   0.846
12062SOL    HW248066   1.033   1.270   0.922
12063SOL     OW48067   1.770   4.641  12.033
12063SOL    HW148068   1.694   4.683  11.993
12063SOL    HW248069   1.844   4.697  12.008
12064SOL     OW48070   3.668   2.823  14.497
12064SOL    HW148071   3.694   2.885  14.565
12064SOL    HW248072   3.576   2.843  14.479
12065SOL     OW48073   4.280   1.763  15.718
12065SOL    HW148074   4.245   1.787  15.632
12065SOL    HW248075   4.306   1.671  15.708
12066SOL     OW48076   0.634   0.128   3.472
12066SOL    HW148077   0.665   0.167   3.390
12066SOL    HW248078   0.658   0.035   3.465
12067SOL     OW48079   3.815   3.258   3.886
12067SOL    HW148080   3.840   3.168   3.909
12067SOL    HW248081   3.855   3.272   3.800
12068SOL     OW48082   2.936   0.873   4.343
12068SOL    HW148083   2.978   0.787   4.337
12068SOL    HW248084   2.883   0.869   4.422
12069SOL     OW48085   0.230   2.823   4.336
12069SOL    HW148086   0.304   2.761   4.336
12069SOL    HW248087   0.165   2.782   4.392
12070SOL     OW48088   1.351   4.210   1.721
12070SOL    HW148089   1.437   4.237   1.753
12070SOL    HW248090   1.297   4.289   1.726
12071SOL     OW48091   0.812   1.950  18.563
12071SOL    HW148092   0.807   1.868  18.513
12071SOL    HW248093   0.812   2.018  18.496
12072SOL     OW48094   4.474   0.115  16.118
12072SOL    HW148095   4.382   0.110  16.091
12072SOL    HW248096   4.501   0.024  16.129
12073SOL     OW48097   4.036   3.043  16.400
12073SOL    HW148098   3.970   3.053  16.468
12073SOL    HW248099   4.098   3.115  16.416
12074SOL     OW48100   1.698   3.897  17.246
12074SOL    HW148101   1.666   3.815  17.282
12074SOL    HW248102   1.650   3.965  17.293
12075SOL     OW48103   3.379   1.475   5.408
12075SOL    HW148104   3.467   1.506   5.432
12075SOL    HW248105   3.340   1.447   5.490
12076SOL     OW48106   0.120   4.419   5.637
12076SOL    HW148107   0.070   4.345   5.670
12076SOL    HW248108   0.139   4.472   5.715
12077SOL     OW48109   0.385   1.262   4.824
12077SOL    HW148110   0.406   1.267   4.731
12077SOL    HW248111   0.469   1.244   4.867
12078SOL     OW48112   4.772   1.011  20.242
12078SOL    HW148113   0.002   0.918  20.242
12078SOL    HW248114   4.721   1.024  20.322
12079SOL     OW48115   2.007   2.519  19.278
12079SOL    HW148116   1.969   2.433  19.298
12079SOL    HW248117   2.050   2.546  19.359
12080SOL     OW48118   2.974   0.661  21.035
12080SOL    HW148119   2.956   0.738  21.088
12080SOL    HW248120   3.005   0.695  20.952
12081SOL     OW48121   4.769   3.311   4.952
12081SOL    HW148122   4.769   3.265   4.868
12081SOL    HW248123   4.678   3.305   4.982
12082SOL     OW48124   0.760   1.339  17.212
12082SOL    HW148125   0.686   1.364  17.267
12082SOL    HW248126   0.790   1.255  17.248
12083SOL     OW48127   3.551   1.682  17.321
12083SOL    HW148128   3.484   1.692  17.253
12083SOL    HW248129   3.587   1.770  17.332
12084SOL     OW48130   0.215   2.637  15.994
12084SOL    HW148131   0.175   2.641  15.907
12084SOL    HW248132   0.141   2.621  16.053
12085SOL     OW48133   0.142   0.049  16.117
12085SOL    HW148134   0.064   0.009  16.156
12085SOL    HW248135   0.110   0.130  16.078
12086SOL     OW48136   2.794   0.670  18.706
12086SOL    HW148137   2.855   0.703  18.772
12086SOL    HW248138   2.776   0.580  18.733
12087SOL     OW48139   3.627   0.883  20.676
12087SOL    HW148140   3.641   0.793  20.648
12087SOL    HW248141   3.691   0.896  20.746
12088RB      RB48142   2.084   0.287   2.163
12089CL      CL48143   2.245   0.772   1.812
   4.79317   4.79317  21.27267
