Membrane in water t=  60.00000 step= 60000
48141
  945MPD0     C    1   1.282   2.887   7.485
  945MPD0    C1    2   1.338   2.766   7.458
  945MPD0    C2    3   1.420   2.708   7.561
  945MPD0    C3    4   1.444   2.775   7.679
  945MPD0    C4    5   1.383   2.896   7.706
  945MPD0    C5    6   1.303   2.946   7.609
  945MPD0     H    7   1.472   2.615   7.547
  945MPD0    H1    8   1.387   2.952   7.799
  945MPD0    H2    9   1.219   2.946   7.420
  945MPD0    H3   10   1.253   3.040   7.633
  945MPD0     N   11   1.514   2.712   7.784
  945MPD0    H4   12   1.552   2.776   7.854
  945MPD0    H5   13   1.587   2.651   7.747
  945MPD0    N1   14   1.329   2.708   7.333
  945MPD0    H6   15   1.232   2.719   7.304
  945MPD0    H7   16   1.329   2.606   7.337
  946MPD0     C   17   2.615   0.366  11.675
  946MPD0    C1   18   2.571   0.237  11.666
  946MPD0    C2   19   2.646   0.139  11.732
  946MPD0    C3   20   2.768   0.168  11.782
  946MPD0    C4   21   2.812   0.297  11.775
  946MPD0    C5   22   2.730   0.400  11.737
  946MPD0     H   23   2.600   0.041  11.740
  946MPD0    H1   24   2.910   0.316  11.819
  946MPD0    H2   25   2.571   0.448  11.619
  946MPD0    H3   26   2.772   0.500  11.733
  946MPD0     N   27   2.856   0.067  11.827
  946MPD0    H4   28   2.930   0.088  11.894
  946MPD0    H5   29   2.808   4.773  11.865
  946MPD0    N1   30   2.447   0.214  11.603
  946MPD0    H6   31   2.451   0.259  11.511
  946MPD0    H7   32   2.434   0.116  11.578
  947MPD0     C   33   4.365   4.025  13.391
  947MPD0    C1   34   4.384   4.113  13.496
  947MPD0    C2   35   4.268   4.162  13.552
  947MPD0    C3   36   4.138   4.128  13.521
  947MPD0    C4   37   4.128   4.037  13.416
  947MPD0    C5   38   4.238   4.002  13.343
  947MPD0     H   39   4.287   4.225  13.638
  947MPD0    H1   40   4.033   4.002  13.379
  947MPD0    H2   41   4.450   3.970  13.351
  947MPD0    H3   42   4.218   3.938  13.259
  947MPD0     N   43   4.024   4.177  13.588
  947MPD0    H4   44   4.053   4.252  13.651
  947MPD0    H5   45   3.959   4.231  13.532
  947MPD0    N1   46   4.515   4.128  13.554
  947MPD0    H6   47   4.586   4.121  13.482
  947MPD0    H7   48   4.521   4.216  13.606
  948MPD0     C   49   0.664   2.214   6.297
  948MPD0    C1   50   0.764   2.212   6.210
  948MPD0    C2   51   0.888   2.262   6.250
  948MPD0    C3   52   0.908   2.306   6.379
  948MPD0    C4   53   0.795   2.319   6.465
  948MPD0    C5   54   0.674   2.277   6.423
  948MPD0     H   55   0.970   2.258   6.179
  948MPD0    H1   56   0.800   2.366   6.563
  948MPD0    H2   57   0.571   2.169   6.264
  948MPD0    H3   58   0.581   2.283   6.477
  948MPD0     N   59   1.028   2.363   6.415
  948MPD0    H4   60   1.034   2.351   6.516
  948MPD0    H5   61   1.104   2.312   6.370
  948MPD0    N1   62   0.746   2.184   6.075
  948MPD0    H6   63   0.664   2.126   6.055
  948MPD0    H7   64   0.831   2.139   6.041
  949MPD0     C   65   1.303   3.482   7.433
  949MPD0    C1   66   1.285   3.618   7.418
  949MPD0    C2   67   1.239   3.699   7.518
  949MPD0    C3   68   1.226   3.648   7.642
  949MPD0    C4   69   1.273   3.514   7.665
  949MPD0    C5   70   1.302   3.431   7.560
  949MPD0     H   71   1.213   3.802   7.496
  949MPD0    H1   72   1.272   3.470   7.764
  949MPD0    H2   73   1.313   3.411   7.352
  949MPD0    H3   74   1.313   3.324   7.564
  949MPD0     N   75   1.188   3.734   7.750
  949MPD0    H4   76   1.137   3.681   7.821
  949MPD0    H5   77   1.120   3.804   7.722
  949MPD0    N1   78   1.288   3.674   7.288
  949MPD0    H6   79   1.370   3.650   7.233
  949MPD0    H7   80   1.280   3.775   7.284
  950MPD0     C   81   0.569   2.808  12.694
  950MPD0    C1   82   0.527   2.848  12.820
  950MPD0    C2   83   0.443   2.957  12.827
  950MPD0    C3   84   0.399   3.029  12.714
  950MPD0    C4   85   0.436   2.982  12.585
  950MPD0    C5   86   0.530   2.882  12.585
  950MPD0     H   87   0.403   2.987  12.924
  950MPD0    H1   88   0.412   3.043  12.499
  950MPD0    H2   89   0.630   2.720  12.681
  950MPD0    H3   90   0.568   2.864  12.485
  950MPD0     N   91   0.299   3.123  12.727
  950MPD0    H4   92   0.309   3.162  12.820
  950MPD0    H5   93   0.289   3.204  12.666
  950MPD0    N1   94   0.556   2.774  12.935
  950MPD0    H6   95   0.638   2.717  12.917
  950MPD0    H7   96   0.570   2.836  13.014
  951MPD0     C   97   2.734   1.831  12.610
  951MPD0    C1   98   2.729   1.746  12.723
  951MPD0    C2   99   2.690   1.804  12.843
  951MPD0    C3  100   2.654   1.938  12.840
  951MPD0    C4  101   2.650   2.017  12.729
  951MPD0    C5  102   2.688   1.956  12.613
  951MPD0     H  103   2.698   1.739  12.930
  951MPD0    H1  104   2.622   2.122  12.725
  951MPD0    H2  105   2.778   1.791  12.519
  951MPD0    H3  106   2.701   2.012  12.521
  951MPD0     N  107   2.636   1.998  12.960
  951MPD0    H4  108   2.578   2.082  12.955
  951MPD0    H5  109   2.600   1.936  13.032
  951MPD0    N1  110   2.799   1.626  12.716
  951MPD0    H6  111   2.792   1.572  12.631
  951MPD0    H7  112   2.772   1.563  12.792
  952MPD0     C  113   0.286   3.994   0.483
  952MPD0    C1  114   0.281   4.090   0.587
  952MPD0    C2  115   0.158   4.133   0.627
  952MPD0    C3  116   0.043   4.096   0.562
  952MPD0    C4  117   0.052   4.022   0.447
  952MPD0    C5  118   0.168   3.962   0.418
  952MPD0     H  119   0.142   4.205   0.706
  952MPD0    H1  120   4.756   4.000   0.381
  952MPD0    H2  121   0.374   3.939   0.451
  952MPD0    H3  122   0.166   3.904   0.326
  952MPD0     N  123   4.705   4.131   0.613
  952MPD0    H4  124   4.710   4.226   0.649
  952MPD0    H5  125   4.641   4.124   0.534
  952MPD0    N1  126   0.391   4.119   0.665
  952MPD0    H6  127   0.378   4.204   0.719
  952MPD0    H7  128   0.477   4.123   0.609
  953MPD0     C  129   0.999   3.606  11.788
  953MPD0    C1  130   0.877   3.589  11.845
  953MPD0    C2  131   0.870   3.533  11.972
  953MPD0    C3  132   0.977   3.491  12.045
  953MPD0    C4  133   1.102   3.519  11.989
  953MPD0    C5  134   1.105   3.566  11.859
  953MPD0     H  135   0.767   3.521  12.005
  953MPD0    H1  136   1.196   3.488  12.033
  953MPD0    H2  137   1.016   3.645  11.688
  953MPD0    H3  138   1.202   3.595  11.820
  953MPD0     N  139   0.964   3.434  12.174
  953MPD0    H4  140   1.039   3.370  12.197
  953MPD0    H5  141   0.877   3.382  12.190
  953MPD0    N1  142   0.768   3.652  11.796
  953MPD0    H6  143   0.676   3.612  11.817
  953MPD0    H7  144   0.778   3.676  11.698
  954MPD0     C  145   0.162   0.606  13.846
  954MPD0    C1  146   0.071   0.503  13.874
  954MPD0    C2  147   4.767   0.525  13.976
  954MPD0    C3  148   4.753   0.638  14.046
  954MPD0    C4  149   0.051   0.747  14.011
  954MPD0    C5  150   0.152   0.728  13.914
  954MPD0     H  151   4.688   0.451  13.983
  954MPD0    H1  152   0.041   0.843  14.060
  954MPD0    H2  153   0.245   0.595  13.777
  954MPD0    H3  154   0.227   0.806  13.900
  954MPD0     N  155   4.649   0.653  14.143
  954MPD0    H4  156   4.634   0.560  14.180
  954MPD0    H5  157   4.664   0.728  14.211
  954MPD0    N1  158   0.091   0.381  13.809
  954MPD0    H6  159   0.098   0.400  13.709
  954MPD0    H7  160   0.003   0.330  13.816
  955MPD0     C  161   2.784   2.379   7.933
  955MPD0    C1  162   2.787   2.334   8.060
  955MPD0    C2  163   2.666   2.315   8.125
  955MPD0    C3  164   2.547   2.338   8.063
  955MPD0    C4  165   2.553   2.401   7.942
  955MPD0    C5  166   2.670   2.411   7.867
  955MPD0     H  167   2.660   2.276   8.226
  955MPD0    H1  168   2.461   2.443   7.904
  955MPD0    H2  169   2.874   2.387   7.874
  955MPD0    H3  170   2.677   2.427   7.760
  955MPD0     N  171   2.427   2.367   8.134
  955MPD0    H4  172   2.411   2.303   8.211
  955MPD0    H5  173   2.347   2.378   8.072
  955MPD0    N1  174   2.900   2.334   8.139
  955MPD0    H6  175   2.977   2.317   8.075
  955MPD0    H7  176   2.906   2.259   8.208
  956MPD0     C  177   0.296   3.200   7.014
  956MPD0    C1  178   0.336   3.291   6.928
  956MPD0    C2  179   0.326   3.423   6.967
  956MPD0    C3  180   0.276   3.459   7.090
  956MPD0    C4  181   0.243   3.362   7.180
  956MPD0    C5  182   0.244   3.234   7.138
  956MPD0     H  183   0.369   3.498   6.902
  956MPD0    H1  184   0.197   3.390   7.274
  956MPD0    H2  185   0.292   3.095   6.989
  956MPD0    H3  186   0.198   3.163   7.205
  956MPD0     N  187   0.249   3.594   7.120
  956MPD0    H4  188   0.245   3.613   7.220
  956MPD0    H5  189   0.318   3.658   7.081
  956MPD0    N1  190   0.383   3.258   6.804
  956MPD0    H6  191   0.434   3.331   6.755
  956MPD0    H7  192   0.432   3.169   6.811
  957MPD0     C  193   2.862   4.104  11.427
  957MPD0    C1  194   2.955   4.068  11.523
  957MPD0    C2  195   2.908   4.034  11.644
  957MPD0    C3  196   2.777   4.035  11.679
  957MPD0    C4  197   2.689   4.044  11.576
  957MPD0    C5  198   2.729   4.077  11.449
  957MPD0     H  199   2.981   4.001  11.717
  957MPD0    H1  200   2.581   4.040  11.579
  957MPD0    H2  201   2.887   4.129  11.324
  957MPD0    H3  202   2.651   4.103  11.377
  957MPD0     N  203   2.744   3.989  11.806
  957MPD0    H4  204   2.806   4.030  11.875
  957MPD0    H5  205   2.653   4.026  11.836
  957MPD0    N1  206   3.086   4.108  11.511
  957MPD0    H6  207   3.126   4.091  11.418
  957MPD0    H7  208   3.151   4.062  11.575
    1TMC1    C1  209   4.596   3.901   8.388
    1TMC1    C2  210   4.676   3.960   8.481
    1TMC1    C3  211   4.668   4.093   8.501
    1TMC1    C4  212   4.506   3.972   8.313
    1TMC1    C5  213   4.491   4.099   8.344
    1TMC1    C6  214   4.573   4.162   8.430
    1TMC1     C  215   4.605   3.758   8.357
    1TMC1     O  216   4.514   3.700   8.302
    1TMC1     H  217   4.748   3.904   8.540
    1TMC1    H1  218   4.441   3.909   8.253
    1TMC1    H2  219   4.559   4.262   8.470
    1TMC1    C7  220   4.408   4.182   8.259
    1TMC1    C8  221   4.763   4.158   8.589
    1TMC1    O1  222   4.358   4.281   8.312
    1TMC1    O2  223   4.785   4.275   8.575
    1TMC1    O3  224   4.422   4.159   8.124
    1TMC1    H3  225   4.464   4.075   8.095
    1TMC1    O5  226   4.755   4.087   8.708
    1TMC1    H5  227   4.716   3.998   8.695
    2TMC1    C1  228   3.490   4.192   7.853
    2TMC1    C2  229   3.545   4.247   7.735
    2TMC1    C3  230   3.550   4.170   7.622
    2TMC1    C4  231   3.457   4.055   7.857
    2TMC1    C5  232   3.460   3.988   7.734
    2TMC1    C6  233   3.498   4.040   7.623
    2TMC1     C  234   3.557   4.234   7.980
    2TMC1     O  235   3.633   4.151   8.032
    2TMC1     H  236   3.584   4.348   7.739
    2TMC1    H1  237   3.421   4.010   7.949
    2TMC1    H2  238   3.469   3.993   7.530
    2TMC1    C7  239   3.440   3.847   7.747
    2TMC1    C8  240   3.544   4.247   7.504
    2TMC1    O1  241   3.525   3.770   7.706
    2TMC1    O2  242   3.444   4.314   7.480
    2TMC1    O3  243   3.309   3.829   7.741
    2TMC1    H3  244   3.260   3.911   7.763
    2TMC1    O5  245   3.607   4.180   7.407
    2TMC1    H5  246   3.691   4.144   7.441
    3TMC1    C1  247   0.047   0.998   9.292
    3TMC1    C2  248   4.756   1.066   9.376
    3TMC1    C3  249   0.027   1.111   9.495
    3TMC1    C4  250   0.175   0.971   9.318
    3TMC1    C5  251   0.230   1.013   9.438
    3TMC1    C6  252   0.155   1.079   9.528
    3TMC1     C  253   4.785   0.991   9.155
    3TMC1     O  254   0.070   1.023   9.062
    3TMC1     H  255   4.659   1.100   9.342
    3TMC1    H1  256   0.242   0.927   9.245
    3TMC1    H2  257   0.212   1.132   9.603
    3TMC1    C7  258   0.367   1.023   9.452
    3TMC1    C8  259   4.751   1.205   9.582
    3TMC1    O1  260   0.407   1.024   9.563
    3TMC1    O2  261   0.032   1.274   9.656
    3TMC1    O3  262   0.394   1.100   9.346
    3TMC1    H3  263   0.335   1.076   9.272
    3TMC1    O5  264   4.650   1.134   9.623
    3TMC1    H5  265   4.597   1.097   9.550
    4TMC1    C1  266   1.940   0.237  10.092
    4TMC1    C2  267   1.954   0.236   9.955
    4TMC1    C3  268   1.897   0.133   9.886
    4TMC1    C4  269   1.856   0.151  10.156
    4TMC1    C5  270   1.790   0.058  10.076
    4TMC1    C6  271   1.818   0.036   9.943
    4TMC1     C  272   2.011   0.344  10.168
    4TMC1     O  273   2.061   0.433  10.096
    4TMC1     H  274   2.011   0.307   9.897
    4TMC1    H1  275   1.840   0.162  10.263
    4TMC1    H2  276   1.760   4.748   9.890
    4TMC1    C7  277   1.714   4.742  10.146
    4TMC1    C8  278   1.856   0.177   9.752
    4TMC1    O1  279   1.691   4.628  10.108
    4TMC1    O2  280   1.870   0.287   9.705
    4TMC1    O3  281   1.651   0.021  10.246
    4TMC1    H3  282   1.655   0.118  10.242
    4TMC1    O5  283   1.817   0.064   9.679
    4TMC1    H5  284   1.810   4.764   9.725
    5TMC1    C1  285   0.325   4.383   8.091
    5TMC1    C2  286   0.378   4.440   7.986
    5TMC1    C3  287   0.313   4.434   7.866
    5TMC1    C4  288   0.193   4.333   8.090
    5TMC1    C5  289   0.128   4.322   7.973
    5TMC1    C6  290   0.190   4.373   7.862
    5TMC1     C  291   0.395   4.408   8.219
    5TMC1     O  292   0.462   4.511   8.239
    5TMC1     H  293   0.476   4.483   7.999
    5TMC1    H1  294   0.148   4.293   8.180
    5TMC1    H2  295   0.137   4.373   7.767
    5TMC1    C7  296   4.772   4.349   7.958
    5TMC1    C8  297   0.331   4.542   7.775
    5TMC1    O1  298   4.721   4.429   7.881
    5TMC1    O2  299   0.238   4.598   7.720
    5TMC1    O3  300   4.713   4.293   8.070
    5TMC1    H3  301   4.771   4.221   8.102
    5TMC1    O5  302   0.464   4.567   7.752
    5TMC1    H5  303   0.522   4.515   7.810
    6TMC1    C1  304   0.694   3.737  10.964
    6TMC1    C2  305   0.750   3.827  11.044
    6TMC1    C3  306   0.867   3.882  11.012
    6TMC1    C4  307   0.756   3.687  10.853
    6TMC1    C5  308   0.882   3.736  10.828
    6TMC1    C6  309   0.940   3.827  10.913
    6TMC1     C  310   0.549   3.711  10.993
    6TMC1     O  311   0.484   3.794  11.049
    6TMC1     H  312   0.689   3.880  11.117
    6TMC1    H1  313   0.716   3.619  10.779
    6TMC1    H2  314   1.043   3.861  10.900
    6TMC1    C7  315   0.942   3.671  10.710
    6TMC1    C8  316   0.939   3.948  11.115
    6TMC1    O1  317   0.877   3.605  10.631
    6TMC1    O2  318   1.039   4.008  11.089
    6TMC1    O3  319   1.036   3.754  10.670
    6TMC1    H3  320   1.084   3.815  10.730
    6TMC1    O5  321   0.911   3.890  11.236
    6TMC1    H5  322   0.823   3.846  11.238
    7TMC1    C1  323   0.139   4.068   7.624
    7TMC1    C2  324   0.202   4.024   7.736
    7TMC1    C3  325   0.305   3.941   7.724
    7TMC1    C4  326   0.178   4.020   7.501
    7TMC1    C5  327   0.287   3.934   7.498
    7TMC1    C6  328   0.353   3.890   7.605
    7TMC1     C  329   0.008   4.133   7.633
    7TMC1     O  330   4.741   4.104   7.742
    7TMC1     H  331   0.186   4.080   7.827
    7TMC1    H1  332   0.127   4.046   7.409
    7TMC1    H2  333   0.453   3.851   7.589
    7TMC1    C7  334   0.335   3.898   7.374
    7TMC1    C8  335   0.412   3.962   7.824
    7TMC1    O1  336   0.410   3.970   7.306
    7TMC1    O2  337   0.411   4.057   7.904
    7TMC1    O3  338   0.345   3.768   7.384
    7TMC1    H3  339   0.278   3.733   7.446
    7TMC1    O5  340   0.475   3.847   7.844
    7TMC1    H5  341   0.445   3.776   7.783
    8TMC1    C1  342   1.365   2.147  15.221
    8TMC1    C2  343   1.457   2.115  15.314
    8TMC1    C3  344   1.417   2.135  15.444
    8TMC1    C4  345   1.237   2.199  15.248
    8TMC1    C5  346   1.211   2.214  15.379
    8TMC1    C6  347   1.296   2.177  15.484
    8TMC1     C  348   1.380   2.087  15.090
    8TMC1     O  349   1.496   2.075  15.054
    8TMC1     H  350   1.550   2.065  15.290
    8TMC1    H1  351   1.165   2.236  15.176
    8TMC1    H2  352   1.270   2.178  15.589
    8TMC1    C7  353   1.077   2.254  15.419
    8TMC1    C8  354   1.515   2.119  15.552
    8TMC1    O1  355   0.999   2.318  15.354
    8TMC1    O2  356   1.482   2.070  15.660
    8TMC1    O3  357   1.036   2.153  15.502
    8TMC1    H3  358   1.102   2.082  15.516
    8TMC1    O5  359   1.636   2.119  15.500
    8TMC1    H5  360   1.637   2.170  15.416
    9TMC1    C1  361   0.249   3.220   8.006
    9TMC1    C2  362   0.115   3.193   7.974
    9TMC1    C3  363   0.064   3.060   7.979
    9TMC1    C4  364   0.334   3.114   8.025
    9TMC1    C5  365   0.288   2.988   8.025
    9TMC1    C6  366   0.151   2.956   8.011
    9TMC1     C  367   0.289   3.349   8.030
    9TMC1     O  368   0.197   3.429   8.052
    9TMC1     H  369   0.046   3.273   7.950
    9TMC1    H1  370   0.426   3.140   8.076
    9TMC1    H2  371   0.125   2.852   7.997
    9TMC1    C7  372   0.386   2.886   8.054
    9TMC1    C8  373   4.719   3.032   7.916
    9TMC1    O1  374   0.487   2.878   7.986
    9TMC1    O2  375   4.639   3.122   7.894
    9TMC1    O3  376   0.317   2.783   8.115
    9TMC1    H3  377   0.241   2.824   8.160
    9TMC1    O5  378   4.760   2.940   7.835
    9TMC1    H5  379   0.068   2.918   7.839
   10TMC2    C1  380   1.656   3.552  11.268
   10TMC2    C2  381   1.752   3.578  11.179
   10TMC2    C3  382   1.725   3.524  11.056
   10TMC2    C4  383   1.548   3.466  11.252
   10TMC2    C5  384   1.532   3.414  11.127
   10TMC2    C6  385   1.622   3.436  11.024
   10TMC2     C  386   1.687   3.589  11.397
   10TMC2     O  387   1.763   3.685  11.413
   10TMC2     H  388   1.840   3.638  11.203
   10TMC2    H1  389   1.479   3.451  11.335
   10TMC2    H2  390   1.605   3.393  10.927
   10TMC2    C7  391   1.442   3.308  11.112
   10TMC2    C8  392   1.834   3.505  10.965
   10TMC2    O1  393   1.473   3.212  11.043
   10TMC2    O2  394   1.830   3.435  10.861
   10TMC2    O5  395   1.948   3.548  11.015
   10TMC2    H5  396   1.952   3.631  11.066
   11TMC2    C1  397   3.693   3.464  10.619
   11TMC2    C2  398   3.805   3.391  10.609
   11TMC2    C3  399   3.849   3.333  10.718
   11TMC2    C4  400   3.624   3.481  10.733
   11TMC2    C5  401   3.671   3.410  10.845
   11TMC2    C6  402   3.780   3.329  10.835
   11TMC2     C  403   3.669   3.547  10.501
   11TMC2     O  404   3.671   3.485  10.397
   11TMC2     H  405   3.849   3.385  10.510
   11TMC2    H1  406   3.525   3.525  10.740
   11TMC2    H2  407   3.833   3.284  10.919
   11TMC2    C7  408   3.652   3.478  10.979
   11TMC2    C8  409   3.984   3.288  10.717
   11TMC2    O1  410   3.697   3.428  11.082
   11TMC2    O2  411   4.044   3.264  10.817
   11TMC2    O5  412   4.007   3.235  10.596
   11TMC2    H5  413   3.936   3.245  10.529
   12TMC2    C1  414   4.573   0.064  10.703
   12TMC2    C2  415   4.620   0.096  10.576
   12TMC2    C3  416   4.533   0.082  10.469
   12TMC2    C4  417   4.446   0.018  10.724
   12TMC2    C5  418   4.370   0.000  10.613
   12TMC2    C6  419   4.409   0.027  10.488
   12TMC2     C  420   4.672   0.061  10.809
   12TMC2     O  421   4.624   0.079  10.920
   12TMC2     H  422   4.711   0.152  10.561
   12TMC2    H1  423   4.414   4.768  10.821
   12TMC2    H2  424   4.344   4.786  10.406
   12TMC2    C7  425   4.254   4.702  10.636
   12TMC2    C8  426   4.564   0.147  10.350
   12TMC2    O1  427   4.269   4.618  10.724
   12TMC2    O2  428   4.674   0.196  10.328
   12TMC2    O5  429   4.451   0.185  10.283
   12TMC2    H5  430   4.374   0.173  10.342
   13TMC2    C1  431   4.279   2.562   8.824
   13TMC2    C2  432   4.343   2.470   8.899
   13TMC2    C3  433   4.376   2.503   9.026
   13TMC2    C4  434   4.245   2.684   8.870
   13TMC2    C5  435   4.257   2.705   9.002
   13TMC2    C6  436   4.338   2.622   9.080
   13TMC2     C  437   4.264   2.539   8.681
   13TMC2     O  438   4.271   2.639   8.609
   13TMC2     H  439   4.372   2.372   8.862
   13TMC2    H1  440   4.191   2.747   8.799
   13TMC2    H2  441   4.354   2.645   9.185
   13TMC2    C7  442   4.134   2.737   9.084
   13TMC2    C8  443   4.411   2.389   9.117
   13TMC2    O1  444   4.133   2.698   9.200
   13TMC2    O2  445   4.412   2.272   9.077
   13TMC2    O5  446   4.328   2.417   9.214
   13TMC2    H5  447   4.359   2.502   9.251
   14TMC2    C1  448   2.541   0.201   9.080
   14TMC2    C2  449   2.661   0.229   9.143
   14TMC2    C3  450   2.772   0.263   9.076
   14TMC2    C4  451   2.534   0.224   8.945
   14TMC2    C5  452   2.653   0.261   8.883
   14TMC2    C6  453   2.769   0.289   8.939
   14TMC2     C  454   2.424   0.175   9.150
   14TMC2     O  455   2.321   0.164   9.080
   14TMC2     H  456   2.681   0.200   9.245
   14TMC2    H1  457   2.445   0.223   8.884
   14TMC2    H2  458   2.851   0.323   8.877
   14TMC2    C7  459   2.638   0.266   8.741
   14TMC2    C8  460   2.900   0.257   9.133
   14TMC2    O1  461   2.576   0.364   8.708
   14TMC2    O2  462   2.924   0.183   9.228
   14TMC2    O5  463   2.947   0.375   9.093
   14TMC2    H5  464   2.881   0.443   9.071
   15TMC2    C1  465   2.058   2.255  10.734
   15TMC2    C2  466   2.003   2.245  10.860
   15TMC2    C3  467   2.039   2.332  10.959
   15TMC2    C4  468   2.144   2.362  10.707
   15TMC2    C5  469   2.182   2.443  10.811
   15TMC2    C6  470   2.126   2.435  10.937
   15TMC2     C  471   2.035   2.143  10.650
   15TMC2     O  472   1.973   2.046  10.692
   15TMC2     H  473   1.960   2.148  10.882
   15TMC2    H1  474   2.198   2.368  10.613
   15TMC2    H2  475   2.134   2.507  11.017
   15TMC2    C7  476   2.275   2.547  10.776
   15TMC2    C8  477   2.020   2.282  11.091
   15TMC2    O1  478   2.315   2.543  10.661
   15TMC2    O2  479   1.945   2.190  11.116
   15TMC2    O5  480   2.129   2.315  11.160
   15TMC2    H5  481   2.183   2.393  11.134
   16TMC2    C1  482   0.050   0.639  11.581
   16TMC2    C2  483   4.708   0.670  11.594
   16TMC2    C3  484   4.647   0.685  11.718
   16TMC2    C4  485   0.126   0.636  11.698
   16TMC2    C5  486   0.067   0.655  11.822
   16TMC2    C6  487   4.717   0.669  11.836
   16TMC2     C  488   0.114   0.667  11.454
   16TMC2     O  489   0.038   0.700  11.366
   16TMC2     H  490   4.640   0.674  11.509
   16TMC2    H1  491   0.233   0.625  11.697
   16TMC2    H2  492   4.678   0.673  11.937
   16TMC2    C7  493   0.154   0.619  11.937
   16TMC2    C8  494   4.508   0.724  11.726
   16TMC2    O1  495   0.229   0.528  11.933
   16TMC2    O2  496   4.432   0.686  11.812
   16TMC2    O5  497   4.500   0.851  11.677
   16TMC2    H5  498   4.577   0.871  11.619
   17TMC2    C1  499   4.695   3.663   7.495
   17TMC2    C2  500   4.600   3.696   7.583
   17TMC2    C3  501   4.530   3.810   7.554
   17TMC2    C4  502   4.715   3.739   7.383
   17TMC2    C5  503   4.645   3.848   7.359
   17TMC2    C6  504   4.554   3.891   7.448
   17TMC2     C  505   0.034   3.603   7.536
   17TMC2     O  506   0.134   3.662   7.492
   17TMC2     H  507   4.579   3.631   7.667
   17TMC2    H1  508   0.009   3.707   7.318
   17TMC2    H2  509   4.505   3.987   7.436
   17TMC2    C7  510   4.687   3.944   7.256
   17TMC2    C8  511   4.441   3.840   7.660
   17TMC2    O1  512   0.016   3.925   7.221
   17TMC2    O2  513   4.442   3.799   7.777
   17TMC2    O5  514   4.349   3.920   7.605
   17TMC2    H5  515   4.333   3.917   7.509
   18TMC2    C1  516   1.132   0.088   8.361
   18TMC2    C2  517   1.036   0.106   8.270
   18TMC2    C3  518   0.957   4.782   8.239
   18TMC2    C4  519   1.152   4.752   8.427
   18TMC2    C5  520   1.059   4.656   8.403
   18TMC2    C6  521   0.959   4.662   8.307
   18TMC2     C  522   1.254   0.161   8.322
   18TMC2     O  523   1.244   0.261   8.256
   18TMC2     H  524   1.014   0.204   8.227
   18TMC2    H1  525   1.230   4.736   8.500
   18TMC2    H2  526   0.877   4.592   8.298
   18TMC2    C7  527   1.062   4.548   8.494
   18TMC2    C8  528   0.852   4.784   8.132
   18TMC2    O1  529   1.011   4.442   8.454
   18TMC2    O2  530   0.757   4.701   8.117
   18TMC2    O5  531   0.911   0.059   8.026
   18TMC2    H5  532   0.980   0.128   8.035
   19TMC2    C1  533   4.150   4.733   8.771
   19TMC2    C2  534   4.060   0.041   8.751
   19TMC2    C3  535   4.080   0.135   8.655
   19TMC2    C4  536   4.262   4.723   8.694
   19TMC2    C5  537   4.280   0.037   8.601
   19TMC2    C6  538   4.192   0.143   8.584
   19TMC2     C  539   4.103   4.612   8.839
   19TMC2     O  540   4.003   4.563   8.783
   19TMC2     H  541   3.961   0.042   8.797
   19TMC2    H1  542   4.339   4.649   8.712
   19TMC2    H2  543   4.216   0.222   8.514
   19TMC2    C7  544   4.407   0.042   8.527
   19TMC2    C8  545   3.965   0.214   8.608
   19TMC2    O1  546   4.439   0.162   8.516
   19TMC2    O2  547   3.973   0.260   8.497
   19TMC2    O5  548   3.940   0.280   8.726
   19TMC2    H5  549   4.004   0.272   8.800
   20TMC2    C1  550   1.635   1.782  15.394
   20TMC2    C2  551   1.578   1.752  15.510
   20TMC2    C3  552   1.655   1.738  15.618
   20TMC2    C4  553   1.773   1.787  15.376
   20TMC2    C5  554   1.842   1.781  15.492
   20TMC2    C6  555   1.788   1.756  15.615
   20TMC2     C  556   1.546   1.751  15.282
   20TMC2     O  557   1.425   1.772  15.300
   20TMC2     H  558   1.472   1.747  15.533
   20TMC2    H1  559   1.806   1.810  15.275
   20TMC2    H2  560   1.849   1.738  15.703
   20TMC2    C7  561   1.976   1.739  15.474
   20TMC2    C8  562   1.579   1.726  15.744
   20TMC2    O1  563   2.023   1.656  15.546
   20TMC2    O2  564   1.614   1.785  15.847
   20TMC2    O5  565   1.478   1.632  15.727
   20TMC2    H5  566   1.495   1.581  15.645
   21TMC2    C1  567   1.323   0.468  10.397
   21TMC2    C2  568   1.322   0.527  10.521
   21TMC2    C3  569   1.375   0.651  10.538
   21TMC2    C4  570   1.374   0.531  10.292
   21TMC2    C5  571   1.404   0.663  10.309
   21TMC2    C6  572   1.403   0.728  10.425
   21TMC2     C  573   1.253   0.343  10.370
   21TMC2     O  574   1.290   0.281  10.267
   21TMC2     H  575   1.300   0.465  10.607
   21TMC2    H1  576   1.382   0.475  10.200
   21TMC2    H2  577   1.434   0.831  10.429
   21TMC2    C7  578   1.465   0.739  10.202
   21TMC2    C8  579   1.462   0.676  10.652
   21TMC2    O1  580   1.571   0.795  10.236
   21TMC2    O2  581   1.478   0.572  10.716
   21TMC2    O5  582   1.565   0.739  10.601
   21TMC2    H5  583   1.545   0.812  10.539
   22TMC2    C1  584   1.879   3.188  14.566
   22TMC2    C2  585   1.780   3.283  14.572
   22TMC2    C3  586   1.760   3.341  14.694
   22TMC2    C4  587   1.947   3.148  14.677
   22TMC2    C5  588   1.903   3.189  14.804
   22TMC2    C6  589   1.819   3.297  14.815
   22TMC2     C  590   1.932   3.146  14.438
   22TMC2     O  591   2.041   3.097  14.441
   22TMC2     H  592   1.727   3.307  14.481
   22TMC2    H1  593   2.020   3.068  14.672
   22TMC2    H2  594   1.767   3.320  14.907
   22TMC2    C7  595   1.953   3.128  14.924
   22TMC2    C8  596   1.640   3.420  14.701
   22TMC2    O1  597   1.910   3.163  15.036
   22TMC2    O2  598   1.641   3.522  14.773
   22TMC2    O5  599   1.529   3.340  14.685
   22TMC2    H5  600   1.544   3.243  14.676
   23TMC2    C1  601   3.692   0.520   6.458
   23TMC2    C2  602   3.803   0.504   6.376
   23TMC2    C3  603   3.922   0.520   6.447
   23TMC2    C4  604   3.697   0.559   6.587
   23TMC2    C5  605   3.817   0.596   6.633
   23TMC2    C6  606   3.935   0.568   6.570
   23TMC2     C  607   3.562   0.507   6.388
   23TMC2     O  608   3.576   0.456   6.277
   23TMC2     H  609   3.796   0.448   6.284
   23TMC2    H1  610   3.606   0.588   6.638
   23TMC2    H2  611   4.032   0.597   6.607
   23TMC2    C7  612   3.830   0.616   6.779
   23TMC2    C8  613   4.051   0.480   6.392
   23TMC2    O1  614   3.747   0.684   6.834
   23TMC2    O2  615   4.143   0.454   6.464
   23TMC2    O5  616   4.051   0.572   6.289
   23TMC2    H5  617   3.960   0.594   6.260
   24TMC2    C1  618   4.462   1.110   6.879
   24TMC2    C2  619   4.491   0.980   6.928
   24TMC2    C3  620   4.403   0.938   7.026
   24TMC2    C4  621   4.367   1.199   6.922
   24TMC2    C5  622   4.277   1.149   7.012
   24TMC2    C6  623   4.297   1.021   7.066
   24TMC2     C  624   4.580   1.174   6.816
   24TMC2     O  625   4.567   1.292   6.788
   24TMC2     H  626   4.572   0.914   6.902
   24TMC2    H1  627   4.354   1.297   6.877
   24TMC2    H2  628   4.228   0.985   7.142
   24TMC2    C7  629   4.166   1.232   7.063
   24TMC2    C8  630   4.415   0.800   7.072
   24TMC2    O1  631   4.071   1.177   7.119
   24TMC2    O2  632   4.502   0.723   7.027
   24TMC2    O5  633   4.408   0.817   7.206
   24TMC2    H5  634   4.345   0.885   7.239
   25TMC2    C1  635   4.212   3.207   7.829
   25TMC2    C2  636   4.137   3.259   7.937
   25TMC2    C3  637   4.101   3.393   7.928
   25TMC2    C4  638   4.247   3.284   7.720
   25TMC2    C5  639   4.199   3.414   7.715
   25TMC2    C6  640   4.123   3.470   7.814
   25TMC2     C  641   4.261   3.072   7.837
   25TMC2     O  642   4.353   3.039   7.763
   25TMC2     H  643   4.127   3.208   8.033
   25TMC2    H1  644   4.278   3.224   7.636
   25TMC2    H2  645   4.065   3.561   7.812
   25TMC2    C7  646   4.240   3.500   7.614
   25TMC2    C8  647   4.014   3.442   8.033
   25TMC2    O1  648   4.211   3.617   7.622
   25TMC2    O2  649   3.972   3.367   8.117
   25TMC2    O5  650   4.029   3.576   8.046
   25TMC2    H5  651   4.104   3.615   7.996
   26TMC2    C1  652   3.746   1.873  14.677
   26TMC2    C2  653   3.711   1.945  14.785
   26TMC2    C3  654   3.633   2.058  14.763
   26TMC2    C4  655   3.701   1.902  14.550
   26TMC2    C5  656   3.627   2.018  14.532
   26TMC2    C6  657   3.594   2.101  14.636
   26TMC2     C  658   3.834   1.765  14.694
   26TMC2     O  659   3.857   1.716  14.805
   26TMC2     H  660   3.750   1.917  14.882
   26TMC2    H1  661   3.706   1.831  14.468
   26TMC2    H2  662   3.542   2.196  14.634
   26TMC2    C7  663   3.600   2.069  14.404
   26TMC2    C8  664   3.563   2.111  14.886
   26TMC2    O1  665   3.493   2.128  14.399
   26TMC2    O2  666   3.473   2.194  14.890
   26TMC2    O5  667   3.623   2.066  15.001
   26TMC2    H5  668   3.718   2.056  14.979
   27TMC2    C1  669   0.307   0.202   8.558
   27TMC2    C2  670   0.413   0.177   8.650
   27TMC2    C3  671   0.443   0.279   8.729
   27TMC2    C4  672   0.243   0.322   8.535
   27TMC2    C5  673   0.278   0.418   8.627
   27TMC2    C6  674   0.373   0.399   8.722
   27TMC2     C  675   0.262   0.085   8.489
   27TMC2     O  676   0.328   4.772   8.507
   27TMC2     H  677   0.481   0.093   8.639
   27TMC2    H1  678   0.173   0.334   8.454
   27TMC2    H2  679   0.400   0.471   8.799
   27TMC2    C7  680   0.247   0.556   8.595
   27TMC2    C8  681   0.520   0.259   8.851
   27TMC2    O1  682   0.255   0.594   8.478
   27TMC2    O2  683   0.509   0.155   8.912
   27TMC2    O5  684   0.635   0.316   8.824
   27TMC2    H5  685   0.616   0.410   8.804
   28TMC2    C1  686   0.724   2.883  13.594
   28TMC2    C2  687   0.712   2.966  13.488
   28TMC2    C3  688   0.631   2.931  13.387
   28TMC2    C4  689   0.650   2.756  13.593
   28TMC2    C5  690   0.575   2.728  13.483
   28TMC2    C6  691   0.568   2.813  13.377
   28TMC2     C  692   0.853   2.890  13.664
   28TMC2     O  693   0.942   2.943  13.594
   28TMC2     H  694   0.779   3.051  13.484
   28TMC2    H1  695   0.676   2.679  13.665
   28TMC2    H2  696   0.503   2.790  13.293
   28TMC2    C7  697   0.448   2.662  13.512
   28TMC2    C8  698   0.656   2.996  13.257
   28TMC2    O1  699   0.377   2.633  13.418
   28TMC2    O2  700   0.647   2.931  13.155
   28TMC2    O5  701   0.630   3.123  13.265
   28TMC2    H5  702   0.612   3.157  13.355
   29TMC2    C1  703   4.577   3.529  10.283
   29TMC2    C2  704   4.604   3.415  10.342
   29TMC2    C3  705   4.734   3.383  10.361
   29TMC2    C4  706   4.672   3.618  10.240
   29TMC2    C5  707   0.014   3.579  10.266
   29TMC2    C6  708   0.046   3.462  10.321
   29TMC2     C  709   4.447   3.546  10.230
   29TMC2     O  710   4.427   3.666  10.208
   29TMC2     H  711   4.539   3.351  10.400
   29TMC2    H1  712   4.649   3.717  10.203
   29TMC2    H2  713   0.147   3.423  10.334
   29TMC2    C7  714   0.114   3.658  10.203
   29TMC2    C8  715   4.764   3.260  10.439
   29TMC2    O1  716   0.083   3.778  10.188
   29TMC2    O2  717   0.043   3.262  10.539
   29TMC2    O5  718   4.685   3.157  10.401
   29TMC2    H5  719   4.618   3.177  10.333
   30TMC2    C1  720   1.897   4.337   9.667
   30TMC2    C2  721   1.916   4.216   9.733
   30TMC2    C3  722   1.812   4.125   9.717
   30TMC2    C4  723   1.790   4.353   9.586
   30TMC2    C5  724   1.709   4.245   9.560
   30TMC2    C6  725   1.707   4.125   9.630
   30TMC2     C  726   1.964   4.464   9.716
   30TMC2     O  727   1.909   4.574   9.716
   30TMC2     H  728   2.010   4.206   9.786
   30TMC2    H1  729   1.787   4.440   9.522
   30TMC2    H2  730   1.647   4.039   9.602
   30TMC2    C7  731   1.641   4.240   9.433
   30TMC2    C8  732   1.828   3.989   9.770
   30TMC2    O1  733   1.537   4.180   9.432
   30TMC2    O2  734   1.819   3.900   9.689
   30TMC2    O5  735   1.917   3.996   9.869
   30TMC2    H5  736   1.902   4.071   9.930
   31TMC2    C1  737   1.236   0.374  10.900
   31TMC2    C2  738   1.220   0.238  10.905
   31TMC2    C3  739   1.300   0.165  10.984
   31TMC2    C4  740   1.336   0.426  10.968
   31TMC2    C5  741   1.416   0.349  11.055
   31TMC2    C6  742   1.401   0.220  11.061
   31TMC2     C  743   1.124   0.460  10.859
   31TMC2     O  744   1.056   0.415  10.768
   31TMC2     H  745   1.134   0.194  10.855
   31TMC2    H1  746   1.362   0.531  10.958
   31TMC2    H2  747   1.449   0.154  11.133
   31TMC2    C7  748   1.426   0.420  11.180
   31TMC2    C8  749   1.247   0.044  11.029
   31TMC2    O1  750   1.372   0.531  11.179
   31TMC2    O2  751   1.303   4.763  11.117
   31TMC2    O5  752   1.123   0.021  10.987
   31TMC2    H5  753   1.085   4.719  11.000
   32TMC2    C1  754   0.830   1.323   7.579
   32TMC2    C2  755   0.762   1.310   7.701
   32TMC2    C3  756   0.658   1.394   7.718
   32TMC2    C4  757   0.772   1.388   7.477
   32TMC2    C5  758   0.657   1.457   7.496
   32TMC2    C6  759   0.600   1.466   7.617
   32TMC2     C  760   0.923   1.222   7.539
   32TMC2     O  761   1.000   1.243   7.445
   32TMC2     H  762   0.809   1.251   7.779
   32TMC2    H1  763   0.821   1.385   7.380
   32TMC2    H2  764   0.502   1.507   7.637
   32TMC2    C7  765   0.560   1.452   7.389
   32TMC2    C8  766   0.587   1.393   7.842
   32TMC2    O1  767   0.471   1.538   7.392
   32TMC2    O2  768   0.474   1.435   7.864
   32TMC2    O5  769   0.682   1.395   7.932
   32TMC2    H5  770   0.770   1.422   7.898
   33TMC2    C1  771   1.428   0.369  11.896
   33TMC2    C2  772   1.324   0.343  11.975
   33TMC2    C3  773   1.267   0.450  12.028
   33TMC2    C4  774   1.478   0.497  11.874
   33TMC2    C5  775   1.412   0.604  11.926
   33TMC2    C6  776   1.307   0.583  12.008
   33TMC2     C  777   1.450   0.258  11.797
   33TMC2     O  778   1.352   0.186  11.776
   33TMC2     H  779   1.280   0.247  12.001
   33TMC2    H1  780   1.550   0.507  11.794
   33TMC2    H2  781   1.248   0.659  12.059
   33TMC2    C7  782   1.473   0.741  11.922
   33TMC2    C8  783   1.165   0.437  12.132
   33TMC2    O1  784   1.403   0.839  11.946
   33TMC2    O2  785   1.098   0.334  12.143
   33TMC2    O5  786   1.168   0.533  12.227
   33TMC2    H5  787   1.246   0.592  12.216
   34TMC2    C1  788   2.101   3.860  10.386
   34TMC2    C2  789   2.038   3.808  10.498
   34TMC2    C3  790   2.096   3.828  10.617
   34TMC2    C4  791   2.206   3.943  10.390
   34TMC2    C5  792   2.256   3.970  10.512
   34TMC2    C6  793   2.201   3.918  10.627
   34TMC2     C  794   2.037   3.825  10.260
   34TMC2     O  795   2.115   3.798  10.169
   34TMC2     H  796   1.945   3.753  10.495
   34TMC2    H1  797   2.243   3.988  10.299
   34TMC2    H2  798   2.241   3.936  10.726
   34TMC2    C7  799   2.378   4.047  10.514
   34TMC2    C8  800   2.015   3.800  10.735
   34TMC2    O1  801   2.435   4.065  10.409
   34TMC2    O2  802   1.924   3.720  10.728
   34TMC2    O5  803   1.992   3.928  10.768
   34TMC2    H5  804   2.059   3.949  10.837
   35TMC2    C1  805   0.140   0.317   9.400
   35TMC2    C2  806   0.151   0.186   9.358
   35TMC2    C3  807   0.221   0.154   9.242
   35TMC2    C4  808   0.206   0.416   9.341
   35TMC2    C5  809   0.284   0.378   9.229
   35TMC2    C6  810   0.298   0.248   9.187
   35TMC2     C  811   0.055   0.345   9.513
   35TMC2     O  812   4.747   0.276   9.535
   35TMC2     H  813   0.101   0.106   9.412
   35TMC2    H1  814   0.181   0.519   9.364
   35TMC2    H2  815   0.354   0.221   9.098
   35TMC2    C7  816   0.351   0.478   9.151
   35TMC2    C8  817   0.206   0.021   9.189
   35TMC2    O1  818   0.367   0.460   9.031
   35TMC2    O2  819   0.309   4.751   9.159
   35TMC2    O5  820   0.091   4.748   9.235
   35TMC2    H5  821   0.023   0.032   9.236
   36TMC2    C1  822   0.704   0.985  15.220
   36TMC2    C2  823   0.685   0.852  15.187
   36TMC2    C3  824   0.551   0.816  15.193
   36TMC2    C4  825   0.604   1.078  15.242
   36TMC2    C5  826   0.475   1.031  15.246
   36TMC2    C6  827   0.447   0.904  15.236
   36TMC2     C  828   0.847   1.033  15.226
   36TMC2     O  829   0.882   1.119  15.302
   36TMC2     H  830   0.766   0.783  15.165
   36TMC2    H1  831   0.621   1.179  15.278
   36TMC2    H2  832   0.356   0.862  15.276
   36TMC2    C7  833   0.366   1.129  15.248
   36TMC2    C8  834   0.533   0.671  15.187
   36TMC2    O1  835   0.392   1.234  15.304
   36TMC2    O2  836   0.628   0.590  15.171
   36TMC2    O5  837   0.412   0.644  15.144
   36TMC2    H5  838   0.360   0.726  15.131
   37TMC2    C1  839   1.593   2.878  10.826
   37TMC2    C2  840   1.567   2.929  10.950
   37TMC2    C3  841   1.650   2.885  11.048
   37TMC2    C4  842   1.699   2.790  10.797
   37TMC2    C5  843   1.788   2.760  10.898
   37TMC2    C6  844   1.754   2.796  11.026
   37TMC2     C  845   1.586   2.977  10.718
   37TMC2     O  846   1.678   2.972  10.637
   37TMC2     H  847   1.492   3.006  10.960
   37TMC2    H1  848   1.720   2.761  10.695
   37TMC2    H2  849   1.826   2.776  11.105
   37TMC2    C7  850   1.927   2.782  10.862
   37TMC2    C8  851   1.628   2.920  11.190
   37TMC2    O1  852   2.011   2.755  10.948
   37TMC2    O2  853   1.712   2.886  11.274
   37TMC2    O5  854   1.543   3.021  11.197
   37TMC2    H5  855   1.509   3.057  11.113
   38TMC2    C1  856   1.502   4.075  10.175
   38TMC2    C2  857   1.602   4.122  10.090
   38TMC2    C3  858   1.638   4.251  10.106
   38TMC2    C4  859   1.441   4.144  10.274
   38TMC2    C5  860   1.491   4.270  10.289
   38TMC2    C6  861   1.585   4.327  10.207
   38TMC2     C  862   1.419   3.965  10.129
   38TMC2     O  863   1.299   3.981  10.149
   38TMC2     H  864   1.631   4.071   9.999
   38TMC2    H1  865   1.358   4.110  10.335
   38TMC2    H2  866   1.635   4.419  10.234
   38TMC2    C7  867   1.429   4.348  10.391
   38TMC2    C8  868   1.774   4.258  10.069
   38TMC2    O1  869   1.418   4.289  10.498
   38TMC2    O2  870   1.847   4.162  10.053
   38TMC2    O5  871   1.809   4.390  10.053
   38TMC2    H5  872   1.739   4.459  10.049
   39TMC2    C1  873   0.782   4.560   8.730
   39TMC2    C2  874   0.774   4.453   8.643
   39TMC2    C3  875   0.786   4.332   8.703
   39TMC2    C4  876   0.791   4.538   8.863
   39TMC2    C5  877   0.810   4.412   8.923
   39TMC2    C6  878   0.805   4.306   8.835
   39TMC2     C  879   0.789   4.698   8.676
   39TMC2     O  880   0.849   0.003   8.732
   39TMC2     H  881   0.761   4.469   8.537
   39TMC2    H1  882   0.777   4.624   8.928
   39TMC2    H2  883   0.779   4.204   8.864
   39TMC2    C7  884   0.815   4.392   9.064
   39TMC2    C8  885   0.774   4.214   8.619
   39TMC2    O1  886   0.751   4.297   9.100
   39TMC2    O2  887   0.726   4.104   8.644
   39TMC2    O5  888   0.857   4.232   8.511
   39TMC2    H5  889   0.904   4.319   8.508
   40TMC2    C1  890   0.792   0.621  14.865
   40TMC2    C2  891   0.722   0.512  14.902
   40TMC2    C3  892   0.789   0.391  14.910
   40TMC2    C4  893   0.922   0.602  14.822
   40TMC2    C5  894   0.975   0.475  14.826
   40TMC2    C6  895   0.914   0.363  14.876
   40TMC2     C  896   0.731   0.748  14.858
   40TMC2     O  897   0.790   0.839  14.918
   40TMC2     H  898   0.618   0.529  14.927
   40TMC2    H1  899   0.975   0.695  14.804
   40TMC2    H2  900   0.959   0.266  14.892
   40TMC2    C7  901   1.110   0.462  14.797
   40TMC2    C8  902   0.712   0.284  14.964
   40TMC2    O1  903   1.173   0.567  14.809
   40TMC2    O2  904   0.708   0.175  14.914
   40TMC2    O5  905   0.630   0.338  15.062
   40TMC2    H5  906   0.639   0.430  15.097
   41TMC2    C1  907   0.042   4.458   8.926
   41TMC2    C2  908   0.046   4.595   8.921
   41TMC2    C3  909   4.720   4.646   8.868
   41TMC2    C4  910   4.735   4.373   8.875
   41TMC2    C5  911   4.622   4.433   8.821
   41TMC2    C6  912   4.623   4.569   8.807
   41TMC2     C  913   0.153   4.386   8.991
   41TMC2     O  914   0.178   4.270   8.958
   41TMC2     H  915   0.127   4.650   8.969
   41TMC2    H1  916   4.743   4.266   8.891
   41TMC2    H2  917   4.553   4.622   8.743
   41TMC2    C7  918   4.510   4.361   8.772
   41TMC2    C8  919   4.698   0.002   8.870
   41TMC2    O1  920   4.431   4.419   8.697
   41TMC2    O2  921   4.603   0.056   8.816
   41TMC2    O5  922   0.036   0.059   8.868
   41TMC2    H5  923   0.104   4.776   8.871
   42TMC2    C1  924   2.972   3.842   8.050
   42TMC2    C2  925   2.899   3.881   8.158
   42TMC2    C3  926   2.974   3.905   8.273
   42TMC2    C4  927   3.114   3.836   8.050
   42TMC2    C5  928   3.173   3.856   8.163
   42TMC2    C6  929   3.107   3.894   8.276
   42TMC2     C  930   2.900   3.801   7.934
   42TMC2     O  931   2.934   3.846   7.826
   42TMC2     H  932   2.792   3.866   8.164
   42TMC2    H1  933   3.158   3.795   7.960
   42TMC2    H2  934   3.156   3.894   8.372
   42TMC2    C7  935   3.302   3.790   8.177
   42TMC2    C8  936   2.910   3.900   8.404
   42TMC2    O1  937   3.376   3.816   8.084
   42TMC2    O2  938   2.976   3.892   8.506
   42TMC2    O5  939   2.774   3.901   8.389
   42TMC2    H5  940   2.746   3.938   8.303
   43TMC2    C1  941   3.972   2.803   8.465
   43TMC2    C2  942   4.056   2.875   8.546
   43TMC2    C3  943   4.005   2.975   8.620
   43TMC2    C4  944   3.839   2.836   8.461
   43TMC2    C5  945   3.790   2.948   8.526
   43TMC2    C6  946   3.874   3.014   8.609
   43TMC2     C  947   4.030   2.756   8.339
   43TMC2     O  948   3.955   2.747   8.241
   43TMC2     H  949   4.162   2.857   8.555
   43TMC2    H1  950   3.771   2.779   8.398
   43TMC2    H2  951   3.827   3.085   8.676
   43TMC2    C7  952   3.685   3.027   8.453
   43TMC2    C8  953   4.084   3.040   8.718
   43TMC2    O1  954   3.677   3.141   8.484
   43TMC2    O2  955   4.147   2.970   8.793
   43TMC2    O5  956   4.035   3.163   8.748
   43TMC2    H5  957   3.979   3.203   8.678
   44TMC2    C1  958   4.601   1.085  11.929
   44TMC2    C2  959   4.478   1.150  11.929
   44TMC2    C3  960   4.473   1.273  11.870
   44TMC2    C4  961   4.709   1.150  11.878
   44TMC2    C5  962   4.699   1.280  11.832
   44TMC2    C6  963   4.581   1.343  11.821
   44TMC2     C  964   4.619   0.961  12.000
   44TMC2     O  965   4.735   0.932  12.026
   44TMC2     H  966   4.387   1.117  11.979
   44TMC2    H1  967   0.022   1.106  11.881
   44TMC2    H2  968   4.569   1.450  11.811
   44TMC2    C7  969   0.036   1.343  11.787
   44TMC2    C8  970   4.347   1.339  11.854
   44TMC2    O1  971   0.142   1.286  11.808
   44TMC2    O2  972   4.340   1.458  11.827
   44TMC2    O5  973   4.259   1.241  11.813
   44TMC2    H5  974   4.298   1.151  11.825
   45TMC2    C1  975   1.458   4.430  14.679
   45TMC2    C2  976   1.524   4.520  14.757
   45TMC2    C3  977   1.647   4.479  14.810
   45TMC2    C4  978   1.514   4.315  14.634
   45TMC2    C5  979   1.633   4.281  14.687
   45TMC2    C6  980   1.708   4.358  14.775
   45TMC2     C  981   1.324   4.472  14.627
   45TMC2     O  982   1.277   4.414  14.532
   45TMC2     H  983   1.487   4.622  14.761
   45TMC2    H1  984   1.479   4.261  14.547
   45TMC2    H2  985   1.805   4.330  14.814
   45TMC2    C7  986   1.698   4.162  14.635
   45TMC2    C8  987   1.744   4.582  14.848
   45TMC2    O1  988   1.647   4.102  14.541
   45TMC2    O2  989   1.858   4.586  14.806
   45TMC2    O5  990   1.672   4.692  14.871
   45TMC2    H5  991   1.580   4.684  14.905
   46TMC2    C1  992   2.545   2.205  15.098
   46TMC2    C2  993   2.441   2.251  15.022
   46TMC2    C3  994   2.453   2.380  14.979
   46TMC2    C4  995   2.657   2.280  15.113
   46TMC2    C5  996   2.665   2.416  15.068
   46TMC2    C6  997   2.559   2.466  15.000
   46TMC2     C  998   2.528   2.089  15.180
   46TMC2     O  999   2.628   2.061  15.244
   46TMC2     H 1000   2.360   2.189  14.986
   46TMC2    H1 1001   2.728   2.247  15.187
   46TMC2    H2 1002   2.569   2.563  14.953
   46TMC2    C7 1003   2.733   2.502  15.158
   46TMC2    C8 1004   2.354   2.412  14.872
   46TMC2    O1 1005   2.759   2.455  15.271
   46TMC2    O2 1006   2.337   2.330  14.787
   46TMC2    O5 1007   2.351   2.543  14.871
   46TMC2    H5 1008   2.350   2.576  14.964
   47TMC2    C1 1009   4.123   2.228  12.161
   47TMC2    C2 1010   4.126   2.213  12.024
   47TMC2    C3 1011   4.011   2.217  11.950
   47TMC2    C4 1012   4.006   2.201  12.226
   47TMC2    C5 1013   3.902   2.163  12.154
   47TMC2    C6 1014   3.895   2.187  12.019
   47TMC2     C 1015   4.232   2.217  12.251
   47TMC2     O 1016   4.224   2.274  12.358
   47TMC2     H 1017   4.221   2.223  11.974
   47TMC2    H1 1018   4.016   2.171  12.329
   47TMC2    H2 1019   3.807   2.160  11.962
   47TMC2    C7 1020   3.856   2.024  12.190
   47TMC2    C8 1021   4.016   2.159  11.827
   47TMC2    O1 1022   3.797   2.009  12.292
   47TMC2    O2 1023   3.927   2.185  11.750
   47TMC2    O5 1024   4.039   2.034  11.869
   47TMC2    H5 1025   4.114   2.023  11.931
   48TMC2    C1 1026   1.567   2.395  10.235
   48TMC2    C2 1027   1.576   2.262  10.271
   48TMC2    C3 1028   1.654   2.235  10.377
   48TMC2    C4 1029   1.652   2.492  10.288
   48TMC2    C5 1030   1.727   2.461  10.399
   48TMC2    C6 1031   1.734   2.330  10.440
   48TMC2     C 1032   1.459   2.424  10.139
   48TMC2     O 1033   1.480   2.527  10.075
   48TMC2     H 1034   1.536   2.173  10.224
   48TMC2    H1 1035   1.637   2.595  10.257
   48TMC2    H2 1036   1.804   2.298  10.517
   48TMC2    C7 1037   1.858   2.526  10.412
   48TMC2    C8 1038   1.679   2.099  10.392
   48TMC2    O1 1039   1.957   2.456  10.422
   48TMC2    O2 1040   1.649   2.037  10.494
   48TMC2    O5 1041   1.764   2.058  10.296
   48TMC2    H5 1042   1.788   2.123  10.226
   49TMC2    C1 1043   1.705   4.452  11.443
   49TMC2    C2 1044   1.683   4.510  11.323
   49TMC2    C3 1045   1.549   4.498  11.284
   49TMC2    C4 1046   1.613   4.399  11.526
   49TMC2    C5 1047   1.482   4.403  11.492
   49TMC2    C6 1048   1.452   4.450  11.364
   49TMC2     C 1049   1.838   4.477  11.499
   49TMC2     O 1050   1.894   4.573  11.449
   49TMC2     H 1051   1.766   4.532  11.256
   49TMC2    H1 1052   1.640   4.376  11.628
   49TMC2    H2 1053   1.346   4.448  11.342
   49TMC2    C7 1054   1.393   4.304  11.541
   49TMC2    C8 1055   1.535   4.460  11.149
   49TMC2    O1 1056   1.333   4.251  11.446
   49TMC2    O2 1057   1.636   4.482  11.081
   49TMC2    O5 1058   1.480   4.338  11.164
   49TMC2    H5 1059   1.394   4.343  11.211
   50TMC2    C1 1060   3.256   1.731  14.213
   50TMC2    C2 1061   3.138   1.708  14.143
   50TMC2    C3 1062   3.089   1.807  14.067
   50TMC2    C4 1063   3.318   1.852  14.210
   50TMC2    C5 1064   3.266   1.945  14.120
   50TMC2    C6 1065   3.157   1.921  14.037
   50TMC2     C 1066   3.291   1.641  14.318
   50TMC2     O 1067   3.202   1.583  14.380
   50TMC2     H 1068   3.089   1.613  14.162
   50TMC2    H1 1069   3.402   1.871  14.276
   50TMC2    H2 1070   3.130   1.986  13.955
   50TMC2    C7 1071   3.361   2.044  14.088
   50TMC2    C8 1072   3.009   1.758  13.967
   50TMC2    O1 1073   3.478   2.005  14.086
   50TMC2    O2 1074   3.019   1.645  13.925
   50TMC2    O5 1075   2.904   1.840  13.950
   50TMC2    H5 1076   2.901   1.915  14.014
   51TMC2    C1 1077   1.896   2.319  14.836
   51TMC2    C2 1078   1.966   2.322  14.718
   51TMC2    C3 1079   1.905   2.281  14.601
   51TMC2    C4 1080   1.767   2.283  14.843
   51TMC2    C5 1081   1.704   2.262  14.723
   51TMC2    C6 1082   1.766   2.257  14.602
   51TMC2     C 1083   1.949   2.404  14.944
   51TMC2     O 1084   1.936   2.357  15.058
   51TMC2     H 1085   2.073   2.339  14.711
   51TMC2    H1 1086   1.715   2.280  14.937
   51TMC2    H2 1087   1.709   2.246  14.510
   51TMC2    C7 1088   1.557   2.281  14.718
   51TMC2    C8 1089   1.977   2.250  14.472
   51TMC2    O1 1090   1.490   2.243  14.622
   51TMC2    O2 1091   1.929   2.170  14.395
   51TMC2    O5 1092   2.087   2.327  14.460
   51TMC2    H5 1093   2.083   2.406  14.519
   52TMC2    C1 1094   3.763   4.327   9.430
   52TMC2    C2 1095   3.828   4.223   9.354
   52TMC2    C3 1096   3.940   4.264   9.279
   52TMC2    C4 1097   3.808   4.458   9.422
   52TMC2    C5 1098   3.930   4.479   9.357
   52TMC2    C6 1099   3.986   4.388   9.268
   52TMC2     C 1100   3.629   4.308   9.487
   52TMC2     O 1101   3.555   4.405   9.487
   52TMC2     H 1102   3.802   4.119   9.366
   52TMC2    H1 1103   3.761   4.522   9.496
   52TMC2    H2 1104   4.079   4.407   9.215
   52TMC2    C7 1105   3.998   4.609   9.378
   52TMC2    C8 1106   4.039   4.165   9.244
   52TMC2    O1 1107   4.085   4.640   9.299
   52TMC2    O2 1108   4.131   4.194   9.170
   52TMC2    O5 1109   4.028   4.055   9.316
   52TMC2    H5 1110   3.960   4.057   9.386
   53TMC2    C1 1111   1.202   0.111   9.571
   53TMC2    C2 1112   1.295   0.042   9.642
   53TMC2    C3 1113   1.402   0.108   9.699
   53TMC2    C4 1114   1.217   0.249   9.558
   53TMC2    C5 1115   1.332   0.305   9.610
   53TMC2    C6 1116   1.422   0.243   9.678
   53TMC2     C 1117   1.119   0.039   9.476
   53TMC2     O 1118   1.095   0.098   9.369
   53TMC2     H 1119   1.286   4.722   9.660
   53TMC2    H1 1120   1.149   0.303   9.493
   53TMC2    H2 1121   1.505   0.297   9.723
   53TMC2    C7 1122   1.323   0.442   9.651
   53TMC2    C8 1123   1.493   0.036   9.791
   53TMC2    O1 1124   1.435   0.498   9.643
   53TMC2    O2 1125   1.533   4.711   9.769
   53TMC2    O5 1126   1.525   0.117   9.892
   53TMC2    H5 1127   1.474   0.201   9.895
   54TMC2    C1 1128   2.235   3.745  13.966
   54TMC2    C2 1129   2.114   3.740  13.899
   54TMC2    C3 1130   2.004   3.773  13.970
   54TMC2    C4 1131   2.245   3.770  14.100
   54TMC2    C5 1132   2.132   3.804  14.173
   54TMC2    C6 1133   2.012   3.802  14.102
   54TMC2     C 1134   2.354   3.693  13.897
   54TMC2     O 1135   2.435   3.638  13.967
   54TMC2     H 1136   2.102   3.704  13.797
   54TMC2    H1 1137   2.341   3.765  14.151
   54TMC2    H2 1138   1.923   3.790  14.163
   54TMC2    C7 1139   2.136   3.807  14.318
   54TMC2    C8 1140   1.878   3.755  13.904
   54TMC2    O1 1141   2.230   3.743  14.366
   54TMC2    O2 1142   1.871   3.692  13.800
   54TMC2    O5 1143   1.805   3.863  13.947
   54TMC2    H5 1144   1.837   3.909  14.027
   55TMC2    C1 1145   3.687   3.801   8.180
   55TMC2    C2 1146   3.749   3.888   8.089
   55TMC2    C3 1147   3.772   3.835   7.965
   55TMC2    C4 1148   3.655   3.672   8.149
   55TMC2    C5 1149   3.693   3.623   8.025
   55TMC2    C6 1150   3.752   3.703   7.931
   55TMC2     C 1151   3.640   3.850   8.306
   55TMC2     O 1152   3.591   3.764   8.380
   55TMC2     H 1153   3.781   3.985   8.125
   55TMC2    H1 1154   3.598   3.611   8.218
   55TMC2    H2 1155   3.778   3.654   7.837
   55TMC2    C7 1156   3.675   3.486   7.980
   55TMC2    C8 1157   3.861   3.903   7.879
   55TMC2    O1 1158   3.645   3.470   7.862
   55TMC2    O2 1159   3.923   3.855   7.784
   55TMC2    O5 1160   3.818   4.033   7.877
   55TMC2    H5 1161   3.753   4.060   7.946
   56TMC2    C1 1162   2.241   1.573  14.648
   56TMC2    C2 1163   2.274   1.647  14.537
   56TMC2    C3 1164   2.399   1.704  14.541
   56TMC2    C4 1165   2.323   1.569  14.759
   56TMC2    C5 1166   2.437   1.643  14.760
   56TMC2    C6 1167   2.480   1.700  14.649
   56TMC2     C 1168   2.106   1.519  14.647
   56TMC2     O 1169   2.031   1.574  14.568
   56TMC2     H 1170   2.208   1.665  14.454
   56TMC2    H1 1171   2.291   1.533  14.856
   56TMC2    H2 1172   2.562   1.770  14.650
   56TMC2    C7 1173   2.541   1.583  14.841
   56TMC2    C8 1174   2.449   1.743  14.409
   56TMC2    O1 1175   2.656   1.583  14.796
   56TMC2    O2 1176   2.549   1.807  14.405
   56TMC2    O5 1177   2.423   1.648  14.321
   56TMC2    H5 1178   2.354   1.586  14.354
   57TMC2    C1 1179   3.710   1.103   8.668
   57TMC2    C2 1180   3.728   1.220   8.747
   57TMC2    C3 1181   3.848   1.225   8.816
   57TMC2    C4 1182   3.807   1.000   8.661
   57TMC2    C5 1183   3.928   1.028   8.726
   57TMC2    C6 1184   3.944   1.132   8.811
   57TMC2     C 1185   3.577   1.084   8.598
   57TMC2     O 1186   3.554   0.980   8.530
   57TMC2     H 1187   3.651   1.293   8.772
   57TMC2    H1 1188   3.791   0.916   8.594
   57TMC2    H2 1189   4.045   1.155   8.841
   57TMC2    C7 1190   4.011   0.917   8.770
   57TMC2    C8 1191   3.901   1.360   8.826
   57TMC2    O1 1192   4.042   0.916   8.888
   57TMC2    O2 1193   4.010   1.388   8.872
   57TMC2    O5 1194   3.845   1.451   8.742
   57TMC2    H5 1195   3.793   1.406   8.672
   58TMC2    C1 1196   1.205   3.250  14.567
   58TMC2    C2 1197   1.302   3.302  14.499
   58TMC2    C3 1198   1.331   3.245  14.375
   58TMC2    C4 1199   1.136   3.148  14.519
   58TMC2    C5 1200   1.175   3.083  14.398
   58TMC2    C6 1201   1.276   3.131  14.322
   58TMC2     C 1202   1.177   3.294  14.706
   58TMC2     O 1203   1.102   3.222  14.773
   58TMC2     H 1204   1.361   3.385  14.537
   58TMC2    H1 1205   1.071   3.093  14.586
   58TMC2    H2 1206   1.309   3.083  14.231
   58TMC2    C7 1207   1.125   2.947  14.372
   58TMC2    C8 1208   1.447   3.298  14.299
   58TMC2    O1 1209   1.192   2.883  14.294
   58TMC2    O2 1210   1.555   3.325  14.343
   58TMC2    O5 1211   1.394   3.348  14.180
   58TMC2    H5 1212   1.296   3.341  14.176
   59TMC2    C1 1213   2.304   0.445  13.251
   59TMC2    C2 1214   2.392   0.391  13.157
   59TMC2    C3 1215   2.523   0.429  13.174
   59TMC2    C4 1216   2.348   0.543  13.343
   59TMC2    C5 1217   2.480   0.568  13.350
   59TMC2    C6 1218   2.567   0.507  13.273
   59TMC2     C 1219   2.161   0.421  13.229
   59TMC2     O 1220   2.131   0.395  13.112
   59TMC2     H 1221   2.357   0.332  13.073
   59TMC2    H1 1222   2.279   0.578  13.418
   59TMC2    H2 1223   2.673   0.531  13.273
   59TMC2    C7 1224   2.527   0.631  13.466
   59TMC2    C8 1225   2.623   0.403  13.078
   59TMC2    O1 1226   2.626   0.588  13.515
   59TMC2    O2 1227   2.616   0.305  13.006
   59TMC2    O5 1228   2.653   0.531  13.045
   59TMC2    H5 1229   2.632   0.600  13.111
   60TMC2    C1 1230   1.149   2.789  10.859
   60TMC2    C2 1231   1.261   2.718  10.882
   60TMC2    C3 1232   1.253   2.605  10.956
   60TMC2    C4 1233   1.022   2.727  10.866
   60TMC2    C5 1234   1.021   2.605  10.927
   60TMC2    C6 1235   1.130   2.547  10.982
   60TMC2     C 1236   1.158   2.928  10.899
   60TMC2     O 1237   1.262   2.976  10.855
   60TMC2     H 1238   1.358   2.765  10.892
   60TMC2    H1 1239   0.927   2.773  10.843
   60TMC2    H2 1240   1.126   2.445  11.020
   60TMC2    C7 1241   0.897   2.527  10.936
   60TMC2    C8 1242   1.374   2.547  11.011
   60TMC2    O1 1243   0.894   2.445  11.029
   60TMC2    O2 1244   1.487   2.563  10.966
   60TMC2    O5 1245   1.339   2.500  11.135
   60TMC2    H5 1246   1.242   2.498  11.150
   61TMC2    C1 1247   4.363   3.767   9.931
   61TMC2    C2 1248   4.451   3.817   9.835
   61TMC2    C3 1249   4.452   3.742   9.713
   61TMC2    C4 1250   4.286   3.649   9.916
   61TMC2    C5 1251   4.292   3.593   9.800
   61TMC2    C6 1252   4.370   3.630   9.691
   61TMC2     C 1253   4.296   3.859  10.017
   61TMC2     O 1254   4.200   3.811  10.075
   61TMC2     H 1255   4.502   3.912   9.848
   61TMC2    H1 1256   4.248   3.596  10.003
   61TMC2    H2 1257   4.350   3.585   9.595
   61TMC2    C7 1258   4.181   3.510   9.753
   61TMC2    C8 1259   4.526   3.788   9.592
   61TMC2    O1 1260   4.192   3.444   9.649
   61TMC2    O2 1261   4.487   3.775   9.475
   61TMC2    O5 1262   4.622   3.870   9.618
   61TMC2    H5 1263   4.649   3.866   9.712
   62TMC2    C1 1264   0.662   0.820  10.554
   62TMC2    C2 1265   0.622   0.687  10.564
   62TMC2    C3 1266   0.512   0.654  10.631
   62TMC2    C4 1267   0.598   0.918  10.619
   62TMC2    C5 1268   0.479   0.884  10.682
   62TMC2    C6 1269   0.436   0.752  10.685
   62TMC2     C 1270   0.803   0.842  10.531
   62TMC2     O 1271   0.883   0.751  10.541
   62TMC2     H 1272   0.688   0.611  10.524
   62TMC2    H1 1273   0.628   1.022  10.614
   62TMC2    H2 1274   0.336   0.731  10.722
   62TMC2    C7 1275   0.390   0.990  10.716
   62TMC2    C8 1276   0.494   0.519  10.675
   62TMC2    O1 1277   0.453   1.092  10.744
   62TMC2    O2 1278   0.474   0.480  10.789
   62TMC2    O5 1279   0.427   0.463  10.569
   62TMC2    H5 1280   0.432   0.519  10.488
   63TMC2    C1 1281   3.759   4.187   7.028
   63TMC2    C2 1282   3.836   4.175   7.145
   63TMC2    C3 1283   3.966   4.217   7.139
   63TMC2    C4 1284   3.819   4.225   6.910
   63TMC2    C5 1285   3.949   4.262   6.914
   63TMC2    C6 1286   4.024   4.251   7.021
   63TMC2     C 1287   3.656   4.092   7.014
   63TMC2     O 1288   3.650   4.004   7.101
   63TMC2     H 1289   3.786   4.140   7.234
   63TMC2    H1 1290   3.766   4.214   6.816
   63TMC2    H2 1291   4.129   4.277   7.011
   63TMC2    C7 1292   4.018   4.298   6.792
   63TMC2    C8 1293   4.033   4.200   7.267
   63TMC2    O1 1294   4.138   4.317   6.796
   63TMC2    O2 1295   4.004   4.099   7.327
   63TMC2    O5 1296   4.161   4.239   7.244
   63TMC2    H5 1297   4.161   4.323   7.193
   64TMC2    C1 1298   3.446   1.614   7.596
   64TMC2    C2 1299   3.377   1.498   7.553
   64TMC2    C3 1300   3.441   1.434   7.452
   64TMC2    C4 1301   3.572   1.654   7.558
   64TMC2    C5 1302   3.623   1.577   7.460
   64TMC2    C6 1303   3.563   1.461   7.409
   64TMC2     C 1304   3.369   1.683   7.696
   64TMC2     O 1305   3.254   1.649   7.714
   64TMC2     H 1306   3.284   1.464   7.596
   64TMC2    H1 1307   3.616   1.751   7.580
   64TMC2    H2 1308   3.588   1.426   7.310
   64TMC2    C7 1309   3.721   1.625   7.372
   64TMC2    C8 1310   3.372   1.341   7.367
   64TMC2    O1 1311   3.726   1.748   7.367
   64TMC2    O2 1312   3.438   1.284   7.281
   64TMC2    O5 1313   3.274   1.286   7.442
   64TMC2    H5 1314   3.221   1.353   7.490
   65TMC2    C1 1315   0.424   4.470   6.758
   65TMC2    C2 1316   0.551   4.410   6.771
   65TMC2    C3 1317   0.558   4.295   6.847
   65TMC2    C4 1318   0.311   4.425   6.826
   65TMC2    C5 1319   0.327   4.315   6.902
   65TMC2    C6 1320   0.450   4.255   6.917
   65TMC2     C 1321   0.421   4.600   6.693
   65TMC2     O 1322   0.528   4.647   6.665
   65TMC2     H 1323   0.641   4.440   6.720
   65TMC2    H1 1324   0.220   4.483   6.814
   65TMC2    H2 1325   0.454   4.169   6.983
   65TMC2    C7 1326   0.217   4.261   6.982
   65TMC2    C8 1327   0.675   4.205   6.839
   65TMC2    O1 1328   0.252   4.203   7.084
   65TMC2    O2 1329   0.753   4.209   6.743
   65TMC2    O5 1330   0.694   4.138   6.951
   65TMC2    H5 1331   0.642   4.164   7.030
   66TMC2    C1 1332   2.995   0.961  15.207
   66TMC2    C2 1333   2.862   0.967  15.224
   66TMC2    C3 1334   2.808   0.941  15.345
   66TMC2    C4 1335   3.069   0.900  15.298
   66TMC2    C5 1336   3.013   0.861  15.423
   66TMC2    C6 1337   2.878   0.887  15.445
   66TMC2     C 1338   3.046   0.956  15.067
   66TMC2     O 1339   2.958   0.935  14.984
   66TMC2     H 1340   2.804   0.994  15.136
   66TMC2    H1 1341   3.161   0.855  15.265
   66TMC2    H2 1342   2.824   0.851  15.532
   66TMC2    C7 1343   3.041   0.714  15.440
   66TMC2    C8 1344   2.676   0.992  15.381
   66TMC2    O1 1345   2.948   0.641  15.440
   66TMC2    O2 1346   2.641   1.009  15.495
   66TMC2    O5 1347   2.599   0.998  15.268
   66TMC2    H5 1348   2.625   0.955  15.184
   67TMC2    C1 1349   3.488   0.110   7.090
   67TMC2    C2 1350   3.436   0.173   7.200
   67TMC2    C3 1351   3.520   0.212   7.302
   67TMC2    C4 1352   3.617   0.064   7.088
   67TMC2    C5 1353   3.704   0.119   7.184
   67TMC2    C6 1354   3.653   0.181   7.294
   67TMC2     C 1355   3.401   0.062   6.980
   67TMC2     O 1356   3.292   0.017   7.015
   67TMC2     H 1357   3.332   0.203   7.207
   67TMC2    H1 1358   3.655   4.776   7.018
   67TMC2    H2 1359   3.722   0.213   7.371
   67TMC2    C7 1360   3.841   0.084   7.175
   67TMC2    C8 1361   3.475   0.281   7.412
   67TMC2    O1 1362   3.883   4.782   7.099
   67TMC2    O2 1363   3.523   0.259   7.525
   67TMC2    O5 1364   3.419   0.399   7.374
   67TMC2    H5 1365   3.422   0.407   7.276
   68TMC2    C1 1366   3.278   0.925   7.342
   68TMC2    C2 1367   3.375   0.836   7.305
   68TMC2    C3 1368   3.497   0.837   7.372
   68TMC2    C4 1369   3.285   0.999   7.459
   68TMC2    C5 1370   3.405   0.982   7.529
   68TMC2    C6 1371   3.515   0.912   7.484
   68TMC2     C 1372   3.173   0.945   7.253
   68TMC2     O 1373   3.147   0.864   7.159
   68TMC2     H 1374   3.363   0.773   7.218
   68TMC2    H1 1375   3.209   1.064   7.500
   68TMC2    H2 1376   3.614   0.916   7.528
   68TMC2    C7 1377   3.440   1.088   7.618
   68TMC2    C8 1378   3.607   0.770   7.326
   68TMC2    O1 1379   3.552   1.130   7.594
   68TMC2    O2 1380   3.686   0.708   7.390
   68TMC2    O5 1381   3.616   0.799   7.197
   68TMC2    H5 1382   3.547   0.869   7.192
   69TMC2    C1 1383   0.186   1.976   6.969
   69TMC2    C2 1384   0.212   2.030   7.093
   69TMC2    C3 1385   0.111   2.060   7.173
   69TMC2    C4 1386   0.053   1.950   6.934
   69TMC2    C5 1387   4.742   1.968   7.030
   69TMC2    C6 1388   4.771   2.024   7.149
   69TMC2     C 1389   0.288   1.893   6.903
   69TMC2     O 1390   0.383   1.853   6.972
   69TMC2     H 1391   0.313   2.062   7.119
   69TMC2    H1 1392   0.042   1.869   6.862
   69TMC2    H2 1393   4.685   2.047   7.211
   69TMC2    C7 1394   4.646   1.857   7.031
   69TMC2    C8 1395   0.137   2.146   7.289
   69TMC2    O1 1396   4.600   1.808   6.927
   69TMC2    O2 1397   0.242   2.208   7.304
   69TMC2    O5 1398   0.029   2.157   7.372
   69TMC2    H5 1399   4.756   2.080   7.368
   70TMC2    C1 1400   0.575   0.331   6.878
   70TMC2    C2 1401   0.495   0.225   6.865
   70TMC2    C3 1402   0.359   0.243   6.875
   70TMC2    C4 1403   0.533   0.460   6.905
   70TMC2    C5 1404   0.399   0.475   6.925
   70TMC2    C6 1405   0.314   0.371   6.897
   70TMC2     C 1406   0.718   0.306   6.865
   70TMC2     O 1407   0.784   0.386   6.798
   70TMC2     H 1408   0.538   0.132   6.831
   70TMC2    H1 1409   0.607   0.537   6.922
   70TMC2    H2 1410   0.210   0.397   6.910
   70TMC2    C7 1411   0.348   0.605   6.954
   70TMC2    C8 1412   0.282   0.130   6.929
   70TMC2    O1 1413   0.426   0.699   6.933
   70TMC2    O2 1414   0.337   0.020   6.932
   70TMC2    O5 1415   0.167   0.148   6.872
   70TMC2    H5 1416   0.148   0.241   6.850
   71TMC2    C1 1417   0.777   3.539  10.307
   71TMC2    C2 1418   0.898   3.603  10.312
   71TMC2    C3 1419   0.901   3.735  10.348
   71TMC2    C4 1420   0.658   3.600  10.344
   71TMC2    C5 1421   0.667   3.734  10.378
   71TMC2    C6 1422   0.788   3.797  10.394
   71TMC2     C 1423   0.785   3.402  10.341
   71TMC2     O 1424   0.725   3.325  10.264
   71TMC2     H 1425   0.994   3.556  10.298
   71TMC2    H1 1426   0.563   3.552  10.325
   71TMC2    H2 1427   0.791   3.903  10.419
   71TMC2    C7 1428   0.546   3.809  10.406
   71TMC2    C8 1429   1.018   3.810  10.344
   71TMC2    O1 1430   0.550   3.930  10.400
   71TMC2    O2 1431   1.017   3.929  10.356
   71TMC2    O5 1432   1.119   3.749  10.273
   71TMC2    H5 1433   1.183   3.816  10.242
   72TMC2    C1 1434   0.751   0.014  10.897
   72TMC2    C2 1435   0.678   4.680  10.887
   72TMC2    C3 1436   0.655   4.614  11.004
   72TMC2    C4 1437   0.788   0.072  11.014
   72TMC2    C5 1438   0.764   4.782  11.126
   72TMC2    C6 1439   0.702   4.657  11.121
   72TMC2     C 1440   0.798   0.079  10.775
   72TMC2     O 1441   0.793   0.203  10.774
   72TMC2     H 1442   0.625   4.644  10.800
   72TMC2    H1 1443   0.840   0.167  11.015
   72TMC2    H2 1444   0.697   4.599  11.212
   72TMC2    C7 1445   0.843   0.017  11.247
   72TMC2    C8 1446   0.561   4.501  11.001
   72TMC2    O1 1447   0.887   4.709  11.313
   72TMC2    O2 1448   0.517   4.446  10.898
   72TMC2    O5 1449   0.477   4.534  11.101
   72TMC2    H5 1450   0.499   4.622  11.139
   73TMC2    C1 1451   4.603   4.038   6.211
   73TMC2    C2 1452   4.722   4.104   6.219
   73TMC2    C3 1453   4.729   4.215   6.288
   73TMC2    C4 1454   4.482   4.102   6.251
   73TMC2    C5 1455   4.497   4.222   6.317
   73TMC2    C6 1456   4.621   4.281   6.347
   73TMC2     C 1457   4.591   3.895   6.168
   73TMC2     O 1458   4.484   3.848   6.131
   73TMC2     H 1459   0.025   4.047   6.198
   73TMC2    H1 1460   4.393   4.041   6.241
   73TMC2    H2 1461   4.645   4.373   6.399
   73TMC2    C7 1462   4.380   4.271   6.385
   73TMC2    C8 1463   0.074   4.262   6.331
   73TMC2    O1 1464   4.399   4.324   6.492
   73TMC2    O2 1465   0.097   4.307   6.443
   73TMC2    O5 1466   0.129   4.320   6.220
   73TMC2    H5 1467   0.066   4.307   6.146
   74TMC2    C1 1468   1.198   2.345  14.151
   74TMC2    C2 1469   1.120   2.275  14.234
   74TMC2    C3 1470   1.145   2.272  14.367
   74TMC2    C4 1471   1.311   2.400  14.197
   74TMC2    C5 1472   1.332   2.402  14.341
   74TMC2    C6 1473   1.248   2.339  14.427
   74TMC2     C 1474   1.148   2.392  14.027
   74TMC2     O 1475   1.056   2.332  13.970
   74TMC2     H 1476   1.028   2.234  14.193
   74TMC2    H1 1477   1.388   2.446  14.136
   74TMC2    H2 1478   1.278   2.332  14.531
   74TMC2    C7 1479   1.443   2.477  14.385
   74TMC2    C8 1480   1.049   2.210  14.466
   74TMC2    O1 1481   1.540   2.471  14.311
   74TMC2    O2 1482   0.956   2.137  14.427
   74TMC2    O5 1483   1.044   2.294  14.572
   74TMC2    H5 1484   1.109   2.368  14.566
   75TMC2    C1 1485   2.827   1.173   8.533
   75TMC2    C2 1486   2.756   1.250   8.440
   75TMC2    C3 1487   2.772   1.386   8.455
   75TMC2    C4 1488   2.888   1.221   8.646
   75TMC2    C5 1489   2.892   1.361   8.659
   75TMC2    C6 1490   2.835   1.445   8.565
   75TMC2     C 1491   2.834   1.029   8.503
   75TMC2     O 1492   2.764   0.989   8.413
   75TMC2     H 1493   2.718   1.213   8.345
   75TMC2    H1 1494   2.922   1.152   8.722
   75TMC2    H2 1495   2.830   1.552   8.583
   75TMC2    C7 1496   2.967   1.417   8.766
   75TMC2    C8 1497   2.733   1.483   8.353
   75TMC2    O1 1498   2.949   1.535   8.784
   75TMC2    O2 1499   2.762   1.602   8.362
   75TMC2    O5 1500   2.621   1.439   8.289
   75TMC2    H5 1501   2.597   1.348   8.318
   76TMC2    C1 1502   3.045   4.713   7.678
   76TMC2    C2 1503   3.080   0.026   7.768
   76TMC2    C3 1504   3.212   0.071   7.763
   76TMC2    C4 1505   3.127   4.673   7.581
   76TMC2    C5 1506   3.250   4.724   7.578
   76TMC2    C6 1507   3.299   0.020   7.676
   76TMC2     C 1508   2.931   4.625   7.717
   76TMC2     O 1509   2.892   4.636   7.834
   76TMC2     H 1510   3.017   0.060   7.850
   76TMC2    H1 1511   3.104   4.592   7.513
   76TMC2    H2 1512   3.400   0.060   7.670
   76TMC2    C7 1513   3.339   4.690   7.470
   76TMC2    C8 1514   3.221   0.213   7.791
   76TMC2    O1 1515   3.284   4.661   7.366
   76TMC2    O2 1516   3.185   0.259   7.896
   76TMC2    O5 1517   3.200   0.274   7.673
   76TMC2    H5 1518   3.219   0.228   7.589
   77TMC2    C1 1519   0.725   3.524   8.832
   77TMC2    C2 1520   0.608   3.517   8.762
   77TMC2    C3 1521   0.622   3.539   8.626
   77TMC2    C4 1522   0.849   3.560   8.777
   77TMC2    C5 1523   0.846   3.597   8.640
   77TMC2    C6 1524   0.736   3.586   8.562
   77TMC2     C 1525   0.704   3.543   8.974
   77TMC2     O 1526   0.805   3.524   9.045
   77TMC2     H 1527   0.505   3.500   8.793
   77TMC2    H1 1528   0.937   3.566   8.839
   77TMC2    H2 1529   0.747   3.620   8.459
   77TMC2    C7 1530   0.968   3.639   8.587
   77TMC2    C8 1531   0.502   3.529   8.545
   77TMC2    O1 1532   1.002   3.573   8.489
   77TMC2    O2 1533   0.384   3.534   8.583
   77TMC2    O5 1534   0.540   3.451   8.441
   77TMC2    H5 1535   0.634   3.426   8.451
   78TMC2    C1 1536   0.441   3.597   9.534
   78TMC2    C2 1537   0.530   3.495   9.528
   78TMC2    C3 1538   0.668   3.513   9.528
   78TMC2    C4 1539   0.490   3.731   9.537
   78TMC2    C5 1540   0.624   3.749   9.564
   78TMC2    C6 1541   0.707   3.639   9.558
   78TMC2     C 1542   0.298   3.583   9.520
   78TMC2     O 1543   0.232   3.658   9.451
   78TMC2     H 1544   0.489   3.396   9.515
   78TMC2    H1 1545   0.414   3.808   9.537
   78TMC2    H2 1546   0.814   3.649   9.575
   78TMC2    C7 1547   0.657   3.854   9.666
   78TMC2    C8 1548   0.755   3.418   9.587
   78TMC2    O1 1549   0.572   3.889   9.743
   78TMC2    O2 1550   0.780   3.406   9.705
   78TMC2    O5 1551   0.844   3.407   9.489
   78TMC2    H5 1552   0.795   3.407   9.405
   79TMC2    C1 1553   2.118   3.381  14.138
   79TMC2    C2 1554   2.218   3.420  14.223
   79TMC2    C3 1555   2.345   3.402  14.176
   79TMC2    C4 1556   2.146   3.339  14.015
   79TMC2    C5 1557   2.275   3.315  13.971
   79TMC2    C6 1558   2.375   3.347  14.054
   79TMC2     C 1559   1.993   3.444  14.156
   79TMC2     O 1560   1.937   3.477  14.054
   79TMC2     H 1561   2.201   3.486  14.308
   79TMC2    H1 1562   2.058   3.311  13.958
   79TMC2    H2 1563   2.477   3.335  14.021
   79TMC2    C7 1564   2.305   3.197  13.890
   79TMC2    C8 1565   2.452   3.450  14.258
   79TMC2    O1 1566   2.393   3.119  13.932
   79TMC2    O2 1567   2.444   3.419  14.379
   79TMC2    O5 1568   2.508   3.558  14.201
   79TMC2    H5 1569   2.479   3.574  14.108
   80TMC2    C1 1570   0.153   1.783   8.507
   80TMC2    C2 1571   0.112   1.744   8.378
   80TMC2    C3 1572   0.116   1.836   8.279
   80TMC2    C4 1573   0.197   1.909   8.535
   80TMC2    C5 1574   0.213   1.989   8.425
   80TMC2    C6 1575   0.177   1.952   8.297
   80TMC2     C 1576   0.150   1.697   8.621
   80TMC2     O 1577   0.226   1.726   8.714
   80TMC2     H 1578   0.038   1.664   8.376
   80TMC2    H1 1579   0.233   1.940   8.632
   80TMC2    H2 1580   0.179   2.023   8.215
   80TMC2    C7 1581   0.275   2.121   8.435
   80TMC2    C8 1582   0.098   1.795   8.139
   80TMC2    O1 1583   0.329   2.159   8.332
   80TMC2    O2 1584   0.092   1.883   8.054
   80TMC2    O5 1585   0.159   1.679   8.138
   80TMC2    H5 1586   0.163   1.629   8.223
   81TMC2    C1 1587   0.855   4.728   9.917
   81TMC2    C2 1588   0.918   0.037   9.846
   81TMC2    C3 1589   0.848   0.098   9.747
   81TMC2    C4 1590   0.720   4.693   9.887
   81TMC2    C5 1591   0.645   4.773   9.802
   81TMC2    C6 1592   0.711   0.078   9.725
   81TMC2     C 1593   0.874   4.754  10.061
   81TMC2     O 1594   0.919   0.077  10.089
   81TMC2     H 1595   1.014   0.067   9.888
   81TMC2    H1 1596   0.669   4.611   9.935
   81TMC2    H2 1597   0.669   0.125   9.638
   81TMC2    C7 1598   0.545   0.047   9.876
   81TMC2    C8 1599   0.878   0.246   9.736
   81TMC2    O1 1600   0.550   0.168   9.874
   81TMC2    O2 1601   0.986   0.296   9.717
   81TMC2    O5 1602   0.767   0.321   9.767
   81TMC2    H5 1603   0.697   0.276   9.818
   82TMC2    C1 1604   4.544   3.081  14.654
   82TMC2    C2 1605   4.567   3.185  14.741
   82TMC2    C3 1606   4.695   3.215  14.778
   82TMC2    C4 1607   4.647   3.030  14.584
   82TMC2    C5 1608   4.774   3.076  14.615
   82TMC2    C6 1609   0.018   3.169  14.713
   82TMC2     C 1610   4.420   3.068  14.582
   82TMC2     O 1611   4.429   3.004  14.478
   82TMC2     H 1612   4.488   3.252  14.773
   82TMC2    H1 1613   4.641   2.955  14.506
   82TMC2    H2 1614   0.118   3.201  14.741
   82TMC2    C7 1615   0.100   3.010  14.545
   82TMC2    C8 1616   4.707   3.327  14.866
   82TMC2    O1 1617   0.066   2.899  14.498
   82TMC2    O2 1618   0.019   3.401  14.854
   82TMC2    O5 1619   4.675   3.270  14.984
   82TMC2    H5 1620   4.608   3.199  14.981
   83TMC2    C1 1621   2.517   0.514  13.865
   83TMC2    C2 1622   2.447   0.581  13.959
   83TMC2    C3 1623   2.510   0.604  14.077
   83TMC2    C4 1624   2.646   0.476  13.879
   83TMC2    C5 1625   2.707   0.501  14.008
   83TMC2    C6 1626   2.636   0.555  14.107
   83TMC2     C 1627   2.445   0.442  13.765
   83TMC2     O 1628   2.323   0.452  13.774
   83TMC2     H 1629   2.343   0.613  13.951
   83TMC2    H1 1630   2.705   0.434  13.799
   83TMC2    H2 1631   2.684   0.587  14.199
   83TMC2    C7 1632   2.833   0.425  14.032
   83TMC2    C8 1633   2.456   0.712  14.161
   83TMC2    O1 1634   2.912   0.409  13.942
   83TMC2    O2 1635   2.354   0.764  14.114
   83TMC2    O5 1636   2.465   0.661  14.282
   83TMC2    H5 1637   2.555   0.648  14.316
   84TMC2    C1 1638   3.549   0.184   8.381
   84TMC2    C2 1639   3.612   0.297   8.429
   84TMC2    C3 1640   3.528   0.389   8.481
   84TMC2    C4 1641   3.415   0.159   8.378
   84TMC2    C5 1642   3.335   0.267   8.418
   84TMC2    C6 1643   3.390   0.380   8.477
   84TMC2     C 1644   3.637   0.071   8.360
   84TMC2     O 1645   3.743   0.062   8.414
   84TMC2     H 1646   3.720   0.304   8.421
   84TMC2    H1 1647   3.368   0.078   8.324
   84TMC2    H2 1648   3.327   0.452   8.527
   84TMC2    C7 1649   3.191   0.275   8.374
   84TMC2    C8 1650   3.589   0.522   8.513
   84TMC2    O1 1651   3.122   0.172   8.379
   84TMC2    O2 1652   3.513   0.619   8.523
   84TMC2    O5 1653   3.693   0.492   8.593
   84TMC2    H5 1654   3.721   0.400   8.572
   85TMC2    C1 1655   4.194   2.081  14.706
   85TMC2    C2 1656   4.167   2.013  14.825
   85TMC2    C3 1657   4.268   2.016  14.916
   85TMC2    C4 1658   4.311   2.146  14.673
   85TMC2    C5 1659   4.394   2.159  14.777
   85TMC2    C6 1660   4.385   2.080  14.887
   85TMC2     C 1661   4.080   2.087  14.615
   85TMC2     O 1662   3.966   2.076  14.658
   85TMC2     H 1663   4.069   1.970  14.843
   85TMC2    H1 1664   4.322   2.216  14.592
   85TMC2    H2 1665   4.465   2.080  14.960
   85TMC2    C7 1666   4.486   2.276  14.796
   85TMC2    C8 1667   4.248   1.955  15.051
   85TMC2    O1 1668   4.577   2.261  14.879
   85TMC2    O2 1669   4.133   1.921  15.084
   85TMC2    O5 1670   4.358   1.887  15.072
   85TMC2    H5 1671   4.434   1.899  15.012
   86TMC2    C1 1672   2.775   4.459   9.138
   86TMC2    C2 1673   2.745   4.553   9.231
   86TMC2    C3 1674   2.717   4.511   9.357
   86TMC2    C4 1675   2.788   4.333   9.174
   86TMC2    C5 1676   2.762   4.282   9.301
   86TMC2    C6 1677   2.720   4.377   9.392
   86TMC2     C 1678   2.849   4.485   9.023
   86TMC2     O 1679   2.936   4.407   8.993
   86TMC2     H 1680   2.728   4.655   9.198
   86TMC2    H1 1681   2.786   4.270   9.086
   86TMC2    H2 1682   2.706   4.346   9.495
   86TMC2    C7 1683   2.865   4.194   9.339
   86TMC2    C8 1684   2.694   4.616   9.455
   86TMC2    O1 1685   2.852   4.135   9.445
   86TMC2    O2 1686   2.721   4.731   9.420
   86TMC2    O5 1687   2.591   4.578   9.536
   86TMC2    H5 1688   2.576   4.482   9.526
   87MPD1     C 1689   1.173   4.071   7.454
   87MPD1    C1 1690   1.271   4.071   7.363
   87MPD1    C2 1691   1.239   4.040   7.233
   87MPD1    C3 1692   1.117   3.997   7.193
   87MPD1    C4 1693   1.014   3.996   7.285
   87MPD1    C5 1694   1.042   4.039   7.414
   87MPD1     H 1695   1.321   4.041   7.162
   87MPD1    H1 1696   0.910   3.967   7.275
   87MPD1    H2 1697   1.189   4.101   7.557
   87MPD1    H3 1698   0.969   4.050   7.493
   87MPD1     N 1699   1.100   3.962   7.060
   87MPD1    H5 1700   1.174   3.986   6.995
   87MPD1    N1 1701   1.394   4.128   7.404
   87MPD1    H6 1702   1.474   4.082   7.360
   87MPD1    H7 1703   1.401   4.116   7.505
   88MPD1     C 1704   4.109   1.693   9.679
   88MPD1    C1 1705   3.993   1.672   9.740
   88MPD1    C2 1706   3.958   1.782   9.819
   88MPD1    C3 1707   4.037   1.894   9.848
   88MPD1    C4 1708   4.156   1.905   9.776
   88MPD1    C5 1709   4.192   1.797   9.702
   88MPD1     H 1710   3.859   1.783   9.864
   88MPD1    H1 1711   4.228   1.985   9.790
   88MPD1    H2 1712   4.150   1.614   9.617
   88MPD1    H3 1713   4.285   1.800   9.647
   88MPD1     N 1714   3.980   2.003   9.927
   88MPD1    H5 1715   3.890   1.991   9.971
   88MPD1    N1 1716   3.899   1.568   9.703
   88MPD1    H6 1717   3.947   1.489   9.661
   88MPD1    H7 1718   3.832   1.534   9.772
   89MPD1     C 1719   2.279   3.690  11.757
   89MPD1    C1 1720   2.210   3.583  11.707
   89MPD1    C2 1721   2.217   3.463  11.776
   89MPD1    C3 1722   2.284   3.448  11.891
   89MPD1    C4 1723   2.360   3.552  11.925
   89MPD1    C5 1724   2.365   3.671  11.861
   89MPD1     H 1725   2.163   3.378  11.737
   89MPD1    H1 1726   2.421   3.548  12.014
   89MPD1    H2 1727   2.269   3.783  11.702
   89MPD1    H3 1728   2.415   3.756  11.907
   89MPD1     N 1729   2.308   3.328  11.962
   89MPD1    H5 1730   2.386   3.322  12.027
   89MPD1    N1 1731   2.135   3.597  11.589
   89MPD1    H6 1732   2.050   3.540  11.596
   89MPD1    H7 1733   2.100   3.691  11.572
   90MPD1     C 1734   0.631   1.972  13.675
   90MPD1    C1 1735   0.675   2.079  13.605
   90MPD1    C2 1736   0.814   2.120  13.610
   90MPD1    C3 1737   0.905   2.043  13.675
   90MPD1    C4 1738   0.853   1.930  13.740
   90MPD1    C5 1739   0.724   1.898  13.739
   90MPD1     H 1740   0.827   2.212  13.556
   90MPD1    H1 1741   0.928   1.856  13.766
   90MPD1    H2 1742   0.526   1.952  13.691
   90MPD1    H3 1743   0.693   1.805  13.786
   90MPD1     N 1744   1.042   2.069  13.680
   90MPD1    H5 1745   1.097   2.006  13.738
   90MPD1    N1 1746   0.589   2.174  13.547
   90MPD1    H6 1747   0.497   2.130  13.547
   90MPD1    H7 1748   0.607   2.195  13.449
   91MPD1     C 1749   2.883   2.518  10.738
   91MPD1    C1 1750   2.745   2.528  10.708
   91MPD1    C2 1751   2.688   2.401  10.684
   91MPD1    C3 1752   2.745   2.284  10.693
   91MPD1    C4 1753   2.875   2.278  10.735
   91MPD1    C5 1754   2.937   2.396  10.761
   91MPD1     H 1755   2.584   2.399  10.653
   91MPD1    H1 1756   2.931   2.187  10.756
   91MPD1    H2 1757   2.944   2.605  10.760
   91MPD1    H3 1758   3.040   2.389  10.795
   91MPD1     N 1759   2.674   2.168  10.663
   91MPD1    H5 1760   2.575   2.184  10.650
   91MPD1    N1 1761   2.677   2.647  10.675
   91MPD1    H6 1762   2.576   2.652  10.682
   91MPD1    H7 1763   2.713   2.739  10.701
   92MPD1     C 1764   2.689   1.176  10.904
   92MPD1    C1 1765   2.561   1.219  10.887
   92MPD1    C2 1766   2.548   1.348  10.834
   92MPD1    C3 1767   2.651   1.437  10.810
   92MPD1    C4 1768   2.772   1.397  10.858
   92MPD1    C5 1769   2.786   1.270  10.906
   92MPD1     H 1770   2.449   1.377  10.801
   92MPD1    H1 1771   2.858   1.462  10.858
   92MPD1    H2 1772   2.706   1.074  10.939
   92MPD1    H3 1773   2.887   1.238  10.931
   92MPD1     N 1774   2.629   1.560  10.747
   92MPD1    H5 1775   2.711   1.610  10.713
   92MPD1    N1 1776   2.455   1.126  10.875
   92MPD1    H6 1777   2.370   1.178  10.897
   92MPD1    H7 1778   2.471   1.045  10.934
   93MPD1     C 1779   1.709   4.305  12.033
   93MPD1    C1 1780   1.635   4.333  12.140
   93MPD1    C2 1781   1.575   4.223  12.212
   93MPD1    C3 1782   1.595   4.093  12.175
   93MPD1    C4 1783   1.685   4.070  12.074
   93MPD1    C5 1784   1.728   4.174  11.998
   93MPD1     H 1785   1.499   4.239  12.288
   93MPD1    H1 1786   1.707   3.970  12.038
   93MPD1    H2 1787   1.760   4.374  11.967
   93MPD1    H3 1788   1.801   4.159  11.920
   93MPD1     N 1789   1.528   3.980  12.223
   93MPD1    H5 1790   1.564   3.891  12.191
   93MPD1    N1 1791   1.596   4.470  12.172
   93MPD1    H6 1792   1.577   4.486  12.270
   93MPD1    H7 1793   1.667   4.539  12.148
   94MPD1     C 1794   3.048   0.256  12.795
   94MPD1    C1 1795   3.118   0.371  12.779
   94MPD1    C2 1796   3.120   0.463  12.888
   94MPD1    C3 1797   3.046   0.445  13.001
   94MPD1    C4 1798   2.963   0.334  13.003
   94MPD1    C5 1799   2.977   0.236  12.908
   94MPD1     H 1800   3.188   0.548  12.884
   94MPD1    H1 1801   2.906   0.303  13.090
   94MPD1    H2 1802   3.050   0.175  12.724
   94MPD1    H3 1803   2.920   0.144  12.908
   94MPD1     N 1804   3.048   0.546  13.100
   94MPD1    H5 1805   3.107   0.627  13.084
   94MPD1    N1 1806   3.211   0.383  12.677
   94MPD1    H6 1807   3.227   0.482  12.658
   94MPD1    H7 1808   3.170   0.344  12.592
   95MPD1     C 1809   1.287   0.682   6.484
   95MPD1    C1 1810   1.226   0.770   6.566
   95MPD1    C2 1811   1.084   0.778   6.558
   95MPD1    C3 1812   1.014   0.670   6.509
   95MPD1    C4 1813   1.084   0.570   6.449
   95MPD1    C5 1814   1.214   0.579   6.425
   95MPD1     H 1815   1.029   0.863   6.598
   95MPD1    H1 1816   1.034   0.485   6.403
   95MPD1    H2 1817   1.393   0.674   6.465
   95MPD1    H3 1818   1.268   0.498   6.378
   95MPD1     N 1819   0.874   0.681   6.520
   95MPD1    H5 1820   0.841   0.762   6.572
   95MPD1    N1 1821   1.302   0.872   6.623
   95MPD1    H6 1822   1.395   0.843   6.652
   95MPD1    H7 1823   1.254   0.910   6.704
   96MPD1     C 1824   4.634   0.995  13.102
   96MPD1    C1 1825   4.511   0.931  13.063
   96MPD1    C2 1826   4.401   1.010  13.067
   96MPD1    C3 1827   4.404   1.147  13.069
   96MPD1    C4 1828   4.522   1.210  13.073
   96MPD1    C5 1829   4.631   1.128  13.110
   96MPD1     H 1830   4.305   0.961  13.050
   96MPD1    H1 1831   4.529   1.318  13.064
   96MPD1    H2 1832   4.734   0.953  13.115
   96MPD1    H3 1833   4.727   1.174  13.129
   96MPD1     N 1834   4.292   1.225  13.050
   96MPD1    H5 1835   4.312   1.323  13.034
   96MPD1    N1 1836   4.503   0.791  13.073
   96MPD1    H6 1837   4.423   0.757  13.020
   96MPD1    H7 1838   4.588   0.742  13.049
   97MPD1     C 1839   3.820   4.654  12.124
   97MPD1    C1 1840   3.877   4.565  12.038
   97MPD1    C2 1841   3.874   4.430  12.069
   97MPD1    C3 1842   3.828   4.385  12.191
   97MPD1    C4 1843   3.788   4.475  12.285
   97MPD1    C5 1844   3.772   4.605  12.241
   97MPD1     H 1845   3.911   4.354  12.002
   97MPD1    H1 1846   3.758   4.453  12.387
   97MPD1    H2 1847   3.813   4.761  12.106
   97MPD1    H3 1848   3.733   4.681  12.308
   97MPD1     N 1849   3.830   4.249  12.228
   97MPD1    H5 1850   3.811   4.213  12.321
   97MPD1    N1 1851   3.901   4.592  11.906
   97MPD1    H6 1852   3.969   4.530  11.863
   97MPD1    H7 1853   3.936   4.687  11.897
   98MPD1     C 1854   3.021   0.832  10.955
   98MPD1    C1 1855   3.096   0.784  10.847
   98MPD1    C2 1856   3.030   0.766  10.729
   98MPD1    C3 1857   2.900   0.801  10.714
   98MPD1    C4 1858   2.832   0.864  10.812
   98MPD1    C5 1859   2.888   0.873  10.938
   98MPD1     H 1860   3.086   0.715  10.652
   98MPD1    H1 1861   2.742   0.923  10.801
   98MPD1    H2 1862   3.062   0.850  11.054
   98MPD1    H3 1863   2.829   0.909  11.022
   98MPD1     N 1864   2.826   0.773  10.595
   98MPD1    H5 1865   2.873   0.717  10.524
   98MPD1    N1 1866   3.222   0.727  10.867
   98MPD1    H6 1867   3.268   0.734  10.777
   98MPD1    H7 1868   3.208   0.627  10.883
   99MPD1     C 1869   0.422   1.999   6.443
   99MPD1    C1 1870   0.331   2.064   6.521
   99MPD1    C2 1871   0.376   2.123   6.642
   99MPD1    C3 1872   0.495   2.089   6.695
   99MPD1    C4 1873   0.585   2.019   6.616
   99MPD1    C5 1874   0.547   1.969   6.493
   99MPD1     H 1875   0.300   2.185   6.688
   99MPD1    H1 1876   0.678   1.986   6.662
   99MPD1    H2 1877   0.395   1.974   6.341
   99MPD1    H3 1878   0.617   1.914   6.430
   99MPD1     N 1879   0.549   2.131   6.816
   99MPD1    H5 1880   0.644   2.098   6.830
   99MPD1    N1 1881   0.200   2.093   6.471
   99MPD1    H6 1882   0.169   2.035   6.393
   99MPD1    H7 1883   0.125   2.113   6.537
  100MPD1     C 1884   4.763   1.432  14.699
  100MPD1    C1 1885   0.014   1.557  14.658
  100MPD1    C2 1886   0.130   1.588  14.584
  100MPD1    C3 1887   0.197   1.474  14.530
  100MPD1    C4 1888   0.151   1.350  14.560
  100MPD1    C5 1889   0.047   1.326  14.644
  100MPD1     H 1890   0.148   1.695  14.578
  100MPD1    H1 1891   0.205   1.266  14.517
  100MPD1    H2 1892   4.671   1.410  14.753
  100MPD1    H3 1893   0.026   1.220  14.660
  100MPD1     N 1894   0.310   1.485  14.447
  100MPD1    H5 1895   0.372   1.407  14.426
  100MPD1    N1 1896   4.734   1.669  14.701
  100MPD1    H6 1897   4.642   1.656  14.743
  100MPD1    H7 1898   4.725   1.752  14.642
  101MPD1     C 1899   1.996   1.450   7.708
  101MPD1    C1 1900   2.121   1.488   7.741
  101MPD1    C2 1901   2.158   1.619   7.701
  101MPD1    C3 1902   2.072   1.690   7.623
  101MPD1    C4 1903   1.945   1.651   7.589
  101MPD1    C5 1904   1.904   1.533   7.643
  101MPD1     H 1905   2.258   1.653   7.723
  101MPD1    H1 1906   1.881   1.713   7.526
  101MPD1    H2 1907   1.959   1.357   7.749
  101MPD1    H3 1908   1.804   1.503   7.612
  101MPD1     N 1909   2.142   1.797   7.561
  101MPD1    H5 1910   2.231   1.829   7.599
  101MPD1    N1 1911   2.200   1.407   7.828
  101MPD1    H6 1912   2.298   1.429   7.842
  101MPD1    H7 1913   2.183   1.308   7.815
  102MPD1     C 1914   0.976   4.342   7.145
  102MPD1    C1 1915   1.024   4.415   7.256
  102MPD1    C2 1916   1.060   4.547   7.234
  102MPD1    C3 1917   1.052   4.598   7.101
  102MPD1    C4 1918   1.015   4.526   6.991
  102MPD1    C5 1919   0.969   4.399   7.015
  102MPD1     H 1920   1.083   4.615   7.315
  102MPD1    H1 1921   0.999   4.561   6.890
  102MPD1    H2 1922   0.952   4.237   7.155
  102MPD1    H3 1923   0.929   4.342   6.932
  102MPD1     N 1924   1.076   4.738   7.078
  102MPD1    H5 1925   1.087   4.774   6.984
  102MPD1    N1 1926   1.026   4.358   7.384
  102MPD1    H6 1927   1.095   4.400   7.446
  102MPD1    H7 1928   1.032   4.257   7.370
  103MPD1     C 1929   0.764   0.965   6.977
  103MPD1    C1 1930   0.825   0.915   7.095
  103MPD1    C2 1931   0.869   0.787   7.097
  103MPD1    C3 1932   0.853   0.702   6.991
  103MPD1    C4 1933   0.795   0.751   6.878
  103MPD1    C5 1934   0.742   0.880   6.875
  103MPD1     H 1935   0.899   0.751   7.195
  103MPD1    H1 1936   0.789   0.691   6.788
  103MPD1    H2 1937   0.727   1.067   6.977
  103MPD1    H3 1938   0.696   0.916   6.784
  103MPD1     N 1939   0.898   0.566   6.988
  103MPD1    H5 1940   0.893   0.517   6.899
  103MPD1    N1 1941   0.810   0.991   7.213
  103MPD1    H6 1942   0.821   1.091   7.199
  103MPD1    H7 1943   0.867   0.948   7.286
  104MPD1     C 1944   4.476   3.789  12.483
  104MPD1    C1 1945   4.436   3.836  12.359
  104MPD1    C2 1946   4.342   3.937  12.367
  104MPD1    C3 1947   4.287   3.989  12.484
  104MPD1    C4 1948   4.330   3.935  12.604
  104MPD1    C5 1949   4.425   3.834  12.599
  104MPD1     H 1950   4.319   3.981  12.271
  104MPD1    H1 1951   4.302   3.967  12.704
  104MPD1    H2 1952   4.546   3.707  12.497
  104MPD1    H3 1953   4.462   3.770  12.679
  104MPD1     N 1954   4.199   4.098  12.496
  104MPD1    H5 1955   4.165   4.120  12.589
  104MPD1    N1 1956   4.472   3.768  12.241
  104MPD1    H6 1957   4.566   3.729  12.243
  104MPD1    H7 1958   4.467   3.826  12.158
  105MPD1     C 1959   2.979   1.178  14.232
  105MPD1    C1 1960   3.033   1.088  14.134
  105MPD1    C2 1961   3.063   1.146  14.013
  105MPD1    C3 1962   3.047   1.277  13.990
  105MPD1    C4 1963   2.973   1.355  14.080
  105MPD1    C5 1964   2.951   1.310  14.202
  105MPD1     H 1965   3.109   1.079  13.942
  105MPD1    H1 1966   2.946   1.459  14.070
  105MPD1    H2 1967   2.936   1.144  14.326
  105MPD1    H3 1968   2.896   1.374  14.270
  105MPD1     N 1969   3.068   1.341  13.869
  105MPD1    H5 1970   3.061   1.441  13.855
  105MPD1    N1 1971   3.043   0.949  14.158
  105MPD1    H6 1972   3.113   0.910  14.095
  105MPD1    H7 1973   3.078   0.932  14.252
  106MPD1     C 1974   2.899   1.841   7.272
  106MPD1    C1 1975   2.975   1.728   7.248
  106MPD1    C2 1976   2.965   1.618   7.331
  106MPD1    C3 1977   2.882   1.626   7.444
  106MPD1    C4 1978   2.803   1.735   7.462
  106MPD1    C5 1979   2.818   1.846   7.383
  106MPD1     H 1980   3.036   1.538   7.312
  106MPD1    H1 1981   2.742   1.755   7.550
  106MPD1    H2 1982   2.898   1.929   7.209
  106MPD1    H3 1983   2.768   1.941   7.401
  106MPD1     N 1984   2.865   1.540   7.556
  106MPD1    H5 1985   2.783   1.557   7.613
  106MPD1    N1 1986   3.069   1.735   7.147
  106MPD1    H6 1987   3.050   1.806   7.077
  106MPD1    H7 1988   3.085   1.648   7.097
  107MPD1     C 1989   4.702   1.938  13.794
  107MPD1    C1 1990   4.708   2.056  13.862
  107MPD1    C2 1991   4.607   2.144  13.846
  107MPD1    C3 1992   4.484   2.088  13.809
  107MPD1    C4 1993   4.474   1.965  13.751
  107MPD1    C5 1994   4.584   1.892  13.736
  107MPD1     H 1995   4.618   2.243  13.888
  107MPD1    H1 1996   4.384   1.934  13.699
  107MPD1    H2 1997   0.007   1.881  13.780
  107MPD1    H3 1998   4.571   1.802  13.678
  107MPD1     N 1999   4.367   2.172  13.816
  107MPD1    H5 2000   4.385   2.269  13.841
  107MPD1    N1 2001   0.035   2.098  13.916
  107MPD1    H6 2002   0.021   2.181  13.973
  107MPD1    H7 2003   0.072   2.023  13.973
  108MPD1     C 2004   3.049   0.828  11.665
  108MPD1    C1 2005   3.175   0.857  11.625
  108MPD1    C2 2006   3.263   0.749  11.634
  108MPD1    C3 2007   3.224   0.617  11.660
  108MPD1    C4 2008   3.090   0.587  11.686
  108MPD1    C5 2009   3.010   0.702  11.693
  108MPD1     H 2010   3.366   0.778  11.617
  108MPD1    H1 2011   3.050   0.486  11.688
  108MPD1    H2 2012   2.972   0.904  11.661
  108MPD1    H3 2013   2.906   0.690  11.719
  108MPD1     N 2014   3.308   0.510  11.660
  108MPD1    H5 2015   3.256   0.423  11.670
  108MPD1    N1 2016   3.207   0.994  11.613
  108MPD1    H6 2017   3.128   1.042  11.570
  108MPD1    H7 2018   3.285   1.007  11.548
  109MPD1     C 2019   3.635   2.829   9.844
  109MPD1    C1 2020   3.697   2.819   9.715
  109MPD1    C2 2021   3.651   2.891   9.616
  109MPD1    C3 2022   3.566   2.996   9.649
  109MPD1    C4 2023   3.525   3.025   9.778
  109MPD1    C5 2024   3.548   2.932   9.875
  109MPD1     H 2025   3.687   2.871   9.516
  109MPD1    H1 2026   3.462   3.111   9.798
  109MPD1    H2 2027   3.657   2.756   9.921
  109MPD1    H3 2028   3.495   2.941   9.969
  109MPD1     N 2029   3.544   3.088   9.539
  109MPD1    H5 2030   3.593   3.072   9.451
  109MPD1    N1 2031   3.777   2.707   9.688
  109MPD1    H6 2032   3.821   2.666   9.770
  109MPD1    H7 2033   3.844   2.727   9.615
  110MPD1     C 2034   2.830   3.583   8.897
  110MPD1    C1 2035   2.811   3.512   9.013
  110MPD1    C2 2036   2.928   3.451   9.067
  110MPD1    C3 2037   3.055   3.482   9.019
  110MPD1    C4 2038   3.059   3.559   8.905
  110MPD1    C5 2039   2.951   3.610   8.839
  110MPD1     H 2040   2.923   3.408   9.166
  110MPD1    H1 2041   3.159   3.569   8.863
  110MPD1    H2 2042   2.741   3.615   8.844
  110MPD1    H3 2043   2.960   3.651   8.739
  110MPD1     N 2044   3.178   3.444   9.074
  110MPD1    H5 2045   3.257   3.476   9.018
  110MPD1    N1 2046   2.688   3.472   9.051
  110MPD1    H6 2047   2.615   3.541   9.035
  110MPD1    H7 2048   2.682   3.447   9.149
  111MPD1     C 2049   2.383   2.591  12.503
  111MPD1    C1 2050   2.494   2.622  12.425
  111MPD1    C2 2051   2.570   2.737  12.459
  111MPD1    C3 2052   2.532   2.822  12.561
  111MPD1    C4 2053   2.423   2.782  12.635
  111MPD1    C5 2054   2.348   2.670  12.607
  111MPD1     H 2055   2.665   2.755  12.410
  111MPD1    H1 2056   2.387   2.854  12.708
  111MPD1    H2 2057   2.311   2.511  12.485
  111MPD1    H3 2058   2.275   2.630  12.676
  111MPD1     N 2059   2.602   2.939  12.600
  111MPD1    H5 2060   2.587   2.977  12.694
  111MPD1    N1 2061   2.532   2.536  12.315
  111MPD1    H6 2062   2.603   2.589  12.265
  111MPD1    H7 2063   2.454   2.509  12.257
  112MPD1     C 2064   4.625   0.487  13.300
  112MPD1    C1 2065   4.571   0.449  13.414
  112MPD1    C2 2066   4.605   0.326  13.464
  112MPD1    C3 2067   4.703   0.244  13.403
  112MPD1    C4 2068   4.763   0.294  13.295
  112MPD1    C5 2069   4.723   0.413  13.242
  112MPD1     H 2070   4.547   0.307  13.554
  112MPD1    H1 2071   0.054   0.242  13.241
  112MPD1    H2 2072   4.596   0.581  13.253
  112MPD1    H3 2073   4.776   0.446  13.153
  112MPD1     N 2074   4.745   0.116  13.452
  112MPD1    H5 2075   0.034   0.076  13.396
  112MPD1    N1 2076   4.474   0.529  13.473
  112MPD1    H6 2077   4.457   0.515  13.573
  112MPD1    H7 2078   4.487   0.626  13.447
  113MPD1     C 2079   2.677   2.314  13.716
  113MPD1    C1 2080   2.637   2.278  13.846
  113MPD1    C2 2081   2.601   2.147  13.870
  113MPD1    C3 2082   2.624   2.047  13.780
  113MPD1    C4 2083   2.668   2.083  13.656
  113MPD1    C5 2084   2.692   2.215  13.626
  113MPD1     H 2085   2.568   2.124  13.971
  113MPD1    H1 2086   2.684   1.999  13.589
  113MPD1    H2 2087   2.700   2.419  13.703
  113MPD1    H3 2088   2.727   2.239  13.526
  113MPD1     N 2089   2.601   1.910  13.804
  113MPD1    H5 2090   2.647   1.847  13.739
  113MPD1    N1 2091   2.591   2.376  13.936
  113MPD1    H6 2092   2.590   2.348  14.034
  113MPD1    H7 2093   2.644   2.462  13.923
  114MPD1     C 2094   0.679   0.585  14.381
  114MPD1    C1 2095   0.785   0.560  14.301
  114MPD1    C2 2096   0.911   0.611  14.332
  114MPD1    C3 2097   0.930   0.702  14.437
  114MPD1    C4 2098   0.819   0.725  14.522
  114MPD1    C5 2099   0.702   0.669  14.489
  114MPD1     H 2100   0.987   0.570  14.268
  114MPD1    H1 2101   0.815   0.799  14.600
  114MPD1    H2 2102   0.586   0.531  14.370
  114MPD1    H3 2103   0.609   0.695  14.539
  114MPD1     N 2104   1.056   0.761  14.461
  114MPD1    H5 2105   1.061   0.823  14.541
  114MPD1    N1 2106   0.767   0.456  14.213
  114MPD1    H6 2107   0.673   0.460  14.174
  114MPD1    H7 2108   0.832   0.460  14.135
  115MPD1     C 2109   1.182   4.203  13.342
  115MPD1    C1 2110   1.187   4.321  13.271
  115MPD1    C2 2111   1.198   4.314  13.133
  115MPD1    C3 2112   1.228   4.205  13.063
  115MPD1    C4 2113   1.249   4.088  13.131
  115MPD1    C5 2114   1.219   4.089  13.270
  115MPD1     H 2115   1.173   4.408  13.085
  115MPD1    H1 2116   1.284   3.999  13.080
  115MPD1    H2 2117   1.152   4.191  13.446
  115MPD1    H3 2118   1.227   3.997  13.326
  115MPD1     N 2119   1.272   4.204  12.930
  115MPD1    H5 2120   1.302   4.114  12.894
  115MPD1    N1 2121   1.132   4.439  13.329
  115MPD1    H6 2122   1.143   4.521  13.270
  115MPD1    H7 2123   1.170   4.454  13.423
  116MPD1     C 2124   4.116   1.029  10.914
  116MPD1    C1 2125   4.035   1.126  10.860
  116MPD1    C2 2126   3.972   1.206  10.957
  116MPD1    C3 2127   4.005   1.198  11.092
  116MPD1    C4 2128   4.097   1.104  11.136
  116MPD1    C5 2129   4.153   1.023  11.045
  116MPD1     H 2130   3.887   1.267  10.926
  116MPD1    H1 2131   4.133   1.095  11.238
  116MPD1    H2 2132   4.159   0.951  10.853
  116MPD1    H3 2133   4.217   0.943  11.078
  116MPD1     N 2134   3.930   1.281  11.181
  116MPD1    H5 2135   3.879   1.359  11.141
  116MPD1    N1 2136   4.001   1.131  10.727
  116MPD1    H6 2137   3.993   1.229  10.699
  116MPD1    H7 2138   4.071   1.083  10.671
  117MPD1     C 2139   0.932   2.812   7.513
  117MPD1    C1 2140   0.955   2.699   7.435
  117MPD1    C2 2141   0.957   2.713   7.299
  117MPD1    C3 2142   0.928   2.834   7.240
  117MPD1    C4 2143   0.900   2.946   7.321
  117MPD1    C5 2144   0.907   2.933   7.455
  117MPD1     H 2145   0.986   2.632   7.233
  117MPD1    H1 2146   0.872   3.041   7.278
  117MPD1    H2 2147   0.951   2.810   7.619
  117MPD1    H3 2148   0.900   3.022   7.516
  117MPD1     N 2149   0.911   2.851   7.101
  117MPD1    H5 2150   0.912   2.947   7.068
  117MPD1    N1 2151   0.991   2.576   7.492
  117MPD1    H6 2152   0.973   2.492   7.437
  117MPD1    H7 2153   0.971   2.566   7.592
  118MPD1     C 2154   3.523   3.146  11.448
  118MPD1    C1 2155   3.591   3.176  11.340
  118MPD1    C2 2156   3.723   3.137  11.328
  118MPD1    C3 2157   3.799   3.090  11.435
  118MPD1    C4 2158   3.733   3.077  11.554
  118MPD1    C5 2159   3.594   3.102  11.557
  118MPD1     H 2160   3.772   3.155  11.233
  118MPD1    H1 2161   3.777   3.065  11.653
  118MPD1    H2 2162   3.417   3.163  11.465
  118MPD1    H3 2163   3.545   3.099  11.653
  118MPD1     N 2164   3.939   3.062  11.419
  118MPD1    H5 2165   3.973   3.074  11.325
  118MPD1    N1 2166   3.517   3.223  11.232
  118MPD1    H6 2167   3.429   3.259  11.269
  118MPD1    H7 2168   3.575   3.282  11.173
  119MPD1     C 2169   2.379   1.946   9.312
  119MPD1    C1 2170   2.494   1.949   9.378
  119MPD1    C2 2171   2.494   1.916   9.513
  119MPD1    C3 2172   2.385   1.865   9.569
  119MPD1    C4 2173   2.275   1.839   9.489
  119MPD1    C5 2174   2.271   1.880   9.361
  119MPD1     H 2175   2.588   1.936   9.564
  119MPD1    H1 2176   2.187   1.789   9.526
  119MPD1    H2 2177   2.367   1.991   9.214
  119MPD1    H3 2178   2.179   1.881   9.303
  119MPD1     N 2179   2.390   1.830   9.705
  119MPD1    H5 2180   2.473   1.864   9.752
  119MPD1    N1 2181   2.611   2.000   9.322
  119MPD1    H6 2182   2.608   2.020   9.222
  119MPD1    H7 2183   2.701   1.955   9.339
  120MPD1     C 2184   1.916   0.859   6.223
  120MPD1    C1 2185   1.849   0.817   6.336
  120MPD1    C2 2186   1.880   0.892   6.449
  120MPD1    C3 2187   1.959   1.004   6.448
  120MPD1    C4 2188   2.017   1.041   6.334
  120MPD1    C5 2189   1.990   0.973   6.215
  120MPD1     H 2190   1.830   0.862   6.541
  120MPD1    H1 2191   2.083   1.126   6.320
  120MPD1    H2 2192   1.889   0.808   6.131
  120MPD1    H3 2193   2.039   1.013   6.127
  120MPD1     N 2194   2.002   1.078   6.564
  120MPD1    H5 2195   2.062   1.160   6.556
  120MPD1    N1 2196   1.773   0.699   6.334
  120MPD1    H6 2197   1.724   0.689   6.245
  120MPD1    H7 2198   1.705   0.687   6.408
  121MPD1     C 2199   1.468   2.465   9.012
  121MPD1    C1 2200   1.394   2.354   9.000
  121MPD1    C2 2201   1.282   2.345   9.076
  121MPD1    C3 2202   1.255   2.436   9.177
  121MPD1    C4 2203   1.340   2.538   9.198
  121MPD1    C5 2204   1.434   2.565   9.103
  121MPD1     H 2205   1.207   2.268   9.058
  121MPD1    H1 2206   1.320   2.609   9.278
  121MPD1    H2 2207   1.557   2.487   8.953
  121MPD1    H3 2208   1.485   2.660   9.116
  121MPD1     N 2209   1.144   2.405   9.259
  121MPD1    H5 2210   1.089   2.320   9.250
  121MPD1    N1 2211   1.417   2.263   8.897
  121MPD1    H6 2212   1.378   2.172   8.923
  121MPD1    H7 2213   1.516   2.257   8.875
  122MPD1     C 2214   1.070   3.312  13.556
  122MPD1    C1 2215   1.064   3.218  13.453
  122MPD1    C2 2216   0.992   3.258  13.340
  122MPD1    C3 2217   0.907   3.374  13.339
  122MPD1    C4 2218   0.919   3.464  13.447
  122MPD1    C5 2219   0.995   3.427  13.551
  122MPD1     H 2220   0.985   3.186  13.259
  122MPD1    H1 2221   0.867   3.559  13.452
  122MPD1    H2 2222   1.127   3.298  13.647
  122MPD1    H3 2223   0.991   3.492  13.638
  122MPD1     N 2224   0.836   3.400  13.219
  122MPD1    H5 2225   0.844   3.332  13.144
  122MPD1    N1 2226   1.106   3.083  13.468
  122MPD1    H6 2227   1.174   3.073  13.543
  122MPD1    H7 2228   1.020   3.033  13.491
  123MPD1     C 2229   0.596   2.337  12.411
  123MPD1    C1 2230   0.620   2.248  12.512
  123MPD1    C2 2231   0.552   2.279  12.629
  123MPD1    C3 2232   0.492   2.411  12.643
  123MPD1    C4 2233   0.487   2.499  12.542
  123MPD1    C5 2234   0.540   2.459  12.423
  123MPD1     H 2235   0.546   2.211  12.713
  123MPD1    H1 2236   0.440   2.595  12.556
  123MPD1    H2 2237   0.637   2.313  12.313
  123MPD1    H3 2238   0.536   2.528  12.340
  123MPD1     N 2239   0.421   2.448  12.764
  123MPD1    H5 2240   0.370   2.536  12.767
  123MPD1    N1 2241   0.670   2.119  12.484
  123MPD1    H6 2242   0.712   2.068  12.561
  123MPD1    H7 2243   0.747   2.121  12.417
  124MPD1     C 2244   0.886   0.125  12.916
  124MPD1    C1 2245   0.810   0.159  13.025
  124MPD1    C2 2246   0.700   0.244  13.007
  124MPD1    C3 2247   0.674   0.292  12.887
  124MPD1    C4 2248   0.744   0.246  12.777
  124MPD1    C5 2249   0.845   0.154  12.785
  124MPD1     H 2250   0.630   0.266  13.087
  124MPD1    H1 2251   0.716   0.279  12.677
  124MPD1    H2 2252   0.982   0.076  12.930
  124MPD1    H3 2253   0.891   0.123  12.692
  124MPD1     N 2254   0.567   0.375  12.857
  124MPD1    H5 2255   0.556   0.402  12.759
  124MPD1    N1 2256   0.852   0.142  13.155
  124MPD1    H6 2257   0.899   0.052  13.166
  124MPD1    H7 2258   0.766   0.146  13.208
  125MPD1     C 2259   3.753   2.900   5.554
  125MPD1    C1 2260   3.762   3.036   5.576
  125MPD1    C2 2261   3.850   3.081   5.672
  125MPD1    C3 2262   3.923   2.997   5.757
  125MPD1    C4 2263   3.916   2.860   5.727
  125MPD1    C5 2264   3.825   2.809   5.635
  125MPD1     H 2265   3.850   3.187   5.691
  125MPD1    H1 2266   3.994   2.806   5.778
  125MPD1    H2 2267   3.679   2.866   5.484
  125MPD1    H3 2268   3.824   2.702   5.618
  125MPD1     N 2269   4.024   3.033   5.854
  125MPD1    H5 2270   4.054   2.959   5.917
  125MPD1    N1 2271   3.701   3.116   5.479
  125MPD1    H6 2272   3.629   3.080   5.416
  125MPD1    H7 2273   3.684   3.210   5.513
  126MPD1     C 2274   1.481   1.816  13.441
  126MPD1    C1 2275   1.460   1.684  13.476
  126MPD1    C2 2276   1.329   1.647  13.502
  126MPD1    C3 2277   1.219   1.730  13.476
  126MPD1    C4 2278   1.244   1.854  13.416
  126MPD1    C5 2279   1.373   1.896  13.408
  126MPD1     H 2280   1.299   1.560  13.559
  126MPD1    H1 2281   1.163   1.925  13.402
  126MPD1    H2 2282   1.583   1.854  13.446
  126MPD1    H3 2283   1.394   1.997  13.376
  126MPD1     N 2284   1.088   1.677  13.504
  126MPD1    H5 2285   1.080   1.589  13.554
  126MPD1    N1 2286   1.564   1.602  13.526
  126MPD1    H6 2287   1.548   1.502  13.535
  126MPD1    H7 2288   1.659   1.615  13.491
  127MPD1     C 2289   3.871   1.969   7.090
  127MPD1    C1 2290   3.872   2.049   7.211
  127MPD1    C2 2291   3.926   2.171   7.201
  127MPD1    C3 2292   3.988   2.213   7.085
  127MPD1    C4 2293   4.005   2.128   6.978
  127MPD1    C5 2294   3.950   2.004   6.983
  127MPD1     H 2295   3.918   2.242   7.283
  127MPD1    H1 2296   4.065   2.152   6.891
  127MPD1    H2 2297   3.815   1.876   7.085
  127MPD1    H3 2298   3.942   1.943   6.893
  127MPD1     N 2299   4.018   2.352   7.065
  127MPD1    H5 2300   4.046   2.379   6.971
  127MPD1    N1 2301   3.784   2.020   7.320
  127MPD1    H6 2302   3.784   1.920   7.341
  127MPD1    H7 2303   3.819   2.066   7.404
  128MPD1     C 2304   4.637   3.169   7.370
  128MPD1    C1 2305   4.540   3.111   7.461
  128MPD1    C2 2306   4.462   3.007   7.412
  128MPD1    C3 2307   4.475   2.972   7.278
  128MPD1    C4 2308   4.574   3.021   7.197
  128MPD1    C5 2309   4.657   3.118   7.241
  128MPD1     H 2310   4.383   2.976   7.479
  128MPD1    H1 2311   4.571   2.992   7.093
  128MPD1    H2 2312   4.690   3.260   7.394
  128MPD1    H3 2313   4.730   3.163   7.175
  128MPD1     N 2314   4.384   2.893   7.211
  128MPD1    H5 2315   4.413   2.872   7.116
  128MPD1    N1 2316   4.504   3.188   7.573
  128MPD1    H6 2317   4.472   3.131   7.651
  128MPD1    H7 2318   4.587   3.230   7.615
  129MPD1     C 2319   0.306   1.761  13.022
  129MPD1    C1 2320   0.232   1.876  13.001
  129MPD1    C2 2321   0.240   1.939  12.876
  129MPD1    C3 2322   0.309   1.886  12.777
  129MPD1    C4 2323   0.386   1.770  12.800
  129MPD1    C5 2324   0.374   1.704  12.922
  129MPD1     H 2325   0.173   2.022  12.855
  129MPD1    H1 2326   0.443   1.715  12.727
  129MPD1    H2 2327   0.289   1.703  13.111
  129MPD1    H3 2328   0.439   1.620  12.945
  129MPD1     N 2329   0.303   1.948  12.650
  129MPD1    H5 2330   0.261   2.040  12.645
  129MPD1    N1 2331   0.182   1.938  13.124
  129MPD1    H6 2332   0.163   1.869  13.196
  129MPD1    H7 2333   0.094   1.988  13.109
  130MPD1     C 2334   4.030   0.821  12.964
  130MPD1    C1 2335   4.123   0.745  12.882
  130MPD1    C2 2336   4.203   0.652  12.942
  130MPD1    C3 2337   4.206   0.630  13.080
  130MPD1    C4 2338   4.113   0.693  13.153
  130MPD1    C5 2339   4.030   0.784  13.100
  130MPD1     H 2340   4.256   0.593  12.868
  130MPD1    H1 2341   4.111   0.674  13.260
  130MPD1    H2 2342   3.957   0.898  12.940
  130MPD1    H3 2343   3.961   0.836  13.165
  130MPD1     N 2344   4.263   0.513  13.141
  130MPD1    H5 2345   4.225   0.476  13.227
  130MPD1    N1 2346   4.102   0.747  12.742
  130MPD1    H6 2347   4.170   0.694  12.688
  130MPD1    H7 2348   4.080   0.838  12.702
  131MPD1     C 2349   3.324   1.321  11.207
  131MPD1    C1 2350   3.224   1.391  11.151
  131MPD1    C2 2351   3.096   1.341  11.157
  131MPD1    C3 2352   3.066   1.236  11.232
  131MPD1    C4 2353   3.164   1.156  11.289
  131MPD1    C5 2354   3.291   1.198  11.258
  131MPD1     H 2355   3.022   1.403  11.108
  131MPD1    H1 2356   3.133   1.069  11.345
  131MPD1    H2 2357   3.430   1.343  11.195
  131MPD1    H3 2358   3.373   1.132  11.283
  131MPD1     N 2359   2.933   1.223  11.263
  131MPD1    H5 2360   2.868   1.273  11.203
  131MPD1    N1 2361   3.265   1.498  11.069
  131MPD1    H6 2362   3.193   1.571  11.065
  131MPD1    H7 2363   3.357   1.528  11.099
  132MPD1     C 2364   2.219   0.471  11.301
  132MPD1    C1 2365   2.241   0.529  11.177
  132MPD1    C2 2366   2.304   0.655  11.172
  132MPD1    C3 2367   2.349   0.713  11.291
  132MPD1    C4 2368   2.322   0.658  11.414
  132MPD1    C5 2369   2.266   0.531  11.414
  132MPD1     H 2370   2.316   0.709  11.079
  132MPD1    H1 2371   2.350   0.714  11.503
  132MPD1    H2 2372   2.188   0.367  11.310
  132MPD1    H3 2373   2.257   0.485  11.512
  132MPD1     N 2374   2.426   0.828  11.296
  132MPD1    H5 2375   2.448   0.853  11.392
  132MPD1    N1 2376   2.184   0.473  11.064
  132MPD1    H6 2377   2.204   0.520  10.976
  132MPD1    H7 2378   2.085   0.452  11.079
  133MPD1     C 2379   3.087   1.881   7.556
  133MPD1    C1 2380   3.160   1.975   7.493
  133MPD1    C2 2381   3.222   2.079   7.574
  133MPD1    C3 2382   3.178   2.099   7.707
  133MPD1    C4 2383   3.085   2.007   7.757
  133MPD1    C5 2384   3.053   1.900   7.685
  133MPD1     H 2385   3.295   2.150   7.536
  133MPD1    H1 2386   3.063   1.997   7.863
  133MPD1    H2 2387   3.039   1.801   7.501
  133MPD1    H3 2388   2.993   1.822   7.731
  133MPD1     N 2389   3.236   2.209   7.784
  133MPD1    H5 2390   3.311   2.268   7.749
  133MPD1    N1 2391   3.206   1.965   7.361
  133MPD1    H6 2392   3.307   1.973   7.355
  133MPD1    H7 2393   3.172   1.888   7.304
  134MPD1     C 2394   3.494   4.142  13.367
  134MPD1    C1 2395   3.626   4.161  13.350
  134MPD1    C2 2396   3.731   4.121  13.433
  134MPD1    C3 2397   3.701   4.051  13.545
  134MPD1    C4 2398   3.564   4.026  13.569
  134MPD1    C5 2399   3.465   4.071  13.480
  134MPD1     H 2400   3.831   4.159  13.419
  134MPD1    H1 2401   3.532   3.967  13.655
  134MPD1    H2 2402   3.414   4.173  13.300
  134MPD1    H3 2403   3.363   4.039  13.502
  134MPD1     N 2404   3.803   4.005  13.634
  134MPD1    H5 2405   3.899   4.028  13.609
  134MPD1    N1 2406   3.663   4.258  13.255
  134MPD1    H6 2407   3.758   4.242  13.223
  134MPD1    H7 2408   3.606   4.256  13.170
  135MPD1     C 2409   1.589   1.247   6.791
  135MPD1    C1 2410   1.527   1.290   6.902
  135MPD1    C2 2411   1.387   1.291   6.907
  135MPD1    C3 2412   1.311   1.253   6.797
  135MPD1    C4 2413   1.377   1.203   6.692
  135MPD1    C5 2414   1.510   1.201   6.684
  135MPD1     H 2415   1.340   1.337   6.993
  135MPD1    H1 2416   1.323   1.191   6.598
  135MPD1    H2 2417   1.697   1.240   6.785
  135MPD1    H3 2418   1.560   1.162   6.596
  135MPD1     N 2419   1.170   1.251   6.783
  135MPD1    H5 2420   1.128   1.239   6.692
  135MPD1    N1 2421   1.599   1.355   7.005
  135MPD1    H6 2422   1.687   1.311   7.032
  135MPD1    H7 2423   1.546   1.349   7.092
  136MPD1     C 2424   2.581   3.389   9.529
  136MPD1    C1 2425   2.676   3.432   9.439
  136MPD1    C2 2426   2.794   3.363   9.425
  136MPD1    C3 2427   2.820   3.249   9.493
  136MPD1    C4 2428   2.715   3.205   9.571
  136MPD1    C5 2429   2.600   3.270   9.594
  136MPD1     H 2430   2.867   3.409   9.359
  136MPD1    H1 2431   2.721   3.110   9.623
  136MPD1    H2 2432   2.488   3.444   9.541
  136MPD1    H3 2433   2.521   3.236   9.659
  136MPD1     N 2434   2.938   3.178   9.465
  136MPD1    H5 2435   2.997   3.229   9.400
  136MPD1    N1 2436   2.639   3.525   9.348
  136MPD1    H6 2437   2.560   3.584   9.371
  136MPD1    H7 2438   2.717   3.588   9.331
  137MPD1     C 2439   3.448   3.233   8.757
  137MPD1    C1 2440   3.535   3.193   8.866
  137MPD1    C2 2441   3.476   3.132   8.974
  137MPD1    C3 2442   3.339   3.125   8.994
  137MPD1    C4 2443   3.262   3.172   8.896
  137MPD1    C5 2444   3.315   3.226   8.780
  137MPD1     H 2445   3.547   3.093   9.046
  137MPD1    H1 2446   3.154   3.171   8.907
  137MPD1    H2 2447   3.486   3.280   8.667
  137MPD1    H3 2448   3.250   3.265   8.703
  137MPD1     N 2449   3.277   3.071   9.108
  137MPD1    H5 2450   3.175   3.070   9.114
  137MPD1    N1 2451   3.670   3.205   8.846
  137MPD1    H6 2452   3.718   3.219   8.934
  137MPD1    H7 2453   3.683   3.285   8.784
  138MPD1     C 2454   2.484   3.590   6.839
  138MPD1    C1 2455   2.411   3.519   6.926
  138MPD1    C2 2456   2.475   3.409   6.991
  138MPD1    C3 2457   2.610   3.387   6.982
  138MPD1    C4 2458   2.682   3.464   6.885
  138MPD1    C5 2459   2.621   3.566   6.823
  138MPD1     H 2460   2.421   3.337   7.050
  138MPD1    H1 2461   2.788   3.450   6.874
  138MPD1    H2 2462   2.436   3.668   6.780
  138MPD1    H3 2463   2.686   3.631   6.765
  138MPD1     N 2464   2.672   3.281   7.049
  138MPD1    H5 2465   2.604   3.220   7.094
  138MPD1    N1 2466   2.269   3.526   6.933
  138MPD1    H6 2467   2.229   3.619   6.947
  138MPD1    H7 2468   2.227   3.467   7.004
  139MPD1     C 2469   4.614   1.762  12.533
  139MPD1    C1 2470   4.657   1.700  12.421
  139MPD1    C2 2471   4.774   1.627  12.433
  139MPD1    C3 2472   0.065   1.625  12.545
  139MPD1    C4 2473   0.010   1.693  12.652
  139MPD1    C5 2474   4.683   1.760  12.647
  139MPD1     H 2475   0.013   1.567  12.346
  139MPD1    H1 2476   0.057   1.696  12.750
  139MPD1    H2 2477   4.521   1.818  12.532
  139MPD1    H3 2478   4.649   1.803  12.741
  139MPD1     N 2479   0.184   1.551  12.565
  139MPD1    H5 2480   0.221   1.530  12.658
  139MPD1    N1 2481   4.582   1.694  12.300
  139MPD1    H6 2482   4.632   1.652  12.222
  139MPD1    H7 2483   4.522   1.772  12.274
  140MPD1     C 2484   3.732   0.517  14.658
  140MPD1    C1 2485   3.824   0.495  14.549
  140MPD1    C2 2486   3.799   0.558  14.429
  140MPD1    C3 2487   3.697   0.649  14.420
  140MPD1    C4 2488   3.610   0.662  14.527
  140MPD1    C5 2489   3.625   0.596  14.642
  140MPD1     H 2490   3.869   0.529  14.351
  140MPD1    H1 2491   3.526   0.729  14.513
  140MPD1    H2 2492   3.734   0.469  14.755
  140MPD1    H3 2493   3.554   0.607  14.723
  140MPD1     N 2494   3.661   0.718  14.296
  140MPD1    H5 2495   3.583   0.782  14.302
  140MPD1    N1 2496   3.910   0.389  14.556
  140MPD1    H6 2497   3.934   0.362  14.651
  140MPD1    H7 2498   3.989   0.383  14.491
  141MPD1     C 2499   4.292   1.160  13.750
  141MPD1    C1 2500   4.283   1.024  13.773
  141MPD1    C2 2501   4.163   0.960  13.788
  141MPD1    C3 2502   4.047   1.029  13.786
  141MPD1    C4 2503   4.052   1.166  13.770
  141MPD1    C5 2504   4.174   1.232  13.746
  141MPD1     H 2505   4.152   0.853  13.802
  141MPD1    H1 2506   3.962   1.225  13.781
  141MPD1    H2 2507   4.380   1.209  13.711
  141MPD1    H3 2508   4.178   1.334  13.710
  141MPD1     N 2509   3.927   0.962  13.815
  141MPD1    H5 2510   3.928   0.862  13.830
  141MPD1    N1 2511   4.404   0.955  13.764
  141MPD1    H6 2512   4.402   0.872  13.824
  141MPD1    H7 2513   4.492   1.004  13.775
  142MPD1     C 2514   2.144   1.845   6.952
  142MPD1    C1 2515   2.199   1.936   6.864
  142MPD1    C2 2516   2.139   2.054   6.836
  142MPD1    C3 2517   2.014   2.084   6.896
  142MPD1    C4 2518   1.961   1.992   6.988
  142MPD1    C5 2519   2.025   1.879   7.014
  142MPD1     H 2520   2.182   2.128   6.769
  142MPD1    H1 2521   1.863   2.010   7.029
  142MPD1    H2 2522   2.188   1.749   6.976
  142MPD1    H3 2523   1.981   1.809   7.083
  142MPD1     N 2524   1.936   2.205   6.884
  142MPD1    H5 2525   1.852   2.205   6.942
  142MPD1    N1 2526   2.326   1.907   6.811
  142MPD1    H6 2527   2.323   1.923   6.710
  142MPD1    H7 2528   2.355   1.812   6.828
  143MPD1     C 2529   2.356   4.594   9.188
  143MPD1    C1 2530   2.417   4.502   9.110
  143MPD1    C2 2531   2.441   4.378   9.162
  143MPD1    C3 2532   2.384   4.349   9.284
  143MPD1    C4 2533   2.315   4.437   9.352
  143MPD1    C5 2534   2.297   4.561   9.304
  143MPD1     H 2535   2.494   4.298   9.113
  143MPD1    H1 2536   2.281   4.404   9.449
  143MPD1    H2 2537   2.355   4.696   9.149
  143MPD1    H3 2538   2.241   4.633   9.362
  143MPD1     N 2539   2.404   4.221   9.345
  143MPD1    H5 2540   2.370   4.213   9.440
  143MPD1    N1 2541   2.481   4.547   8.985
  143MPD1    H6 2542   2.425   4.616   8.936
  143MPD1    H7 2543   2.476   4.466   8.925
  144MPD1     C 2544   1.136   2.627   6.651
  144MPD1    C1 2545   1.215   2.696   6.556
  144MPD1    C2 2546   1.308   2.788   6.607
  144MPD1    C3 2547   1.343   2.786   6.739
  144MPD1    C4 2548   1.285   2.695   6.823
  144MPD1    C5 2549   1.171   2.627   6.782
  144MPD1     H 2550   1.370   2.851   6.544
  144MPD1    H1 2551   1.310   2.693   6.928
  144MPD1    H2 2552   1.045   2.575   6.623
  144MPD1    H3 2553   1.109   2.576   6.855
  144MPD1     N 2554   1.455   2.868   6.776
  144MPD1    H5 2555   1.485   2.937   6.708
  144MPD1    N1 2556   1.175   2.693   6.419
  144MPD1    H6 2557   1.132   2.603   6.399
  144MPD1    H7 2558   1.250   2.715   6.354
  145MPD1     C 2559   1.641   3.766   6.706
  145MPD1    C1 2560   1.538   3.679   6.682
  145MPD1    C2 2561   1.552   3.548   6.732
  145MPD1    C3 2562   1.673   3.495   6.775
  145MPD1    C4 2563   1.779   3.583   6.771
  145MPD1    C5 2564   1.759   3.716   6.748
  145MPD1     H 2565   1.468   3.479   6.725
  145MPD1    H1 2566   1.879   3.562   6.808
  145MPD1    H2 2567   1.630   3.872   6.689
  145MPD1    H3 2568   1.841   3.782   6.774
  145MPD1     N 2569   1.681   3.355   6.809
  145MPD1    H5 2570   1.592   3.307   6.816
  145MPD1    N1 2571   1.412   3.740   6.652
  145MPD1    H6 2572   1.348   3.675   6.608
  145MPD1    H7 2573   1.425   3.824   6.596
  146MPD1     C 2574   3.646   1.119   9.061
  146MPD1    C1 2575   3.537   1.105   8.976
  146MPD1    C2 2576   3.516   0.975   8.921
  146MPD1    C3 2577   3.598   0.870   8.957
  146MPD1    C4 2578   3.711   0.893   9.030
  146MPD1    C5 2579   3.730   1.017   9.083
  146MPD1     H 2580   3.440   0.952   8.847
  146MPD1    H1 2581   3.790   0.821   9.050
  146MPD1    H2 2582   3.659   1.204   9.127
  146MPD1    H3 2583   3.817   1.041   9.143
  146MPD1     N 2584   3.560   0.737   8.917
  146MPD1    H5 2585   3.464   0.731   8.886
  146MPD1    N1 2586   3.456   1.214   8.939
  146MPD1    H6 2587   3.462   1.276   9.019
  146MPD1    H7 2588   3.361   1.189   8.911
  147MPD1     C 2589   3.380   4.674  10.786
  147MPD1    C1 2590   3.312   4.673  10.905
  147MPD1    C2 2591   3.364   4.613  11.017
  147MPD1    C3 2592   3.473   4.531  10.998
  147MPD1    C4 2593   3.537   4.528  10.876
  147MPD1    C5 2594   3.489   4.601  10.772
  147MPD1     H 2595   3.302   4.611  11.106
  147MPD1    H1 2596   3.626   4.468  10.857
  147MPD1    H2 2597   3.338   4.722  10.699
  147MPD1    H3 2598   3.544   4.604  10.679
  147MPD1     N 2599   3.522   4.442  11.100
  147MPD1    H5 2600   3.603   4.385  11.080
  147MPD1    N1 2601   3.182   4.720  10.907
  147MPD1    H6 2602   3.159   4.763  10.996
  147MPD1    H7 2603   3.173   0.012  10.843
  148MPD1     C 2604   4.195   4.427  11.825
  148MPD1    C1 2605   4.137   4.297  11.852
  148MPD1    C2 2606   4.048   4.256  11.753
  148MPD1    C3 2607   4.014   4.332  11.641
  148MPD1    C4 2608   4.074   4.449  11.621
  148MPD1    C5 2609   4.162   4.499  11.710
  148MPD1     H 2610   3.986   4.168  11.770
  148MPD1    H1 2611   4.066   4.508  11.531
  148MPD1    H2 2612   4.270   4.467  11.893
  148MPD1    H3 2613   4.221   4.587  11.689
  148MPD1     N 2614   3.922   4.278  11.549
  148MPD1    H5 2615   3.874   4.193  11.578
  148MPD1    N1 2616   4.175   4.213  11.961
  148MPD1    H6 2617   4.202   4.264  12.045
  148MPD1    H7 2618   4.107   4.145  11.992
  149MPD1     C 2619   2.578   0.740  11.721
  149MPD1    C1 2620   2.454   0.746  11.776
  149MPD1    C2 2621   2.366   0.843  11.739
  149MPD1    C3 2622   2.418   0.943  11.666
  149MPD1    C4 2623   2.551   0.948  11.626
  149MPD1    C5 2624   2.626   0.839  11.646
  149MPD1     H 2625   2.262   0.838  11.769
  149MPD1    H1 2626   2.587   1.020  11.553
  149MPD1    H2 2627   2.648   0.658  11.729
  149MPD1    H3 2628   2.724   0.821  11.602
  149MPD1     N 2629   2.322   1.039  11.621
  149MPD1    H5 2630   2.225   1.015  11.639
  149MPD1    N1 2631   2.401   0.636  11.841
  149MPD1    H6 2632   2.477   0.601  11.898
  149MPD1    H7 2633   2.323   0.671  11.897
  150MPD1     C 2634   3.331   4.101  14.092
  150MPD1    C1 2635   3.330   4.072  13.952
  150MPD1    C2 2636   3.350   3.947  13.915
  150MPD1    C3 2637   3.346   3.834  14.002
  150MPD1    C4 2638   3.346   3.872  14.134
  150MPD1    C5 2639   3.338   3.997  14.174
  150MPD1     H 2640   3.357   3.924  13.809
  150MPD1    H1 2641   3.333   3.799  14.212
  150MPD1    H2 2642   3.329   4.202  14.131
  150MPD1    H3 2643   3.327   4.015  14.280
  150MPD1     N 2644   3.343   3.704  13.949
  150MPD1    H5 2645   3.345   3.703  13.847
  150MPD1    N1 2646   3.329   4.181  13.855
  150MPD1    H6 2647   3.293   4.142  13.768
  150MPD1    H7 2648   3.286   4.271  13.875
  151MPD1     C 2649   0.231   1.034  13.445
  151MPD1    C1 2650   0.195   1.019  13.576
  151MPD1    C2 2651   0.210   1.125  13.669
  151MPD1    C3 2652   0.247   1.249  13.619
  151MPD1    C4 2653   0.280   1.261  13.484
  151MPD1    C5 2654   0.268   1.158  13.404
  151MPD1     H 2655   0.182   1.111  13.773
  151MPD1    H1 2656   0.308   1.360  13.450
  151MPD1    H2 2657   0.241   0.952  13.374
  151MPD1    H3 2658   0.299   1.169  13.301
  151MPD1     N 2659   0.235   1.373  13.694
  151MPD1    H5 2660   0.263   1.456  13.642
  151MPD1    N1 2661   0.179   0.892  13.629
  151MPD1    H6 2662   0.145   0.835  13.551
  151MPD1    H7 2663   0.112   0.885  13.705
  152MPD1     C 2664   1.149   1.893   7.255
  152MPD1    C1 2665   1.032   1.821   7.236
  152MPD1    C2 2666   0.983   1.824   7.108
  152MPD1    C3 2667   1.036   1.921   7.021
  152MPD1    C4 2668   1.146   1.998   7.051
  152MPD1    C5 2669   1.207   1.977   7.164
  152MPD1     H 2670   0.900   1.763   7.077
  152MPD1    H1 2671   1.183   2.065   6.974
  152MPD1    H2 2672   1.200   1.894   7.351
  152MPD1    H3 2673   1.302   2.026   7.181
  152MPD1     N 2674   0.969   1.927   6.895
  152MPD1    H5 2675   0.885   1.872   6.882
  152MPD1    N1 2676   0.976   1.732   7.329
  152MPD1    H6 2677   0.881   1.701   7.308
  152MPD1    H7 2678   0.991   1.763   7.425
  153MPD1     C 2679   2.919   3.881   5.857
  153MPD1    C1 2680   2.974   3.819   5.972
  153MPD1    C2 2681   2.977   3.898   6.087
  153MPD1    C3 2682   2.938   4.033   6.092
  153MPD1    C4 2683   2.885   4.089   5.973
  153MPD1    C5 2684   2.882   4.015   5.854
  153MPD1     H 2685   3.017   3.857   6.179
  153MPD1    H1 2686   2.856   4.193   5.963
  153MPD1    H2 2687   2.920   3.834   5.759
  153MPD1    H3 2688   2.851   4.061   5.761
  153MPD1     N 2689   2.954   4.114   6.202
  153MPD1    H5 2690   2.999   4.063   6.277
  153MPD1    N1 2691   3.034   3.695   5.964
  153MPD1    H6 2692   2.979   3.640   5.899
  153MPD1    H7 2693   3.031   3.647   6.054
  154MPD1     C 2694   2.737   3.841   6.345
  154MPD1    C1 2695   2.729   3.965   6.406
  154MPD1    C2 2696   2.770   3.983   6.537
  154MPD1    C3 2697   2.793   3.871   6.612
  154MPD1    C4 2698   2.807   3.747   6.552
  154MPD1    C5 2699   2.776   3.736   6.420
  154MPD1     H 2700   2.783   4.084   6.574
  154MPD1    H1 2701   2.848   3.660   6.602
  154MPD1    H2 2702   2.695   3.817   6.249
  154MPD1    H3 2703   2.774   3.638   6.373
  154MPD1     N 2704   2.819   3.884   6.753
  154MPD1    H5 2705   2.828   3.796   6.804
  154MPD1    N1 2706   2.697   4.084   6.333
  154MPD1    H6 2707   2.642   4.071   6.249
  154MPD1    H7 2708   2.662   4.164   6.386
  155MPD1     C 2709   2.558   2.294  11.053
  155MPD1    C1 2710   2.548   2.334  11.189
  155MPD1    C2 2711   2.473   2.257  11.270
  155MPD1    C3 2712   2.420   2.139  11.233
  155MPD1    C4 2713   2.415   2.109  11.099
  155MPD1    C5 2714   2.483   2.195  11.008
  155MPD1     H 2715   2.462   2.299  11.369
  155MPD1    H1 2716   2.362   2.023  11.059
  155MPD1    H2 2717   2.618   2.348  10.980
  155MPD1    H3 2718   2.485   2.177  10.902
  155MPD1     N 2719   2.340   2.062  11.312
  155MPD1    H5 2720   2.276   2.003  11.260
  155MPD1    N1 2721   2.606   2.454  11.234
  155MPD1    H6 2722   2.681   2.478  11.170
  155MPD1    H7 2723   2.648   2.443  11.326
  156MPD1     C 2724   3.560   2.011  10.509
  156MPD1    C1 2725   3.468   1.969  10.414
  156MPD1    C2 2726   3.453   1.841  10.385
  156MPD1    C3 2727   3.537   1.744  10.454
  156MPD1    C4 2728   3.623   1.788  10.546
  156MPD1    C5 2729   3.633   1.920  10.580
  156MPD1     H 2730   3.373   1.806  10.321
  156MPD1    H1 2731   3.692   1.722  10.596
  156MPD1    H2 2732   3.562   2.118  10.524
  156MPD1    H3 2733   3.687   1.955  10.667
  156MPD1     N 2734   3.525   1.609  10.422
  156MPD1    H5 2735   3.570   1.543  10.485
  156MPD1    N1 2736   3.400   2.073  10.345
  156MPD1    H6 2737   3.308   2.045  10.314
  156MPD1    H7 2738   3.403   2.156  10.404
  157MPD1     C 2739   4.190   2.295  11.548
  157MPD1    C1 2740   4.133   2.415  11.569
  157MPD1    C2 2741   4.071   2.475  11.462
  157MPD1    C3 2742   4.072   2.419  11.338
  157MPD1    C4 2743   4.123   2.292  11.320
  157MPD1    C5 2744   4.181   2.225  11.426
  157MPD1     H 2745   4.017   2.567  11.479
  157MPD1    H1 2746   4.117   2.233  11.229
  157MPD1    H2 2747   4.229   2.227  11.623
  157MPD1    H3 2748   4.227   2.127  11.429
  157MPD1     N 2749   4.019   2.480  11.226
  157MPD1    H5 2750   4.041   2.440  11.136
  157MPD1    N1 2751   4.131   2.477  11.697
  157MPD1    H6 2752   4.130   2.579  11.692
  157MPD1    H7 2753   4.208   2.439  11.751
  158MPD1     C 2754   3.110   2.370  10.281
  158MPD1    C1 2755   3.015   2.268  10.275
  158MPD1    C2 2756   3.021   2.168  10.370
  158MPD1    C3 2757   3.106   2.184  10.475
  158MPD1    C4 2758   3.188   2.297  10.493
  158MPD1    C5 2759   3.195   2.384  10.391
  158MPD1     H 2760   2.954   2.083  10.362
  158MPD1    H1 2761   3.246   2.312  10.583
  158MPD1    H2 2762   3.125   2.446  10.206
  158MPD1    H3 2763   3.272   2.461  10.389
  158MPD1     N 2764   3.119   2.067  10.559
  158MPD1    H5 2765   3.061   1.988  10.535
  158MPD1    N1 2766   2.934   2.260  10.162
  158MPD1    H6 2767   2.927   2.353  10.120
  158MPD1    H7 2768   2.964   2.187  10.098
  159MPD1     C 2769   3.940   1.757  11.069
  159MPD1    C1 2770   3.892   1.650  10.996
  159MPD1    C2 2771   3.765   1.657  10.945
  159MPD1    C3 2772   3.685   1.777  10.953
  159MPD1    C4 2773   3.739   1.881  11.016
  159MPD1    C5 2774   3.857   1.864  11.076
  159MPD1     H 2775   3.737   1.579  10.875
  159MPD1    H1 2776   3.688   1.972  11.048
  159MPD1    H2 2777   4.040   1.749  11.111
  159MPD1    H3 2778   3.902   1.948  11.128
  159MPD1     N 2779   3.557   1.792  10.893
  159MPD1    H5 2780   3.513   1.883  10.901
  159MPD1    N1 2781   3.966   1.530  10.999
  159MPD1    H6 2782   3.956   1.478  10.912
  159MPD1    H7 2783   4.065   1.535  11.020
  160MPD1     C 2784   3.306   4.292  12.164
  160MPD1    C1 2785   3.196   4.354  12.122
  160MPD1    C2 2786   3.201   4.429  12.003
  160MPD1    C3 2787   3.333   4.459  11.952
  160MPD1    C4 2788   3.442   4.395  11.995
  160MPD1    C5 2789   3.424   4.301  12.092
  160MPD1     H 2790   3.110   4.474  11.967
  160MPD1    H1 2791   3.540   4.417  11.954
  160MPD1    H2 2792   3.312   4.224  12.249
  160MPD1    H3 2793   3.513   4.249  12.122
  160MPD1     N 2794   3.357   4.559  11.856
  160MPD1    H5 2795   3.455   4.570  11.832
  160MPD1    N1 2796   3.075   4.332  12.176
  160MPD1    H6 2797   3.079   4.299  12.272
  160MPD1    H7 2798   3.016   4.415  12.176
  161MPD1     C 2799   3.948   3.514  13.361
  161MPD1    C1 2800   4.001   3.514  13.491
  161MPD1    C2 2801   4.113   3.441  13.513
  161MPD1    C3 2802   4.158   3.346  13.425
  161MPD1    C4 2803   4.098   3.334  13.299
  161MPD1    C5 2804   3.990   3.421  13.272
  161MPD1     H 2805   4.164   3.451  13.608
  161MPD1    H1 2806   4.122   3.262  13.222
  161MPD1    H2 2807   3.861   3.577  13.342
  161MPD1    H3 2808   3.943   3.418  13.175
  161MPD1     N 2809   4.288   3.293  13.451
  161MPD1    H5 2810   4.340   3.327  13.531
  161MPD1    N1 2811   3.955   3.610  13.585
  161MPD1    H6 2812   3.963   3.578  13.682
  161MPD1    H7 2813   3.856   3.624  13.568
  162MPD1     C 2814   4.465   2.354  13.527
  162MPD1    C1 2815   4.362   2.440  13.528
  162MPD1    C2 2816   4.391   2.575  13.536
  162MPD1    C3 2817   4.520   2.624  13.523
  162MPD1    C4 2818   4.625   2.542  13.537
  162MPD1    C5 2819   4.589   2.407  13.531
  162MPD1     H 2820   4.306   2.642  13.539
  162MPD1    H1 2821   4.727   2.569  13.513
  162MPD1    H2 2822   4.453   2.246  13.531
  162MPD1    H3 2823   4.671   2.337  13.520
  162MPD1     N 2824   4.531   2.761  13.485
  162MPD1    H5 2825   4.446   2.812  13.462
  162MPD1    N1 2826   4.232   2.389  13.544
  162MPD1    H6 2827   4.226   2.313  13.477
  162MPD1    H7 2828   4.164   2.451  13.500
  163MPD1     C 2829   2.371   3.775   9.840
  163MPD1    C1 2830   2.486   3.855   9.843
  163MPD1    C2 2831   2.472   3.982   9.900
  163MPD1    C3 2832   2.351   4.024   9.952
  163MPD1    C4 2833   2.235   3.952   9.937
  163MPD1    C5 2834   2.251   3.826   9.883
  163MPD1     H 2835   2.559   4.045   9.910
  163MPD1    H1 2836   2.138   3.976   9.977
  163MPD1    H2 2837   2.377   3.671   9.811
  163MPD1    H3 2838   2.166   3.760   9.891
  163MPD1     N 2839   2.350   4.152  10.015
  163MPD1    H5 2840   2.445   4.182  10.032
  163MPD1    N1 2841   2.600   3.794   9.805
  163MPD1    H6 2842   2.653   3.838   9.730
  163MPD1    H7 2843   2.601   3.693   9.793
  164MPD1     C 2844   3.371   1.993   8.119
  164MPD1    C1 2845   3.489   2.006   8.055
  164MPD1    C2 2846   3.511   1.931   7.940
  164MPD1    C3 2847   3.416   1.836   7.894
  164MPD1    C4 2848   3.304   1.818   7.975
  164MPD1    C5 2849   3.284   1.900   8.079
  164MPD1     H 2850   3.608   1.942   7.892
  164MPD1    H1 2851   3.237   1.734   7.960
  164MPD1    H2 2852   3.337   2.045   8.208
  164MPD1    H3 2853   3.197   1.883   8.141
  164MPD1     N 2854   3.449   1.769   7.770
  164MPD1    H5 2855   3.531   1.803   7.719
  164MPD1    N1 2856   3.584   2.108   8.084
  164MPD1    H6 2857   3.576   2.135   8.182
  164MPD1    H7 2858   3.681   2.094   8.058
  165MPD1     C 2859   3.381   1.432   7.994
  165MPD1    C1 2860   3.271   1.354   7.987
  165MPD1    C2 2861   3.255   1.270   7.878
  165MPD1    C3 2862   3.359   1.248   7.788
  165MPD1    C4 2863   3.471   1.320   7.801
  165MPD1    C5 2864   3.474   1.410   7.902
  165MPD1     H 2865   3.164   1.213   7.866
  165MPD1    H1 2866   3.556   1.301   7.736
  165MPD1    H2 2867   3.377   1.514   8.065
  165MPD1    H3 2868   3.560   1.475   7.912
  165MPD1     N 2869   3.344   1.140   7.700
  165MPD1    H5 2870   3.259   1.083   7.701
  165MPD1    N1 2871   3.157   1.405   8.059
  165MPD1    H6 2872   3.179   1.467   8.137
  165MPD1    H7 2873   3.093   1.337   8.100
  166MPD1     C 2874   1.264   3.934  11.867
  166MPD1    C1 2875   1.202   3.973  11.753
  166MPD1    C2 2876   1.266   4.072  11.680
  166MPD1    C3 2877   1.361   4.153  11.737
  166MPD1    C4 2878   1.405   4.123  11.865
  166MPD1    C5 2879   1.361   4.011  11.926
  166MPD1     H 2880   1.230   4.091  11.580
  166MPD1    H1 2881   1.483   4.182  11.913
  166MPD1    H2 2882   1.230   3.844  11.917
  166MPD1    H3 2883   1.403   3.992  12.025
  166MPD1     N 2884   1.420   4.266  11.677
  166MPD1    H5 2885   1.472   4.327  11.738
  166MPD1    N1 2886   1.102   3.895  11.697
  166MPD1    H6 2887   1.054   3.845  11.772
  166MPD1    H7 2888   1.037   3.928  11.626
  167MPD1     C 2889   2.039   3.443  13.537
  167MPD1    C1 2890   1.989   3.322  13.549
  167MPD1    C2 2891   2.052   3.228  13.623
  167MPD1    C3 2892   2.160   3.262  13.709
  167MPD1    C4 2893   2.212   3.391  13.686
  167MPD1    C5 2894   2.154   3.480  13.597
  167MPD1     H 2895   2.008   3.129  13.629
  167MPD1    H1 2896   2.302   3.421  13.739
  167MPD1    H2 2897   1.987   3.522  13.483
  167MPD1    H3 2898   2.206   3.575  13.589
  167MPD1     N 2899   2.210   3.172  13.800
  167MPD1    H5 2900   2.176   3.076  13.788
  167MPD1    N1 2901   1.871   3.292  13.481
  167MPD1    H6 2902   1.815   3.375  13.459
  167MPD1    H7 2903   1.817   3.216  13.521
  168MPD1     C 2904   0.325   1.052  14.787
  168MPD1    C1 2905   0.447   1.085  14.846
  168MPD1    C2 2906   0.543   0.982  14.841
  168MPD1    C3 2907   0.513   0.853  14.800
  168MPD1    C4 2908   0.387   0.823  14.762
  168MPD1    C5 2909   0.296   0.921  14.755
  168MPD1     H 2910   0.644   1.001  14.877
  168MPD1    H1 2911   0.361   0.725  14.727
  168MPD1    H2 2912   0.255   1.134  14.776
  168MPD1    H3 2913   0.194   0.902  14.725
  168MPD1     N 2914   0.599   0.742  14.814
  168MPD1    H5 2915   0.564   0.651  14.787
  168MPD1    N1 2916   0.483   1.218  14.870
  168MPD1    H6 2917   0.404   1.266  14.913
  168MPD1    H7 2918   0.569   1.223  14.924
  169MPD1     C 2919   4.443   3.596   7.150
  169MPD1    C1 2920   4.464   3.459   7.178
  169MPD1    C2 2921   4.409   3.409   7.297
  169MPD1    C3 2922   4.345   3.494   7.387
  169MPD1    C4 2923   4.313   3.624   7.347
  169MPD1    C5 2924   4.370   3.672   7.230
  169MPD1     H 2925   4.414   3.304   7.322
  169MPD1    H1 2926   4.264   3.698   7.410
  169MPD1    H2 2927   4.465   3.643   7.055
  169MPD1    H3 2928   4.351   3.775   7.201
  169MPD1     N 2929   4.307   3.436   7.512
  169MPD1    H5 2930   4.329   3.337   7.522
  169MPD1    N1 2931   4.517   3.370   7.082
  169MPD1    H6 2932   4.595   3.413   7.033
  169MPD1    H7 2933   4.563   3.294   7.132
  170MPD2     C 2934   1.258   3.141  10.340
  170MPD2    C1 2935   1.209   3.014  10.313
  170MPD2    C2 2936   1.096   3.018  10.241
  170MPD2    C3 2937   1.038   3.136  10.194
  170MPD2    C4 2938   1.102   3.254  10.208
  170MPD2    C5 2939   1.210   3.260  10.286
  170MPD2     H 2940   1.044   2.925  10.220
  170MPD2    H1 2941   1.063   3.349  10.176
  170MPD2    H2 2942   1.355   3.142  10.388
  170MPD2    H3 2943   1.260   3.354  10.302
  170MPD2     N 2944   0.913   3.139  10.115
  170MPD2    H5 2945   0.892   3.221  10.060
  170MPD2    N1 2946   1.281   2.896  10.354
  170MPD2    H7 2947   1.374   2.917  10.388
  171MPD2     C 2948   0.278   2.632  10.104
  171MPD2    C1 2949   0.298   2.694   9.980
  171MPD2    C2 2950   0.236   2.639   9.873
  171MPD2    C3 2951   0.162   2.524   9.884
  171MPD2    C4 2952   0.148   2.462  10.001
  171MPD2    C5 2953   0.203   2.515  10.114
  171MPD2     H 2954   0.239   2.689   9.776
  171MPD2    H1 2955   0.096   2.367  10.013
  171MPD2    H2 2956   0.314   2.670  10.199
  171MPD2    H3 2957   0.190   2.457  10.204
  171MPD2     N 2958   0.101   2.456   9.776
  171MPD2    H5 2959   0.066   2.363   9.801
  171MPD2    N1 2960   0.397   2.802   9.968
  171MPD2    H7 2961   0.462   2.817  10.045
  172MPD2     C 2962   0.382   3.728  10.104
  172MPD2    C1 2963   0.320   3.604  10.091
  172MPD2    C2 2964   0.385   3.507  10.012
  172MPD2    C3 2965   0.516   3.524   9.966
  172MPD2    C4 2966   0.582   3.644  10.001
  172MPD2    C5 2967   0.510   3.745  10.067
  172MPD2     H 2968   0.323   3.420  10.000
  172MPD2    H1 2969   0.684   3.654   9.967
  172MPD2    H2 2970   0.333   3.801  10.167
  172MPD2    H3 2971   0.558   3.842  10.076
  172MPD2     N 2972   0.589   3.424   9.903
  172MPD2    H5 2973   0.690   3.423   9.898
  172MPD2    N1 2974   0.199   3.572  10.150
  172MPD2    H7 2975   0.173   3.474  10.157
  173MPD2     C 2976   1.322   4.630   6.804
  173MPD2    C1 2977   1.347   4.538   6.901
  173MPD2    C2 2978   1.308   4.409   6.883
  173MPD2    C3 2979   1.245   4.372   6.766
  173MPD2    C4 2980   1.219   4.463   6.668
  173MPD2    C5 2981   1.267   4.594   6.688
  173MPD2     H 2982   1.325   4.337   6.962
  173MPD2    H1 2983   1.157   4.440   6.582
  173MPD2    H2 2984   1.358   4.732   6.808
  173MPD2    H3 2985   1.241   4.674   6.620
  173MPD2     N 2986   1.193   4.237   6.759
  173MPD2    H5 2987   1.220   4.170   6.830
  173MPD2    N1 2988   1.410   4.570   7.023
  173MPD2    H7 2989   1.426   4.490   7.083
  174MPD2     C 2990   0.994   3.257   6.359
  174MPD2    C1 2991   1.003   3.248   6.494
  174MPD2    C2 2992   1.006   3.363   6.572
  174MPD2    C3 2993   1.001   3.490   6.513
  174MPD2    C4 2994   0.998   3.499   6.373
  174MPD2    C5 2995   0.996   3.384   6.299
  174MPD2     H 2996   1.032   3.361   6.677
  174MPD2    H1 2997   1.000   3.587   6.311
  174MPD2    H2 2998   0.977   3.170   6.296
  174MPD2    H3 2999   0.988   3.392   6.191
  174MPD2     N 3000   1.017   3.604   6.591
  174MPD2    H5 3001   1.036   3.583   6.689
  174MPD2    N1 3002   0.987   3.116   6.541
  174MPD2    H7 3003   0.968   3.046   6.471
  175MPD2     C 3004   1.980   3.117  12.303
  175MPD2    C1 3005   1.915   3.028  12.390
  175MPD2    C2 3006   1.782   3.014  12.373
  175MPD2    C3 3007   1.720   3.088  12.270
  175MPD2    C4 3008   1.785   3.164  12.183
  175MPD2    C5 3009   1.918   3.187  12.202
  175MPD2     H 3010   1.725   2.959  12.447
  175MPD2    H1 3011   1.724   3.215  12.109
  175MPD2    H2 3012   2.086   3.134  12.318
  175MPD2    H3 3013   1.973   3.255  12.138
  175MPD2     N 3014   1.589   3.068  12.240
  175MPD2    H5 3015   1.554   3.087  12.146
  175MPD2    N1 3016   2.006   2.963  12.482
  175MPD2    H7 3017   2.101   2.998  12.490
  176MPD2     C 3018   1.787   2.643  11.743
  176MPD2    C1 3019   1.676   2.677  11.814
  176MPD2    C2 3020   1.680   2.682  11.956
  176MPD2    C3 3021   1.797   2.634  12.016
  176MPD2    C4 3022   1.912   2.604  11.946
  176MPD2    C5 3023   1.907   2.621  11.808
  176MPD2     H 3024   1.590   2.713  12.008
  176MPD2    H1 3025   2.010   2.581  11.986
  176MPD2    H2 3026   1.794   2.646  11.635
  176MPD2    H3 3027   1.996   2.617  11.747
  176MPD2     N 3028   1.813   2.632  12.159
  176MPD2    H5 3029   1.907   2.613  12.194
  176MPD2    N1 3030   1.559   2.730  11.764
  176MPD2    H7 3031   1.488   2.743  11.835
  177MPD2     C 3032   1.717   2.336  13.168
  177MPD2    C1 3033   1.631   2.289  13.071
  177MPD2    C2 3034   1.622   2.361  12.953
  177MPD2    C3 3035   1.692   2.480  12.938
  177MPD2    C4 3036   1.778   2.519  13.035
  177MPD2    C5 3037   1.786   2.451  13.153
  177MPD2     H 3038   1.560   2.322  12.873
  177MPD2    H1 3039   1.844   2.604  13.024
  177MPD2    H2 3040   1.746   2.281  13.258
  177MPD2    H3 3041   1.862   2.472  13.228
  177MPD2     N 3042   1.690   2.568  12.827
  177MPD2    H5 3043   1.735   2.659  12.830
  177MPD2    N1 3044   1.574   2.163  13.098
  177MPD2    H7 3045   1.608   2.111  13.178
  178MPD2     C 3046   4.548   1.409   7.256
  178MPD2    C1 3047   4.584   1.497   7.357
  178MPD2    C2 3048   4.601   1.634   7.323
  178MPD2    C3 3049   4.583   1.676   7.188
  178MPD2    C4 3050   4.548   1.585   7.095
  178MPD2    C5 3051   4.528   1.454   7.129
  178MPD2     H 3052   4.626   1.707   7.399
  178MPD2    H1 3053   4.527   1.606   6.991
  178MPD2    H2 3054   4.537   1.304   7.281
  178MPD2    H3 3055   4.510   1.381   7.051
  178MPD2     N 3056   4.629   1.807   7.158
  178MPD2    H5 3057   4.655   1.869   7.235
  178MPD2    N1 3058   4.611   1.461   7.491
  178MPD2    H7 3059   4.616   1.532   7.564
  179MPD2     C 3060   0.192   0.858   7.891
  179MPD2    C1 3061   0.067   0.860   7.841
  179MPD2    C2 3062   0.020   0.738   7.803
  179MPD2    C3 3063   0.090   0.621   7.814
  179MPD2    C4 3064   0.214   0.616   7.873
  179MPD2    C5 3065   0.260   0.734   7.920
  179MPD2     H 3066   4.701   0.744   7.780
  179MPD2    H1 3067   0.258   0.517   7.886
  179MPD2    H2 3068   0.236   0.946   7.937
  179MPD2    H3 3069   0.346   0.733   7.986
  179MPD2     N 3070   0.030   0.503   7.768
  179MPD2    H5 3071   4.716   0.499   7.772
  179MPD2    N1 3072   4.785   0.982   7.833
  179MPD2    H7 3073   0.056   1.066   7.834
  180MPD2     C 3074   4.077   0.947   7.908
  180MPD2    C1 3075   4.170   0.995   7.819
  180MPD2    C2 3076   4.207   1.127   7.826
  180MPD2    C3 3077   4.176   1.209   7.934
  180MPD2    C4 3078   4.085   1.158   8.026
  180MPD2    C5 3079   4.029   1.034   8.004
  180MPD2     H 3080   4.277   1.161   7.749
  180MPD2    H1 3081   4.051   1.214   8.113
  180MPD2    H2 3082   4.033   0.848   7.903
  180MPD2    H3 3083   3.955   1.006   8.078
  180MPD2     N 3084   4.246   1.323   7.976
  180MPD2    H5 3085   4.200   1.361   8.058
  180MPD2    N1 3086   4.225   0.898   7.729
  180MPD2    H7 3087   4.212   0.800   7.753
  181MPD2     C 3088   4.137   3.005   9.841
  181MPD2    C1 3089   4.229   2.909   9.795
  181MPD2    C2 3090   4.201   2.779   9.836
  181MPD2    C3 3091   4.099   2.746   9.926
  181MPD2    C4 3092   4.019   2.846   9.978
  181MPD2    C5 3093   4.035   2.973   9.931
  181MPD2     H 3094   4.238   2.693   9.781
  181MPD2    H1 3095   3.937   2.834  10.049
  181MPD2    H2 3096   4.133   3.105   9.798
  181MPD2    H3 3097   3.964   3.047   9.963
  181MPD2     N 3098   4.077   2.611   9.959
  181MPD2    H5 3099   4.102   2.543   9.888
  181MPD2    N1 3100   4.313   2.941   9.693
  181MPD2    H7 3101   4.322   3.036   9.660
  182MPD2     C 3102   3.863   2.139  10.656
  182MPD2    C1 3103   3.956   2.090  10.564
  182MPD2    C2 3104   4.065   2.015  10.612
  182MPD2    C3 3105   4.090   2.003  10.742
  182MPD2    C4 3106   3.993   2.037  10.833
  182MPD2    C5 3107   3.881   2.110  10.788
  182MPD2     H 3108   4.134   1.975  10.538
  182MPD2    H1 3109   4.002   2.026  10.940
  182MPD2    H2 3110   3.771   2.189  10.628
  182MPD2    H3 3111   3.816   2.143  10.868
  182MPD2     N 3112   4.214   1.946  10.780
  182MPD2    H5 3113   4.271   1.900  10.709
  182MPD2    N1 3114   3.953   2.123  10.423
  182MPD2    H7 3115   4.027   2.090  10.362
  183MPD2     C 3116   2.747   3.294  14.290
  183MPD2    C1 3117   2.784   3.389  14.201
  183MPD2    C2 3118   2.774   3.355  14.066
  183MPD2    C3 3119   2.723   3.235  14.021
  183MPD2    C4 3120   2.670   3.146  14.112
  183MPD2    C5 3121   2.681   3.185  14.244
  183MPD2     H 3122   2.805   3.427  13.991
  183MPD2    H1 3123   2.629   3.049  14.086
  183MPD2    H2 3124   2.753   3.313  14.396
  183MPD2    H3 3125   2.632   3.119  14.316
  183MPD2     N 3126   2.709   3.212  13.888
  183MPD2    H5 3127   2.670   3.120  13.870
  183MPD2    N1 3128   2.829   3.514  14.250
  183MPD2    H7 3129   2.812   3.534  14.348
  184MPD2     C 3130   2.191   4.209  14.428
  184MPD2    C1 3131   2.277   4.156  14.524
  184MPD2    C2 3132   2.387   4.092  14.478
  184MPD2    C3 3133   2.414   4.079  14.345
  184MPD2    C4 3134   2.318   4.108  14.252
  184MPD2    C5 3135   2.210   4.171  14.301
  184MPD2     H 3136   2.462   4.059  14.548
  184MPD2    H1 3137   2.333   4.107  14.145
  184MPD2    H2 3138   2.107   4.274  14.451
  184MPD2    H3 3139   2.138   4.207  14.228
  184MPD2     N 3140   2.538   4.009  14.317
  184MPD2    H5 3141   2.603   3.978  14.388
  184MPD2    N1 3142   2.243   4.188  14.661
  184MPD2    H7 3143   2.166   4.253  14.673
  185MPD2     C 3144   3.144   3.711  13.519
  185MPD2    C1 3145   3.111   3.616  13.610
  185MPD2    C2 3146   3.053   3.651  13.727
  185MPD2    C3 3147   3.022   3.782  13.757
  185MPD2    C4 3148   3.053   3.876  13.662
  185MPD2    C5 3149   3.120   3.846  13.547
  185MPD2     H 3150   3.020   3.583  13.806
  185MPD2    H1 3151   3.033   3.981  13.682
  185MPD2    H2 3152   3.180   3.677  13.422
  185MPD2    H3 3153   3.139   3.932  13.484
  185MPD2     N 3154   2.965   3.809  13.880
  185MPD2    H5 3155   2.958   3.728  13.942
  185MPD2    N1 3156   3.145   3.483  13.574
  185MPD2    H7 3157   3.148   3.472  13.474
  186MPD2     C 3158   4.466   3.669   8.668
  186MPD2    C1 3159   4.535   3.578   8.754
  186MPD2    C2 3160   4.491   3.448   8.753
  186MPD2    C3 3161   4.382   3.408   8.680
  186MPD2    C4 3162   4.303   3.503   8.623
  186MPD2    C5 3163   4.350   3.628   8.609
  186MPD2     H 3164   4.555   3.372   8.795
  186MPD2    H1 3165   4.215   3.473   8.566
  186MPD2    H2 3166   4.496   3.772   8.650
  186MPD2    H3 3167   4.293   3.701   8.552
  186MPD2     N 3168   4.352   3.274   8.654
  186MPD2    H5 3169   4.276   3.258   8.588
  186MPD2    N1 3170   4.658   3.615   8.817
  186MPD2    H7 3171   4.699   3.547   8.880
  187MPD2     C 3172   4.708   2.349   8.911
  187MPD2    C1 3173   4.722   2.467   8.990
  187MPD2    C2 3174   4.682   2.591   8.934
  187MPD2    C3 3175   4.646   2.591   8.799
  187MPD2    C4 3176   4.631   2.478   8.718
  187MPD2    C5 3177   4.658   2.356   8.782
  187MPD2     H 3178   4.700   2.680   8.994
  187MPD2    H1 3179   4.584   2.476   8.620
  187MPD2    H2 3180   4.730   2.250   8.951
  187MPD2    H3 3181   4.645   2.260   8.733
  187MPD2     N 3182   4.620   2.718   8.744
  187MPD2    H5 3183   4.625   2.799   8.805
  187MPD2    N1 3184   4.745   2.463   9.132
  187MPD2    H7 3185   4.732   2.555   9.173
  188MPD2     C 3186   0.024   3.308   8.310
  188MPD2    C1 3187   4.684   3.337   8.349
  188MPD2    C2 3188   4.654   3.468   8.387
  188MPD2    C3 3189   4.755   3.565   8.387
  188MPD2    C4 3190   0.097   3.525   8.381
  188MPD2    C5 3191   0.125   3.394   8.341
  188MPD2     H 3192   4.549   3.489   8.408
  188MPD2    H1 3193   0.175   3.601   8.380
  188MPD2    H2 3194   0.061   3.207   8.291
  188MPD2    H3 3195   0.228   3.365   8.325
  188MPD2     N 3196   4.733   3.700   8.386
  188MPD2    H5 3197   0.026   3.760   8.403
  188MPD2    N1 3198   4.586   3.238   8.353
  188MPD2    H7 3199   4.500   3.265   8.399
  189MPD2     C 3200   1.279   3.082   8.682
  189MPD2    C1 3201   1.269   3.039   8.552
  189MPD2    C2 3202   1.246   3.129   8.447
  189MPD2    C3 3203   1.239   3.269   8.479
  189MPD2    C4 3204   1.263   3.311   8.613
  189MPD2    C5 3205   1.289   3.211   8.710
  189MPD2     H 3206   1.248   3.094   8.344
  189MPD2    H1 3207   1.271   3.413   8.650
  189MPD2    H2 3208   1.301   3.014   8.763
  189MPD2    H3 3209   1.300   3.235   8.816
  189MPD2     N 3210   1.225   3.371   8.378
  189MPD2    H5 3211   1.252   3.467   8.398
  189MPD2    N1 3212   1.273   2.904   8.520
  189MPD2    H7 3213   1.274   2.840   8.599
  190MPD2     C 3214   0.856   2.297   8.882
  190MPD2    C1 3215   0.827   2.275   8.751
  190MPD2    C2 3216   0.912   2.327   8.651
  190MPD2    C3 3217   1.031   2.394   8.684
  190MPD2    C4 3218   1.056   2.419   8.816
  190MPD2    C5 3219   0.957   2.386   8.907
  190MPD2     H 3220   0.893   2.319   8.545
  190MPD2    H1 3221   1.137   2.479   8.857
  190MPD2    H2 3222   0.799   2.266   8.968
  190MPD2    H3 3223   0.983   2.418   9.007
  190MPD2     N 3224   1.128   2.448   8.588
  190MPD2    H5 3225   1.209   2.496   8.626
  190MPD2    N1 3226   0.702   2.216   8.721
  190MPD2    H7 3227   0.671   2.157   8.797
  191MPD2     C 3228   1.896   2.487   8.328
  191MPD2    C1 3229   1.794   2.478   8.231
  191MPD2    C2 3230   1.828   2.459   8.101
  191MPD2    C3 3231   1.963   2.464   8.061
  191MPD2    C4 3232   2.059   2.477   8.158
  191MPD2    C5 3233   2.030   2.485   8.288
  191MPD2     H 3234   1.755   2.458   8.021
  191MPD2    H1 3235   2.166   2.483   8.138
  191MPD2    H2 3236   1.867   2.486   8.432
  191MPD2    H3 3237   2.116   2.504   8.352
  191MPD2     N 3238   1.987   2.475   7.925
  191MPD2    H5 3239   1.904   2.468   7.867
  191MPD2    N1 3240   1.659   2.499   8.282
  191MPD2    H7 3241   1.651   2.534   8.377
  192MPD2     C 3242   2.290   2.472  11.941
  192MPD2    C1 3243   2.377   2.571  11.897
  192MPD2    C2 3244   2.461   2.536  11.798
  192MPD2    C3 3245   2.479   2.401  11.757
  192MPD2    C4 3246   2.400   2.306  11.818
  192MPD2    C5 3247   2.308   2.340  11.908
  192MPD2     H 3248   2.534   2.608  11.762
  192MPD2    H1 3249   2.401   2.202  11.789
  192MPD2    H2 3250   2.215   2.495  12.016
  192MPD2    H3 3251   2.246   2.262  11.949
  192MPD2     N 3252   2.585   2.345  11.676
  192MPD2    H5 3253   2.607   2.247  11.686
  192MPD2    N1 3254   2.375   2.705  11.939
  192MPD2    H7 3255   2.425   2.769  11.877
  193MPD2     C 3256   2.369   3.294  12.616
  193MPD2    C1 3257   2.459   3.282  12.512
  193MPD2    C2 3258   2.576   3.356  12.506
  193MPD2    C3 3259   2.601   3.437  12.611
  193MPD2    C4 3260   2.511   3.456  12.711
  193MPD2    C5 3261   2.403   3.380  12.715
  193MPD2     H 3262   2.639   3.359  12.417
  193MPD2    H1 3263   2.533   3.526  12.791
  193MPD2    H2 3264   2.266   3.259  12.617
  193MPD2    H3 3265   2.329   3.402  12.791
  193MPD2     N 3266   2.716   3.526  12.611
  193MPD2    H5 3267   2.730   3.580  12.696
  193MPD2    N1 3268   2.440   3.202  12.402
  193MPD2    H7 3269   2.509   3.217  12.329
  194MPD2     C 3270   0.282   4.039  14.479
  194MPD2    C1 3271   0.207   3.931  14.529
  194MPD2    C2 3272   0.074   3.944  14.569
  194MPD2    C3 3273   0.022   4.075  14.562
  194MPD2    C4 3274   0.092   4.180  14.516
  194MPD2    C5 3275   0.222   4.159  14.473
  194MPD2     H 3276   0.024   3.854  14.603
  194MPD2    H1 3277   0.046   4.274  14.486
  194MPD2    H2 3278   0.386   4.026  14.450
  194MPD2    H3 3279   0.278   4.247  14.442
  194MPD2     N 3280   4.670   4.113  14.589
  194MPD2    H5 3281   4.642   4.208  14.566
  194MPD2    N1 3282   0.274   3.807  14.550
  194MPD2    H7 3283   0.231   3.742  14.615
  195MPD2     C 3284   3.766   4.016  14.600
  195MPD2    C1 3285   3.899   3.989  14.583
  195MPD2    C2 3286   3.945   3.925  14.467
  195MPD2    C3 3287   3.854   3.889  14.364
  195MPD2    C4 3288   3.722   3.909  14.395
  195MPD2    C5 3289   3.681   3.968  14.508
  195MPD2     H 3290   4.053   3.918  14.456
  195MPD2    H1 3291   3.641   3.880  14.328
  195MPD2    H2 3292   3.733   4.083  14.679
  195MPD2    H3 3293   3.576   3.984  14.528
  195MPD2     N 3294   3.883   3.848  14.237
  195MPD2    H5 3295   3.805   3.813  14.182
  195MPD2    N1 3296   3.989   4.050  14.673
  195MPD2    H7 3297   3.963   4.140  14.712
  196MPD2     C 3298   4.309   4.379  13.909
  196MPD2    C1 3299   4.429   4.413  13.971
  196MPD2    C2 3300   4.437   4.407  14.107
  196MPD2    C3 3301   4.335   4.367  14.191
  196MPD2    C4 3302   4.218   4.335  14.128
  196MPD2    C5 3303   4.204   4.337  13.994
  196MPD2     H 3304   4.533   4.430  14.152
  196MPD2    H1 3305   4.131   4.305  14.185
  196MPD2    H2 3306   4.283   4.384  13.803
  196MPD2    H3 3307   4.118   4.294  13.945
  196MPD2     N 3308   4.356   4.355  14.331
  196MPD2    H5 3309   4.451   4.373  14.363
  196MPD2    N1 3310   4.545   4.443  13.901
  196MPD2    H7 3311   4.628   4.473  13.951
  197MPD2     C 3312   0.748   2.230  11.756
  197MPD2    C1 3313   0.729   2.287  11.879
  197MPD2    C2 3314   0.827   2.283  11.975
  197MPD2    C3 3315   0.957   2.254  11.939
  197MPD2    C4 3316   0.980   2.203  11.814
  197MPD2    C5 3317   0.876   2.191  11.721
  197MPD2     H 3318   0.809   2.307  12.079
  197MPD2    H1 3319   1.081   2.171  11.792
  197MPD2    H2 3320   0.664   2.223  11.689
  197MPD2    H3 3321   0.885   2.152  11.620
  197MPD2     N 3322   1.053   2.277  12.037
  197MPD2    H5 3323   1.026   2.292  12.134
  197MPD2    N1 3324   0.601   2.350  11.894
  197MPD2    H7 3325   0.534   2.345  11.818
  198MPD2     C 3326   0.621   3.031  11.957
  198MPD2    C1 3327   0.484   3.011  11.946
  198MPD2    C2 3328   0.400   3.122  11.924
  198MPD2    C3 3329   0.455   3.246  11.892
  198MPD2    C4 3330   0.595   3.261  11.891
  198MPD2    C5 3331   0.676   3.153  11.930
  198MPD2     H 3332   0.293   3.107  11.924
  198MPD2    H1 3333   0.634   3.359  11.866
  198MPD2    H2 3334   0.685   2.944  11.964
  198MPD2    H3 3335   0.783   3.168  11.924
  198MPD2     N 3336   0.368   3.349  11.847
  198MPD2    H5 3337   0.272   3.350  11.881
  198MPD2    N1 3338   0.437   2.875  11.973
  198MPD2    H7 3339   0.511   2.806  11.981
  199MPD2     C 3340   4.594   2.522  11.640
  199MPD2    C1 3341   4.723   2.474  11.632
  199MPD2    C2 3342   4.744   2.384  11.527
  199MPD2    C3 3343   4.645   2.353  11.438
  199MPD2    C4 3344   4.515   2.402  11.459
  199MPD2    C5 3345   4.488   2.491  11.556
  199MPD2     H 3346   0.056   2.340  11.525
  199MPD2    H1 3347   4.433   2.375  11.394
  199MPD2    H2 3348   4.571   2.588  11.722
  199MPD2    H3 3349   4.389   2.528  11.580
  199MPD2     N 3350   4.659   2.263  11.328
  199MPD2    H5 3351   4.573   2.245  11.277
  199MPD2    N1 3352   0.026   2.505  11.739
  199MPD2    H7 3353   4.767   2.566  11.805
  200MPD2     C 3354   4.429   2.748  11.401
  200MPD2    C1 3355   4.559   2.743  11.355
  200MPD2    C2 3356   4.587   2.676  11.238
  200MPD2    C3 3357   4.493   2.593  11.174
  200MPD2    C4 3358   4.366   2.577  11.234
  200MPD2    C5 3359   4.337   2.659  11.349
  200MPD2     H 3360   4.686   2.681  11.193
  200MPD2    H1 3361   4.280   2.516  11.205
  200MPD2    H2 3362   4.391   2.803  11.486
  200MPD2    H3 3363   4.245   2.659  11.406
  200MPD2     N 3364   4.526   2.525  11.057
  200MPD2    H5 3365   4.605   2.556  11.001
  200MPD2    N1 3366   4.663   2.799  11.434
  200MPD2    H7 3367   4.640   2.871  11.502
  201MPD2     C 3368   4.480   2.857  10.550
  201MPD2    C1 3369   4.396   2.749  10.588
  201MPD2    C2 3370   4.260   2.767  10.593
  201MPD2    C3 3371   4.205   2.889  10.558
  201MPD2    C4 3372   4.286   2.997  10.543
  201MPD2    C5 3373   4.415   2.970  10.521
  201MPD2     H 3374   4.205   2.677  10.621
  201MPD2    H1 3375   4.246   3.092  10.511
  201MPD2    H2 3376   4.586   2.839  10.536
  201MPD2    H3 3377   4.476   3.050  10.481
  201MPD2     N 3378   4.068   2.916  10.575
  201MPD2    H5 3379   4.039   3.014  10.575
  201MPD2    N1 3380   4.450   2.632  10.647
  201MPD2    H7 3381   4.382   2.561  10.670
  202MPD2     C 3382   0.433   1.879  10.944
  202MPD2    C1 3383   0.355   1.909  11.048
  202MPD2    C2 3384   0.238   1.982  11.027
  202MPD2    C3 3385   0.204   2.035  10.904
  202MPD2    C4 3386   0.292   2.011  10.804
  202MPD2    C5 3387   0.401   1.933  10.820
  202MPD2     H 3388   0.177   1.992  11.116
  202MPD2    H1 3389   0.261   2.037  10.704
  202MPD2    H2 3390   0.525   1.821  10.948
  202MPD2    H3 3391   0.452   1.910  10.727
  202MPD2     N 3392   0.097   2.128  10.903
  202MPD2    H5 3393   0.051   2.137  10.993
  202MPD2    N1 3394   0.404   1.872  11.173
  202MPD2    H7 3395   0.471   1.796  11.161
  203MPD2     C 3396   1.139   1.749   8.679
  203MPD2    C1 3397   1.048   1.747   8.575
  203MPD2    C2 3398   1.094   1.709   8.451
  203MPD2    C3 3399   1.229   1.698   8.427
  203MPD2    C4 3400   1.315   1.690   8.534
  203MPD2    C5 3401   1.267   1.710   8.663
  203MPD2     H 3402   1.025   1.699   8.367
  203MPD2    H1 3403   1.421   1.672   8.519
  203MPD2    H2 3404   1.108   1.790   8.774
  203MPD2    H3 3405   1.337   1.722   8.745
  203MPD2     N 3406   1.290   1.672   8.304
  203MPD2    H5 3407   1.390   1.655   8.298
  203MPD2    N1 3408   0.920   1.794   8.603
  203MPD2    H7 3409   0.903   1.834   8.695
  204MPD2     C 3410   1.905   1.141   8.281
  204MPD2    C1 3411   1.801   1.196   8.356
  204MPD2    C2 3412   1.694   1.246   8.286
  204MPD2    C3 3413   1.691   1.254   8.147
  204MPD2    C4 3414   1.792   1.199   8.073
  204MPD2    C5 3415   1.892   1.135   8.141
  204MPD2     H 3416   1.613   1.290   8.343
  204MPD2    H1 3417   1.786   1.193   7.965
  204MPD2    H2 3418   1.982   1.075   8.318
  204MPD2    H3 3419   1.972   1.087   8.086
  204MPD2     N 3420   1.584   1.336   8.092
  204MPD2    H5 3421   1.515   1.363   8.162
  204MPD2    N1 3422   1.802   1.186   8.499
  204MPD2    H7 3423   1.877   1.134   8.543
  205MPD2     C 3424   0.947   2.033   7.594
  205MPD2    C1 3425   0.917   1.904   7.619
  205MPD2    C2 3426   1.026   1.816   7.645
  205MPD2    C3 3427   1.156   1.859   7.639
  205MPD2    C4 3428   1.182   1.991   7.609
  205MPD2    C5 3429   1.076   2.076   7.590
  205MPD2     H 3430   1.010   1.712   7.671
  205MPD2    H1 3431   1.281   2.033   7.605
  205MPD2    H2 3432   0.865   2.103   7.581
  205MPD2    H3 3433   1.093   2.182   7.572
  205MPD2     N 3434   1.265   1.788   7.687
  205MPD2    H5 3435   1.341   1.841   7.728
  205MPD2    N1 3436   0.779   1.870   7.620
  205MPD2    H7 3437   0.711   1.945   7.613
  206MPD2     C 3438   1.853   4.144  11.032
  206MPD2    C1 3439   1.843   4.145  11.175
  206MPD2    C2 3440   1.908   4.252  11.236
  206MPD2    C3 3441   1.987   4.344  11.161
  206MPD2    C4 3442   2.007   4.321  11.026
  206MPD2    C5 3443   1.937   4.228  10.963
  206MPD2     H 3444   1.908   4.255  11.345
  206MPD2    H1 3445   2.078   4.382  10.972
  206MPD2    H2 3446   1.797   4.070  10.976
  206MPD2    H3 3447   1.923   4.225  10.856
  206MPD2     N 3448   2.051   4.456  11.221
  206MPD2    H5 3449   2.033   4.475  11.320
  206MPD2    N1 3450   1.756   4.055  11.241
  206MPD2    H7 3451   1.716   3.983  11.183
  207MPD2     C 3452   1.313   3.661  10.984
  207MPD2    C1 3453   1.265   3.707  11.102
  207MPD2    C2 3454   1.144   3.658  11.136
  207MPD2    C3 3455   1.069   3.556  11.070
  207MPD2    C4 3456   1.114   3.523  10.950
  207MPD2    C5 3457   1.237   3.574  10.914
  207MPD2     H 3458   1.089   3.715  11.210
  207MPD2    H1 3459   1.071   3.441  10.894
  207MPD2    H2 3460   1.399   3.703  10.932
  207MPD2    H3 3461   1.278   3.545  10.818
  207MPD2     N 3462   0.950   3.500  11.135
  207MPD2    H5 3463   0.952   3.512  11.235
  207MPD2    N1 3464   1.347   3.794  11.184
  207MPD2    H7 3465   1.438   3.816  11.145
  208MPD2     C 3466   1.491   3.332  11.963
  208MPD2    C1 3467   1.430   3.324  11.844
  208MPD2    C2 3468   1.441   3.431  11.756
  208MPD2    C3 3469   1.500   3.549  11.800
  208MPD2    C4 3470   1.555   3.555  11.925
  208MPD2    C5 3471   1.543   3.449  12.009
  208MPD2     H 3472   1.417   3.417  11.651
  208MPD2    H1 3473   1.601   3.644  11.967
  208MPD2    H2 3474   1.493   3.244  12.026
  208MPD2    H3 3475   1.582   3.447  12.110
  208MPD2     N 3476   1.493   3.659  11.712
  208MPD2    H5 3477   1.459   3.633  11.620
  208MPD2    N1 3478   1.399   3.197  11.791
  208MPD2    H7 3479   1.448   3.121  11.837
  209MPD2     C 3480   2.502   2.033  10.315
  209MPD2    C1 3481   2.605   2.102  10.256
  209MPD2    C2 3482   2.693   2.028  10.175
  209MPD2    C3 3483   2.668   1.897  10.137
  209MPD2    C4 3484   2.577   1.830  10.212
  209MPD2    C5 3485   2.498   1.896  10.302
  209MPD2     H 3486   2.771   2.085  10.126
  209MPD2    H1 3487   2.546   1.727  10.196
  209MPD2    H2 3488   2.435   2.080  10.386
  209MPD2    H3 3489   2.428   1.837  10.361
  209MPD2     N 3490   2.743   1.854  10.019
  209MPD2    H5 3491   2.815   1.919   9.991
  209MPD2    N1 3492   2.639   2.238  10.276
  209MPD2    H7 3493   2.726   2.270  10.233
  210MPD2     C 3494   3.215   2.905   9.927
  210MPD2    C1 3495   3.149   2.997  10.004
  210MPD2    C2 3496   3.056   2.945  10.094
  210MPD2    C3 3497   3.026   2.806  10.093
  210MPD2    C4 3498   3.098   2.723  10.014
  210MPD2    C5 3499   3.200   2.769   9.932
  210MPD2     H 3500   2.995   3.006  10.159
  210MPD2    H1 3501   3.085   2.615  10.016
  210MPD2    H2 3502   3.291   2.938   9.857
  210MPD2    H3 3503   3.267   2.703   9.879
  210MPD2     N 3504   2.923   2.761  10.182
  210MPD2    H5 3505   2.878   2.833  10.238
  210MPD2    N1 3506   3.160   3.139   9.975
  210MPD2    H7 3507   3.203   3.172   9.889
  211MPD2     C 3508   2.174   2.917  10.310
  211MPD2    C1 3509   2.195   2.789  10.362
  211MPD2    C2 3510   2.096   2.702  10.391
  211MPD2    C3 3511   1.965   2.743  10.368
  211MPD2    C4 3512   1.945   2.880  10.332
  211MPD2    C5 3513   2.045   2.966  10.305
  211MPD2     H 3514   2.122   2.606  10.436
  211MPD2    H1 3515   1.845   2.912  10.308
  211MPD2    H2 3516   2.261   2.978  10.290
  211MPD2    H3 3517   2.023   3.071  10.286
  211MPD2     N 3518   1.849   2.659  10.383
  211MPD2    H5 3519   1.759   2.704  10.372
  211MPD2    N1 3520   2.323   2.738  10.385
  211MPD2    H7 3521   2.337   2.657  10.444
  212MPD2     C 3522   1.680   2.885  13.715
  212MPD2    C1 3523   1.581   2.867  13.616
  212MPD2    C2 3524   1.530   2.739  13.602
  212MPD2    C3 3525   1.563   2.637  13.695
  212MPD2    C4 3526   1.652   2.659  13.798
  212MPD2    C5 3527   1.715   2.781  13.800
  212MPD2     H 3528   1.457   2.720  13.524
  212MPD2    H1 3529   1.680   2.584  13.871
  212MPD2    H2 3530   1.734   2.978  13.731
  212MPD2    H3 3531   1.789   2.806  13.875
  212MPD2     N 3532   1.490   2.520  13.686
  212MPD2    H5 3533   1.414   2.514  13.619
  212MPD2    N1 3534   1.531   2.966  13.530
  212MPD2    H7 3535   1.461   2.940  13.462
  213MPD2     C 3536   1.756   1.845  13.699
  213MPD2    C1 3537   1.733   1.979  13.720
  213MPD2    C2 3538   1.821   2.073  13.669
  213MPD2    C3 3539   1.921   2.014  13.583
  213MPD2    C4 3540   1.950   1.880  13.575
  213MPD2    C5 3541   1.864   1.800  13.634
  213MPD2     H 3542   1.806   2.179  13.681
  213MPD2    H1 3543   2.027   1.829  13.518
  213MPD2    H2 3544   1.699   1.760  13.736
  213MPD2    H3 3545   1.872   1.692  13.620
  213MPD2     N 3546   2.016   2.098  13.530
  213MPD2    H5 3547   2.080   2.042  13.475
  213MPD2    N1 3548   1.622   2.033  13.775
  213MPD2    H7 3549   1.630   2.134  13.771
  214MPD2     C 3550   0.893   3.265  10.659
  214MPD2    C1 3551   0.863   3.256  10.527
  214MPD2    C2 3552   0.836   3.137  10.462
  214MPD2    C3 3553   0.854   3.023  10.537
  214MPD2    C4 3554   0.888   3.030  10.672
  214MPD2    C5 3555   0.911   3.150  10.733
  214MPD2     H 3556   0.817   3.129  10.356
  214MPD2    H1 3557   0.916   2.945  10.734
  214MPD2    H2 3558   0.899   3.366  10.699
  214MPD2    H3 3559   0.947   3.161  10.834
  214MPD2     N 3560   0.843   2.899  10.468
  214MPD2    H5 3561   0.815   2.908  10.371
  214MPD2    N1 3562   0.846   3.381  10.463
  214MPD2    H7 3563   0.877   3.461  10.516
  215MPD2     C 3564   0.523   2.432   9.770
  215MPD2    C1 3565   0.498   2.379   9.897
  215MPD2    C2 3566   0.573   2.428  10.001
  215MPD2    C3 3567   0.673   2.522   9.975
  215MPD2    C4 3568   0.693   2.571   9.848
  215MPD2    C5 3569   0.622   2.519   9.746
  215MPD2     H 3570   0.565   2.395  10.104
  215MPD2    H1 3571   0.766   2.647   9.825
  215MPD2    H2 3572   0.478   2.379   9.687
  215MPD2    H3 3573   0.644   2.557   9.647
  215MPD2     N 3574   0.755   2.561  10.084
  215MPD2    H5 3575   0.745   2.499  10.164
  215MPD2    N1 3576   0.405   2.273   9.898
  215MPD2    H7 3577   0.351   2.269   9.812
  216MPD2     C 3578   2.687   4.377  10.774
  216MPD2    C1 3579   2.589   4.324  10.860
  216MPD2    C2 3580   2.503   4.227  10.820
  216MPD2    C3 3581   2.515   4.176  10.696
  216MPD2    C4 3582   2.619   4.211  10.611
  216MPD2    C5 3583   2.707   4.306  10.659
  216MPD2     H 3584   2.418   4.211  10.886
  216MPD2    H1 3585   2.641   4.169  10.513
  216MPD2    H2 3586   2.761   4.453  10.797
  216MPD2    H3 3587   2.796   4.334  10.605
  216MPD2     N 3588   2.413   4.085  10.646
  216MPD2    H5 3589   2.349   4.055  10.719
  216MPD2    N1 3590   2.558   4.378  10.986
  216MPD2    H7 3591   2.495   4.332  11.051
  217MPD2     C 3592   2.593   0.370  11.262
  217MPD2    C1 3593   2.681   0.294  11.328
  217MPD2    C2 3594   2.804   0.352  11.363
  217MPD2    C3 3595   2.840   0.477  11.328
  217MPD2    C4 3596   2.750   0.555  11.254
  217MPD2    C5 3597   2.627   0.498  11.227
  217MPD2     H 3598   2.878   0.294  11.418
  217MPD2    H1 3599   2.770   0.652  11.210
  217MPD2    H2 3600   2.490   0.342  11.247
  217MPD2    H3 3601   2.551   0.542  11.163
  217MPD2     N 3602   2.976   0.520  11.361
  217MPD2    H5 3603   3.024   0.468  11.435
  217MPD2    N1 3604   2.667   0.153  11.351
  217MPD2    H7 3605   2.741   0.102  11.398
  218MPD2     C 3606   2.770   4.442  12.014
  218MPD2    C1 3607   2.676   4.374  11.930
  218MPD2    C2 3608   2.673   4.386  11.791
  218MPD2    C3 3609   2.747   4.486  11.740
  218MPD2    C4 3610   2.835   4.553  11.822
  218MPD2    C5 3611   2.859   4.524  11.952
  218MPD2     H 3612   2.599   4.329  11.735
  218MPD2    H1 3613   2.904   4.623  11.776
  218MPD2    H2 3614   2.778   4.419  12.120
  218MPD2    H3 3615   2.936   4.575  12.009
  218MPD2     N 3616   2.762   4.504  11.598
  218MPD2    H5 3617   2.831   4.574  11.573
  218MPD2    N1 3618   2.569   4.300  11.991
  218MPD2    H7 3619   2.547   4.323  12.087
  219MPD2     C 3620   1.782   4.090   8.155
  219MPD2    C1 3621   1.750   3.997   8.250
  219MPD2    C2 3622   1.655   3.906   8.225
  219MPD2    C3 3623   1.592   3.900   8.109
  219MPD2    C4 3624   1.627   3.993   8.009
  219MPD2    C5 3625   1.713   4.093   8.041
  219MPD2     H 3626   1.635   3.824   8.295
  219MPD2    H1 3627   1.580   3.993   7.911
  219MPD2    H2 3628   1.852   4.171   8.167
  219MPD2    H3 3629   1.737   4.163   7.962
  219MPD2     N 3630   1.509   3.788   8.067
  219MPD2    H5 3631   1.488   3.775   7.968
  219MPD2    N1 3632   1.819   4.001   8.373
  219MPD2    H7 3633   1.908   4.048   8.364
  220MPD2     C 3634   1.374   3.499   8.915
  220MPD2    C1 3635   1.500   3.548   8.872
  220MPD2    C2 3636   1.603   3.527   8.956
  220MPD2    C3 3637   1.595   3.457   9.073
  220MPD2    C4 3638   1.472   3.403   9.109
  220MPD2    C5 3639   1.364   3.425   9.029
  220MPD2     H 3640   1.695   3.574   8.921
  220MPD2    H1 3641   1.455   3.344   9.198
  220MPD2    H2 3642   1.286   3.515   8.853
  220MPD2    H3 3643   1.270   3.385   9.064
  220MPD2     N 3644   1.706   3.433   9.152
  220MPD2    H5 3645   1.689   3.372   9.232
  220MPD2    N1 3646   1.525   3.628   8.756
  220MPD2    H7 3647   1.619   3.662   8.742
  221MPD2     C 3648   1.241   4.278   8.888
  221MPD2    C1 3649   1.240   4.248   8.750
  221MPD2    C2 3650   1.191   4.345   8.663
  221MPD2    C3 3651   1.136   4.464   8.704
  221MPD2    C4 3652   1.142   4.493   8.839
  221MPD2    C5 3653   1.196   4.404   8.930
  221MPD2     H 3654   1.201   4.337   8.555
  221MPD2    H1 3655   1.100   4.586   8.876
  221MPD2    H2 3656   1.264   4.206   8.965
  221MPD2    H3 3657   1.200   4.426   9.036
  221MPD2     N 3658   1.108   4.574   8.623
  221MPD2    H5 3659   1.129   4.664   8.665
  221MPD2    N1 3660   1.304   4.132   8.704
  221MPD2    H7 3661   1.326   4.059   8.771
  222MPD2     C 3662   1.036   1.080  14.253
  222MPD2    C1 3663   0.912   1.088  14.309
  222MPD2    C2 3664   0.900   1.180  14.414
  222MPD2    C3 3665   0.994   1.269  14.447
  222MPD2    C4 3666   1.113   1.264  14.382
  222MPD2    C5 3667   1.136   1.162  14.294
  222MPD2     H 3668   0.805   1.182  14.466
  222MPD2    H1 3669   1.185   1.337  14.418
  222MPD2    H2 3670   1.065   1.015  14.170
  222MPD2    H3 3671   1.236   1.156  14.254
  222MPD2     N 3672   0.975   1.364  14.555
  222MPD2    H5 3673   1.054   1.423  14.578
  222MPD2    N1 3674   0.800   1.011  14.265
  222MPD2    H7 3675   0.719   1.002  14.326
  223MPD2     C 3676   0.256   2.046  14.803
  223MPD2    C1 3677   0.385   2.096  14.799
  223MPD2    C2 3678   0.496   2.014  14.791
  223MPD2    C3 3679   0.472   1.882  14.765
  223MPD2    C4 3680   0.345   1.840  14.746
  223MPD2    C5 3681   0.234   1.914  14.774
  223MPD2     H 3682   0.592   2.063  14.797
  223MPD2    H1 3683   0.335   1.735  14.720
  223MPD2    H2 3684   0.168   2.109  14.804
  223MPD2    H3 3685   0.134   1.871  14.768
  223MPD2     N 3686   0.568   1.779  14.774
  223MPD2    H5 3687   0.531   1.686  14.759
  223MPD2    N1 3688   0.411   2.234  14.819
  223MPD2    H7 3689   0.508   2.261  14.827
  224MPD2     C 3690   1.638   1.701  14.939
  224MPD2    C1 3691   1.547   1.691  15.046
  224MPD2    C2 3692   1.419   1.649  15.029
  224MPD2    C3 3693   1.378   1.621  14.896
  224MPD2    C4 3694   1.473   1.615  14.795
  224MPD2    C5 3695   1.600   1.661  14.812
  224MPD2     H 3696   1.352   1.651  15.114
  224MPD2    H1 3697   1.452   1.584  14.693
  224MPD2    H2 3698   1.743   1.726  14.948
  224MPD2    H3 3699   1.675   1.650  14.734
  224MPD2     N 3700   1.242   1.595  14.862
  224MPD2    H5 3701   1.229   1.579  14.762
  224MPD2    N1 3702   1.610   1.730  15.164
  224MPD2    H7 3703   1.712   1.728  15.165
  225MPD2     C 3704   2.044   1.755  11.192
  225MPD2    C1 3705   2.119   1.654  11.140
  225MPD2    C2 3706   2.179   1.668  11.015
  225MPD2    C3 3707   2.169   1.787  10.951
  225MPD2    C4 3708   2.089   1.884  11.002
  225MPD2    C5 3709   2.029   1.876  11.119
  225MPD2     H 3710   2.247   1.591  10.981
  225MPD2    H1 3711   2.081   1.976  10.944
  225MPD2    H2 3712   1.999   1.747  11.290
  225MPD2    H3 3713   1.961   1.952  11.157
  225MPD2     N 3714   2.246   1.808  10.831
  225MPD2    H5 3715   2.294   1.728  10.793
  225MPD2    N1 3716   2.141   1.534  11.208
  225MPD2    H7 3717   2.193   1.460  11.161
  226MPD2     C 3718   2.137   0.739  10.779
  226MPD2    C1 3719   2.272   0.766  10.762
  226MPD2    C2 3720   2.308   0.892  10.724
  226MPD2    C3 3721   2.220   0.986  10.674
  226MPD2    C4 3722   2.085   0.959  10.682
  226MPD2    C5 3723   2.045   0.837  10.738
  226MPD2     H 3724   2.413   0.917  10.725
  226MPD2    H1 3725   2.010   1.035  10.660
  226MPD2    H2 3726   2.102   0.644  10.817
  226MPD2    H3 3727   1.940   0.829  10.764
  226MPD2     N 3728   2.272   1.111  10.622
  226MPD2    H5 3729   2.370   1.126  10.639
  226MPD2    N1 3730   2.380   0.674  10.780
  226MPD2    H7 3731   2.475   0.707  10.771
  227MPD2     C 3732   3.056   1.220  10.597
  227MPD2    C1 3733   2.999   1.352  10.595
  227MPD2    C2 3734   2.870   1.375  10.536
  227MPD2    C3 3735   2.796   1.271  10.489
  227MPD2    C4 3736   2.853   1.145  10.508
  227MPD2    C5 3737   2.976   1.118  10.561
  227MPD2     H 3738   2.827   1.474  10.546
  227MPD2    H1 3739   2.794   1.063  10.471
  227MPD2    H2 3740   3.150   1.198  10.645
  227MPD2    H3 3741   3.002   1.013  10.563
  227MPD2     N 3742   2.662   1.283  10.458
  227MPD2    H5 3743   2.607   1.198  10.468
  227MPD2    N1 3744   3.073   1.461  10.659
  227MPD2    H7 3745   3.160   1.444  10.709
  228MPD2     C 3746   2.149   1.889  10.210
  228MPD2    C1 3747   2.129   1.838  10.335
  228MPD2    C2 3748   2.084   1.921  10.436
  228MPD2    C3 3749   2.083   2.061  10.426
  228MPD2    C4 3750   2.107   2.106  10.302
  228MPD2    C5 3751   2.137   2.024  10.199
  228MPD2     H 3752   2.065   1.881  10.535
  228MPD2    H1 3753   2.106   2.213  10.282
  228MPD2    H2 3754   2.183   1.832  10.123
  228MPD2    H3 3755   2.147   2.066  10.100
  228MPD2     N 3756   2.076   2.161  10.519
  228MPD2    H5 3757   2.090   2.257  10.491
  228MPD2    N1 3758   2.151   1.704  10.367
  228MPD2    H7 3759   2.135   1.686  10.466
  229MPD2     C 3760   1.508   0.218  13.522
  229MPD2    C1 3761   1.647   0.210  13.546
  229MPD2    C2 3762   1.711   0.306  13.632
  229MPD2    C3 3763   1.633   0.401  13.700
  229MPD2    C4 3764   1.491   0.402  13.680
  229MPD2    C5 3765   1.438   0.314  13.593
  229MPD2     H 3766   1.819   0.298  13.639
  229MPD2    H1 3767   1.425   0.478  13.720
  229MPD2    H2 3768   1.453   0.157  13.452
  229MPD2    H3 3769   1.333   0.322  13.570
  229MPD2     N 3770   1.694   0.489  13.786
  229MPD2    H5 3771   1.628   0.559  13.819
  229MPD2    N1 3772   1.722   0.107  13.484
  229MPD2    H7 3773   1.820   0.115  13.510
  230MPD2     C 3774   1.852   1.283  13.828
  230MPD2    C1 3775   1.949   1.214  13.892
  230MPD2    C2 3776   2.071   1.275  13.928
  230MPD2    C3 3777   2.075   1.412  13.920
  230MPD2    C4 3778   1.964   1.481  13.877
  230MPD2    C5 3779   1.852   1.419  13.824
  230MPD2     H 3780   2.148   1.220  13.980
  230MPD2    H1 3781   1.971   1.586  13.853
  230MPD2    H2 3782   1.759   1.235  13.797
  230MPD2    H3 3783   1.766   1.478  13.794
  230MPD2     N 3784   2.198   1.487  13.948
  230MPD2    H5 3785   2.185   1.587  13.963
  230MPD2    N1 3786   1.940   1.078  13.913
  230MPD2    H7 3787   2.028   1.043  13.949
  231MPD2     C 3788   1.540   0.602  14.413
  231MPD2    C1 3789   1.535   0.585  14.274
  231MPD2    C2 3790   1.426   0.517  14.222
  231MPD2    C3 3791   1.326   0.456  14.292
  231MPD2    C4 3792   1.339   0.462  14.432
  231MPD2    C5 3793   1.445   0.525  14.488
  231MPD2     H 3794   1.419   0.511  14.114
  231MPD2    H1 3795   1.265   0.410  14.493
  231MPD2    H2 3796   1.623   0.652  14.460
  231MPD2    H3 3797   1.465   0.517  14.595
  231MPD2     N 3798   1.217   0.385  14.234
  231MPD2    H5 3799   1.161   0.336  14.303
  231MPD2    N1 3800   1.635   0.638  14.183
  231MPD2    H7 3801   1.616   0.626  14.084
  232MPD2     C 3802   3.224   1.931   9.226
  232MPD2    C1 3803   3.351   1.975   9.188
  232MPD2    C2 3804   3.409   1.931   9.068
  232MPD2    C3 3805   3.340   1.838   8.988
  232MPD2    C4 3806   3.214   1.795   9.032
  232MPD2    C5 3807   3.158   1.836   9.153
  232MPD2     H 3808   3.507   1.972   9.042
  232MPD2    H1 3809   3.162   1.721   8.973
  232MPD2    H2 3810   3.171   1.964   9.314
  232MPD2    H3 3811   3.058   1.803   9.177
  232MPD2     N 3812   3.397   1.775   8.881
  232MPD2    H5 3813   3.351   1.686   8.864
  232MPD2    N1 3814   3.429   2.058   9.271
  232MPD2    H7 3815   3.518   2.083   9.230
  233MPD2     C 3816   4.133   2.108   9.333
  233MPD2    C1 3817   4.053   2.145   9.446
  233MPD2    C2 3818   4.123   2.175   9.561
  233MPD2    C3 3819   4.257   2.195   9.568
  233MPD2    C4 3820   4.324   2.179   9.453
  233MPD2    C5 3821   4.269   2.131   9.333
  233MPD2     H 3822   4.067   2.192   9.653
  233MPD2    H1 3823   4.425   2.214   9.442
  233MPD2    H2 3824   4.099   2.081   9.234
  233MPD2    H3 3825   4.332   2.125   9.245
  233MPD2     N 3826   4.312   2.246   9.688
  233MPD2    H5 3827   4.248   2.249   9.767
  233MPD2    N1 3828   3.910   2.153   9.438
  233MPD2    H7 3829   3.862   2.106   9.362
  234MPD2     C 3830   3.631   2.748   9.098
  234MPD2    C1 3831   3.727   2.672   9.169
  234MPD2    C2 3832   3.859   2.697   9.146
  234MPD2    C3 3833   3.904   2.785   9.046
  234MPD2    C4 3834   3.816   2.859   8.978
  234MPD2    C5 3835   3.678   2.830   8.999
  234MPD2     H 3836   3.928   2.635   9.202
  234MPD2    H1 3837   3.846   2.920   8.894
  234MPD2    H2 3838   3.525   2.742   9.117
  234MPD2    H3 3839   3.604   2.880   8.938
  234MPD2     N 3840   4.037   2.796   9.012
  234MPD2    H5 3841   4.055   2.847   8.927
  234MPD2    N1 3842   3.689   2.592   9.277
  234MPD2    H7 3843   3.762   2.547   9.330
  235MPD2     C 3844   3.189   0.962  14.803
  235MPD2    C1 3845   3.256   0.968  14.926
  235MPD2    C2 3846   3.392   0.952  14.931
  235MPD2    C3 3847   3.465   0.958  14.816
  235MPD2    C4 3848   3.405   0.963  14.695
  235MPD2    C5 3849   3.268   0.953  14.687
  235MPD2     H 3850   3.438   0.944  15.028
  235MPD2    H1 3851   3.464   0.975  14.605
  235MPD2    H2 3852   3.081   0.968  14.792
  235MPD2    H3 3853   3.221   0.945  14.590
  235MPD2     N 3854   3.603   0.962  14.820
  235MPD2    H5 3855   3.638   0.972  14.915
  235MPD2    N1 3856   3.186   0.970  15.050
  235MPD2    H7 3857   3.244   0.998  15.129
  236MPD2     C 3858   4.356   0.680  14.393
  236MPD2    C1 3859   4.238   0.749  14.415
  236MPD2    C2 3860   4.174   0.731  14.536
  236MPD2    C3 3861   4.216   0.640  14.633
  236MPD2    C4 3862   4.323   0.561  14.597
  236MPD2    C5 3863   4.388   0.587  14.478
  236MPD2     H 3864   4.085   0.791  14.554
  236MPD2    H1 3865   4.373   0.492  14.665
  236MPD2    H2 3866   4.418   0.694  14.305
  236MPD2    H3 3867   4.486   0.545  14.460
  236MPD2     N 3868   4.152   0.628  14.762
  236MPD2    H5 3869   4.188   0.552  14.817
  236MPD2    N1 3870   4.188   0.854  14.338
  236MPD2    H7 3871   4.106   0.901  14.376
  237MPD2     C 3872   4.142   1.412  14.469
  237MPD2    C1 3873   4.069   1.405  14.590
  237MPD2    C2 3874   4.000   1.518  14.632
  237MPD2    C3 3875   3.999   1.634  14.557
  237MPD2    C4 3876   4.070   1.637  14.440
  237MPD2    C5 3877   4.149   1.527  14.394
  237MPD2     H 3878   3.947   1.502  14.725
  237MPD2    H1 3879   4.058   1.730  14.385
  237MPD2    H2 3880   4.204   1.330  14.436
  237MPD2    H3 3881   4.198   1.547  14.299
  237MPD2     N 3882   3.910   1.745  14.578
  237MPD2    H5 3883   3.907   1.817  14.507
  237MPD2    N1 3884   4.050   1.287  14.664
  237MPD2    H7 3885   3.988   1.294  14.744
  238MPD2     C 3886   1.615   3.346  12.504
  238MPD2    C1 3887   1.600   3.484  12.516
  238MPD2    C2 3888   1.692   3.559  12.590
  238MPD2    C3 3889   1.785   3.497  12.670
  238MPD2    C4 3890   1.788   3.353  12.668
  238MPD2    C5 3891   1.701   3.285  12.588
  238MPD2     H 3892   1.686   3.667  12.578
  238MPD2    H1 3893   1.861   3.297  12.726
  238MPD2    H2 3894   1.553   3.284  12.441
  238MPD2    H3 3895   1.683   3.178  12.590
  238MPD2     N 3896   1.879   3.579  12.733
  238MPD2    H5 3897   1.858   3.678  12.740
  238MPD2    N1 3898   1.510   3.553  12.438
  238MPD2    H7 3899   1.502   3.653  12.457
  239MPD2     C 3900   0.715   3.583  12.396
  239MPD2    C1 3901   0.827   3.620  12.464
  239MPD2    C2 3902   0.816   3.676  12.586
  239MPD2    C3 3903   0.698   3.715  12.633
  239MPD2    C4 3904   0.582   3.690  12.557
  239MPD2    C5 3905   0.590   3.618  12.436
  239MPD2     H 3906   0.902   3.707  12.643
  239MPD2    H1 3907   0.483   3.722  12.586
  239MPD2    H2 3908   0.715   3.522  12.306
  239MPD2    H3 3909   0.508   3.593  12.370
  239MPD2     N 3910   0.696   3.777  12.763
  239MPD2    H5 3911   0.784   3.780  12.814
  239MPD2    N1 3912   0.953   3.612  12.399
  239MPD2    H7 3913   0.950   3.558  12.313
  240MPD2     C 3914   1.501   3.360   7.113
  240MPD2    C1 3915   1.622   3.388   7.169
  240MPD2    C2 3916   1.706   3.289   7.210
  240MPD2    C3 3917   1.670   3.156   7.192
  240MPD2    C4 3918   1.541   3.131   7.139
  240MPD2    C5 3919   1.460   3.229   7.098
  240MPD2     H 3920   1.797   3.320   7.260
  240MPD2    H1 3921   1.514   3.026   7.138
  240MPD2    H2 3922   1.425   3.433   7.085
  240MPD2    H3 3923   1.369   3.205   7.044
  240MPD2     N 3924   1.753   3.051   7.237
  240MPD2    H5 3925   1.714   2.958   7.247
  240MPD2    N1 3926   1.676   3.515   7.186
  240MPD2    H7 3927   1.758   3.520   7.245
  241MPD2     C 3928   2.751   2.899   7.659
  241MPD2    C1 3929   2.695   3.004   7.587
  241MPD2    C2 3930   2.572   2.988   7.528
  241MPD2    C3 3931   2.496   2.870   7.541
  241MPD2    C4 3932   2.556   2.765   7.606
  241MPD2    C5 3933   2.682   2.779   7.662
  241MPD2     H 3934   2.545   3.072   7.464
  241MPD2    H1 3935   2.508   2.670   7.626
  241MPD2    H2 3936   2.844   2.903   7.715
  241MPD2    H3 3937   2.720   2.698   7.723
  241MPD2     N 3938   2.361   2.853   7.504
  241MPD2    H5 3939   2.322   2.759   7.507
  241MPD2    N1 3940   2.770   3.123   7.585
  241MPD2    H7 3941   2.840   3.133   7.658
  242MPD2     C 3942   1.567   2.979   8.040
  242MPD2    C1 3943   1.566   3.085   7.954
  242MPD2    C2 3944   1.643   3.077   7.838
  242MPD2    C3 3945   1.739   2.978   7.823
  242MPD2    C4 3946   1.753   2.885   7.924
  242MPD2    C5 3947   1.667   2.883   8.026
  242MPD2     H 3948   1.639   3.151   7.759
  242MPD2    H1 3949   1.816   2.798   7.911
  242MPD2    H2 3950   1.508   2.979   8.131
  242MPD2    H3 3951   1.681   2.807   8.102
  242MPD2     N 3952   1.802   2.959   7.702
  242MPD2    H5 3953   1.782   3.029   7.632
  242MPD2    N1 3954   1.491   3.200   7.995
  242MPD2    H7 3955   1.464   3.204   8.092
  243MPD2     C 3956   4.195   3.168  14.410
  243MPD2    C1 3957   4.221   3.206  14.540
  243MPD2    C2 3958   4.145   3.300  14.596
  243MPD2    C3 3959   4.047   3.368  14.527
  243MPD2    C4 3960   4.022   3.329  14.394
  243MPD2    C5 3961   4.097   3.228  14.335
  243MPD2     H 3962   4.161   3.304  14.703
  243MPD2    H1 3963   3.941   3.370  14.335
  243MPD2    H2 3964   4.245   3.084  14.364
  243MPD2    H3 3965   4.074   3.199  14.234
  243MPD2     N 3966   3.961   3.459  14.593
  243MPD2    H5 3967   3.885   3.498  14.539
  243MPD2    N1 3968   4.320   3.151  14.622
  243MPD2    H7 3969   4.337   3.201  14.709
  244MPD2     C 3970   4.121   4.251  15.149
  244MPD2    C1 3971   3.994   4.263  15.093
  244MPD2    C2 3972   3.931   4.150  15.043
  244MPD2    C3 3973   3.989   4.025  15.042
  244MPD2    C4 3974   4.116   4.014  15.105
  244MPD2    C5 3975   4.177   4.128  15.159
  244MPD2     H 3976   3.836   4.165  14.992
  244MPD2    H1 3977   4.173   3.924  15.127
  244MPD2    H2 3978   4.189   4.330  15.179
  244MPD2    H3 3979   4.277   4.115  15.200
  244MPD2     N 3980   3.931   3.909  14.985
  244MPD2    H5 3981   3.997   3.833  14.976
  244MPD2    N1 3982   3.921   4.389  15.088
  244MPD2    H7 3983   3.840   4.393  15.028
  245MPD2     C 3984   3.267   3.708  14.527
  245MPD2    C1 3985   3.334   3.808  14.597
  245MPD2    C2 3986   3.289   3.940  14.592
  245MPD2    C3 3987   3.184   3.977  14.504
  245MPD2    C4 3988   3.126   3.872  14.433
  245MPD2    C5 3989   3.166   3.743  14.444
  245MPD2     H 3990   3.349   4.015  14.641
  245MPD2    H1 3991   3.043   3.886  14.364
  245MPD2    H2 3992   3.291   3.603  14.533
  245MPD2    H3 3993   3.122   3.655  14.400
  245MPD2     N 3994   3.161   4.116  14.491
  245MPD2    H5 3995   3.219   4.184  14.540
  245MPD2    N1 3996   3.452   3.774  14.671
  245MPD2    H7 3997   3.505   3.851  14.709
  246MPD2     C 3998   4.568   2.393   8.215
  246MPD2    C1 3999   4.592   2.420   8.077
  246MPD2    C2 4000   4.532   2.341   7.978
  246MPD2    C3 4001   4.457   2.235   8.019
  246MPD2    C4 4002   4.457   2.196   8.154
  246MPD2    C5 4003   4.514   2.275   8.249
  246MPD2     H 4004   4.541   2.362   7.872
  246MPD2    H1 4005   4.410   2.106   8.190
  246MPD2    H2 4006   4.626   2.442   8.291
  246MPD2    H3 4007   4.505   2.234   8.348
  246MPD2     N 4008   4.394   2.165   7.918
  246MPD2    H5 4009   4.406   2.176   7.818
  246MPD2    N1 4010   4.669   2.535   8.049
  246MPD2    H7 4011   4.719   2.567   8.132
  247MPD2     C 4012   0.109   2.855   7.360
  247MPD2    C1 4013   4.783   2.773   7.352
  247MPD2    C2 4014   4.740   2.729   7.227
  247MPD2    C3 4015   0.019   2.758   7.111
  247MPD2    C4 4016   0.137   2.826   7.121
  247MPD2    C5 4017   0.182   2.875   7.246
  247MPD2     H 4018   4.653   2.663   7.229
  247MPD2    H1 4019   0.200   2.848   7.035
  247MPD2    H2 4020   0.161   2.868   7.454
  247MPD2    H3 4021   0.279   2.923   7.247
  247MPD2     N 4022   4.762   2.713   6.994
  247MPD2    H5 4023   0.036   2.719   6.912
  247MPD2    N1 4024   4.726   2.737   7.472
  247MPD2    H7 4025   4.775   2.759   7.558
  248MPD2     C 4026   3.841   2.354   7.966
  248MPD2    C1 4027   3.904   2.325   7.842
  248MPD2    C2 4028   4.025   2.396   7.806
  248MPD2    C3 4029   4.076   2.485   7.900
  248MPD2    C4 4030   4.010   2.513   8.015
  248MPD2    C5 4031   3.894   2.452   8.048
  248MPD2     H 4032   4.063   2.380   7.706
  248MPD2    H1 4033   4.053   2.586   8.083
  248MPD2    H2 4034   3.747   2.309   7.997
  248MPD2    H3 4035   3.833   2.472   8.135
  248MPD2     N 4036   4.191   2.569   7.877
  248MPD2    H5 4037   4.228   2.630   7.949
  248MPD2    N1 4038   3.841   2.229   7.762
  248MPD2    H7 4039   3.741   2.215   7.773
  249MPD2     C 4040   2.932   4.638  11.137
  249MPD2    C1 4041   3.045   4.608  11.203
  249MPD2    C2 4042   3.097   4.718  11.273
  249MPD2    C3 4043   3.057   0.062  11.261
  249MPD2    C4 4044   2.966   0.087  11.163
  249MPD2    C5 4045   2.907   4.764  11.102
  249MPD2     H 4046   3.176   4.710  11.347
  249MPD2    H1 4047   2.935   0.189  11.146
  249MPD2    H2 4048   2.886   4.570  11.066
  249MPD2    H3 4049   2.812   4.774  11.050
  249MPD2     N 4050   3.100   0.176  11.340
  249MPD2    H5 4051   3.050   0.260  11.312
  249MPD2    N1 4052   3.099   4.479  11.210
  249MPD2    H7 4053   3.196   4.477  11.241
  250MPD2     C 4054   3.624   3.964  11.173
  250MPD2    C1 4055   3.539   3.951  11.069
  250MPD2    C2 4056   3.529   3.828  11.007
  250MPD2    C3 4057   3.601   3.718  11.047
  250MPD2    C4 4058   3.690   3.729  11.154
  250MPD2    C5 4059   3.702   3.855  11.209
  250MPD2     H 4060   3.469   3.823  10.917
  250MPD2    H1 4061   3.745   3.640  11.183
  250MPD2    H2 4062   3.648   4.062  11.213
  250MPD2    H3 4063   3.768   3.872  11.292
  250MPD2     N 4064   3.594   3.605  10.957
  250MPD2    H5 4065   3.551   3.621  10.866
  250MPD2    N1 4066   3.462   4.068  11.030
  250MPD2    H7 4067   3.480   4.147  11.092
  251MPD2     C 4068   2.925   4.681  10.583
  251MPD2    C1 4069   2.983   4.563  10.552
  251MPD2    C2 4070   2.988   4.513  10.421
  251MPD2    C3 4071   2.932   4.588  10.323
  251MPD2    C4 4072   2.877   4.710  10.355
  251MPD2    C5 4073   2.873   4.756  10.481
  251MPD2     H 4074   3.045   4.423  10.401
  251MPD2    H1 4075   2.830   4.764  10.274
  251MPD2    H2 4076   2.913   4.717  10.685
  251MPD2    H3 4077   2.829   0.064  10.511
  251MPD2     N 4078   2.916   4.548  10.191
  251MPD2    H5 4079   2.859   4.608  10.132
  251MPD2    N1 4080   3.038   4.487  10.659
  251MPD2    H7 4081   3.041   4.541  10.744
  252MPD2     C 4082   3.973   2.453  14.181
  252MPD2    C1 4083   4.018   2.579  14.201
  252MPD2    C2 4084   4.146   2.598  14.248
  252MPD2    C3 4085   4.233   2.486  14.257
  252MPD2    C4 4086   4.195   2.351  14.228
  252MPD2    C5 4087   4.057   2.342  14.186
  252MPD2     H 4088   4.182   2.697  14.274
  252MPD2    H1 4089   4.255   2.261  14.237
  252MPD2    H2 4090   3.867   2.435  14.165
  252MPD2    H3 4091   4.016   2.250  14.146
  252MPD2     N 4092   4.359   2.515  14.307
  252MPD2    H5 4093   4.378   2.615  14.315
  252MPD2    N1 4094   3.944   2.698  14.195
  252MPD2    H7 4095   3.984   2.781  14.238
  253MPD2     C 4096   0.282   2.464  13.638
  253MPD2    C1 4097   0.326   2.569  13.708
  253MPD2    C2 4098   0.283   2.591  13.836
  253MPD2    C3 4099   0.177   2.515  13.890
  253MPD2    C4 4100   0.116   2.417  13.810
  253MPD2    C5 4101   0.176   2.390  13.688
  253MPD2     H 4102   0.335   2.670  13.889
  253MPD2    H1 4103   0.030   2.357  13.834
  253MPD2    H2 4104   0.325   2.430  13.545
  253MPD2    H3 4105   0.136   2.307  13.631
  253MPD2     N 4106   0.116   2.553  14.013
  253MPD2    H5 4107   0.161   2.626  14.067
  253MPD2    N1 4108   0.428   2.649  13.649
  253MPD2    H7 4109   0.498   2.699  13.704
  254MPD2     C 4110   4.508   3.121  14.189
  254MPD2    C1 4111   4.640   3.079  14.213
  254MPD2    C2 4112   4.750   3.160  14.207
  254MPD2    C3 4113   4.728   3.295  14.173
  254MPD2    C4 4114   4.598   3.335  14.159
  254MPD2    C5 4115   4.493   3.253  14.158
  254MPD2     H 4116   0.066   3.128  14.219
  254MPD2    H1 4117   4.580   3.430  14.109
  254MPD2    H2 4118   4.421   3.057  14.193
  254MPD2    H3 4119   4.400   3.293  14.121
  254MPD2     N 4120   0.045   3.387  14.143
  254MPD2    H5 4121   0.032   3.484  14.167
  254MPD2    N1 4122   4.671   2.943  14.248
  254MPD2    H7 4123   4.764   2.920  14.282
  255MPD2     C 4124   0.211   2.581  12.401
  255MPD2    C1 4125   0.164   2.487  12.483
  255MPD2    C2 4126   0.099   2.522  12.604
  255MPD2    C3 4127   0.093   2.658  12.635
  255MPD2    C4 4128   0.162   2.748  12.558
  255MPD2    C5 4129   0.199   2.714  12.433
  255MPD2     H 4130   0.053   2.442  12.662
  255MPD2    H1 4131   0.157   2.855  12.574
  255MPD2    H2 4132   0.249   2.553  12.303
  255MPD2    H3 4133   0.226   2.791  12.362
  255MPD2     N 4134   0.028   2.702  12.756
  255MPD2    H5 4135   0.031   2.800  12.779
  255MPD2    N1 4136   0.170   2.349  12.445
  255MPD2    H7 4137   0.154   2.282  12.520
  256MPD2     C 4138   4.142   2.793  13.335
  256MPD2    C1 4139   4.140   2.877  13.233
  256MPD2    C2 4140   4.031   2.960  13.215
  256MPD2    C3 4141   3.929   2.957  13.305
  256MPD2    C4 4142   3.938   2.878  13.415
  256MPD2    C5 4143   4.043   2.794  13.429
  256MPD2     H 4144   4.030   3.025  13.128
  256MPD2    H1 4145   3.861   2.876  13.492
  256MPD2    H2 4146   4.219   2.718  13.352
  256MPD2    H3 4147   4.054   2.740  13.522
  256MPD2     N 4148   3.812   3.040  13.308
  256MPD2    H5 4149   3.750   3.031  13.387
  256MPD2    N1 4150   4.243   2.872  13.131
  256MPD2    H7 4151   4.215   2.929  13.052
  257MPD2     C 4152   4.683   3.076  12.268
  257MPD2    C1 4153   4.554   3.082  12.315
  257MPD2    C2 4154   4.538   3.080  12.454
  257MPD2    C3 4155   4.640   3.090  12.547
  257MPD2    C4 4156   4.770   3.090  12.497
  257MPD2    C5 4157   0.004   3.088  12.357
  257MPD2     H 4158   4.436   3.075  12.491
  257MPD2    H1 4159   0.078   3.091  12.549
  257MPD2    H2 4160   4.707   3.062  12.163
  257MPD2    H3 4161   0.107   3.082  12.326
  257MPD2     N 4162   4.619   3.090  12.688
  257MPD2    H5 4163   4.710   3.071  12.729
  257MPD2    N1 4164   4.451   3.054  12.219
  257MPD2    H7 4165   4.487   3.018  12.131
  258MPD2     C 4166   1.359   4.678  10.238
  258MPD2    C1 4167   1.380   4.542  10.241
  258MPD2    C2 4168   1.338   4.470  10.128
  258MPD2    C3 4169   1.290   4.537  10.019
  258MPD2    C4 4170   1.272   4.672  10.023
  258MPD2    C5 4171   1.305   4.745  10.135
  258MPD2     H 4172   1.332   4.361  10.130
  258MPD2    H1 4173   1.222   4.727   9.944
  258MPD2    H2 4174   1.410   4.747  10.303
  258MPD2    H3 4175   1.296   0.066  10.130
  258MPD2     N 4176   1.247   4.456   9.910
  258MPD2    H5 4177   1.265   4.356   9.920
  258MPD2    N1 4178   1.412   4.486  10.363
  258MPD2    H7 4179   1.408   4.552  10.440
  259MPD2     C 4180   1.494   4.741   9.415
  259MPD2    C1 4181   1.440   4.736   9.283
  259MPD2    C2 4182   1.367   4.621   9.263
  259MPD2    C3 4183   1.354   4.517   9.345
  259MPD2    C4 4184   1.439   4.512   9.453
  259MPD2    C5 4185   1.501   4.625   9.485
  259MPD2     H 4186   1.308   4.605   9.173
  259MPD2    H1 4187   1.445   4.426   9.518
  259MPD2    H2 4188   1.542   0.043   9.458
  259MPD2    H3 4189   1.572   4.614   9.567
  259MPD2     N 4190   1.283   4.403   9.292
  259MPD2    H5 4191   1.266   4.414   9.193
  259MPD2    N1 4192   1.419   0.053   9.188
  259MPD2    H7 4193   1.350   0.034   9.117
  260MPD2     C 4194   0.995   3.980  10.015
  260MPD2    C1 4195   1.057   3.980   9.895
  260MPD2    C2 4196   0.991   3.939   9.782
  260MPD2    C3 4197   0.856   3.920   9.788
  260MPD2    C4 4198   0.792   3.931   9.908
  260MPD2    C5 4199   0.861   3.964  10.021
  260MPD2     H 4200   1.050   3.929   9.692
  260MPD2    H1 4201   0.685   3.942   9.911
  260MPD2    H2 4202   1.046   3.998  10.109
  260MPD2    H3 4203   0.813   4.000  10.112
  260MPD2     N 4204   0.791   3.874   9.674
  260MPD2    H5 4205   0.853   3.834   9.605
  260MPD2    N1 4206   1.196   4.002   9.899
  260MPD2    H7 4207   1.245   3.999   9.987
  261MPD2     C 4208   1.200   3.955   8.302
  261MPD2    C1 4209   1.151   4.072   8.254
  261MPD2    C2 4210   1.014   4.095   8.248
  261MPD2    C3 4211   0.925   3.994   8.279
  261MPD2    C4 4212   0.983   3.875   8.326
  261MPD2    C5 4213   1.116   3.851   8.335
  261MPD2     H 4214   0.980   4.195   8.224
  261MPD2    H1 4215   0.916   3.797   8.360
  261MPD2    H2 4216   1.307   3.938   8.307
  261MPD2    H3 4217   1.156   3.762   8.381
  261MPD2     N 4218   0.785   4.010   8.270
  261MPD2    H5 4219   0.718   3.963   8.330
  261MPD2    N1 4220   1.254   4.165   8.231
  261MPD2    H7 4221   1.345   4.131   8.258
  262MPD2     C 4222   0.888   3.765   7.558
  262MPD2    C1 4223   0.792   3.867   7.557
  262MPD2    C2 4224   0.715   3.865   7.443
  262MPD2    C3 4225   0.720   3.776   7.343
  262MPD2    C4 4226   0.821   3.687   7.345
  262MPD2    C5 4227   0.902   3.679   7.449
  262MPD2     H 4228   0.640   3.943   7.429
  262MPD2    H1 4229   0.850   3.620   7.265
  262MPD2    H2 4230   0.948   3.738   7.645
  262MPD2    H3 4231   0.981   3.605   7.450
  262MPD2     N 4232   0.624   3.790   7.236
  262MPD2    H5 4233   0.549   3.856   7.250
  262MPD2    N1 4234   0.776   3.965   7.659
  262MPD2    H7 4235   0.713   4.043   7.643
  263MPD2     C 4236   1.257   4.387   7.673
  263MPD2    C1 4237   1.201   4.502   7.623
  263MPD2    C2 4238   1.069   4.529   7.652
  263MPD2    C3 4239   1.001   4.465   7.749
  263MPD2    C4 4240   1.069   4.359   7.809
  263MPD2    C5 4241   1.194   4.319   7.771
  263MPD2     H 4242   1.017   4.609   7.600
  263MPD2    H1 4243   1.020   4.308   7.892
  263MPD2    H2 4244   1.357   4.352   7.653
  263MPD2    H3 4245   1.255   4.242   7.815
  263MPD2     N 4246   0.870   4.507   7.772
  263MPD2    H5 4247   0.842   4.600   7.743
  263MPD2    N1 4248   1.276   4.579   7.531
  263MPD2    H7 4249   1.229   4.655   7.482
  264MPD2     C 4250   1.044   2.901  12.877
  264MPD2    C1 4251   1.064   2.852  13.009
  264MPD2    C2 4252   1.148   2.928  13.091
  264MPD2    C3 4253   1.205   3.042  13.046
  264MPD2    C4 4254   1.184   3.086  12.919
  264MPD2    C5 4255   1.095   3.019  12.835
  264MPD2     H 4256   1.153   2.902  13.196
  264MPD2    H1 4257   1.215   3.177  12.870
  264MPD2    H2 4258   0.982   2.848  12.805
  264MPD2    H3 4259   1.079   3.063  12.737
  264MPD2     N 4260   1.277   3.115  13.146
  264MPD2    H5 4261   1.275   3.061  13.232
  264MPD2    N1 4262   0.994   2.750  13.068
  264MPD2    H7 4263   1.014   2.744  13.167
  265MPD2     C 4264   1.226   3.794  13.580
  265MPD2    C1 4265   1.195   3.717  13.466
  265MPD2    C2 4266   1.083   3.756  13.395
  265MPD2    C3 4267   1.005   3.869  13.420
  265MPD2    C4 4268   1.032   3.935  13.537
  265MPD2    C5 4269   1.141   3.899  13.611
  265MPD2     H 4270   1.051   3.695  13.311
  265MPD2    H1 4271   0.968   4.017  13.568
  265MPD2    H2 4272   1.303   3.779  13.654
  265MPD2    H3 4273   1.167   3.948  13.704
  265MPD2     N 4274   0.896   3.908  13.337
  265MPD2    H5 4275   0.833   3.981  13.372
  265MPD2    N1 4276   1.262   3.599  13.428
  265MPD2    H7 4277   1.223   3.558  13.344
  266MPD2     C 4278   2.401   0.528   9.266
  266MPD2    C1 4279   2.456   0.638   9.197
  266MPD2    C2 4280   2.589   0.674   9.230
  266MPD2    C3 4281   2.668   0.602   9.322
  266MPD2    C4 4282   2.609   0.500   9.396
  266MPD2    C5 4283   2.476   0.464   9.363
  266MPD2     H 4284   2.635   0.755   9.175
  266MPD2    H1 4285   2.665   0.443   9.469
  266MPD2    H2 4286   2.298   0.498   9.255
  266MPD2    H3 4287   2.433   0.378   9.413
  266MPD2     N 4288   2.800   0.646   9.332
  266MPD2    H5 4289   2.820   0.716   9.262
  266MPD2    N1 4290   2.382   0.728   9.120
  266MPD2    H7 4291   2.438   0.807   9.090
  267MPD2     C 4292   3.053   1.454   9.052
  267MPD2    C1 4293   3.061   1.333   8.982
  267MPD2    C2 4294   3.104   1.219   9.042
  267MPD2    C3 4295   3.102   1.220   9.180
  267MPD2    C4 4296   3.084   1.335   9.257
  267MPD2    C5 4297   3.063   1.455   9.189
  267MPD2     H 4298   3.116   1.137   8.972
  267MPD2    H1 4299   3.057   1.324   9.361
  267MPD2    H2 4300   3.026   1.544   8.998
  267MPD2    H3 4301   3.019   1.536   9.246
  267MPD2     N 4302   3.112   1.090   9.236
  267MPD2    H5 4303   3.146   1.014   9.179
  267MPD2    N1 4304   3.030   1.321   8.846
  267MPD2    H7 4305   3.041   1.230   8.802
  268MPD2     C 4306   3.662   0.664   9.334
  268MPD2    C1 4307   3.593   0.638   9.454
  268MPD2    C2 4308   3.667   0.612   9.568
  268MPD2    C3 4309   3.804   0.624   9.573
  268MPD2    C4 4310   3.867   0.661   9.453
  268MPD2    C5 4311   3.793   0.682   9.336
  268MPD2     H 4312   3.616   0.582   9.659
  268MPD2    H1 4313   3.973   0.680   9.441
  268MPD2    H2 4314   3.616   0.696   9.241
  268MPD2    H3 4315   3.846   0.707   9.245
  268MPD2     N 4316   3.870   0.597   9.696
  268MPD2    H5 4317   3.816   0.555   9.771
  268MPD2    N1 4318   3.449   0.644   9.457
  268MPD2    H7 4319   3.412   0.658   9.550
  269MPD2     C 4320   2.784   2.400  12.127
  269MPD2    C1 4321   2.836   2.459  12.237
  269MPD2    C2 4322   2.839   2.593  12.239
  269MPD2    C3 4323   2.785   2.676  12.142
  269MPD2    C4 4324   2.731   2.612  12.028
  269MPD2    C5 4325   2.714   2.475  12.034
  269MPD2     H 4326   2.896   2.640  12.319
  269MPD2    H1 4327   2.681   2.659  11.944
  269MPD2    H2 4328   2.777   2.293  12.115
  269MPD2    H3 4329   2.668   2.419  11.954
  269MPD2     N 4330   2.784   2.818  12.162
  269MPD2    H5 4331   2.834   2.856  12.242
  269MPD2    N1 4332   2.901   2.378  12.333
  269MPD2    H7 4333   2.923   2.281  12.314
  270MPD2     C 4334   3.427   2.743  12.971
  270MPD2    C1 4335   3.475   2.617  12.954
  270MPD2    C2 4336   3.393   2.512  12.926
  270MPD2    C3 4337   3.257   2.531  12.903
  270MPD2    C4 4338   3.202   2.660  12.914
  270MPD2    C5 4339   3.292   2.756  12.944
  270MPD2     H 4340   3.431   2.412  12.912
  270MPD2    H1 4341   3.096   2.685  12.916
  270MPD2    H2 4342   3.488   2.832  12.978
  270MPD2    H3 4343   3.250   2.856  12.949
  270MPD2     N 4344   3.165   2.428  12.876
  270MPD2    H5 4345   3.067   2.455  12.867
  270MPD2    N1 4346   3.613   2.578  12.964
  270MPD2    H7 4347   3.639   2.482  12.946
  271MPD2     C 4348   3.348   1.527  12.477
  271MPD2    C1 4349   3.285   1.596  12.371
  271MPD2    C2 4350   3.201   1.705  12.410
  271MPD2    C3 4351   3.177   1.739  12.543
  271MPD2    C4 4352   3.222   1.654  12.642
  271MPD2    C5 4353   3.313   1.554  12.610
  271MPD2     H 4354   3.155   1.768  12.335
  271MPD2    H1 4355   3.202   1.676  12.746
  271MPD2    H2 4356   3.431   1.460  12.465
  271MPD2    H3 4357   3.354   1.493  12.689
  271MPD2     N 4358   3.124   1.862  12.591
  271MPD2    H5 4359   3.117   1.872  12.692
  271MPD2    N1 4360   3.315   1.581  12.234
  271MPD2    H7 4361   3.258   1.634  12.169
  272MPD2     C 4362   4.286   1.936  12.879
  272MPD2    C1 4363   4.175   1.981  12.944
  272MPD2    C2 4364   4.108   2.091  12.895
  272MPD2    C3 4365   4.156   2.159  12.783
  272MPD2    C4 4366   4.271   2.116  12.723
  272MPD2    C5 4367   4.332   2.005  12.769
  272MPD2     H 4368   4.007   2.118  12.925
  272MPD2    H1 4369   4.321   2.161  12.638
  272MPD2    H2 4370   4.343   1.848  12.905
  272MPD2    H3 4371   4.422   1.969  12.721
  272MPD2     N 4372   4.093   2.279  12.735
  272MPD2    H5 4373   4.147   2.339  12.673
  272MPD2    N1 4374   4.125   1.922  13.061
  272MPD2    H7 4375   4.063   1.981  13.115
  273MPD2     C 4376   4.288   2.225  13.193
  273MPD2    C1 4377   4.175   2.301  13.206
  273MPD2    C2 4378   4.072   2.269  13.292
  273MPD2    C3 4379   4.096   2.160  13.379
  273MPD2    C4 4380   4.223   2.093  13.382
  273MPD2    C5 4381   4.312   2.126  13.288
  273MPD2     H 4382   3.976   2.319  13.289
  273MPD2    H1 4383   4.258   2.009  13.441
  273MPD2    H2 4384   4.367   2.246  13.122
  273MPD2    H3 4385   4.409   2.077  13.282
  273MPD2     N 4386   3.984   2.101  13.452
  273MPD2    H5 4387   3.900   2.157  13.446
  273MPD2    N1 4388   4.163   2.414  13.124
  273MPD2    H7 4389   4.218   2.429  13.041
  274MPD2     C 4390   3.265   3.500  11.213
  274MPD2    C1 4391   3.157   3.456  11.150
  274MPD2    C2 4392   3.102   3.544  11.060
  274MPD2    C3 4393   3.139   3.677  11.054
  274MPD2    C4 4394   3.253   3.714  11.119
  274MPD2    C5 4395   3.316   3.625  11.194
  274MPD2     H 4396   3.009   3.511  11.015
  274MPD2    H1 4397   3.296   3.812  11.104
  274MPD2    H2 4398   3.312   3.432  11.283
  274MPD2    H3 4399   3.410   3.649  11.241
  274MPD2     N 4400   3.061   3.772  10.979
  274MPD2    H5 4401   3.087   3.870  10.986
  274MPD2    N1 4402   3.101   3.323  11.165
  274MPD2    H7 4403   3.030   3.294  11.098
  275MPD2     C 4404   2.626   3.758  10.216
  275MPD2    C1 4405   2.572   3.752  10.346
  275MPD2    C2 4406   2.505   3.640  10.385
  275MPD2    C3 4407   2.501   3.529  10.309
  275MPD2    C4 4408   2.567   3.531  10.186
  275MPD2    C5 4409   2.623   3.645  10.139
  275MPD2     H 4410   2.479   3.624  10.489
  275MPD2    H1 4411   2.563   3.441  10.126
  275MPD2    H2 4412   2.679   3.846  10.183
  275MPD2    H3 4413   2.665   3.646  10.039
  275MPD2     N 4414   2.455   3.408  10.363
  275MPD2    H5 4415   2.388   3.422  10.438
  275MPD2    N1 4416   2.634   3.838  10.444
  275MPD2    H7 4417   2.702   3.904  10.408
  276MPD2     C 4418   3.274   3.978  10.098
  276MPD2    C1 4419   3.331   4.022  10.213
  276MPD2    C2 4420   3.248   4.029  10.330
  276MPD2    C3 4421   3.113   4.022  10.317
  276MPD2    C4 4422   3.056   3.995  10.195
  276MPD2    C5 4423   3.139   3.979  10.090
  276MPD2     H 4424   3.299   4.059  10.421
  276MPD2    H1 4425   2.949   3.998  10.179
  276MPD2    H2 4426   3.340   3.966  10.012
  276MPD2    H3 4427   3.089   3.942  10.002
  276MPD2     N 4428   3.032   4.032  10.427
  276MPD2    H5 4429   2.938   4.066  10.411
  276MPD2    N1 4430   3.471   4.031  10.207
  276MPD2    H7 4431   3.520   3.980  10.135
  277MPD2     C 4432   3.361   4.639   9.873
  277MPD2    C1 4433   3.314   4.588   9.992
  277MPD2    C2 4434   3.341   4.458  10.029
  277MPD2    C3 4435   3.426   4.381   9.953
  277MPD2    C4 4436   3.482   4.438   9.842
  277MPD2    C5 4437   3.445   4.564   9.800
  277MPD2     H 4438   3.298   4.418  10.120
  277MPD2    H1 4439   3.558   4.391   9.781
  277MPD2    H2 4440   3.355   4.742   9.843
  277MPD2    H3 4441   3.490   4.609   9.712
  277MPD2     N 4442   3.452   4.247   9.993
  277MPD2    H5 4443   3.385   4.197  10.051
  277MPD2    N1 4444   3.251   4.686  10.077
  277MPD2    H7 4445   3.234   4.775  10.032
  278MPD2     C 4446   4.009   4.535  10.624
  278MPD2    C1 4447   4.020   4.666  10.573
  278MPD2    C2 4448   3.906   4.730  10.513
  278MPD2    C3 4449   3.787   4.667  10.508
  278MPD2    C4 4450   3.779   4.539  10.556
  278MPD2    C5 4451   3.885   4.475  10.613
  278MPD2     H 4452   3.917   0.047  10.484
  278MPD2    H1 4453   3.690   4.477  10.555
  278MPD2    H2 4454   4.084   4.469  10.665
  278MPD2    H3 4455   3.877   4.374  10.651
  278MPD2     N 4456   3.664   4.721  10.454
  278MPD2    H5 4457   3.586   4.657  10.446
  278MPD2    N1 4458   4.137   4.738  10.567
  278MPD2    H7 4459   4.135   0.046  10.531
  279MPD2     C 4460   3.297   0.616  10.058
  279MPD2    C1 4461   3.214   0.514  10.101
  279MPD2    C2 4462   3.079   0.539  10.116
  279MPD2    C3 4463   3.034   0.670  10.092
  279MPD2    C4 4464   3.114   0.773  10.056
  279MPD2    C5 4465   3.244   0.732  10.026
  279MPD2     H 4466   3.017   0.460  10.155
  279MPD2    H1 4467   3.082   0.875  10.041
  279MPD2    H2 4468   3.403   0.603  10.038
  279MPD2    H3 4469   3.302   0.806   9.973
  279MPD2     N 4470   2.906   0.710  10.127
  279MPD2    H5 4471   2.883   0.809  10.127
  279MPD2    N1 4472   3.263   0.387  10.134
  279MPD2    H7 4473   3.193   0.330  10.179
  280MPD2     C 4474   0.674   2.030   8.034
  280MPD2    C1 4475   0.749   1.934   8.103
  280MPD2    C2 4476   0.883   1.955   8.106
  280MPD2    C3 4477   0.949   2.050   8.032
  280MPD2    C4 4478   0.873   2.133   7.954
  280MPD2    C5 4479   0.736   2.120   7.954
  280MPD2     H 4480   0.940   1.883   8.163
  280MPD2    H1 4481   0.909   2.215   7.894
  280MPD2    H2 4482   0.566   2.046   8.037
  280MPD2    H3 4483   0.685   2.195   7.896
  280MPD2     N 4484   1.094   2.063   8.031
  280MPD2    H5 4485   1.135   2.128   7.965
  280MPD2    N1 4486   0.684   1.830   8.167
  280MPD2    H7 4487   0.717   1.783   8.250
  281MPD2     C 4488   0.201   2.432   8.060
  281MPD2    C1 4489   0.277   2.426   7.947
  281MPD2    C2 4490   0.290   2.304   7.879
  281MPD2    C3 4491   0.237   2.190   7.929
  281MPD2    C4 4492   0.146   2.201   8.032
  281MPD2    C5 4493   0.134   2.319   8.096
  281MPD2     H 4494   0.352   2.308   7.791
  281MPD2    H1 4495   0.088   2.116   8.065
  281MPD2    H2 4496   0.196   2.529   8.109
  281MPD2    H3 4497   0.067   2.321   8.182
  281MPD2     N 4498   0.275   2.060   7.883
  281MPD2    H5 4499   0.240   1.984   7.940
  281MPD2    N1 4500   0.340   2.548   7.896
  281MPD2    H7 4501   0.308   2.632   7.942
  282MPD2     C 4502   3.405   1.157  13.572
  282MPD2    C1 4503   3.357   1.119  13.448
  282MPD2    C2 4504   3.367   1.199  13.340
  282MPD2    C3 4505   3.405   1.334  13.366
  282MPD2    C4 4506   3.461   1.367  13.483
  282MPD2    C5 4507   3.460   1.275  13.584
  282MPD2     H 4508   3.321   1.170  13.247
  282MPD2    H1 4509   3.504   1.462  13.511
  282MPD2    H2 4510   3.412   1.096  13.662
  282MPD2    H3 4511   3.503   1.309  13.678
  282MPD2     N 4512   3.381   1.433  13.269
  282MPD2    H5 4513   3.349   1.390  13.183
  282MPD2    N1 4514   3.286   0.997  13.455
  282MPD2    H7 4515   3.280   0.955  13.547
  283MPD2     C 4516   2.737   1.252  13.561
  283MPD2    C1 4517   2.766   1.217  13.695
  283MPD2    C2 4518   2.819   1.095  13.733
  283MPD2    C3 4519   2.851   1.001  13.641
  283MPD2    C4 4520   2.824   1.031  13.505
  283MPD2    C5 4521   2.751   1.143  13.476
  283MPD2     H 4522   2.846   1.074  13.836
  283MPD2    H1 4523   2.834   0.956  13.427
  283MPD2    H2 4524   2.690   1.346  13.534
  283MPD2    H3 4525   2.707   1.146  13.377
  283MPD2     N 4526   2.896   0.878  13.697
  283MPD2    H5 4527   2.882   0.873  13.798
  283MPD2    N1 4528   2.729   1.304  13.798
  283MPD2    H7 4529   2.719   1.270  13.893
  284MPD2     C 4530   0.071   1.225   6.711
  284MPD2    C1 4531   0.016   1.102   6.730
  284MPD2    C2 4532   0.108   0.993   6.716
  284MPD2    C3 4533   0.237   1.004   6.665
  284MPD2    C4 4534   0.279   1.130   6.633
  284MPD2    C5 4535   0.192   1.237   6.648
  284MPD2     H 4536   0.069   0.895   6.744
  284MPD2    H1 4537   0.370   1.143   6.575
  284MPD2    H2 4538   0.019   1.319   6.726
  284MPD2    H3 4539   0.220   1.340   6.625
  284MPD2     N 4540   0.319   0.890   6.645
  284MPD2    H5 4541   0.269   0.802   6.650
  284MPD2    N1 4542   4.677   1.084   6.788
  284MPD2    H7 4543   4.661   0.988   6.815
  285MPD2     C 4544   0.135   4.756   6.540
  285MPD2    C1 4545   0.259   4.752   6.592
  285MPD2    C2 4546   0.342   0.081   6.582
  285MPD2    C3 4547   0.296   0.198   6.518
  285MPD2    C4 4548   0.165   0.195   6.474
  285MPD2    C5 4549   0.088   0.087   6.502
  285MPD2     H 4550   0.445   0.080   6.617
  285MPD2    H1 4551   0.121   0.281   6.426
  285MPD2    H2 4552   0.072   4.668   6.530
  285MPD2    H3 4553   4.773   0.097   6.467
  285MPD2     N 4554   0.372   0.314   6.502
  285MPD2    H5 4555   0.472   0.297   6.516
  285MPD2    N1 4556   0.297   4.629   6.651
  285MPD2    H7 4557   0.226   4.558   6.662
  286MPD2     C 4558   4.656   3.292   9.566
  286MPD2    C1 4559   4.680   3.403   9.481
  286MPD2    C2 4560   0.016   3.467   9.493
  286MPD2    C3 4561   0.118   3.413   9.574
  286MPD2    C4 4562   0.085   3.310   9.659
  286MPD2    C5 4563   4.743   3.256   9.662
  286MPD2     H 4564   0.031   3.552   9.427
  286MPD2    H1 4565   0.154   3.277   9.735
  286MPD2    H2 4566   4.558   3.246   9.579
  286MPD2    H3 4567   4.728   3.171   9.728
  286MPD2     N 4568   0.251   3.464   9.582
  286MPD2    H5 4569   0.303   3.410   9.651
  286MPD2    N1 4570   4.579   3.451   9.395
  286MPD2    H7 4571   4.595   3.539   9.348
  287MPD2     C 4572   4.212   4.006   9.684
  287MPD2    C1 4573   4.280   4.020   9.567
  287MPD2    C2 4574   4.258   3.935   9.462
  287MPD2    C3 4575   4.182   3.826   9.478
  287MPD2    C4 4576   4.112   3.802   9.593
  287MPD2    C5 4577   4.132   3.892   9.697
  287MPD2     H 4578   4.311   3.937   9.367
  287MPD2    H1 4579   4.054   3.711   9.601
  287MPD2    H2 4580   4.219   4.073   9.770
  287MPD2    H3 4581   4.064   3.890   9.780
  287MPD2     N 4582   4.183   3.735   9.373
  287MPD2    H5 4583   4.248   3.755   9.299
  287MPD2    N1 4584   4.376   4.118   9.541
  287MPD2    H7 4585   4.398   4.142   9.445
  288MPD2     C 4586   4.331   4.131   8.695
  288MPD2    C1 4587   4.412   4.133   8.802
  288MPD2    C2 4588   4.416   4.018   8.882
  288MPD2    C3 4589   4.316   3.918   8.868
  288MPD2    C4 4590   4.236   3.928   8.756
  288MPD2    C5 4591   4.245   4.030   8.672
  288MPD2     H 4592   4.488   4.013   8.963
  288MPD2    H1 4593   4.155   3.862   8.727
  288MPD2    H2 4594   4.331   4.209   8.619
  288MPD2    H3 4595   4.185   4.027   8.581
  288MPD2     N 4596   4.295   3.803   8.949
  288MPD2    H5 4597   4.206   3.760   8.929
  288MPD2    N1 4598   4.500   4.238   8.835
  288MPD2    H7 4599   4.562   4.225   8.913
  289MPD2     C 4600   4.139   0.679   8.008
  289MPD2    C1 4601   4.272   0.700   7.998
  289MPD2    C2 4602   4.342   0.609   7.920
  289MPD2    C3 4603   4.282   0.500   7.860
  289MPD2    C4 4604   4.149   0.490   7.858
  289MPD2    C5 4605   4.079   0.583   7.932
  289MPD2     H 4606   4.451   0.606   7.927
  289MPD2    H1 4607   4.090   0.415   7.805
  289MPD2    H2 4608   4.070   0.739   8.067
  289MPD2    H3 4609   3.974   0.566   7.949
  289MPD2     N 4610   4.346   0.378   7.850
  289MPD2    H5 4611   4.277   0.303   7.844
  289MPD2    N1 4612   4.344   0.807   8.064
  289MPD2    H7 4613   4.444   0.815   8.045
  290MPD2     C 4614   3.962   0.162   8.098
  290MPD2    C1 4615   4.073   0.084   8.120
  290MPD2    C2 4616   4.069   4.737   8.082
  290MPD2    C3 4617   3.963   4.682   8.018
  290MPD2    C4 4618   3.845   4.759   8.007
  290MPD2    C5 4619   3.849   0.106   8.045
  290MPD2     H 4620   4.157   4.680   8.108
  290MPD2    H1 4621   3.753   4.719   7.966
  290MPD2    H2 4622   3.959   0.267   8.127
  290MPD2    H3 4623   3.759   0.165   8.033
  290MPD2     N 4624   3.961   4.552   7.975
  290MPD2    H5 4625   4.038   4.488   7.993
  290MPD2    N1 4626   4.192   0.154   8.158
  290MPD2    H7 4627   4.195   0.255   8.154
  291MPD2     C 4628   0.232   0.408   8.210
  291MPD2    C1 4629   0.207   0.310   8.114
  291MPD2    C2 4630   0.316   0.282   8.036
  291MPD2    C3 4631   0.431   0.357   8.026
  291MPD2    C4 4632   0.451   0.460   8.120
  291MPD2    C5 4633   0.348   0.475   8.210
  291MPD2     H 4634   0.312   0.199   7.965
  291MPD2    H1 4635   0.537   0.526   8.127
  291MPD2    H2 4636   0.154   0.452   8.271
  291MPD2    H3 4637   0.341   0.566   8.270
  291MPD2     N 4638   0.529   0.327   7.927
  291MPD2    H5 4639   0.516   0.244   7.871
  291MPD2    N1 4640   0.084   0.247   8.090
  291MPD2    H7 4641   0.082   0.182   8.012
  292MPD2     C 4642   4.527   1.634  12.976
  292MPD2    C1 4643   4.475   1.553  12.876
  292MPD2    C2 4644   4.563   1.457  12.823
  292MPD2    C3 4645   4.694   1.456  12.848
  292MPD2    C4 4646   4.745   1.558  12.929
  292MPD2    C5 4647   4.659   1.647  12.993
  292MPD2     H 4648   4.527   1.371  12.767
  292MPD2    H1 4649   0.062   1.582  12.947
  292MPD2    H2 4650   4.454   1.690  13.034
  292MPD2    H3 4651   4.699   1.723  13.059
  292MPD2     N 4652   4.773   1.348  12.793
  292MPD2    H5 4653   4.728   1.292  12.722
  292MPD2    N1 4654   4.331   1.546  12.863
  292MPD2    H7 4655   4.274   1.600  12.927
  293MPD2     C 4656   3.702   0.706  12.563
  293MPD2    C1 4657   3.680   0.739  12.701
  293MPD2    C2 4658   3.735   0.852  12.750
  293MPD2    C3 4659   3.796   0.947  12.670
  293MPD2    C4 4660   3.815   0.914  12.532
  293MPD2    C5 4661   3.768   0.796  12.486
  293MPD2     H 4662   3.737   0.861  12.858
  293MPD2    H1 4663   3.881   0.966  12.464
  293MPD2    H2 4664   3.664   0.612  12.523
  293MPD2    H3 4665   3.788   0.776  12.381
  293MPD2     N 4666   3.850   1.058  12.730
  293MPD2    H5 4667   3.813   1.079  12.823
  293MPD2    N1 4668   3.612   0.656  12.798
  293MPD2    H7 4669   3.603   0.683  12.895
  294MPD2     C 4670   4.100   3.645  12.345
  294MPD2    C1 4671   4.030   3.629  12.465
  294MPD2    C2 4672   4.025   3.501  12.518
  294MPD2    C3 4673   4.084   3.388  12.460
  294MPD2    C4 4674   4.155   3.409  12.345
  294MPD2    C5 4675   4.162   3.537  12.290
  294MPD2     H 4676   3.965   3.503  12.609
  294MPD2    H1 4677   4.194   3.325  12.288
  294MPD2    H2 4678   4.113   3.741  12.296
  294MPD2    H3 4679   4.214   3.554  12.196
  294MPD2     N 4680   4.071   3.258  12.512
  294MPD2    H5 4681   4.128   3.188  12.466
  294MPD2    N1 4682   3.962   3.736  12.538
  294MPD2    H7 4683   3.958   3.717  12.638
  295MPD2     C 4684   3.385   3.538  12.128
  295MPD2    C1 4685   3.423   3.653  12.049
  295MPD2    C2 4686   3.334   3.689  11.952
  295MPD2    C3 4687   3.211   3.627  11.934
  295MPD2    C4 4688   3.176   3.516  12.015
  295MPD2    C5 4689   3.267   3.479  12.102
  295MPD2     H 4690   3.352   3.785  11.905
  295MPD2    H1 4691   3.083   3.460  12.020
  295MPD2    H2 4692   3.437   3.503  12.216
  295MPD2    H3 4693   3.248   3.400  12.174
  295MPD2     N 4694   3.125   3.666  11.826
  295MPD2    H5 4695   3.144   3.746  11.766
  295MPD2    N1 4696   3.533   3.741  12.089
  295MPD2    H7 4697   3.533   3.834  12.047
  296MPD2     C 4698   2.980   3.024  14.548
  296MPD2    C1 4699   3.015   3.156  14.551
  296MPD2    C2 4700   3.073   3.214  14.440
  296MPD2    C3 4701   3.084   3.143  14.323
  296MPD2    C4 4702   3.046   3.015  14.317
  296MPD2    C5 4703   2.980   2.956  14.422
  296MPD2     H 4704   3.103   3.318  14.441
  296MPD2    H1 4705   3.060   2.957  14.227
  296MPD2    H2 4706   2.957   2.968  14.638
  296MPD2    H3 4707   2.945   2.853  14.424
  296MPD2     N 4708   3.140   3.212  14.215
  296MPD2    H5 4709   3.165   3.310  14.219
  296MPD2    N1 4710   2.988   3.232  14.664
  296MPD2    H7 4711   2.950   3.171  14.736
  297MPD2     C 4712   3.805   3.147  14.764
  297MPD2    C1 4713   3.706   3.178  14.677
  297MPD2    C2 4714   3.590   3.245  14.726
  297MPD2    C3 4715   3.576   3.282  14.857
  297MPD2    C4 4716   3.685   3.255  14.938
  297MPD2    C5 4717   3.794   3.190  14.892
  297MPD2     H 4718   3.509   3.242  14.654
  297MPD2    H1 4719   3.693   3.294  15.039
  297MPD2    H2 4720   3.888   3.080  14.746
  297MPD2    H3 4721   3.871   3.170  14.966
  297MPD2     N 4722   3.456   3.349  14.915
  297MPD2    H5 4723   3.463   3.372  15.014
  297MPD2    N1 4724   3.696   3.131  14.540
  297MPD2    H7 4725   3.609   3.143  14.489
  298MPD2     C 4726   3.021   2.903  15.234
  298MPD2    C1 4727   2.948   2.934  15.120
  298MPD2    C2 4728   2.859   2.832  15.077
  298MPD2    C3 4729   2.848   2.719  15.149
  298MPD2    C4 4730   2.938   2.678  15.248
  298MPD2    C5 4731   3.020   2.774  15.288
  298MPD2     H 4732   2.800   2.840  14.987
  298MPD2    H1 4733   2.933   2.580  15.293
  298MPD2    H2 4734   3.091   2.973  15.278
  298MPD2    H3 4735   3.083   2.764  15.376
  298MPD2     N 4736   2.756   2.628  15.103
  298MPD2    H5 4737   2.716   2.652  15.013
  298MPD2    N1 4738   2.958   3.063  15.053
  298MPD2    H7 4739   2.893   3.068  14.975
  299MPD2     C 4740   4.139   0.043   7.243
  299MPD2    C1 4741   4.066   0.156   7.275
  299MPD2    C2 4742   4.127   0.265   7.336
  299MPD2    C3 4743   4.266   0.261   7.362
  299MPD2    C4 4744   4.334   0.143   7.342
  299MPD2    C5 4745   4.272   0.035   7.288
  299MPD2     H 4746   4.079   0.361   7.353
  299MPD2    H1 4747   4.429   0.121   7.390
  299MPD2    H2 4748   4.099   4.745   7.189
  299MPD2    H3 4749   4.328   4.733   7.261
  299MPD2     N 4750   4.336   0.368   7.414
  299MPD2    H5 4751   4.437   0.361   7.423
  299MPD2    N1 4752   3.931   0.177   7.238
  299MPD2    H7 4753   3.896   0.268   7.267
  300MPD2     C 4754   0.197   0.839   7.033
  300MPD2    C1 4755   0.189   0.720   7.097
  300MPD2    C2 4756   0.101   0.710   7.198
  300MPD2    C3 4757   0.013   0.809   7.231
  300MPD2    C4 4758   0.022   0.930   7.160
  300MPD2    C5 4759   0.116   0.944   7.059
  300MPD2     H 4760   0.097   0.620   7.258
  300MPD2    H1 4761   4.737   1.010   7.173
  300MPD2    H2 4762   0.261   0.851   6.946
  300MPD2    H3 4763   0.122   1.027   6.991
  300MPD2     N 4764   4.713   0.799   7.345
  300MPD2    H5 4765   4.646   0.874   7.351
  300MPD2    N1 4766   0.243   0.606   7.045
  300MPD2    H7 4767   0.225   0.516   7.089
  301MPD2     C 4768   2.437   3.493  13.242
  301MPD2    C1 4769   2.359   3.411  13.163
  301MPD2    C2 4770   2.433   3.339  13.068
  301MPD2    C3 4771   2.576   3.345  13.060
  301MPD2    C4 4772   2.643   3.440  13.138
  301MPD2    C5 4773   2.571   3.499  13.232
  301MPD2     H 4774   2.384   3.280  12.992
  301MPD2    H1 4775   2.751   3.440  13.137
  301MPD2    H2 4776   2.387   3.541  13.325
  301MPD2    H3 4777   2.628   3.564  13.298
  301MPD2     N 4778   2.632   3.265  12.954
  301MPD2    H5 4779   2.581   3.191  12.907
  301MPD2    N1 4780   2.219   3.416  13.162
  301MPD2    H7 4781   2.169   3.365  13.089
  302MPD2     C 4782   1.534   4.137  13.400
  302MPD2    C1 4783   1.658   4.162  13.354
  302MPD2    C2 4784   1.730   4.057  13.299
  302MPD2    C3 4785   1.684   3.929  13.298
  302MPD2    C4 4786   1.567   3.904  13.365
  302MPD2    C5 4787   1.494   4.010  13.411
  302MPD2     H 4788   1.827   4.070  13.254
  302MPD2    H1 4789   1.530   3.803  13.380
  302MPD2    H2 4790   1.469   4.213  13.443
  302MPD2    H3 4791   1.400   3.979  13.457
  302MPD2     N 4792   1.758   3.817  13.235
  302MPD2    H5 4793   1.852   3.838  13.202
  302MPD2    N1 4794   1.703   4.299  13.343
  302MPD2    H7 4795   1.624   4.362  13.336
  303MPD2     C 4796   1.662   2.748  13.274
  303MPD2    C1 4797   1.610   2.825  13.174
  303MPD2    C2 4798   1.668   2.952  13.139
  303MPD2    C3 4799   1.774   3.005  13.221
  303MPD2    C4 4800   1.827   2.914  13.313
  303MPD2    C5 4801   1.770   2.796  13.343
  303MPD2     H 4802   1.625   3.016  13.063
  303MPD2    H1 4803   1.909   2.945  13.378
  303MPD2    H2 4804   1.617   2.654  13.303
  303MPD2    H3 4805   1.815   2.735  13.421
  303MPD2     N 4806   1.821   3.141  13.209
  303MPD2    H5 4807   1.892   3.176  13.273
  303MPD2    N1 4808   1.517   2.760  13.088
  303MPD2    H7 4809   1.471   2.675  13.120
  304MPD2     C 4810   3.785   4.531   7.282
  304MPD2    C1 4811   3.658   4.529   7.223
  304MPD2    C2 4812   3.549   4.569   7.296
  304MPD2    C3 4813   3.557   4.622   7.421
  304MPD2    C4 4814   3.686   4.622   7.477
  304MPD2    C5 4815   3.800   4.581   7.409
  304MPD2     H 4816   3.450   4.556   7.253
  304MPD2    H1 4817   3.706   4.653   7.579
  304MPD2    H2 4818   3.878   4.523   7.226
  304MPD2    H3 4819   3.896   4.583   7.459
  304MPD2     N 4820   3.462   4.670   7.507
  304MPD2    H5 4821   3.486   4.691   7.603
  304MPD2    N1 4822   3.664   4.476   7.096
  304MPD2    H7 4823   3.757   4.478   7.055
  305MPD2     C 4824   3.348   3.629   7.372
  305MPD2    C1 4825   3.235   3.711   7.387
  305MPD2    C2 4826   3.241   3.843   7.341
  305MPD2    C3 4827   3.360   3.895   7.287
  305MPD2    C4 4828   3.478   3.814   7.288
  305MPD2    C5 4829   3.468   3.682   7.328
  305MPD2     H 4830   3.144   3.889   7.325
  305MPD2    H1 4831   3.574   3.856   7.259
  305MPD2    H2 4832   3.362   3.527   7.406
  305MPD2    H3 4833   3.549   3.611   7.318
  305MPD2     N 4834   3.364   4.029   7.237
  305MPD2    H5 4835   3.456   4.052   7.200
  305MPD2    N1 4836   3.116   3.657   7.439
  305MPD2    H7 4837   3.037   3.717   7.458
  306MPD2     C 4838   2.732   4.466   7.038
  306MPD2    C1 4839   2.856   4.514   7.010
  306MPD2    C2 4840   2.861   4.651   6.986
  306MPD2    C3 4841   2.751   4.733   6.994
  306MPD2    C4 4842   2.628   4.682   7.011
  306MPD2    C5 4843   2.621   4.549   7.036
  306MPD2     H 4844   2.961   4.689   6.965
  306MPD2    H1 4845   2.541   4.745   7.023
  306MPD2    H2 4846   2.713   4.362   7.061
  306MPD2    H3 4847   2.529   4.510   7.078
  306MPD2     N 4848   2.774   0.087   6.981
  306MPD2    H5 4849   2.870   0.119   6.976
  306MPD2    N1 4850   2.966   4.429   7.009
  306MPD2    H7 4851   2.961   4.351   7.075
  307MPD2     C 4852   2.567   0.051  10.223
  307MPD2    C1 4853   2.570   0.129  10.111
  307MPD2    C2 4854   2.507   0.248  10.116
  307MPD2    C3 4855   2.447   0.289  10.234
  307MPD2    C4 4856   2.432   0.208  10.344
  307MPD2    C5 4857   2.490   0.084  10.332
  307MPD2     H 4858   2.510   0.303  10.023
  307MPD2    H1 4859   2.382   0.242  10.434
  307MPD2    H2 4860   2.631   4.750  10.233
  307MPD2    H3 4861   2.496   0.016  10.416
  307MPD2     N 4862   2.417   0.425  10.229
  307MPD2    H5 4863   2.411   0.461  10.134
  307MPD2    N1 4864   2.624   0.101   9.989
  307MPD2    H7 4865   2.600   0.165   9.913
  308MPD2     C 4866   1.493   0.143   8.159
  308MPD2    C1 4867   1.494   0.106   8.295
  308MPD2    C2 4868   1.601   0.046   8.351
  308MPD2    C3 4869   1.725   0.049   8.294
  308MPD2    C4 4870   1.726   0.099   8.168
  308MPD2    C5 4871   1.614   0.135   8.100
  308MPD2     H 4872   1.586   0.000   8.448
  308MPD2    H1 4873   1.821   0.104   8.117
  308MPD2    H2 4874   1.412   0.177   8.094
  308MPD2    H3 4875   1.619   0.157   7.994
  308MPD2     N 4876   1.849   0.005   8.348
  308MPD2    H5 4877   1.923   0.008   8.279
  308MPD2    N1 4878   1.369   0.100   8.363
  308MPD2    H7 4879   1.361   0.048   8.450
  309MPD2     C 4880   1.562   0.563   8.648
  309MPD2    C1 4881   1.530   0.445   8.583
  309MPD2    C2 4882   1.437   0.461   8.478
  309MPD2    C3 4883   1.371   0.575   8.443
  309MPD2    C4 4884   1.404   0.688   8.515
  309MPD2    C5 4885   1.497   0.682   8.617
  309MPD2     H 4886   1.411   0.371   8.423
  309MPD2    H1 4887   1.358   0.782   8.486
  309MPD2    H2 4888   1.640   0.552   8.723
  309MPD2    H3 4889   1.519   0.773   8.671
  309MPD2     N 4890   1.271   0.572   8.346
  309MPD2    H5 4891   1.246   0.483   8.306
  309MPD2    N1 4892   1.592   0.323   8.603
  309MPD2    H7 4893   1.570   0.244   8.542
  310MPD2     C 4894   1.615   4.327   8.934
  310MPD2    C1 4895   1.677   4.430   8.986
  310MPD2    C2 4896   1.698   4.426   9.121
  310MPD2    C3 4897   1.655   4.326   9.200
  310MPD2    C4 4898   1.574   4.230   9.139
  310MPD2    C5 4899   1.563   4.231   9.011
  310MPD2     H 4900   1.773   4.493   9.161
  310MPD2    H1 4901   1.534   4.147   9.196
  310MPD2    H2 4902   1.605   4.317   8.826
  310MPD2    H3 4903   1.512   4.155   8.954
  310MPD2     N 4904   1.694   4.325   9.342
  310MPD2    H5 4905   1.766   4.386   9.377
  310MPD2    N1 4906   1.720   4.534   8.897
  310MPD2    H7 4907   1.715   4.520   8.797
  311MPD2     C 4908   0.480   2.766   7.408
  311MPD2    C1 4909   0.551   2.756   7.290
  311MPD2    C2 4910   0.573   2.877   7.223
  311MPD2    C3 4911   0.541   2.997   7.276
  311MPD2    C4 4912   0.487   3.003   7.398
  311MPD2    C5 4913   0.452   2.889   7.456
  311MPD2     H 4914   0.628   2.871   7.129
  311MPD2    H1 4915   0.462   3.100   7.439
  311MPD2    H2 4916   0.450   2.676   7.460
  311MPD2    H3 4917   0.403   2.900   7.553
  311MPD2     N 4918   0.574   3.109   7.199
  311MPD2    H5 4919   0.602   3.093   7.103
  311MPD2    N1 4920   0.596   2.639   7.232
  311MPD2    H7 4921   0.663   2.643   7.155
  312MPD2     C 4922   1.411   2.377   7.299
  312MPD2    C1 4923   1.372   2.391   7.165
  312MPD2    C2 4924   1.241   2.379   7.135
  312MPD2    C3 4925   1.147   2.343   7.227
  312MPD2    C4 4926   1.180   2.342   7.357
  312MPD2    C5 4927   1.315   2.372   7.396
  312MPD2     H 4928   1.207   2.396   7.033
  312MPD2    H1 4929   1.105   2.315   7.430
  312MPD2    H2 4930   1.515   2.373   7.327
  312MPD2    H3 4931   1.338   2.363   7.502
  312MPD2     N 4932   1.003   2.340   7.200
  312MPD2    H5 4933   0.958   2.344   7.291
  312MPD2    N1 4934   1.469   2.399   7.055
  312MPD2    H7 4935   1.429   2.384   6.963
  313MPD2     C 4936   3.558   0.612  15.065
  313MPD2    C1 4937   3.499   0.517  14.987
  313MPD2    C2 4938   3.552   0.391  14.982
  313MPD2    C3 4939   3.666   0.360  15.048
  313MPD2    C4 4940   3.740   0.456  15.115
  313MPD2    C5 4941   3.679   0.579  15.122
  313MPD2     H 4942   3.493   0.316  14.932
  313MPD2    H1 4943   3.832   0.430  15.166
  313MPD2    H2 4944   3.511   0.710  15.078
  313MPD2    H3 4945   3.722   0.656  15.185
  313MPD2     N 4946   3.693   0.218  15.064
  313MPD2    H5 4947   3.611   0.160  15.056
  313MPD2    N1 4948   3.377   0.535  14.920
  313MPD2    H7 4949   3.347   0.474  14.844
  314MPD2     C 4950   2.999   4.592  14.994
  314MPD2    C1 4951   3.110   4.552  14.922
  314MPD2    C2 4952   3.232   4.556  14.979
  314MPD2    C3 4953   3.261   4.621  15.096
  314MPD2    C4 4954   3.154   4.671  15.164
  314MPD2    C5 4955   3.028   4.646  15.115
  314MPD2     H 4956   3.318   4.521  14.923
  314MPD2    H1 4957   3.162   4.705  15.267
  314MPD2    H2 4958   2.896   4.590  14.961
  314MPD2    H3 4959   2.946   4.673  15.181
  314MPD2     N 4960   3.391   4.643  15.146
  314MPD2    H5 4961   3.405   4.706  15.224
  314MPD2    N1 4962   3.095   4.515  14.785
  314MPD2    H7 4963   3.173   4.469  14.738
  315MPD2     C 4964   1.535   1.967  10.009
  315MPD2    C1 4965   1.412   1.914  10.029
  315MPD2    C2 4966   1.304   1.960   9.956
  315MPD2    C3 4967   1.319   2.067   9.864
  315MPD2    C4 4968   1.440   2.132   9.868
  315MPD2    C5 4969   1.545   2.074   9.930
  315MPD2     H 4970   1.210   1.908   9.970
  315MPD2    H1 4971   1.461   2.215   9.801
  315MPD2    H2 4972   1.627   1.925  10.046
  315MPD2    H3 4973   1.643   2.119   9.914
  315MPD2     N 4974   1.209   2.096   9.780
  315MPD2    H5 4975   1.117   2.059   9.800
  315MPD2    N1 4976   1.407   1.797  10.109
  315MPD2    H7 4977   1.491   1.741  10.122
  316MPD2     C 4978   1.196   1.135  10.415
  316MPD2    C1 4979   1.083   1.194  10.357
  316MPD2    C2 4980   0.959   1.136  10.378
  316MPD2    C3 4981   0.943   1.033  10.463
  316MPD2    C4 4982   1.058   0.979  10.515
  316MPD2    C5 4983   1.184   1.015  10.481
  316MPD2     H 4984   0.873   1.177  10.326
  316MPD2    H1 4985   1.055   0.909  10.597
  316MPD2    H2 4986   1.292   1.185  10.410
  316MPD2    H3 4987   1.273   0.976  10.529
  316MPD2     N 4988   0.819   0.975  10.498
  316MPD2    H5 4989   0.733   1.023  10.474
  316MPD2    N1 4990   1.105   1.313  10.285
  316MPD2    H7 4991   1.197   1.355  10.292
  317MPD2     C 4992   1.335   1.935   9.436
  317MPD2    C1 4993   1.439   1.911   9.525
  317MPD2    C2 4994   1.415   1.835   9.636
  317MPD2    C3 4995   1.296   1.764   9.657
  317MPD2    C4 4996   1.191   1.785   9.571
  317MPD2    C5 4997   1.213   1.882   9.470
  317MPD2     H 4998   1.496   1.832   9.709
  317MPD2    H1 4999   1.087   1.764   9.593
  317MPD2    H2 5000   1.336   2.009   9.357
  317MPD2    H3 5001   1.126   1.913   9.414
  317MPD2     N 5002   1.282   1.682   9.773
  317MPD2    H5 5003   1.354   1.706   9.841
  317MPD2    N1 5004   1.562   1.976   9.501
  317MPD2    H7 5005   1.561   2.058   9.442
  318MPD2     C 5006   2.625   2.877   8.477
  318MPD2    C1 5007   2.572   2.985   8.533
  318MPD2    C2 5008   2.530   2.992   8.665
  318MPD2    C3 5009   2.532   2.874   8.732
  318MPD2    C4 5010   2.572   2.758   8.670
  318MPD2    C5 5011   2.620   2.767   8.545
  318MPD2     H 5012   2.495   3.080   8.718
  318MPD2    H1 5013   2.572   2.667   8.728
  318MPD2    H2 5014   2.674   2.877   8.380
  318MPD2    H3 5015   2.669   2.688   8.491
  318MPD2     N 5016   2.485   2.858   8.868
  318MPD2    H5 5017   2.489   2.765   8.909
  318MPD2    N1 5018   2.571   3.098   8.453
  318MPD2    H7 5019   2.615   3.089   8.362
  319MPD2     C 5020   1.697   2.463   9.338
  319MPD2    C1 5021   1.783   2.410   9.241
  319MPD2    C2 5022   1.907   2.474   9.226
  319MPD2    C3 5023   1.954   2.577   9.313
  319MPD2    C4 5024   1.862   2.636   9.402
  319MPD2    C5 5025   1.747   2.561   9.426
  319MPD2     H 5026   1.979   2.431   9.157
  319MPD2    H1 5027   1.865   2.730   9.457
  319MPD2    H2 5028   1.593   2.438   9.351
  319MPD2    H3 5029   1.683   2.602   9.505
  319MPD2     N 5030   2.075   2.648   9.297
  319MPD2    H5 5031   2.089   2.722   9.365
  319MPD2    N1 5032   1.740   2.302   9.160
  319MPD2    H7 5033   1.674   2.255   9.221
  320MPD2     C 5034   2.193   3.208   9.599
  320MPD2    C1 5035   2.260   3.235   9.478
  320MPD2    C2 5036   2.252   3.371   9.434
  320MPD2    C3 5037   2.208   3.472   9.516
  320MPD2    C4 5038   2.143   3.443   9.634
  320MPD2    C5 5039   2.145   3.309   9.682
  320MPD2     H 5040   2.285   3.398   9.335
  320MPD2    H1 5041   2.102   3.514   9.704
  320MPD2    H2 5042   2.179   3.115   9.653
  320MPD2    H3 5043   2.106   3.291   9.782
  320MPD2     N 5044   2.215   3.618   9.482
  320MPD2    H5 5045   2.163   3.675   9.548
  320MPD2    N1 5046   2.322   3.142   9.394
  320MPD2    H7 5047   2.340   3.177   9.300
  321MPD2     C 5048   0.502   1.106  14.009
  321MPD2    C1 5049   0.601   1.201  14.016
  321MPD2    C2 5050   0.654   1.250  13.898
  321MPD2    C3 5051   0.621   1.200  13.774
  321MPD2    C4 5052   0.523   1.104  13.771
  321MPD2    C5 5053   0.470   1.055  13.886
  321MPD2     H 5054   0.741   1.315  13.898
  321MPD2    H1 5055   0.477   1.071  13.678
  321MPD2    H2 5056   0.453   1.059  14.093
  321MPD2    H3 5057   0.384   0.991  13.864
  321MPD2     N 5058   0.680   1.262  13.654
  321MPD2    H5 5059   0.630   1.249  13.566
  321MPD2    N1 5060   0.607   1.271  14.137
  321MPD2    H7 5061   0.541   1.250  14.211
  322MPD2     C 5062   0.666   2.097  14.327
  322MPD2    C1 5063   0.683   1.963  14.297
  322MPD2    C2 5064   0.621   1.897  14.187
  322MPD2    C3 5065   0.534   1.963  14.105
  322MPD2    C4 5066   0.518   2.099  14.137
  322MPD2    C5 5067   0.580   2.162  14.244
  322MPD2     H 5068   0.639   1.794  14.160
  322MPD2    H1 5069   0.451   2.152  14.070
  322MPD2    H2 5070   0.711   2.150  14.410
  322MPD2    H3 5071   0.565   2.267  14.268
  322MPD2     N 5072   0.450   1.904  14.006
  322MPD2    H5 5073   0.384   1.963  13.956
  322MPD2    N1 5074   0.774   1.895  14.384
  322MPD2    H7 5075   0.833   1.962  14.432
  323MPD2     C 5076   1.874   0.500   8.979
  323MPD2    C1 5077   1.897   0.553   8.856
  323MPD2    C2 5078   1.875   0.682   8.833
  323MPD2    C3 5079   1.832   0.769   8.930
  323MPD2    C4 5080   1.801   0.714   9.053
  323MPD2    C5 5081   1.821   0.584   9.079
  323MPD2     H 5082   1.896   0.725   8.735
  323MPD2    H1 5083   1.765   0.771   9.137
  323MPD2    H2 5084   1.905   0.400   9.006
  323MPD2    H3 5085   1.802   0.547   9.179
  323MPD2     N 5086   1.818   0.905   8.894
  323MPD2    H5 5087   1.857   0.930   8.804
  323MPD2    N1 5088   1.949   0.454   8.761
  323MPD2    H7 5089   1.970   0.359   8.789
  324MPD2     C 5090   1.414   1.675   9.098
  324MPD2    C1 5091   1.376   1.575   9.002
  324MPD2    C2 5092   1.247   1.562   8.959
  324MPD2    C3 5093   1.149   1.641   9.018
  324MPD2    C4 5094   1.184   1.744   9.095
  324MPD2    C5 5095   1.315   1.765   9.133
  324MPD2     H 5096   1.223   1.482   8.890
  324MPD2    H1 5097   1.104   1.813   9.118
  324MPD2    H2 5098   1.515   1.682   9.135
  324MPD2    H3 5099   1.345   1.851   9.193
  324MPD2     N 5100   1.010   1.636   8.980
  324MPD2    H5 5101   0.951   1.716   9.000
  324MPD2    N1 5102   1.470   1.486   8.945
  324MPD2    H7 5103   1.444   1.432   8.864
  325MPD2     C 5104   2.369   4.592  12.639
  325MPD2    C1 5105   2.360   4.723  12.589
  325MPD2    C2 5106   2.280   0.020  12.662
  325MPD2    C3 5107   2.199   4.773  12.767
  325MPD2    C4 5108   2.206   4.639  12.805
  325MPD2    C5 5109   2.291   4.549  12.739
  325MPD2     H 5110   2.261   0.120  12.624
  325MPD2    H1 5111   2.137   4.608  12.883
  325MPD2    H2 5112   2.448   4.525  12.608
  325MPD2    H3 5113   2.283   4.450  12.780
  325MPD2     N 5114   2.117   0.083  12.837
  325MPD2    H5 5115   2.063   0.043  12.913
  325MPD2    N1 5116   2.433   4.768  12.477
  325MPD2    H7 5117   2.411   0.077  12.450
  326MPD2     C 5118   3.242   4.692  12.202
  326MPD2    C1 5119   3.157   4.691  12.309
  326MPD2    C2 5120   3.213   4.684  12.438
  326MPD2    C3 5121   3.353   4.657  12.453
  326MPD2    C4 5122   3.429   4.647  12.340
  326MPD2    C5 5123   3.376   4.659  12.215
  326MPD2     H 5124   3.146   4.699  12.523
  326MPD2    H1 5125   3.536   4.639  12.347
  326MPD2    H2 5126   3.197   4.703  12.104
  326MPD2    H3 5127   3.432   4.657  12.123
  326MPD2     N 5128   3.421   4.628  12.570
  326MPD2    H5 5129   3.519   4.603  12.571
  326MPD2    N1 5130   3.014   4.712  12.288
  326MPD2    H7 5131   2.963   4.711  12.376
  327MPD2     C 5132   2.818   0.608  12.002
  327MPD2    C1 5133   2.714   0.558  12.078
  327MPD2    C2 5134   2.607   0.639  12.113
  327MPD2    C3 5135   2.599   0.775  12.082
  327MPD2    C4 5136   2.711   0.828  12.022
  327MPD2    C5 5137   2.820   0.750  11.989
  327MPD2     H 5138   2.516   0.592  12.146
  327MPD2    H1 5139   2.721   0.930  11.984
  327MPD2    H2 5140   2.907   0.553  11.972
  327MPD2    H3 5141   2.897   0.794  11.927
  327MPD2     N 5142   2.476   0.846  12.096
  327MPD2    H5 5143   2.398   0.788  12.127
  327MPD2    N1 5144   2.724   0.417  12.099
  327MPD2    H7 5145   2.804   0.371  12.057
  328MPD2     C 5146   2.306   2.463   6.920
  328MPD2    C1 5147   2.205   2.437   7.012
  328MPD2    C2 5148   2.114   2.538   7.033
  328MPD2    C3 5149   2.121   2.653   6.961
  328MPD2    C4 5150   2.224   2.677   6.868
  328MPD2    C5 5151   2.319   2.577   6.849
  328MPD2     H 5152   2.034   2.525   7.105
  328MPD2    H1 5153   2.244   2.765   6.809
  328MPD2    H2 5154   2.386   2.395   6.894
  328MPD2    H3 5155   2.397   2.594   6.776
  328MPD2     N 5156   2.023   2.750   6.981
  328MPD2    H5 5157   1.958   2.731   7.056
  328MPD2    N1 5158   2.217   2.321   7.090
  328MPD2    H7 5159   2.294   2.260   7.067
  329MPD2     C 5160   2.556   1.513   6.947
  329MPD2    C1 5161   2.431   1.507   7.008
  329MPD2    C2 5162   2.401   1.603   7.104
  329MPD2    C3 5163   2.478   1.714   7.120
  329MPD2    C4 5164   2.592   1.722   7.047
  329MPD2    C5 5165   2.636   1.618   6.967
  329MPD2     H 5166   2.306   1.603   7.156
  329MPD2    H1 5167   2.662   1.802   7.068
  329MPD2    H2 5168   2.593   1.431   6.887
  329MPD2    H3 5169   2.739   1.625   6.934
  329MPD2     N 5170   2.426   1.817   7.206
  329MPD2    H5 5171   2.336   1.801   7.250
  329MPD2    N1 5172   2.332   1.408   6.980
  329MPD2    H7 5173   2.244   1.414   7.031
  330MPD2     C 5174   1.098   2.722   7.987
  330MPD2    C1 5175   0.970   2.703   8.033
  330MPD2    C2 5176   0.929   2.784   8.135
  330MPD2    C3 5177   1.004   2.885   8.198
  330MPD2    C4 5178   1.125   2.908   8.142
  330MPD2    C5 5179   1.170   2.826   8.040
  330MPD2     H 5180   0.829   2.774   8.176
  330MPD2    H1 5181   1.197   2.972   8.191
  330MPD2    H2 5182   1.135   2.664   7.903
  330MPD2    H3 5183   1.273   2.834   8.009
  330MPD2     N 5184   0.968   2.996   8.281
  330MPD2    H5 5185   1.021   3.079   8.257
  330MPD2    N1 5186   0.875   2.616   7.977
  330MPD2    H7 5187   0.792   2.594   8.031
  331MPD2     C 5188   0.706   2.077   7.301
  331MPD2    C1 5189   0.600   2.099   7.387
  331MPD2    C2 5190   0.492   2.022   7.390
  331MPD2    C3 5191   0.481   1.925   7.302
  331MPD2    C4 5192   0.571   1.911   7.197
  331MPD2    C5 5193   0.685   1.987   7.202
  331MPD2     H 5194   0.412   2.054   7.456
  331MPD2    H1 5195   0.558   1.826   7.131
  331MPD2    H2 5196   0.806   2.117   7.301
  331MPD2    H3 5197   0.767   1.961   7.136
  331MPD2     N 5198   0.374   1.826   7.297
  331MPD2    H5 5199   0.373   1.762   7.218
  331MPD2    N1 5200   0.601   2.191   7.494
  331MPD2    H7 5201   0.520   2.198   7.555
  332MPD2     C 5202   3.520   3.398  11.872
  332MPD2    C1 5203   3.483   3.267  11.871
  332MPD2    C2 5204   3.583   3.171  11.900
  332MPD2    C3 5205   3.714   3.209  11.938
  332MPD2    C4 5206   3.741   3.339  11.950
  332MPD2    C5 5207   3.643   3.434  11.920
  332MPD2     H 5208   3.565   3.067  11.875
  332MPD2    H1 5209   3.831   3.386  11.987
  332MPD2    H2 5210   3.451   3.474  11.838
  332MPD2    H3 5211   3.662   3.539  11.938
  332MPD2     N 5212   3.812   3.114  11.962
  332MPD2    H5 5213   3.789   3.016  11.952
  332MPD2    N1 5214   3.351   3.233  11.842
  332MPD2    H7 5215   3.292   3.307  11.805
  333MPD2     C 5216   3.078   2.528  11.730
  333MPD2    C1 5217   3.161   2.635  11.768
  333MPD2    C2 5218   3.296   2.623  11.753
  333MPD2    C3 5219   3.355   2.507  11.709
  333MPD2    C4 5220   3.270   2.403  11.680
  333MPD2    C5 5221   3.139   2.410  11.694
  333MPD2     H 5222   3.364   2.706  11.772
  333MPD2    H1 5223   3.308   2.303  11.662
  333MPD2    H2 5224   2.971   2.545  11.739
  333MPD2    H3 5225   3.080   2.322  11.669
  333MPD2     N 5226   3.493   2.501  11.708
  333MPD2    H5 5227   3.540   2.583  11.743
  333MPD2    N1 5228   3.117   2.767  11.790
  333MPD2    H7 5229   3.192   2.834  11.810
  334MPD2     C 5230   2.732   3.483  11.178
  334MPD2    C1 5231   2.834   3.518  11.263
  334MPD2    C2 5232   2.874   3.425  11.364
  334MPD2    C3 5233   2.796   3.302  11.386
  334MPD2    C4 5234   2.705   3.267  11.286
  334MPD2    C5 5235   2.676   3.355  11.182
  334MPD2     H 5236   2.974   3.431  11.406
  334MPD2    H1 5237   2.662   3.168  11.276
  334MPD2    H2 5238   2.709   3.551  11.097
  334MPD2    H3 5239   2.619   3.322  11.096
  334MPD2     N 5240   2.854   3.210  11.473
  334MPD2    H5 5241   2.835   3.111  11.460
  334MPD2    N1 5242   2.885   3.653  11.264
  334MPD2    H7 5243   2.905   3.685  11.169
  335MPD2     C 5244   0.106   0.629   9.736
  335MPD2    C1 5245   0.061   0.500   9.704
  335MPD2    C2 5246   0.004   0.417   9.797
  335MPD2    C3 5247   4.778   0.468   9.928
  335MPD2    C4 5248   0.049   0.592   9.965
  335MPD2    C5 5249   0.103   0.672   9.868
  335MPD2     H 5250   4.761   0.321   9.758
  335MPD2    H1 5251   0.030   0.613  10.069
  335MPD2    H2 5252   0.152   0.696   9.664
  335MPD2    H3 5253   0.148   0.769   9.889
  335MPD2     N 5254   4.734   0.383  10.026
  335MPD2    H5 5255   4.771   0.391  10.120
  335MPD2    N1 5256   0.094   0.460   9.575
  335MPD2    H7 5257   0.170   0.517   9.540
  336MPD2     C 5258   0.369   4.614   9.543
  336MPD2    C1 5259   0.319   4.741   9.581
  336MPD2    C2 5260   0.390   0.061   9.536
  336MPD2    C3 5261   0.502   0.052   9.455
  336MPD2    C4 5262   0.540   4.713   9.413
  336MPD2    C5 5263   0.474   4.604   9.452
  336MPD2     H 5264   0.362   0.161   9.568
  336MPD2    H1 5265   0.626   4.706   9.347
  336MPD2    H2 5266   0.327   4.524   9.587
  336MPD2    H3 5267   0.505   4.511   9.406
  336MPD2     N 5268   0.582   0.162   9.412
  336MPD2    H5 5269   0.671   0.132   9.374
  336MPD2    N1 5270   0.210   4.742   9.678
  336MPD2    H7 5271   0.171   4.654   9.710
  337MPD2     C 5272   4.197   4.414   9.588
  337MPD2    C1 5273   4.201   4.432   9.725
  337MPD2    C2 5274   4.302   4.508   9.780
  337MPD2    C3 5275   4.396   4.574   9.701
  337MPD2    C4 5276   4.388   4.559   9.567
  337MPD2    C5 5277   4.290   4.478   9.510
  337MPD2     H 5278   4.316   4.521   9.887
  337MPD2    H1 5279   4.455   4.613   9.502
  337MPD2    H2 5280   4.119   4.366   9.529
  337MPD2    H3 5281   4.289   4.474   9.402
  337MPD2     N 5282   4.518   4.630   9.743
  337MPD2    H5 5283   4.576   4.674   9.672
  337MPD2    N1 5284   4.098   4.388   9.812
  337MPD2    H7 5285   4.109   4.431   9.903
  338MPD2     C 5286   4.221   4.777  11.917
  338MPD2    C1 5287   4.228   4.745  12.048
  338MPD2    C2 5288   4.133   0.015  12.132
  338MPD2    C3 5289   4.047   0.115  12.093
  338MPD2    C4 5290   4.035   0.142  11.962
  338MPD2    C5 5291   4.122   0.072  11.877
  338MPD2     H 5292   4.145   4.772  12.236
  338MPD2    H1 5293   3.971   0.214  11.912
  338MPD2    H2 5294   4.286   4.747  11.836
  338MPD2    H3 5295   4.116   0.092  11.770
  338MPD2     N 5296   3.985   0.192  12.192
  338MPD2    H5 5297   4.007   0.166  12.287
  338MPD2    N1 5298   4.331   4.669  12.107
  338MPD2    H7 5299   4.324   4.649  12.206
  339MPD2     C 5300   3.993   0.314  13.003
  339MPD2    C1 5301   3.984   0.230  12.891
  339MPD2    C2 5302   4.034   0.102  12.899
  339MPD2    C3 5303   4.074   0.047  13.017
  339MPD2    C4 5304   4.066   0.124  13.136
  339MPD2    C5 5305   4.028   0.255  13.123
  339MPD2     H 5306   4.027   0.035  12.815
  339MPD2    H1 5307   4.097   0.090  13.234
  339MPD2    H2 5308   3.974   0.421  12.997
  339MPD2    H3 5309   4.024   0.319  13.211
  339MPD2     N 5310   4.115   4.697  13.032
  339MPD2    H5 5311   4.124   4.669  13.129
  339MPD2    N1 5312   3.942   0.287  12.765
  339MPD2    H7 5313   3.929   0.387  12.765
  340MPD2     C 5314   4.601   0.798  12.250
  340MPD2    C1 5315   4.500   0.805  12.160
  340MPD2    C2 5316   4.382   0.738  12.180
  340MPD2    C3 5317   4.362   0.678  12.303
  340MPD2    C4 5318   4.467   0.679  12.397
  340MPD2    C5 5319   4.584   0.733  12.368
  340MPD2     H 5320   4.296   0.747  12.115
  340MPD2    H1 5321   4.444   0.646  12.497
  340MPD2    H2 5322   4.689   0.861  12.241
  340MPD2    H3 5323   4.659   0.740  12.446
  340MPD2     N 5324   4.235   0.631  12.321
  340MPD2    H5 5325   4.184   0.649  12.235
  340MPD2    N1 5326   4.506   0.890  12.050
  340MPD2    H7 5327   4.422   0.900  11.993
  341MPD2     C 5328   0.174   4.133  12.037
  341MPD2    C1 5329   0.035   4.140  12.037
  341MPD2    C2 5330   4.747   4.027  12.016
  341MPD2    C3 5331   0.022   3.912  11.984
  341MPD2    C4 5332   0.155   3.907  12.002
  341MPD2    C5 5333   0.234   4.013  12.028
  341MPD2     H 5334   4.640   4.043  12.021
  341MPD2    H1 5335   0.211   3.816  11.988
  341MPD2    H2 5336   0.234   4.222  12.047
  341MPD2    H3 5337   0.340   3.992  12.021
  341MPD2     N 5338   4.734   3.794  11.966
  341MPD2    H5 5339   4.639   3.809  11.999
  341MPD2    N1 5340   4.762   4.264  12.066
  341MPD2    H7 5341   4.666   4.277  12.034
  342MPD2     C 5342   0.627   4.040  11.752
  342MPD2    C1 5343   0.502   4.044  11.691
  342MPD2    C2 5344   0.457   4.171  11.642
  342MPD2    C3 5345   0.524   4.288  11.675
  342MPD2    C4 5346   0.643   4.282  11.744
  342MPD2    C5 5347   0.690   4.159  11.777
  342MPD2     H 5348   0.366   4.173  11.583
  342MPD2    H1 5349   0.708   4.367  11.765
  342MPD2    H2 5350   0.665   3.950  11.799
  342MPD2    H3 5351   0.783   4.155  11.831
  342MPD2     N 5352   0.479   4.415  11.637
  342MPD2    H5 5353   0.538   4.490  11.673
  342MPD2    N1 5354   0.432   3.919  11.686
  342MPD2    H7 5355   0.487   3.840  11.718
  343MPD2     C 5356   0.142   4.461  11.004
  343MPD2    C1 5357   0.122   4.373  10.905
  343MPD2    C2 5358   0.003   4.356  10.846
  343MPD2    C3 5359   4.693   4.452  10.873
  343MPD2    C4 5360   4.710   4.539  10.979
  343MPD2    C5 5361   0.039   4.538  11.049
  343MPD2     H 5362   4.782   4.282  10.766
  343MPD2    H1 5363   4.641   4.613  11.018
  343MPD2    H2 5364   0.242   4.477  11.041
  343MPD2    H3 5365   0.045   4.616  11.124
  343MPD2     N 5366   4.570   4.451  10.800
  343MPD2    H5 5367   4.489   4.493  10.844
  343MPD2    N1 5368   0.240   4.315  10.853
  343MPD2    H7 5369   0.329   4.359  10.874
  344MPD2     C 5370   0.411   0.113  10.129
  344MPD2    C1 5371   0.391   4.781  10.062
  344MPD2    C2 5372   0.310   4.679  10.127
  344MPD2    C3 5373   0.230   4.715  10.238
  344MPD2    C4 5374   0.238   0.051  10.286
  344MPD2    C5 5375   0.322   0.141  10.229
  344MPD2     H 5376   0.308   4.581  10.082
  344MPD2    H1 5377   0.198   0.092  10.378
  344MPD2    H2 5378   0.482   0.192  10.105
  344MPD2    H3 5379   0.325   0.239  10.275
  344MPD2     N 5380   0.155   4.608  10.289
  344MPD2    H5 5381   0.148   4.524  10.233
  344MPD2    N1 5382   0.472   4.741   9.954
  344MPD2    H7 5383   0.476   4.643   9.927
  345MPD2     C 5384   0.247   3.649  10.553
  345MPD2    C1 5385   0.313   3.755  10.491
  345MPD2    C2 5386   0.255   3.879  10.482
  345MPD2    C3 5387   0.122   3.897  10.507
  345MPD2    C4 5388   0.054   3.785  10.547
  345MPD2    C5 5389   0.113   3.669  10.582
  345MPD2     H 5390   0.323   3.955  10.445
  345MPD2    H1 5391   4.734   3.788  10.567
  345MPD2    H2 5392   0.296   3.556  10.577
  345MPD2    H3 5393   0.056   3.591  10.632
  345MPD2     N 5394   0.055   4.020  10.497
  345MPD2    H5 5395   4.743   4.015  10.520
  345MPD2    N1 5396   0.454   3.726  10.464
  345MPD2    H7 5397   0.487   3.631  10.482
  346MPD2     C 5398   1.700   0.611   6.725
  346MPD2    C1 5399   1.603   0.673   6.796
  346MPD2    C2 5400   1.487   0.614   6.826
  346MPD2    C3 5401   1.448   0.494   6.775
  346MPD2    C4 5402   1.548   0.422   6.709
  346MPD2    C5 5403   1.669   0.484   6.677
  346MPD2     H 5404   1.411   0.667   6.882
  346MPD2    H1 5405   1.528   0.328   6.659
  346MPD2    H2 5406   1.795   0.660   6.711
  346MPD2    H3 5407   1.750   0.435   6.624
  346MPD2     N 5408   1.321   0.437   6.812
  346MPD2    H5 5409   1.257   0.499   6.861
  346MPD2    N1 5410   1.648   0.799   6.858
  346MPD2    H7 5411   1.746   0.819   6.842
  347MPD2     C 5412   1.333   0.164  12.309
  347MPD2    C1 5413   1.331   0.283  12.379
  347MPD2    C2 5414   1.438   0.365  12.370
  347MPD2    C3 5415   1.542   0.330  12.291
  347MPD2    C4 5416   1.541   0.214  12.217
  347MPD2    C5 5417   1.439   0.127  12.235
  347MPD2     H 5418   1.445   0.462  12.417
  347MPD2    H1 5419   1.627   0.183  12.158
  347MPD2    H2 5420   1.247   0.098  12.306
  347MPD2    H3 5421   1.433   0.039  12.171
  347MPD2     N 5422   1.645   0.426  12.282
  347MPD2    H5 5423   1.629   0.512  12.334
  347MPD2    N1 5424   1.220   0.309  12.466
  347MPD2    H7 5425   1.146   0.239  12.466
  348MPD2     C 5426   0.526   0.754  13.116
  348MPD2    C1 5427   0.567   0.805  12.997
  348MPD2    C2 5428   0.692   0.760  12.953
  348MPD2    C3 5429   0.763   0.667  13.022
  348MPD2    C4 5430   0.714   0.616  13.134
  348MPD2    C5 5431   0.598   0.666  13.189
  348MPD2     H 5432   0.733   0.810  12.866
  348MPD2    H1 5433   0.762   0.540  13.195
  348MPD2    H2 5434   0.432   0.778  13.164
  348MPD2    H3 5435   0.553   0.630  13.281
  348MPD2     N 5436   0.877   0.602  12.972
  348MPD2    H5 5437   0.906   0.516  13.017
  348MPD2    N1 5438   0.489   0.891  12.912
  348MPD2    H7 5439   0.520   0.904  12.816
  349MPD2     C 5440   0.867   0.936  12.092
  349MPD2    C1 5441   0.864   0.958  12.229
  349MPD2    C2 5442   0.870   0.842  12.305
  349MPD2    C3 5443   0.883   0.713  12.255
  349MPD2    C4 5444   0.894   0.698  12.118
  349MPD2    C5 5445   0.896   0.810  12.043
  349MPD2     H 5446   0.873   0.860  12.412
  349MPD2    H1 5447   0.910   0.606  12.063
  349MPD2    H2 5448   0.862   1.023  12.028
  349MPD2    H3 5449   0.919   0.806  11.937
  349MPD2     N 5450   0.885   0.598  12.340
  349MPD2    H5 5451   0.927   0.513  12.304
  349MPD2    N1 5452   0.843   1.086  12.293
  349MPD2    H7 5453   0.827   1.089  12.393
  350MPD2     C 5454   3.868   0.094   9.573
  350MPD2    C1 5455   3.966   0.031   9.501
  350MPD2    C2 5456   4.077   0.095   9.456
  350MPD2    C3 5457   4.096   0.234   9.474
  350MPD2    C4 5458   3.996   0.299   9.545
  350MPD2    C5 5459   3.890   0.227   9.605
  350MPD2     H 5460   4.154   0.040   9.402
  350MPD2    H1 5461   4.002   0.407   9.554
  350MPD2    H2 5462   3.779   0.049   9.616
  350MPD2    H3 5463   3.810   0.278   9.658
  350MPD2     N 5464   4.201   0.307   9.415
  350MPD2    H5 5465   4.187   0.408   9.412
  350MPD2    N1 5466   3.934   4.687   9.471
  350MPD2    H7 5467   3.858   4.644   9.521
  351MPD2     C 5468   0.036   0.549   9.080
  351MPD2    C1 5469   0.028   0.450   8.980
  351MPD2    C2 5470   0.078   0.480   8.849
  351MPD2    C3 5471   0.146   0.597   8.823
  351MPD2    C4 5472   0.144   0.693   8.928
  351MPD2    C5 5473   0.086   0.672   9.046
  351MPD2     H 5474   0.063   0.410   8.767
  351MPD2    H1 5475   0.190   0.789   8.908
  351MPD2    H2 5476   0.011   0.543   9.185
  351MPD2    H3 5477   0.102   0.745   9.125
  351MPD2     N 5478   0.210   0.638   8.701
  351MPD2    H5 5479   0.219   0.739   8.693
  351MPD2    N1 5480   4.761   0.320   8.997
  351MPD2    H7 5481   4.787   0.252   8.926
  352MPD2     C 5482   4.161   0.686   8.532
  352MPD2    C1 5483   4.138   0.741   8.660
  352MPD2    C2 5484   4.179   0.671   8.774
  352MPD2    C3 5485   4.272   0.572   8.754
  352MPD2    C4 5486   4.304   0.528   8.625
  352MPD2    C5 5487   4.246   0.576   8.511
  352MPD2     H 5488   4.143   0.709   8.869
  352MPD2    H1 5489   4.375   0.447   8.611
  352MPD2    H2 5490   4.119   0.731   8.442
  352MPD2    H3 5491   4.268   0.533   8.414
  352MPD2     N 5492   4.340   0.513   8.861
  352MPD2    H5 5493   4.400   0.434   8.840
  352MPD2    N1 5494   4.047   0.850   8.661
  352MPD2    H7 5495   4.010   0.887   8.574
  353MPD2     C 5496   4.605   2.978  11.854
  353MPD2    C1 5497   4.467   2.982  11.840
  353MPD2    C2 5498   4.393   3.103  11.854
  353MPD2    C3 5499   4.456   3.215  11.899
  353MPD2    C4 5500   4.592   3.213  11.915
  353MPD2    C5 5501   4.665   3.103  11.884
  353MPD2     H 5502   4.287   3.110  11.832
  353MPD2    H1 5503   4.644   3.299  11.956
  353MPD2    H2 5504   4.671   2.895  11.834
  353MPD2    H3 5505   4.772   3.094  11.899
  353MPD2     N 5506   4.390   3.342  11.903
  353MPD2    H5 5507   4.450   3.415  11.939
  353MPD2    N1 5508   4.395   2.859  11.804
  353MPD2    H7 5509   4.443   2.797  11.740
  354MPD2     C 5510   3.792   4.519  12.989
  354MPD2    C1 5511   3.784   4.590  12.874
  354MPD2    C2 5512   3.747   4.724  12.886
  354MPD2    C3 5513   3.703   4.781  13.007
  354MPD2    C4 5514   3.724   4.701  13.121
  354MPD2    C5 5515   3.761   4.573  13.116
  354MPD2     H 5516   3.742   4.782  12.795
  354MPD2    H1 5517   3.729   4.740  13.222
  354MPD2    H2 5518   3.816   4.413  12.981
  354MPD2    H3 5519   3.790   4.511  13.200
  354MPD2     N 5520   3.651   0.122  13.007
  354MPD2    H5 5521   3.646   0.166  12.916
  354MPD2    N1 5522   3.824   4.545  12.744
  354MPD2    H7 5523   3.822   4.614  12.670
  355MPD2     C 5524   4.398   0.319  12.569
  355MPD2    C1 5525   4.381   0.259  12.451
  355MPD2    C2 5526   4.313   0.140  12.441
  355MPD2    C3 5527   4.258   0.083  12.555
  355MPD2    C4 5528   4.274   0.146  12.671
  355MPD2    C5 5529   4.340   0.262  12.680
  355MPD2     H 5530   4.305   0.097  12.342
  355MPD2    H1 5531   4.242   0.104  12.766
  355MPD2    H2 5532   4.445   0.416  12.581
  355MPD2    H3 5533   4.353   0.301  12.781
  355MPD2     N 5534   4.197   4.740  12.562
  355MPD2    H5 5535   4.170   4.709  12.655
  355MPD2    N1 5536   4.454   0.308  12.339
  355MPD2    H7 5537   4.529   0.375  12.348
  356MPD2     C 5538   2.967   1.055  13.176
  356MPD2    C1 5539   2.925   1.182  13.174
  356MPD2    C2 5540   2.839   1.228  13.075
  356MPD2    C3 5541   2.794   1.135  12.977
  356MPD2    C4 5542   2.843   1.012  12.979
  356MPD2    C5 5543   2.936   0.977  13.070
  356MPD2     H 5544   2.801   1.328  13.087
  356MPD2    H1 5545   2.806   0.937  12.910
  356MPD2    H2 5546   3.041   1.026  13.250
  356MPD2    H3 5547   2.982   0.879  13.077
  356MPD2     N 5548   2.708   1.168  12.867
  356MPD2    H5 5549   2.686   1.099  12.797
  356MPD2    N1 5550   2.973   1.254  13.284
  356MPD2    H7 5551   3.030   1.206  13.353
  357MPD2     C 5552   3.439   2.116  13.666
  357MPD2    C1 5553   3.336   2.110  13.576
  357MPD2    C2 5554   3.261   1.992  13.578
  357MPD2    C3 5555   3.285   1.886  13.671
  357MPD2    C4 5556   3.393   1.893  13.753
  357MPD2    C5 5557   3.467   2.009  13.749
  357MPD2     H 5558   3.185   1.982  13.501
  357MPD2    H1 5559   3.422   1.805  13.809
  357MPD2    H2 5560   3.490   2.210  13.683
  357MPD2    H3 5561   3.550   2.017  13.819
  357MPD2     N 5562   3.222   1.757  13.663
  357MPD2    H5 5563   3.273   1.674  13.691
  357MPD2    N1 5564   3.295   2.204  13.472
  357MPD2    H7 5565   3.218   2.172  13.416
  358MPD2     C 5566   1.078   2.902   8.965
  358MPD2    C1 5567   0.981   2.970   9.030
  358MPD2    C2 5568   1.005   3.005   9.163
  358MPD2    C3 5569   1.115   2.968   9.234
  358MPD2    C4 5570   1.216   2.901   9.171
  358MPD2    C5 5571   1.199   2.879   9.036
  358MPD2     H 5572   0.924   3.052   9.218
  358MPD2    H1 5573   1.306   2.864   9.220
  358MPD2    H2 5574   1.068   2.859   8.865
  358MPD2    H3 5575   1.284   2.834   8.987
  358MPD2     N 5576   1.132   2.991   9.376
  358MPD2    H5 5577   1.228   3.002   9.406
  358MPD2    N1 5578   0.851   2.975   8.971
  358MPD2    H7 5579   0.829   2.925   8.885
  359MPD2     C 5580   0.221   3.007   9.481
  359MPD2    C1 5581   0.342   3.057   9.449
  359MPD2    C2 5582   0.345   3.154   9.355
  359MPD2    C3 5583   0.236   3.197   9.283
  359MPD2    C4 5584   0.117   3.152   9.321
  359MPD2    C5 5585   0.113   3.064   9.421
  359MPD2     H 5586   0.439   3.193   9.318
  359MPD2    H1 5587   0.024   3.175   9.272
  359MPD2    H2 5588   0.211   2.931   9.558
  359MPD2    H3 5589   0.019   3.021   9.454
  359MPD2     N 5590   0.248   3.267   9.167
  359MPD2    H5 5591   0.158   3.301   9.134
  359MPD2    N1 5592   0.458   2.999   9.497
  359MPD2    H7 5593   0.444   2.918   9.556
  360MPD2     C 5594   0.596   2.503   8.884
  360MPD2    C1 5595   0.703   2.590   8.863
  360MPD2    C2 5596   0.771   2.637   8.973
  360MPD2    C3 5597   0.725   2.601   9.103
  360MPD2    C4 5598   0.619   2.520   9.116
  360MPD2    C5 5599   0.551   2.472   9.009
  360MPD2     H 5600   0.854   2.700   8.945
  360MPD2    H1 5601   0.574   2.491   9.211
  360MPD2    H2 5602   0.537   2.474   8.798
  360MPD2    H3 5603   0.467   2.405   9.025
  360MPD2     N 5604   0.780   2.670   9.209
  360MPD2    H5 5605   0.833   2.752   9.181
  360MPD2    N1 5606   0.738   2.617   8.730
  360MPD2    H7 5607   0.684   2.574   8.655
  361MPD2     C 5608   0.217   1.117   8.135
  361MPD2    C1 5609   0.187   1.019   8.221
  361MPD2    C2 5610   0.286   0.951   8.283
  361MPD2    C3 5611   0.420   0.966   8.245
  361MPD2    C4 5612   0.450   1.069   8.154
  361MPD2    C5 5613   0.346   1.152   8.107
  361MPD2     H 5614   0.274   0.867   8.351
  361MPD2    H1 5615   0.555   1.081   8.132
  361MPD2    H2 5616   0.144   1.182   8.088
  361MPD2    H3 5617   0.363   1.229   8.033
  361MPD2     N 5618   0.531   0.911   8.318
  361MPD2    H5 5619   0.623   0.917   8.277
  361MPD2    N1 5620   0.055   0.992   8.260
  361MPD2    H7 5621   0.036   0.917   8.325
  362MPD2     C 5622   0.682   0.253   8.308
  362MPD2    C1 5623   0.751   0.262   8.424
  362MPD2    C2 5624   0.766   0.159   8.508
  362MPD2    C3 5625   0.707   0.034   8.477
  362MPD2    C4 5626   0.631   0.024   8.363
  362MPD2    C5 5627   0.618   0.137   8.284
  362MPD2     H 5628   0.811   0.181   8.604
  362MPD2    H1 5629   0.583   4.718   8.333
  362MPD2    H2 5630   0.669   0.340   8.246
  362MPD2    H3 5631   0.549   0.143   8.200
  362MPD2     N 5632   0.719   4.707   8.559
  362MPD2    H5 5633   0.674   4.623   8.524
  362MPD2    N1 5634   0.795   0.391   8.476
  362MPD2    H7 5635   0.814   0.386   8.576
  363MPD2     C 5636   0.667   0.874   9.136
  363MPD2    C1 5637   0.636   0.786   9.040
  363MPD2    C2 5638   0.524   0.702   9.067
  363MPD2    C3 5639   0.478   0.682   9.195
  363MPD2    C4 5640   0.526   0.765   9.295
  363MPD2    C5 5641   0.616   0.864   9.263
  363MPD2     H 5642   0.482   0.638   8.990
  363MPD2    H1 5643   0.495   0.765   9.398
  363MPD2    H2 5644   0.746   0.948   9.125
  363MPD2    H3 5645   0.649   0.932   9.340
  363MPD2     N 5646   0.378   0.587   9.224
  363MPD2    H5 5647   0.348   0.596   9.320
  363MPD2    N1 5648   0.691   0.797   8.910
  363MPD2    H7 5649   0.745   0.879   8.886
  364MPD2     C 5650   2.495   1.093   7.240
  364MPD2    C1 5651   2.600   1.032   7.312
  364MPD2    C2 5652   2.643   0.900   7.278
  364MPD2    C3 5653   2.600   0.847   7.157
  364MPD2    C4 5654   2.499   0.913   7.081
  364MPD2    C5 5655   2.450   1.029   7.128
  364MPD2     H 5656   2.721   0.854   7.339
  364MPD2    H1 5657   2.455   0.879   6.988
  364MPD2    H2 5658   2.441   1.183   7.269
  364MPD2    H3 5659   2.378   1.086   7.072
  364MPD2     N 5660   2.658   0.728   7.119
  364MPD2    H5 5661   2.728   0.692   7.182
  364MPD2    N1 5662   2.654   1.080   7.429
  364MPD2    H7 5663   2.725   1.025   7.476
  365MPD2     C 5664   3.123   0.745   7.609
  365MPD2    C1 5665   2.988   0.766   7.578
  365MPD2    C2 5666   2.919   0.688   7.491
  365MPD2    C3 5667   2.994   0.599   7.415
  365MPD2    C4 5668   3.124   0.573   7.439
  365MPD2    C5 5669   3.188   0.652   7.531
  365MPD2     H 5670   2.812   0.695   7.474
  365MPD2    H1 5671   3.188   0.500   7.391
  365MPD2    H2 5672   3.180   0.818   7.666
  365MPD2    H3 5673   3.297   0.649   7.537
  365MPD2     N 5674   2.937   0.546   7.305
  365MPD2    H5 5675   2.840   0.572   7.291
  365MPD2    N1 5676   2.919   0.880   7.632
  365MPD2    H7 5677   2.818   0.872   7.631
  366MPD2     C 5678   1.671   3.225   8.737
  366MPD2    C1 5679   1.796   3.268   8.710
  366MPD2    C2 5680   1.897   3.228   8.799
  366MPD2    C3 5681   1.867   3.162   8.911
  366MPD2    C4 5682   1.739   3.129   8.939
  366MPD2    C5 5683   1.645   3.153   8.845
  366MPD2     H 5684   2.002   3.240   8.776
  366MPD2    H1 5685   1.708   3.085   9.032
  366MPD2    H2 5686   1.583   3.245   8.678
  366MPD2    H3 5687   1.544   3.115   8.855
  366MPD2     N 5688   1.970   3.153   9.008
  366MPD2    H5 5689   2.053   3.201   8.974
  366MPD2    N1 5690   1.833   3.311   8.580
  366MPD2    H7 5691   1.934   3.312   8.566
  367MPD2     C 5692   1.909   3.776   8.032
  367MPD2    C1 5693   1.837   3.674   7.976
  367MPD2    C2 5694   1.820   3.681   7.835
  367MPD2    C3 5695   1.881   3.786   7.771
  367MPD2    C4 5696   1.951   3.883   7.837
  367MPD2    C5 5697   1.965   3.878   7.969
  367MPD2     H 5698   1.773   3.600   7.781
  367MPD2    H1 5699   1.985   3.973   7.787
  367MPD2    H2 5700   1.937   3.760   8.135
  367MPD2    H3 5701   2.019   3.958   8.018
  367MPD2     N 5702   1.866   3.801   7.632
  367MPD2    H5 5703   1.932   3.854   7.576
  367MPD2    N1 5704   1.802   3.563   8.052
  367MPD2    H7 5705   1.799   3.577   8.153
  368MPD2     C 5706   1.736   2.815   8.529
  368MPD2    C1 5707   1.874   2.777   8.547
  368MPD2    C2 5708   1.968   2.833   8.461
  368MPD2    C3 5709   1.933   2.920   8.356
  368MPD2    C4 5710   1.800   2.945   8.334
  368MPD2    C5 5711   1.709   2.902   8.429
  368MPD2     H 5712   2.071   2.801   8.470
  368MPD2    H1 5713   1.770   3.003   8.248
  368MPD2    H2 5714   1.663   2.781   8.602
  368MPD2    H3 5715   1.605   2.930   8.423
  368MPD2     N 5716   2.040   2.978   8.281
  368MPD2    H5 5717   2.132   2.936   8.291
  368MPD2    N1 5718   1.916   2.686   8.643
  368MPD2    H7 5719   2.011   2.649   8.644
  369MPD2     C 5720   1.763   0.408   7.093
  369MPD2    C1 5721   1.829   0.498   7.171
  369MPD2    C2 5722   1.927   0.453   7.259
  369MPD2    C3 5723   1.960   0.321   7.262
  369MPD2    C4 5724   1.897   0.234   7.181
  369MPD2    C5 5725   1.794   0.274   7.099
  369MPD2     H 5726   1.983   0.526   7.316
  369MPD2    H1 5727   1.921   0.128   7.187
  369MPD2    H2 5728   1.680   0.435   7.028
  369MPD2    H3 5729   1.739   0.203   7.038
  369MPD2     N 5730   2.073   0.271   7.327
  369MPD2    H5 5731   2.100   0.184   7.282
  369MPD2    N1 5732   1.795   0.634   7.157
  369MPD2    H7 5733   1.728   0.661   7.086
  370MPD2     C 5734   1.226   1.126   7.758
  370MPD2    C1 5735   1.259   0.991   7.740
  370MPD2    C2 5736   1.335   0.952   7.633
  370MPD2    C3 5737   1.376   1.049   7.542
  370MPD2    C4 5738   1.362   1.179   7.571
  370MPD2    C5 5739   1.287   1.219   7.677
  370MPD2     H 5740   1.356   0.847   7.613
  370MPD2    H1 5741   1.406   1.251   7.503
  370MPD2    H2 5742   1.165   1.166   7.838
  370MPD2    H3 5743   1.264   1.324   7.689
  370MPD2     N 5744   1.460   1.002   7.438
  370MPD2    H5 5745   1.486   0.904   7.440
  370MPD2    N1 5746   1.198   0.898   7.829
  370MPD2    H7 5747   1.124   0.926   7.893
  371MPD2     C 5748   0.417   3.590   8.145
  371MPD2    C1 5749   0.478   3.500   8.063
  371MPD2    C2 5750   0.610   3.526   8.030
  371MPD2    C3 5751   0.679   3.640   8.067
  371MPD2    C4 5752   0.614   3.726   8.148
  371MPD2    C5 5753   0.480   3.702   8.183
  371MPD2     H 5754   0.676   3.452   7.984
  371MPD2    H1 5755   0.666   3.818   8.171
  371MPD2    H2 5756   0.318   3.569   8.183
  371MPD2    H3 5757   0.422   3.769   8.244
  371MPD2     N 5758   0.813   3.667   8.032
  371MPD2    H5 5759   0.851   3.747   8.081
  371MPD2    N1 5760   0.425   3.372   8.025
  371MPD2    H7 5761   0.490   3.301   7.995
  372MPD2     C 5762   0.341   3.214   7.649
  372MPD2    C1 5763   0.373   3.345   7.624
  372MPD2    C2 5764   0.270   3.430   7.601
  372MPD2    C3 5765   0.136   3.400   7.627
  372MPD2    C4 5766   0.111   3.265   7.652
  372MPD2    C5 5767   0.210   3.173   7.658
  372MPD2     H 5768   0.297   3.531   7.573
  372MPD2    H1 5769   0.014   3.228   7.681
  372MPD2    H2 5770   0.407   3.130   7.666
  372MPD2    H3 5771   0.182   3.069   7.671
  372MPD2     N 5772   0.026   3.489   7.614
  372MPD2    H5 5773   4.721   3.447   7.627
  372MPD2    N1 5774   0.506   3.388   7.632
  372MPD2    H7 5775   0.579   3.318   7.638
  373MPD2     C 5776   1.114   3.167   7.081
  373MPD2    C1 5777   1.017   3.263   7.076
  373MPD2    C2 5778   0.972   3.319   7.198
  373MPD2    C3 5779   1.013   3.274   7.321
  373MPD2    C4 5780   1.106   3.172   7.330
  373MPD2    C5 5781   1.159   3.130   7.207
  373MPD2     H 5782   0.904   3.403   7.194
  373MPD2    H1 5783   1.146   3.124   7.418
  373MPD2    H2 5784   1.151   3.124   6.989
  373MPD2    H3 5785   1.237   3.057   7.221
  373MPD2     N 5786   0.946   3.331   7.427
  373MPD2    H5 5787   0.878   3.405   7.411
  373MPD2    N1 5788   0.965   3.298   6.943
  373MPD2    H7 5789   1.022   3.266   6.865
  374MPD2     C 5790   2.536   3.539   7.337
  374MPD2    C1 5791   2.515   3.637   7.239
  374MPD2    C2 5792   2.376   3.666   7.216
  374MPD2    C3 5793   2.274   3.606   7.297
  374MPD2    C4 5794   2.308   3.526   7.403
  374MPD2    C5 5795   2.437   3.488   7.418
  374MPD2     H 5796   2.347   3.740   7.142
  374MPD2    H1 5797   2.233   3.492   7.474
  374MPD2    H2 5798   2.634   3.505   7.367
  374MPD2    H3 5799   2.449   3.425   7.505
  374MPD2     N 5800   2.140   3.637   7.300
  374MPD2    H5 5801   2.096   3.604   7.385
  374MPD2    N1 5802   2.616   3.705   7.167
  374MPD2    H7 5803   2.581   3.776   7.104
  375MPD2     C 5804   1.923   0.725  11.180
  375MPD2    C1 5805   1.892   0.844  11.242
  375MPD2    C2 5806   1.757   0.869  11.264
  375MPD2    C3 5807   1.661   0.783  11.210
  375MPD2    C4 5808   1.697   0.666  11.159
  375MPD2    C5 5809   1.829   0.637  11.147
  375MPD2     H 5810   1.726   0.962  11.309
  375MPD2    H1 5811   1.624   0.596  11.121
  375MPD2    H2 5812   2.023   0.693  11.155
  375MPD2    H3 5813   1.850   0.539  11.105
  375MPD2     N 5814   1.525   0.803  11.216
  375MPD2    H5 5815   1.472   0.723  11.181
  375MPD2    N1 5816   1.992   0.935  11.253
  375MPD2    H7 5817   2.086   0.899  11.237
  376MPD2     C 5818   0.909   0.668  10.836
  376MPD2    C1 5819   1.026   0.690  10.899
  376MPD2    C2 5820   1.045   0.815  10.951
  376MPD2    C3 5821   0.942   0.907  10.965
  376MPD2    C4 5822   0.828   0.876  10.912
  376MPD2    C5 5823   0.814   0.763  10.846
  376MPD2     H 5824   1.150   0.830  10.974
  376MPD2    H1 5825   0.743   0.941  10.929
  376MPD2    H2 5826   0.891   0.574  10.786
  376MPD2    H3 5827   0.714   0.739  10.811
  376MPD2     N 5828   0.945   1.023  11.042
  376MPD2    H5 5829   0.857   1.074  11.035
  376MPD2    N1 5830   1.126   0.590  10.912
  376MPD2    H7 5831   1.199   0.613  10.978
  377MPD2     C 5832   1.029   0.138  11.442
  377MPD2    C1 5833   0.977   0.206  11.332
  377MPD2    C2 5834   1.018   0.339  11.307
  377MPD2    C3 5835   1.100   0.406  11.396
  377MPD2    C4 5836   1.151   0.342  11.505
  377MPD2    C5 5837   1.115   0.207  11.528
  377MPD2     H 5838   0.987   0.382  11.213
  377MPD2    H1 5839   1.221   0.389  11.574
  377MPD2    H2 5840   0.993   0.039  11.468
  377MPD2    H3 5841   1.149   0.148  11.612
  377MPD2     N 5842   1.132   0.543  11.387
  377MPD2    H5 5843   1.190   0.584  11.460
  377MPD2    N1 5844   0.887   0.144  11.242
  377MPD2    H7 5845   0.856   0.201  11.164
  378MPD2     C 5846   1.820   1.094  13.221
  378MPD2    C1 5847   1.714   1.009  13.198
  378MPD2    C2 5848   1.662   0.933  13.303
  378MPD2    C3 5849   1.711   0.954  13.434
  378MPD2    C4 5850   1.819   1.034  13.455
  378MPD2    C5 5851   1.878   1.097  13.346
  378MPD2     H 5852   1.585   0.858  13.297
  378MPD2    H1 5853   1.856   1.044  13.557
  378MPD2    H2 5854   1.864   1.154  13.142
  378MPD2    H3 5855   1.964   1.158  13.370
  378MPD2     N 5856   1.653   0.886  13.547
  378MPD2    H5 5857   1.702   0.901  13.634
  378MPD2    N1 5858   1.658   1.009  13.066
  378MPD2    H7 5859   1.707   1.074  13.006
  379MPD2     C 5860   0.962   1.289  13.254
  379MPD2    C1 5861   1.097   1.265  13.268
  379MPD2    C2 5862   1.187   1.367  13.233
  379MPD2    C3 5863   1.146   1.490  13.184
  379MPD2    C4 5864   1.015   1.510  13.181
  379MPD2    C5 5865   0.931   1.409  13.203
  379MPD2     H 5866   1.294   1.371  13.246
  379MPD2    H1 5867   0.966   1.604  13.158
  379MPD2    H2 5868   0.891   1.210  13.279
  379MPD2    H3 5869   0.826   1.429  13.188
  379MPD2     N 5870   1.245   1.580  13.146
  379MPD2    H5 5871   1.341   1.548  13.142
  379MPD2    N1 5872   1.128   1.136  13.319
  379MPD2    H7 5873   1.053   1.074  13.349
  380MPD2     C 5874   0.890   0.486  13.461
  380MPD2    C1 5875   0.907   0.626  13.486
  380MPD2    C2 5876   0.828   0.691  13.575
  380MPD2    C3 5877   0.736   0.612  13.645
  380MPD2    C4 5878   0.712   0.479  13.617
  380MPD2    C5 5879   0.780   0.415  13.519
  380MPD2     H 5880   0.840   0.795  13.600
  380MPD2    H1 5881   0.629   0.421  13.658
  380MPD2    H2 5882   0.931   0.441  13.371
  380MPD2    H3 5883   0.753   0.315  13.488
  380MPD2     N 5884   0.673   0.677  13.760
  380MPD2    H5 5885   0.703   0.772  13.782
  380MPD2    N1 5886   1.010   0.698  13.430
  380MPD2    H7 5887   1.004   0.799  13.440
  381MPD2     C 5888   4.251   2.874  13.724
  381MPD2    C1 5889   4.310   2.792  13.819
  381MPD2    C2 5890   4.429   2.834  13.867
  381MPD2    C3 5891   4.480   2.960  13.851
  381MPD2    C4 5892   4.411   3.047  13.764
  381MPD2    C5 5893   4.301   2.993  13.697
  381MPD2     H 5894   4.487   2.775  13.938
  381MPD2    H1 5895   4.441   3.149  13.745
  381MPD2    H2 5896   4.155   2.854  13.677
  381MPD2    H3 5897   4.248   3.067  13.639
  381MPD2     N 5898   4.617   2.986  13.883
  381MPD2    H5 5899   4.674   2.904  13.904
  381MPD2    N1 5900   4.251   2.672  13.858
  381MPD2    H7 5901   4.316   2.616  13.912
  382MPD2     C 5902   3.313   2.407  14.072
  382MPD2    C1 5903   3.372   2.289  14.049
  382MPD2    C2 5904   3.488   2.276  13.980
  382MPD2    C3 5905   3.544   2.390  13.917
  382MPD2    C4 5906   3.478   2.513  13.939
  382MPD2    C5 5907   3.365   2.521  14.017
  382MPD2     H 5908   3.527   2.177  13.958
  382MPD2    H1 5909   3.518   2.607  13.905
  382MPD2    H2 5910   3.211   2.413  14.109
  382MPD2    H3 5911   3.316   2.616  14.034
  382MPD2     N 5912   3.684   2.396  13.873
  382MPD2    H5 5913   3.721   2.486  13.844
  382MPD2    N1 5914   3.304   2.169  14.087
  382MPD2    H7 5915   3.217   2.188  14.137
  383MPD2     C 5916   2.965   1.083  12.586
  383MPD2    C1 5917   2.917   1.211  12.550
  383MPD2    C2 5918   2.946   1.317  12.636
  383MPD2    C3 5919   3.024   1.296  12.747
  383MPD2    C4 5920   3.068   1.172  12.773
  383MPD2    C5 5921   3.021   1.066  12.707
  383MPD2     H 5922   2.902   1.412  12.607
  383MPD2    H1 5923   3.123   1.140  12.861
  383MPD2    H2 5924   2.936   0.997  12.527
  383MPD2    H3 5925   3.038   0.968  12.748
  383MPD2     N 5926   3.054   1.410  12.828
  383MPD2    H5 5927   3.009   1.498  12.804
  383MPD2    N1 5928   2.840   1.244  12.434
  383MPD2    H7 5929   2.796   1.334  12.418
  384MPD2     C 5930   2.526   1.938  13.374
  384MPD2    C1 5931   2.536   1.796  13.375
  384MPD2    C2 5932   2.641   1.736  13.309
  384MPD2    C3 5933   2.739   1.815  13.258
  384MPD2    C4 5934   2.733   1.959  13.263
  384MPD2    C5 5935   2.625   2.017  13.322
  384MPD2     H 5936   2.648   1.629  13.329
  384MPD2    H1 5937   2.799   2.023  13.205
  384MPD2    H2 5938   2.438   1.976  13.424
  384MPD2    H3 5939   2.609   2.124  13.317
  384MPD2     N 5940   2.854   1.746  13.204
  384MPD2    H5 5941   2.847   1.645  13.191
  384MPD2    N1 5942   2.441   1.725  13.447
  384MPD2    H7 5943   2.376   1.789  13.492
  385MPD2     C 5944   0.809   4.241  14.536
  385MPD2    C1 5945   0.911   4.157  14.566
  385MPD2    C2 5946   0.957   4.070  14.472
  385MPD2    C3 5947   0.905   4.068  14.345
  385MPD2    C4 5948   0.800   4.161  14.313
  385MPD2    C5 5949   0.753   4.240  14.411
  385MPD2     H 5950   1.037   4.003  14.502
  385MPD2    H1 5951   0.758   4.174  14.214
  385MPD2    H2 5952   0.780   4.325  14.598
  385MPD2    H3 5953   0.671   4.309  14.393
  385MPD2     N 5954   0.962   3.986  14.245
  385MPD2    H5 5955   0.942   4.004  14.147
  385MPD2    N1 5956   0.972   4.160  14.702
  385MPD2    H7 5957   1.042   4.090  14.723
  386MPD2     C 5958   1.277   4.507  13.698
  386MPD2    C1 5959   1.247   4.514  13.829
  386MPD2    C2 5960   1.235   4.403  13.908
  386MPD2    C3 5961   1.273   4.284  13.856
  386MPD2    C4 5962   1.313   4.274  13.725
  386MPD2    C5 5963   1.316   4.387  13.651
  386MPD2     H 5964   1.198   4.401  14.010
  386MPD2    H1 5965   1.361   4.180  13.699
  386MPD2    H2 5966   1.279   4.588  13.626
  386MPD2    H3 5967   1.350   4.389  13.548
  386MPD2     N 5968   1.266   4.172  13.943
  386MPD2    H5 5969   1.227   4.176  14.036
  386MPD2    N1 5970   1.188   4.630  13.883
  386MPD2    H7 5971   1.141   4.624  13.972
  387MPD2     C 5972   1.850   3.610  14.446
  387MPD2    C1 5973   1.853   3.559  14.320
  387MPD2    C2 5974   1.737   3.573  14.239
  387MPD2    C3 5975   1.633   3.641  14.284
  387MPD2    C4 5976   1.628   3.699  14.414
  387MPD2    C5 5977   1.741   3.682  14.491
  387MPD2     H 5978   1.742   3.548  14.133
  387MPD2    H1 5979   1.551   3.762  14.457
  387MPD2    H2 5980   1.940   3.603  14.505
  387MPD2    H3 5981   1.750   3.721  14.591
  387MPD2     N 5982   1.527   3.657  14.192
  387MPD2    H5 5983   1.536   3.638  14.093
  387MPD2    N1 5984   1.967   3.491  14.289
  387MPD2    H7 5985   2.036   3.468  14.359
  388MPD2     C 5986   4.376   2.261  10.451
  388MPD2    C1 5987   4.299   2.355  10.401
  388MPD2    C2 5988   4.201   2.422  10.477
  388MPD2    C3 5989   4.177   2.384  10.607
  388MPD2    C4 5990   4.261   2.288  10.665
  388MPD2    C5 5991   4.357   2.233  10.589
  388MPD2     H 5992   4.152   2.506  10.430
  388MPD2    H1 5993   4.245   2.240  10.761
  388MPD2    H2 5994   4.448   2.199  10.399
  388MPD2    H3 5995   4.416   2.150  10.625
  388MPD2     N 5996   4.072   2.454  10.678
  388MPD2    H5 5997   4.015   2.513  10.618
  388MPD2    N1 5998   4.313   2.393  10.264
  388MPD2    H7 5999   4.263   2.478  10.239
  389MPD2     C 6000   4.786   2.894   9.800
  389MPD2    C1 6001   4.719   2.832   9.905
  389MPD2    C2 6002   4.766   2.854  10.035
  389MPD2    C3 6003   0.076   2.950  10.062
  389MPD2    C4 6004   0.138   3.013   9.955
  389MPD2    C5 6005   0.102   2.979   9.827
  389MPD2     H 6006   4.747   2.795  10.124
  389MPD2    H1 6007   0.220   3.083   9.968
  389MPD2    H2 6008   4.768   2.865   9.698
  389MPD2    H3 6009   0.158   3.024   9.746
  389MPD2     N 6010   0.132   2.954  10.196
  389MPD2    H5 6011   0.106   2.877  10.257
  389MPD2    N1 6012   4.609   2.745   9.879
  389MPD2    H7 6013   4.568   2.740   9.786
  390MPD2     C 6014   3.736   3.971  10.799
  390MPD2    C1 6015   3.812   3.857  10.780
  390MPD2    C2 6016   3.779   3.759  10.688
  390MPD2    C3 6017   3.659   3.770  10.615
  390MPD2    C4 6018   3.583   3.881  10.636
  390MPD2    C5 6019   3.630   3.984  10.717
  390MPD2     H 6020   3.851   3.683  10.659
  390MPD2    H1 6021   3.505   3.901  10.563
  390MPD2    H2 6022   3.775   4.060  10.848
  390MPD2    H3 6023   3.581   4.081  10.721
  390MPD2     N 6024   3.609   3.668  10.531
  390MPD2    H5 6025   3.534   3.698  10.469
  390MPD2    N1 6026   3.932   3.835  10.846
  390MPD2    H7 6027   3.977   3.746  10.828
  391MPD2     C 6028   4.521   3.471  11.631
  391MPD2    C1 6029   4.465   3.381  11.547
  391MPD2    C2 6030   4.367   3.424  11.464
  391MPD2    C3 6031   4.323   3.553  11.463
  391MPD2    C4 6032   4.375   3.644  11.548
  391MPD2    C5 6033   4.471   3.600  11.631
  391MPD2     H 6034   4.312   3.359  11.397
  391MPD2    H1 6035   4.353   3.750  11.544
  391MPD2    H2 6036   4.604   3.452  11.698
  391MPD2    H3 6037   4.524   3.667  11.698
  391MPD2     N 6038   4.223   3.585  11.375
  391MPD2    H5 6039   4.208   3.518  11.301
  391MPD2    N1 6040   4.524   3.253  11.552
  391MPD2    H7 6041   4.606   3.249  11.611
  392MPD2     C 6042   4.480   3.324  10.861
  392MPD2    C1 6043   4.368   3.323  10.938
  392MPD2    C2 6044   4.348   3.201  11.008
  392MPD2    C3 6045   4.413   3.083  10.989
  392MPD2    C4 6046   4.511   3.087  10.887
  392MPD2    C5 6047   4.550   3.207  10.832
  392MPD2     H 6048   4.264   3.195  11.077
  392MPD2    H1 6049   4.561   2.997  10.852
  392MPD2    H2 6050   4.514   3.409  10.804
  392MPD2    H3 6051   4.636   3.213  10.766
  392MPD2     N 6052   4.374   2.956  11.045
  392MPD2    H5 6053   4.409   2.874  10.996
  392MPD2    N1 6054   4.298   3.443  10.977
  392MPD2    H7 6055   4.228   3.433  11.050
  393MPD2     C 6056   3.301   0.539   6.249
  393MPD2    C1 6057   3.320   0.569   6.384
  393MPD2    C2 6058   3.212   0.612   6.463
  393MPD2    C3 6059   3.094   0.634   6.398
  393MPD2    C4 6060   3.084   0.620   6.258
  393MPD2    C5 6061   3.188   0.581   6.175
  393MPD2     H 6062   3.234   0.635   6.567
  393MPD2    H1 6063   2.997   0.651   6.201
  393MPD2    H2 6064   3.383   0.510   6.185
  393MPD2    H3 6065   3.174   0.567   6.068
  393MPD2     N 6066   2.982   0.684   6.480
  393MPD2    H5 6067   2.999   0.698   6.579
  393MPD2    N1 6068   3.449   0.564   6.444
  393MPD2    H7 6069   3.457   0.617   6.530
  394MPD2     C 6070   2.164   0.710   6.622
  394MPD2    C1 6071   2.273   0.682   6.703
  394MPD2    C2 6072   2.264   0.566   6.786
  394MPD2    C3 6073   2.141   0.508   6.803
  394MPD2    C4 6074   2.035   0.539   6.724
  394MPD2    C5 6075   2.049   0.636   6.627
  394MPD2     H 6076   2.352   0.538   6.842
  394MPD2    H1 6077   1.936   0.496   6.728
  394MPD2    H2 6078   2.162   0.793   6.552
  394MPD2    H3 6079   1.965   0.648   6.560
  394MPD2     N 6080   2.115   0.414   6.909
  394MPD2    H5 6081   2.033   0.359   6.887
  394MPD2    N1 6082   2.396   0.758   6.697
  394MPD2    H7 6083   2.472   0.727   6.757
  395MPD2     C 6084   2.948   1.247   7.240
  395MPD2    C1 6085   2.994   1.120   7.215
  395MPD2    C2 6086   2.921   1.045   7.123
  395MPD2    C3 6087   2.821   1.101   7.041
  395MPD2    C4 6088   2.783   1.232   7.068
  395MPD2    C5 6089   2.843   1.302   7.171
  395MPD2     H 6090   2.942   0.938   7.116
  395MPD2    H1 6091   2.701   1.278   7.015
  395MPD2    H2 6092   3.005   1.312   7.306
  395MPD2    H3 6093   2.815   1.405   7.194
  395MPD2     N 6094   2.765   1.038   6.925
  395MPD2    H5 6095   2.703   1.098   6.873
  395MPD2    N1 6096   3.104   1.064   7.289
  395MPD2    H7 6097   3.144   1.120   7.363
  396MPD2     C 6098   2.363   1.610  12.223
  396MPD2    C1 6099   2.389   1.636  12.354
  396MPD2    C2 6100   2.382   1.765  12.400
  396MPD2    C3 6101   2.340   1.870  12.316
  396MPD2    C4 6102   2.326   1.844  12.179
  396MPD2    C5 6103   2.347   1.716  12.137
  396MPD2     H 6104   2.390   1.785  12.507
  396MPD2    H1 6105   2.298   1.918  12.105
  396MPD2    H2 6106   2.370   1.511  12.180
  396MPD2    H3 6107   2.347   1.693  12.031
  396MPD2     N 6108   2.345   2.001  12.365
  396MPD2    H5 6109   2.337   2.069  12.290
  396MPD2    N1 6110   2.421   1.539  12.451
  396MPD2    H7 6111   2.409   1.570  12.547
  397MPD2     C 6112   1.803   0.855  12.657
  397MPD2    C1 6113   1.920   0.791  12.693
  397MPD2    C2 6114   2.032   0.872  12.692
  397MPD2    C3 6115   2.031   1.001  12.643
  397MPD2    C4 6116   1.919   1.053  12.600
  397MPD2    C5 6117   1.801   0.988  12.608
  397MPD2     H 6118   2.125   0.836  12.735
  397MPD2    H1 6119   1.930   1.151  12.553
  397MPD2    H2 6120   1.705   0.810  12.661
  397MPD2    H3 6121   1.710   1.037  12.574
  397MPD2     N 6122   2.145   1.081  12.643
  397MPD2    H5 6123   2.138   1.168  12.591
  397MPD2    N1 6124   1.927   0.667  12.765
  397MPD2    H7 6125   2.007   0.656  12.827
  398MPD2     C 6126   2.083   1.445  10.801
  398MPD2    C1 6127   1.956   1.414  10.771
  398MPD2    C2 6128   1.898   1.295  10.807
  398MPD2    C3 6129   1.965   1.210  10.893
  398MPD2    C4 6130   2.086   1.248  10.940
  398MPD2    C5 6131   2.148   1.360  10.883
  398MPD2     H 6132   1.791   1.286  10.792
  398MPD2    H1 6133   2.159   1.198  11.004
  398MPD2    H2 6134   2.129   1.540  10.777
  398MPD2    H3 6135   2.245   1.397  10.917
  398MPD2     N 6136   1.902   1.095  10.935
  398MPD2    H5 6137   1.922   1.070  11.032
  398MPD2    N1 6138   1.874   1.508  10.714
  398MPD2    H7 6139   1.773   1.498  10.715
  399MPD2     C 6140   1.768   1.668  11.404
  399MPD2    C1 6141   1.689   1.685  11.290
  399MPD2    C2 6142   1.639   1.571  11.229
  399MPD2    C3 6143   1.657   1.442  11.281
  399MPD2    C4 6144   1.735   1.433  11.394
  399MPD2    C5 6145   1.792   1.547  11.451
  399MPD2     H 6146   1.564   1.585  11.152
  399MPD2    H1 6147   1.760   1.338  11.439
  399MPD2    H2 6148   1.814   1.749  11.460
  399MPD2    H3 6149   1.838   1.535  11.549
  399MPD2     N 6150   1.596   1.325  11.230
  399MPD2    H5 6151   1.626   1.237  11.271
  399MPD2    N1 6152   1.664   1.815  11.251
  399MPD2    H7 6153   1.706   1.897  11.292
  400MPD2     C 6154   1.145   1.458  10.646
  400MPD2    C1 6155   1.274   1.418  10.668
  400MPD2    C2 6156   1.309   1.296  10.728
  400MPD2    C3 6157   1.205   1.213  10.761
  400MPD2    C4 6158   1.072   1.255  10.753
  400MPD2    C5 6159   1.045   1.371  10.691
  400MPD2     H 6160   1.412   1.261  10.729
  400MPD2    H1 6161   0.989   1.188  10.773
  400MPD2    H2 6162   1.111   1.552  10.603
  400MPD2    H3 6163   0.941   1.399  10.681
  400MPD2     N 6164   1.230   1.074  10.795
  400MPD2    H5 6165   1.139   1.029  10.790
  400MPD2    N1 6166   1.365   1.505  10.606
  400MPD2    H7 6167   1.336   1.582  10.547
  401MPD2     C 6168   4.297   4.032  10.736
  401MPD2    C1 6169   4.265   4.129  10.821
  401MPD2    C2 6170   4.353   4.169  10.918
  401MPD2    C3 6171   4.479   4.110  10.939
  401MPD2    C4 6172   4.505   4.000  10.850
  401MPD2    C5 6173   4.417   3.968  10.746
  401MPD2     H 6174   4.342   4.259  10.977
  401MPD2    H1 6175   4.604   3.956  10.852
  401MPD2    H2 6176   4.225   4.004  10.660
  401MPD2    H3 6177   4.443   3.895  10.671
  401MPD2     N 6178   4.571   4.152  11.043
  401MPD2    H5 6179   4.659   4.101  11.042
  401MPD2    N1 6180   4.131   4.179  10.816
  401MPD2    H7 6181   4.064   4.128  10.759
  402MPD2     C 6182   3.769   0.210  11.275
  402MPD2    C1 6183   3.740   0.080  11.320
  402MPD2    C2 6184   3.825   4.765  11.303
  402MPD2    C3 6185   3.945   4.781  11.240
  402MPD2    C4 6186   3.969   0.121  11.193
  402MPD2    C5 6187   3.891   0.231  11.220
  402MPD2     H 6188   3.803   4.668  11.346
  402MPD2    H1 6189   4.058   0.145  11.136
  402MPD2    H2 6190   3.698   0.292  11.276
  402MPD2    H3 6191   3.910   0.326  11.171
  402MPD2     N 6192   4.032   4.672  11.236
  402MPD2    H5 6193   4.015   4.587  11.288
  402MPD2    N1 6194   3.610   0.055  11.374
  402MPD2    H7 6195   3.540   0.129  11.382
  403MPD2     C 6196   4.442   4.280  11.608
  403MPD2    C1 6197   4.331   4.217  11.556
  403MPD2    C2 6198   4.289   4.094  11.607
  403MPD2    C3 6199   4.360   4.031  11.714
  403MPD2    C4 6200   4.484   4.086  11.750
  403MPD2    C5 6201   4.517   4.210  11.702
  403MPD2     H 6202   4.197   4.050  11.570
  403MPD2    H1 6203   4.545   4.054  11.834
  403MPD2    H2 6204   4.474   4.380  11.584
  403MPD2    H3 6205   4.600   4.264  11.746
  403MPD2     N 6206   4.312   3.917  11.765
  403MPD2    H5 6207   4.223   3.889  11.726
  403MPD2    N1 6208   4.272   4.274  11.439
  403MPD2    H7 6209   4.304   4.369  11.424
  404MPD2     C 6210   0.507   2.536   6.425
  404MPD2    C1 6211   0.515   2.568   6.562
  404MPD2    C2 6212   0.396   2.543   6.634
  404MPD2    C3 6213   0.285   2.483   6.581
  404MPD2    C4 6214   0.294   2.429   6.453
  404MPD2    C5 6215   0.402   2.458   6.382
  404MPD2     H 6216   0.396   2.579   6.736
  404MPD2    H1 6217   0.226   2.356   6.410
  404MPD2    H2 6218   0.595   2.546   6.362
  404MPD2    H3 6219   0.410   2.417   6.282
  404MPD2     N 6220   0.158   2.480   6.653
  404MPD2    H5 6221   0.168   2.524   6.744
  404MPD2    N1 6222   0.615   2.645   6.614
  404MPD2    H7 6223   0.611   2.666   6.714
  405MPD2     C 6224   4.334   1.959   7.177
  405MPD2    C1 6225   4.324   2.080   7.235
  405MPD2    C2 6226   4.337   2.189   7.152
  405MPD2    C3 6227   4.351   2.178   7.012
  405MPD2    C4 6228   4.353   2.056   6.959
  405MPD2    C5 6229   4.340   1.945   7.042
  405MPD2     H 6230   4.334   2.290   7.191
  405MPD2    H1 6231   4.340   2.036   6.853
  405MPD2    H2 6232   4.309   1.870   7.235
  405MPD2    H3 6233   4.335   1.845   7.000
  405MPD2     N 6234   4.377   2.297   6.934
  405MPD2    H5 6235   4.397   2.381   6.987
  405MPD2    N1 6236   4.284   2.105   7.369
  405MPD2    H7 6237   4.243   2.196   7.390
  406MPD2     C 6238   0.812   1.720   9.332
  406MPD2    C1 6239   0.819   1.856   9.280
  406MPD2    C2 6240   0.749   1.885   9.167
  406MPD2    C3 6241   0.696   1.779   9.097
  406MPD2    C4 6242   0.716   1.645   9.132
  406MPD2    C5 6243   0.771   1.616   9.253
  406MPD2     H 6244   0.739   1.988   9.135
  406MPD2    H1 6245   0.687   1.562   9.068
  406MPD2    H2 6246   0.845   1.693   9.432
  406MPD2    H3 6247   0.776   1.515   9.290
  406MPD2     N 6248   0.639   1.792   8.968
  406MPD2    H5 6249   0.616   1.706   8.920
  406MPD2    N1 6250   0.877   1.951   9.360
  406MPD2    H7 6251   0.897   1.928   9.457
  407MPD2     C 6252   0.775   2.689  13.961
  407MPD2    C1 6253   0.758   2.803  13.880
  407MPD2    C2 6254   0.636   2.867  13.889
  407MPD2    C3 6255   0.540   2.839  13.983
  407MPD2    C4 6256   0.553   2.721  14.058
  407MPD2    C5 6257   0.667   2.648  14.035
  407MPD2     H 6258   0.608   2.951  13.827
  407MPD2    H1 6259   0.476   2.678  14.120
  407MPD2    H2 6260   0.858   2.622  13.945
  407MPD2    H3 6261   0.685   2.561  14.097
  407MPD2     N 6262   0.423   2.927  13.983
  407MPD2    H5 6263   0.434   3.011  13.928
  407MPD2    N1 6264   0.866   2.837  13.794
  407MPD2    H7 6265   0.957   2.826  13.839
  408MPD2     C 6266   2.947   2.605   9.727
  408MPD2    C1 6267   3.073   2.583   9.673
  408MPD2    C2 6268   3.150   2.469   9.712
  408MPD2    C3 6269   3.093   2.378   9.809
  408MPD2    C4 6270   2.969   2.402   9.859
  408MPD2    C5 6271   2.895   2.512   9.811
  408MPD2     H 6272   3.248   2.469   9.665
  408MPD2    H1 6273   2.923   2.336   9.931
  408MPD2    H2 6274   2.899   2.698   9.701
  408MPD2    H3 6275   2.798   2.526   9.857
  408MPD2     N 6276   3.167   2.272   9.865
  408MPD2    H5 6277   3.126   2.211   9.935
  408MPD2    N1 6278   3.125   2.684   9.589
  408MPD2    H7 6279   3.066   2.763   9.566
  409MPD2     C 6280   3.366   1.568   9.311
  409MPD2    C1 6281   3.485   1.652   9.305
  409MPD2    C2 6282   3.514   1.738   9.416
  409MPD2    C3 6283   3.445   1.720   9.533
  409MPD2    C4 6284   3.335   1.629   9.542
  409MPD2    C5 6285   3.298   1.570   9.426
  409MPD2     H 6286   3.592   1.812   9.426
  409MPD2    H1 6287   3.267   1.613   9.625
  409MPD2    H2 6288   3.337   1.507   9.226
  409MPD2    H3 6289   3.215   1.502   9.439
  409MPD2     N 6290   3.482   1.814   9.641
  409MPD2    H5 6291   3.556   1.880   9.620
  409MPD2    N1 6292   3.582   1.643   9.202
  409MPD2    H7 6293   3.651   1.717   9.196
  410MPD2     C 6294   2.916   1.482  10.140
  410MPD2    C1 6295   2.983   1.482  10.021
  410MPD2    C2 6296   3.089   1.578  10.017
  410MPD2    C3 6297   3.109   1.678  10.106
  410MPD2    C4 6298   3.030   1.673  10.212
  410MPD2    C5 6299   2.930   1.584  10.232
  410MPD2     H 6300   3.160   1.577   9.935
  410MPD2    H1 6301   3.043   1.744  10.293
  410MPD2    H2 6302   2.855   1.394  10.160
  410MPD2    H3 6303   2.869   1.593  10.321
  410MPD2     N 6304   3.215   1.770  10.077
  410MPD2    H5 6305   3.270   1.748   9.994
  410MPD2    N1 6306   2.967   1.383   9.924
  410MPD2    H7 6307   2.914   1.301   9.952
  411MPD2     C 6308   0.272   3.583  10.979
  411MPD2    C1 6309   0.383   3.543  10.911
  411MPD2    C2 6310   0.381   3.432  10.831
  411MPD2    C3 6311   0.262   3.369  10.806
  411MPD2    C4 6312   0.145   3.425  10.861
  411MPD2    C5 6313   0.155   3.526  10.954
  411MPD2     H 6314   0.471   3.385  10.793
  411MPD2    H1 6315   0.051   3.377  10.836
  411MPD2    H2 6316   0.270   3.669  11.045
  411MPD2    H3 6317   0.066   3.562  11.006
  411MPD2     N 6318   0.242   3.259  10.722
  411MPD2    H5 6319   0.156   3.243  10.672
  411MPD2    N1 6320   0.512   3.601  10.925
  411MPD2    H7 6321   0.580   3.562  10.860
  412MPD2     C 6322   0.608   2.427  10.926
  412MPD2    C1 6323   0.666   2.535  10.851
  412MPD2    C2 6324   0.576   2.617  10.769
  412MPD2    C3 6325   0.444   2.585  10.772
  412MPD2    C4 6326   0.392   2.485  10.849
  412MPD2    C5 6327   0.473   2.396  10.914
  412MPD2     H 6328   0.614   2.687  10.696
  412MPD2    H1 6329   0.288   2.462  10.828
  412MPD2    H2 6330   0.663   2.365  10.996
  412MPD2    H3 6331   0.429   2.313  10.968
  412MPD2     N 6332   0.368   2.667  10.694
  412MPD2    H5 6333   0.276   2.682  10.734
  412MPD2    N1 6334   0.795   2.576  10.853
  412MPD2    H7 6335   0.821   2.648  10.786
  413MPD2     C 6336   2.154   0.073   9.580
  413MPD2    C1 6337   2.116   0.089   9.449
  413MPD2    C2 6338   2.205   0.119   9.344
  413MPD2    C3 6339   2.340   0.118   9.372
  413MPD2    C4 6340   2.383   0.100   9.501
  413MPD2    C5 6341   2.285   0.079   9.598
  413MPD2     H 6342   2.173   0.115   9.241
  413MPD2    H1 6343   2.486   0.103   9.535
  413MPD2    H2 6344   2.094   0.055   9.669
  413MPD2    H3 6345   2.320   0.065   9.700
  413MPD2     N 6346   2.441   0.147   9.276
  413MPD2    H5 6347   2.538   0.148   9.307
  413MPD2    N1 6348   1.978   0.097   9.431
  413MPD2    H7 6349   1.915   0.091   9.510
  414MPD2     C 6350   2.037   0.871   9.534
  414MPD2    C1 6351   1.931   0.871   9.442
  414MPD2    C2 6352   1.843   0.758   9.442
  414MPD2    C3 6353   1.859   0.652   9.530
  414MPD2    C4 6354   1.971   0.650   9.608
  414MPD2    C5 6355   2.048   0.762   9.619
  414MPD2     H 6356   1.761   0.756   9.370
  414MPD2    H1 6357   1.997   0.565   9.670
  414MPD2    H2 6358   2.106   0.952   9.555
  414MPD2    H3 6359   2.140   0.752   9.675
  414MPD2     N 6360   1.784   0.537   9.526
  414MPD2    H5 6361   1.815   0.460   9.584
  414MPD2    N1 6362   1.928   0.954   9.329
  414MPD2    H7 6363   1.883   0.911   9.248
  415MPD2     C 6364   2.358   0.337  15.024
  415MPD2    C1 6365   2.353   0.447  14.944
  415MPD2    C2 6366   2.479   0.509  14.907
  415MPD2    C3 6367   2.592   0.461  14.953
  415MPD2    C4 6368   2.591   0.366  15.057
  415MPD2    C5 6369   2.475   0.301  15.078
  415MPD2     H 6370   2.489   0.581  14.826
  415MPD2    H1 6371   2.682   0.317  15.090
  415MPD2    H2 6372   2.267   0.289  15.057
  415MPD2    H3 6373   2.473   0.215  15.144
  415MPD2     N 6374   2.715   0.522  14.910
  415MPD2    H5 6375   2.711   0.593  14.837
  415MPD2    N1 6376   2.230   0.505  14.892
  415MPD2    H7 6377   2.239   0.584  14.829
  416MPD2     C 6378   3.066   0.642  14.277
  416MPD2    C1 6379   3.161   0.571  14.349
  416MPD2    C2 6380   3.272   0.520  14.288
  416MPD2    C3 6381   3.293   0.529  14.151
  416MPD2    C4 6382   3.190   0.584  14.078
  416MPD2    C5 6383   3.086   0.646  14.142
  416MPD2     H 6384   3.342   0.467  14.352
  416MPD2    H1 6385   3.189   0.597  13.971
  416MPD2    H2 6386   2.975   0.679  14.323
  416MPD2    H3 6387   3.005   0.683  14.079
  416MPD2     N 6388   3.402   0.477  14.080
  416MPD2    H5 6389   3.403   0.490  13.979
  416MPD2    N1 6390   3.146   0.561  14.487
  416MPD2    H7 6391   3.210   0.514  14.551
  417MPD2     C 6392   2.891   4.099  12.373
  417MPD2    C1 6393   2.953   4.021  12.461
  417MPD2    C2 6394   2.920   4.042  12.593
  417MPD2    C3 6395   2.816   4.120  12.632
  417MPD2    C4 6396   2.759   4.209  12.543
  417MPD2    C5 6397   2.803   4.197  12.410
  417MPD2     H 6398   2.966   3.973  12.664
  417MPD2    H1 6399   2.680   4.277  12.572
  417MPD2    H2 6400   2.921   4.103  12.269
  417MPD2    H3 6401   2.774   4.266  12.332
  417MPD2     N 6402   2.776   4.128  12.765
  417MPD2    H5 6403   2.714   4.205  12.788
  417MPD2    N1 6404   3.044   3.923  12.416
  417MPD2    H7 6405   3.045   3.903  12.316
  418MPD2     C 6406   2.350   4.766  13.079
  418MPD2    C1 6407   2.295   4.647  13.112
  418MPD2    C2 6408   2.373   4.540  13.125
  418MPD2    C3 6409   2.507   4.544  13.104
  418MPD2    C4 6410   2.569   4.667  13.074
  418MPD2    C5 6411   2.484   4.775  13.060
  418MPD2     H 6412   2.329   4.449  13.165
  418MPD2    H1 6413   2.676   4.680  13.088
  418MPD2    H2 6414   2.288   0.068  13.088
  418MPD2    H3 6415   2.523   0.087  13.041
  418MPD2     N 6416   2.588   4.430  13.134
  418MPD2    H5 6417   2.684   4.440  13.100
  418MPD2    N1 6418   2.160   4.631  13.146
  418MPD2    H7 6419   2.141   4.544  13.195
  419MPD2     C 6420   2.719   3.719  13.550
  419MPD2    C1 6421   2.612   3.788  13.495
  419MPD2    C2 6422   2.491   3.789  13.569
  419MPD2    C3 6423   2.486   3.730  13.699
  419MPD2    C4 6424   2.597   3.651  13.735
  419MPD2    C5 6425   2.711   3.650  13.667
  419MPD2     H 6426   2.407   3.847  13.533
  419MPD2    H1 6427   2.601   3.591  13.826
  419MPD2    H2 6428   2.814   3.712  13.498
  419MPD2    H3 6429   2.790   3.585  13.705
  419MPD2     N 6430   2.364   3.738  13.766
  419MPD2    H5 6431   2.294   3.805  13.737
  419MPD2    N1 6432   2.620   3.874  13.384
  419MPD2    H7 6433   2.537   3.929  13.366
  420MPD2     C 6434   1.692   0.622  11.560
  420MPD2    C1 6435   1.558   0.625  11.540
  420MPD2    C2 6436   1.498   0.542  11.448
  420MPD2    C3 6437   1.579   0.457  11.377
  420MPD2    C4 6438   1.718   0.455  11.397
  420MPD2    C5 6439   1.770   0.528  11.496
  420MPD2     H 6440   1.389   0.541  11.440
  420MPD2    H1 6441   1.781   0.396  11.333
  420MPD2    H2 6442   1.742   0.677  11.639
  420MPD2    H3 6443   1.875   0.513  11.517
  420MPD2     N 6444   1.538   0.385  11.258
  420MPD2    H5 6445   1.600   0.312  11.221
  420MPD2    N1 6446   1.487   0.733  11.592
  420MPD2    H7 6447   1.546   0.797  11.644
  421MPD2     C 6448   0.711   1.122  11.782
  421MPD2    C1 6449   0.798   1.197  11.702
  421MPD2    C2 6450   0.740   1.311  11.650
  421MPD2    C3 6451   0.618   1.365  11.687
  421MPD2    C4 6452   0.542   1.291  11.772
  421MPD2    C5 6453   0.584   1.170  11.806
  421MPD2     H 6454   0.801   1.384  11.599
  421MPD2    H1 6455   0.440   1.312  11.800
  421MPD2    H2 6456   0.746   1.038  11.841
  421MPD2    H3 6457   0.525   1.100  11.864
  421MPD2     N 6458   0.564   1.488  11.635
  421MPD2    H5 6459   0.470   1.513  11.664
  421MPD2    N1 6460   0.929   1.170  11.676
  421MPD2    H7 6461   0.980   1.241  11.625
  422MPD2     C 6462   1.348   1.550  11.503
  422MPD2    C1 6463   1.422   1.470  11.582
  422MPD2    C2 6464   1.529   1.527  11.644
  422MPD2    C3 6465   1.549   1.668  11.642
  422MPD2    C4 6466   1.463   1.748  11.572
  422MPD2    C5 6467   1.360   1.687  11.504
  422MPD2     H 6468   1.592   1.473  11.713
  422MPD2    H1 6469   1.494   1.851  11.554
  422MPD2    H2 6470   1.266   1.514  11.442
  422MPD2    H3 6471   1.304   1.748  11.433
  422MPD2     N 6472   1.640   1.731  11.728
  422MPD2    H5 6473   1.641   1.832  11.738
  422MPD2    N1 6474   1.372   1.338  11.593
  422MPD2    H7 6475   1.282   1.326  11.547
  423MPD2     C 6476   2.192   1.311  13.113
  423MPD2    C1 6477   2.157   1.430  13.174
  423MPD2    C2 6478   2.159   1.542  13.098
  423MPD2    C3 6479   2.208   1.545  12.968
  423MPD2    C4 6480   2.246   1.424  12.910
  423MPD2    C5 6481   2.236   1.312  12.987
  423MPD2     H 6482   2.122   1.635  13.138
  423MPD2    H1 6483   2.277   1.419  12.806
  423MPD2    H2 6484   2.181   1.214  13.160
  423MPD2    H3 6485   2.269   1.220  12.939
  423MPD2     N 6486   2.203   1.670  12.908
  423MPD2    H5 6487   2.164   1.750  12.956
  423MPD2    N1 6488   2.113   1.425  13.305
  423MPD2    H7 6489   2.137   1.340  13.354
  424MPD2     C 6490   2.563   0.816  13.713
  424MPD2    C1 6491   2.470   0.834  13.608
  424MPD2    C2 6492   2.400   0.954  13.608
  424MPD2    C3 6493   2.420   1.053  13.697
  424MPD2    C4 6494   2.500   1.036  13.804
  424MPD2    C5 6495   2.573   0.916  13.816
  424MPD2     H 6496   2.330   0.970  13.527
  424MPD2    H1 6497   2.520   1.114  13.877
  424MPD2    H2 6498   2.629   0.730  13.720
  424MPD2    H3 6499   2.648   0.903  13.893
  424MPD2     N 6500   2.353   1.175  13.687
  424MPD2    H5 6501   2.376   1.239  13.762
  424MPD2    N1 6502   2.440   0.735  13.507
  424MPD2    H7 6503   2.368   0.772  13.446
  425MPD2     C 6504   4.338   2.040   8.753
  425MPD2    C1 6505   4.276   1.976   8.644
  425MPD2    C2 6506   4.153   1.923   8.646
  425MPD2    C3 6507   4.087   1.921   8.766
  425MPD2    C4 6508   4.144   1.983   8.880
  425MPD2    C5 6509   4.267   2.044   8.868
  425MPD2     H 6510   4.105   1.893   8.554
  425MPD2    H1 6511   4.099   1.998   8.977
  425MPD2    H2 6512   4.439   2.080   8.752
  425MPD2    H3 6513   4.312   2.082   8.959
  425MPD2     N 6514   3.964   1.848   8.784
  425MPD2    H5 6515   3.935   1.798   8.700
  425MPD2    N1 6516   4.339   1.976   8.521
  425MPD2    H7 6517   4.286   1.987   8.434
  426MPD2     C 6518   2.564   4.098   7.989
  426MPD2    C1 6519   2.513   4.210   8.058
  426MPD2    C2 6520   2.416   4.278   7.994
  426MPD2    C3 6521   2.390   4.263   7.856
  426MPD2    C4 6522   2.463   4.166   7.790
  426MPD2    C5 6523   2.533   4.073   7.856
  426MPD2     H 6524   2.366   4.360   8.044
  426MPD2    H1 6525   2.444   4.150   7.684
  426MPD2    H2 6526   2.644   4.039   8.032
  426MPD2    H3 6527   2.580   3.995   7.797
  426MPD2     N 6528   2.317   4.358   7.775
  426MPD2    H5 6529   2.335   4.348   7.675
  426MPD2    N1 6530   2.551   4.249   8.190
  426MPD2    H7 6531   2.494   4.321   8.233
  427MPD2     C 6532   2.347   0.401   7.802
  427MPD2    C1 6533   2.248   0.321   7.853
  427MPD2    C2 6534   2.209   0.332   7.986
  427MPD2    C3 6535   2.281   0.411   8.074
  427MPD2    C4 6536   2.384   0.495   8.028
  427MPD2    C5 6537   2.409   0.490   7.886
  427MPD2     H 6538   2.128   0.272   8.025
  427MPD2    H1 6539   2.440   0.566   8.088
  427MPD2    H2 6540   2.386   0.399   7.701
  427MPD2    H3 6541   2.486   0.553   7.842
  427MPD2     N 6542   2.237   0.409   8.208
  427MPD2    H5 6543   2.139   0.385   8.217
  427MPD2    N1 6544   2.197   0.222   7.761
  427MPD2    H7 6545   2.248   0.196   7.677
  428MPD2     C 6546   2.191   4.550   7.113
  428MPD2    C1 6547   2.267   4.496   7.214
  428MPD2    C2 6548   2.335   4.377   7.192
  428MPD2    C3 6549   2.332   4.310   7.068
  428MPD2    C4 6550   2.257   4.372   6.968
  428MPD2    C5 6551   2.185   4.484   6.994
  428MPD2     H 6552   2.406   4.342   7.265
  428MPD2    H1 6553   2.265   4.334   6.867
  428MPD2    H2 6554   2.126   4.636   7.117
  428MPD2    H3 6555   2.138   4.537   6.912
  428MPD2     N 6556   2.400   4.183   7.034
  428MPD2    H5 6557   2.415   4.161   6.936
  428MPD2    N1 6558   2.281   4.550   7.340
  428MPD2    H7 6559   2.333   4.502   7.413
  429MPD2     C 6560   4.078   0.473  11.457
  429MPD2    C1 6561   4.028   0.387  11.551
  429MPD2    C2 6562   4.129   0.345  11.643
  429MPD2    C3 6563   4.262   0.381  11.635
  429MPD2    C4 6564   4.307   0.468  11.533
  429MPD2    C5 6565   4.215   0.504  11.452
  429MPD2     H 6566   4.087   0.293  11.728
  429MPD2    H1 6567   4.407   0.509  11.522
  429MPD2    H2 6568   4.020   0.515  11.376
  429MPD2    H3 6569   4.244   0.556  11.361
  429MPD2     N 6570   4.344   0.358  11.754
  429MPD2    H5 6571   4.294   0.330  11.838
  429MPD2    N1 6572   3.893   0.365  11.560
  429MPD2    H7 6573   3.830   0.429  11.514
  430MPD2     C 6574   3.400   0.414  12.386
  430MPD2    C1 6575   3.407   0.510  12.287
  430MPD2    C2 6576   3.434   0.467  12.162
  430MPD2    C3 6577   3.456   0.334  12.135
  430MPD2    C4 6578   3.460   0.239  12.231
  430MPD2    C5 6579   3.433   0.283  12.354
  430MPD2     H 6580   3.439   0.532  12.075
  430MPD2    H1 6581   3.487   0.134  12.223
  430MPD2    H2 6582   3.373   0.443  12.487
  430MPD2    H3 6583   3.439   0.211  12.435
  430MPD2     N 6584   3.490   0.312  11.997
  430MPD2    H5 6585   3.492   0.387  11.928
  430MPD2    N1 6586   3.384   0.644  12.327
  430MPD2    H7 6587   3.366   0.665  12.425
  431MPD2     C 6588   4.164   3.313   9.011
  431MPD2    C1 6589   4.131   3.218   9.099
  431MPD2    C2 6590   3.996   3.207   9.137
  431MPD2    C3 6591   3.900   3.301   9.090
  431MPD2    C4 6592   3.940   3.394   8.999
  431MPD2    C5 6593   4.076   3.407   8.964
  431MPD2     H 6594   3.967   3.132   9.210
  431MPD2    H1 6595   3.866   3.462   8.959
  431MPD2    H2 6596   4.267   3.324   8.978
  431MPD2    H3 6597   4.106   3.497   8.911
  431MPD2     N 6598   3.774   3.286   9.152
  431MPD2    H5 6599   3.749   3.213   9.218
  431MPD2    N1 6600   4.226   3.133   9.152
  431MPD2    H7 6601   4.323   3.149   9.128
  432MPD2     C 6602   0.967   2.551  12.150
  432MPD2    C1 6603   1.086   2.620  12.156
  432MPD2    C2 6604   1.139   2.633  12.283
  432MPD2    C3 6605   1.074   2.587  12.399
  432MPD2    C4 6606   0.952   2.524  12.383
  432MPD2    C5 6607   0.900   2.502  12.261
  432MPD2     H 6608   1.236   2.680  12.296
  432MPD2    H1 6609   0.903   2.497  12.476
  432MPD2    H2 6610   0.924   2.536  12.051
  432MPD2    H3 6611   0.799   2.464  12.253
  432MPD2     N 6612   1.127   2.597  12.530
  432MPD2    H5 6613   1.085   2.547  12.607
  432MPD2    N1 6614   1.157   2.650  12.031
  432MPD2    H7 6615   1.124   2.598  11.950
  433MPD2     C 6616   0.735   3.180  12.275
  433MPD2    C1 6617   0.840   3.188  12.368
  433MPD2    C2 6618   0.804   3.244  12.492
  433MPD2    C3 6619   0.668   3.271  12.529
  433MPD2    C4 6620   0.573   3.264  12.429
  433MPD2    C5 6621   0.612   3.231  12.301
  433MPD2     H 6622   0.887   3.247  12.562
  433MPD2    H1 6623   0.469   3.293  12.442
  433MPD2    H2 6624   0.744   3.134  12.177
  433MPD2    H3 6625   0.533   3.232  12.227
  433MPD2     N 6626   0.629   3.324  12.652
  433MPD2    H5 6627   0.531   3.348  12.663
  433MPD2    N1 6628   0.967   3.145  12.339
  433MPD2    H7 6629   1.027   3.144  12.421
  434MPD2     C 6630   3.499   3.771  11.544
  434MPD2    C1 6631   3.579   3.860  11.613
  434MPD2    C2 6632   3.692   3.810  11.685
  434MPD2    C3 6633   3.720   3.677  11.681
  434MPD2    C4 6634   3.641   3.591  11.616
  434MPD2    C5 6635   3.534   3.638  11.542
  434MPD2     H 6636   3.752   3.892  11.722
  434MPD2    H1 6637   3.661   3.485  11.629
  434MPD2    H2 6638   3.412   3.805  11.488
  434MPD2    H3 6639   3.473   3.564  11.490
  434MPD2     N 6640   3.831   3.621  11.756
  434MPD2    H5 6641   3.872   3.536  11.720
  434MPD2    N1 6642   3.569   3.997  11.604
  434MPD2    H7 6643   3.639   4.049  11.656
  435MPD2     C 6644   1.297   0.013  12.732
  435MPD2    C1 6645   1.391   4.762  12.645
  435MPD2    C2 6646   1.493   0.062  12.607
  435MPD2    C3 6647   1.502   0.187  12.668
  435MPD2    C4 6648   1.409   0.227  12.764
  435MPD2    C5 6649   1.303   0.142  12.790
  435MPD2     H 6650   1.566   0.035  12.532
  435MPD2    H1 6651   1.423   0.316  12.824
  435MPD2    H2 6652   1.213   4.743  12.768
  435MPD2    H3 6653   1.233   0.171  12.869
  435MPD2     N 6654   1.614   0.287  12.640
  435MPD2    H5 6655   1.593   0.378  12.678
  435MPD2    N1 6656   1.395   4.629  12.612
  435MPD2    H7 6657   1.331   4.570  12.664
  436MPD2     C 6658   1.807   4.367  12.896
  436MPD2    C1 6659   1.900   4.376  12.797
  436MPD2    C2 6660   1.965   4.258  12.757
  436MPD2    C3 6661   1.948   4.135  12.824
  436MPD2    C4 6662   1.846   4.132  12.922
  436MPD2    C5 6663   1.782   4.248  12.960
  436MPD2     H 6664   2.021   4.253  12.665
  436MPD2    H1 6665   1.828   4.046  12.986
  436MPD2    H2 6666   1.741   4.450  12.915
  436MPD2    H3 6667   1.702   4.249  13.032
  436MPD2     N 6668   2.011   4.011  12.793
  436MPD2    H5 6669   1.978   3.935  12.852
  436MPD2    N1 6670   1.911   4.485  12.717
  436MPD2    H7 6671   1.953   4.466  12.627
  437MPD2     C 6672   1.973   4.670  11.801
  437MPD2    C1 6673   2.012   4.590  11.908
  437MPD2    C2 6674   1.994   4.638  12.036
  437MPD2    C3 6675   1.938   4.757  12.069
  437MPD2    C4 6676   1.895   0.052  11.962
  437MPD2    C5 6677   1.913   0.005  11.832
  437MPD2     H 6678   2.027   4.571  12.115
  437MPD2    H1 6679   1.838   0.143  11.977
  437MPD2    H2 6680   1.993   4.656  11.695
  437MPD2    H3 6681   1.896   0.070  11.746
  437MPD2     N 6682   1.927   0.009  12.204
  437MPD2    H5 6683   1.880   0.098  12.215
  437MPD2    N1 6684   2.070   4.460  11.883
  437MPD2    H7 6685   2.111   4.445  11.792
  438MPD2     C 6686   3.453   2.694  12.528
  438MPD2    C1 6687   3.474   2.799  12.613
  438MPD2    C2 6688   3.368   2.874  12.654
  438MPD2    C3 6689   3.238   2.836  12.616
  438MPD2    C4 6690   3.222   2.721  12.543
  438MPD2    C5 6691   3.332   2.653  12.496
  438MPD2     H 6692   3.388   2.966  12.707
  438MPD2    H1 6693   3.128   2.685  12.501
  438MPD2    H2 6694   3.542   2.650  12.485
  438MPD2    H3 6695   3.312   2.565  12.436
  438MPD2     N 6696   3.123   2.908  12.643
  438MPD2    H5 6697   3.038   2.861  12.615
  438MPD2    N1 6698   3.606   2.851  12.628
  438MPD2    H7 6699   3.608   2.940  12.677
  439MPD2     C 6700   1.976   4.324   8.381
  439MPD2    C1 6701   1.942   4.414   8.282
  439MPD2    C2 6702   2.050   4.492   8.228
  439MPD2    C3 6703   2.181   4.482   8.264
  439MPD2    C4 6704   2.205   4.394   8.369
  439MPD2    C5 6705   2.108   4.319   8.424
  439MPD2     H 6706   2.020   4.561   8.149
  439MPD2    H1 6707   2.305   4.394   8.410
  439MPD2    H2 6708   1.907   4.253   8.424
  439MPD2    H3 6709   2.139   4.260   8.509
  439MPD2     N 6710   2.275   4.560   8.201
  439MPD2    H5 6711   2.240   4.613   8.122
  439MPD2    N1 6712   1.810   4.439   8.232
  439MPD2    H7 6713   1.804   4.496   8.148
  440MPD2     C 6714   3.006   0.573   8.277
  440MPD2    C1 6715   3.027   0.441   8.304
  440MPD2    C2 6716   2.910   0.359   8.314
  440MPD2    C3 6717   2.788   0.407   8.279
  440MPD2    C4 6718   2.765   0.540   8.253
  440MPD2    C5 6719   2.874   0.620   8.246
  440MPD2     H 6720   2.918   0.253   8.335
  440MPD2    H1 6721   2.673   0.585   8.218
  440MPD2    H2 6722   3.088   0.644   8.284
  440MPD2    H3 6723   2.871   0.728   8.239
  440MPD2     N 6724   2.673   0.326   8.259
  440MPD2    H5 6725   2.590   0.375   8.229
  440MPD2    N1 6726   3.159   0.402   8.336
  440MPD2    H7 6727   3.229   0.475   8.328
  441MPD2     C 6728   2.813   0.198   7.682
  441MPD2    C1 6729   2.681   0.161   7.702
  441MPD2    C2 6730   2.584   0.200   7.605
  441MPD2    C3 6731   2.625   0.276   7.494
  441MPD2    C4 6732   2.755   0.309   7.477
  441MPD2    C5 6733   2.850   0.260   7.568
  441MPD2     H 6734   2.478   0.186   7.624
  441MPD2    H1 6735   2.794   0.357   7.388
  441MPD2    H2 6736   2.878   0.154   7.756
  441MPD2    H3 6737   2.955   0.284   7.558
  441MPD2     N 6738   2.526   0.327   7.399
  441MPD2    H5 6739   2.431   0.294   7.409
  441MPD2    N1 6740   2.647   0.109   7.831
  441MPD2    H7 6741   2.711   0.116   7.909
  442MPD2     C 6742   0.369   4.413  12.996
  442MPD2    C1 6743   0.353   4.315  13.091
  442MPD2    C2 6744   0.250   4.333  13.181
  442MPD2    C3 6745   0.175   4.448  13.187
  442MPD2    C4 6746   0.196   4.541  13.088
  442MPD2    C5 6747   0.286   4.522  12.993
  442MPD2     H 6748   0.227   4.261  13.259
  442MPD2    H1 6749   0.139   4.633  13.088
  442MPD2    H2 6750   0.442   4.418  12.917
  442MPD2    H3 6751   0.285   4.592  12.910
  442MPD2     N 6752   0.085   4.482  13.296
  442MPD2    H5 6753   0.028   4.565  13.284
  442MPD2    N1 6754   0.443   4.210  13.090
  442MPD2    H7 6755   0.517   4.215  13.020
  443MPD2     C 6756   1.393   3.421  10.542
  443MPD2    C1 6757   1.511   3.354  10.507
  443MPD2    C2 6758   1.543   3.243  10.581
  443MPD2    C3 6759   1.453   3.175  10.655
  443MPD2    C4 6760   1.334   3.239  10.679
  443MPD2    C5 6761   1.311   3.364  10.634
  443MPD2     H 6762   1.641   3.197  10.580
  443MPD2    H1 6763   1.252   3.192  10.733
  443MPD2    H2 6764   1.351   3.510  10.498
  443MPD2    H3 6765   1.212   3.405  10.651
  443MPD2     N 6766   1.478   3.054  10.724
  443MPD2    H5 6767   1.409   3.028  10.793
  443MPD2    N1 6768   1.605   3.412  10.413
  443MPD2    H7 6769   1.590   3.508  10.384
  444MPD2     C 6770   2.187   3.196  10.708
  444MPD2    C1 6771   2.091   3.171  10.615
  444MPD2    C2 6772   2.018   3.051  10.625
  444MPD2    C3 6773   2.031   2.968  10.733
  444MPD2    C4 6774   2.129   2.999  10.826
  444MPD2    C5 6775   2.203   3.107  10.818
  444MPD2     H 6776   1.933   3.024  10.563
  444MPD2    H1 6777   2.146   2.941  10.916
  444MPD2    H2 6778   2.236   3.292  10.718
  444MPD2    H3 6779   2.278   3.131  10.892
  444MPD2     N 6780   1.937   2.867  10.757
  444MPD2    H5 6781   1.851   2.882  10.704
  444MPD2    N1 6782   2.045   3.270  10.528
  444MPD2    H7 6783   1.961   3.245  10.478
  445MPD2     C 6784   2.468   3.108   9.914
  445MPD2    C1 6785   2.499   3.244   9.924
  445MPD2    C2 6786   2.400   3.335   9.943
  445MPD2    C3 6787   2.275   3.297   9.972
  445MPD2    C4 6788   2.244   3.160   9.977
  445MPD2    C5 6789   2.337   3.066   9.945
  445MPD2     H 6790   2.417   3.442   9.939
  445MPD2    H1 6791   2.152   3.116  10.014
  445MPD2    H2 6792   2.543   3.038   9.880
  445MPD2    H3 6793   2.314   2.962   9.927
  445MPD2     N 6794   2.188   3.394  10.024
  445MPD2    H5 6795   2.227   3.482  10.054
  445MPD2    N1 6796   2.635   3.279   9.907
  445MPD2    H7 6797   2.702   3.203   9.914
  446MPD2     C 6798   3.650   1.391  14.575
  446MPD2    C1 6799   3.519   1.401  14.593
  446MPD2    C2 6800   3.446   1.486  14.516
  446MPD2    C3 6801   3.499   1.543  14.404
  446MPD2    C4 6802   3.633   1.527  14.379
  446MPD2    C5 6803   3.701   1.458  14.470
  446MPD2     H 6804   3.339   1.500  14.529
  446MPD2    H1 6805   3.679   1.553  14.284
  446MPD2    H2 6806   3.720   1.331  14.632
  446MPD2    H3 6807   3.805   1.434  14.454
  446MPD2     N 6808   3.430   1.632  14.316
  446MPD2    H5 6809   3.480   1.679  14.242
  446MPD2    N1 6810   3.475   1.346  14.714
  446MPD2    H7 6811   3.543   1.306  14.778
  447MPD2     C 6812   3.221   1.983  14.685
  447MPD2    C1 6813   3.149   1.960  14.804
  447MPD2    C2 6814   3.192   1.856  14.885
  447MPD2    C3 6815   3.303   1.776  14.846
  447MPD2    C4 6816   3.362   1.793  14.722
  447MPD2    C5 6817   3.321   1.893  14.644
  447MPD2     H 6818   3.129   1.836  14.970
  447MPD2    H1 6819   3.434   1.724  14.681
  447MPD2    H2 6820   3.206   2.063  14.613
  447MPD2    H3 6821   3.384   1.907  14.558
  447MPD2     N 6822   3.349   1.671  14.934
  447MPD2    H5 6823   3.414   1.613  14.883
  447MPD2    N1 6824   3.037   2.032  14.845
  447MPD2    H7 6825   2.990   2.003  14.930
  448MPD2     C 6826   2.523   1.479  15.194
  448MPD2    C1 6827   2.570   1.480  15.065
  448MPD2    C2 6828   2.693   1.416  15.043
  448MPD2    C3 6829   2.776   1.370  15.146
  448MPD2    C4 6830   2.723   1.367  15.272
  448MPD2    C5 6831   2.597   1.420  15.294
  448MPD2     H 6832   2.744   1.416  14.948
  448MPD2    H1 6833   2.781   1.341  15.360
  448MPD2    H2 6834   2.434   1.536  15.218
  448MPD2    H3 6835   2.555   1.421  15.394
  448MPD2     N 6836   2.906   1.321  15.127
  448MPD2    H5 6837   2.959   1.292  15.209
  448MPD2    N1 6838   2.497   1.545  14.967
  448MPD2    H7 6839   2.405   1.574  14.999
  449MPD2     C 6840   0.397   4.429   8.513
  449MPD2    C1 6841   0.378   4.312   8.443
  449MPD2    C2 6842   0.356   4.194   8.511
  449MPD2    C3 6843   0.350   4.199   8.649
  449MPD2    C4 6844   0.388   4.314   8.717
  449MPD2    C5 6845   0.413   4.429   8.650
  449MPD2     H 6846   0.336   4.099   8.463
  449MPD2    H1 6847   0.382   4.321   8.825
  449MPD2    H2 6848   0.414   4.521   8.458
  449MPD2    H3 6849   0.419   4.527   8.698
  449MPD2     N 6850   0.311   4.092   8.731
  449MPD2    H5 6851   0.298   4.108   8.830
  449MPD2    N1 6852   0.366   4.307   8.307
  449MPD2    H7 6853   0.326   4.220   8.273
  450MPD2     C 6854   0.525   3.905   9.281
  450MPD2    C1 6855   0.419   3.859   9.206
  450MPD2    C2 6856   0.436   3.746   9.124
  450MPD2    C3 6857   0.561   3.704   9.106
  450MPD2    C4 6858   0.664   3.762   9.175
  450MPD2    C5 6859   0.645   3.859   9.269
  450MPD2     H 6860   0.355   3.699   9.068
  450MPD2    H1 6861   0.763   3.720   9.168
  450MPD2    H2 6862   0.504   3.988   9.347
  450MPD2    H3 6863   0.729   3.889   9.331
  450MPD2     N 6864   0.589   3.608   9.002
  450MPD2    H5 6865   0.519   3.585   8.932
  450MPD2    N1 6866   0.295   3.919   9.236
  450MPD2    H7 6867   0.286   3.972   9.322
  451MPD2     C 6868   3.333   3.235  12.401
  451MPD2    C1 6869   3.205   3.270  12.446
  451MPD2    C2 6870   3.190   3.340  12.555
  451MPD2    C3 6871   3.298   3.378  12.630
  451MPD2    C4 6872   3.422   3.320  12.602
  451MPD2    C5 6873   3.443   3.255  12.485
  451MPD2     H 6874   3.087   3.363  12.577
  451MPD2    H1 6875   3.510   3.326  12.666
  451MPD2    H2 6876   3.363   3.191  12.306
  451MPD2    H3 6877   3.543   3.221  12.460
  451MPD2     N 6878   3.292   3.452  12.746
  451MPD2    H5 6879   3.368   3.429  12.809
  451MPD2    N1 6880   3.088   3.261  12.370
  451MPD2    H7 6881   3.002   3.299  12.409
  452MPD2     C 6882   4.744   3.044   8.922
  452MPD2    C1 6883   4.762   2.952   9.017
  452MPD2    C2 6884   0.096   2.884   9.009
  452MPD2    C3 6885   0.182   2.908   8.904
  452MPD2    C4 6886   0.151   2.992   8.805
  452MPD2    C5 6887   0.032   3.055   8.811
  452MPD2     H 6888   0.123   2.817   9.090
  452MPD2    H1 6889   0.222   3.016   8.727
  452MPD2    H2 6890   4.658   3.110   8.915
  452MPD2    H3 6891   4.786   3.125   8.735
  452MPD2     N 6892   0.314   2.864   8.902
  452MPD2    H5 6893   0.377   2.915   8.841
  452MPD2    N1 6894   4.662   2.936   9.121
  452MPD2    H7 6895   4.594   3.011   9.126
  453MPD2     C 6896   2.260   1.036   7.487
  453MPD2    C1 6897   2.201   0.976   7.383
  453MPD2    C2 6898   2.111   1.050   7.305
  453MPD2    C3 6899   2.082   1.187   7.331
  453MPD2    C4 6900   2.143   1.237   7.439
  453MPD2    C5 6901   2.230   1.164   7.520
  453MPD2     H 6902   2.047   1.009   7.227
  453MPD2    H1 6903   2.125   1.342   7.461
  453MPD2    H2 6904   2.336   0.992   7.551
  453MPD2    H3 6905   2.277   1.215   7.603
  453MPD2     N 6906   1.995   1.270   7.256
  453MPD2    H5 6907   1.951   1.347   7.305
  453MPD2    N1 6908   2.247   0.846   7.334
  453MPD2    H7 6909   2.323   0.801   7.384
  454MPD2     C 6910   2.586   4.779  15.391
  454MPD2    C1 6911   2.614   4.733  15.263
  454MPD2    C2 6912   2.556   4.612  15.217
  454MPD2    C3 6913   2.464   4.541  15.301
  454MPD2    C4 6914   2.442   4.595  15.427
  454MPD2    C5 6915   2.503   4.707  15.478
  454MPD2     H 6916   2.582   4.572  15.120
  454MPD2    H1 6917   2.381   4.536  15.495
  454MPD2    H2 6918   2.631   0.087  15.422
  454MPD2    H3 6919   2.471   4.753  15.571
  454MPD2     N 6920   2.393   4.425  15.258
  454MPD2    H5 6921   2.307   4.410  15.311
  454MPD2    N1 6922   2.693   0.033  15.183
  454MPD2    H7 6923   2.735   0.114  15.227
  455MPD2     C 6924   3.329   0.334  15.260
  455MPD2    C1 6925   3.190   0.361  15.242
  455MPD2    C2 6926   3.131   0.470  15.305
  455MPD2    C3 6927   3.216   0.558  15.372
  455MPD2    C4 6928   3.358   0.535  15.380
  455MPD2    C5 6929   3.407   0.421  15.326
  455MPD2     H 6930   3.031   0.493  15.269
  455MPD2    H1 6931   3.430   0.608  15.414
  455MPD2    H2 6932   3.383   0.257  15.207
  455MPD2    H3 6933   3.514   0.407  15.333
  455MPD2     N 6934   3.175   0.681  15.420
  455MPD2    H5 6935   3.245   0.749  15.449
  455MPD2    N1 6936   3.104   0.291  15.151
  455MPD2    H7 6937   3.011   0.330  15.138
  456MPD2     C 6938   3.137   0.181  14.365
  456MPD2    C1 6939   3.018   0.208  14.432
  456MPD2    C2 6940   2.918   0.258  14.353
  456MPD2    C3 6941   2.940   0.307  14.224
  456MPD2    C4 6942   3.050   0.267  14.149
  456MPD2    C5 6943   3.146   0.204  14.228
  456MPD2     H 6944   2.817   0.270  14.390
  456MPD2    H1 6945   3.060   0.273  14.041
  456MPD2    H2 6946   3.227   0.145  14.414
  456MPD2    H3 6947   3.244   0.179  14.187
  456MPD2     N 6948   2.832   0.369  14.162
  456MPD2    H5 6949   2.751   0.385  14.222
  456MPD2    N1 6950   3.002   0.173  14.567
  456MPD2    H7 6951   3.083   0.126  14.608
  457MPD2     C 6952   4.500   4.250  12.512
  457MPD2    C1 6953   4.505   4.193  12.638
  457MPD2    C2 6954   4.605   4.106  12.669
  457MPD2    C3 6955   4.692   4.062  12.567
  457MPD2    C4 6956   4.683   4.112  12.437
  457MPD2    C5 6957   4.585   4.210  12.415
  457MPD2     H 6958   4.616   4.056  12.764
  457MPD2    H1 6959   4.748   4.074  12.359
  457MPD2    H2 6960   4.417   4.314  12.485
  457MPD2    H3 6961   4.555   4.241  12.316
  457MPD2     N 6962   0.013   3.974  12.614
  457MPD2    H5 6963   0.016   3.953  12.714
  457MPD2    N1 6964   4.417   4.251  12.733
  457MPD2    H7 6965   4.375   4.341  12.714
  458MPD2     C 6966   0.189   3.509  13.439
  458MPD2    C1 6967   0.102   3.451  13.353
  458MPD2    C2 6968   0.098   3.487  13.217
  458MPD2    C3 6969   0.191   3.577  13.164
  458MPD2    C4 6970   0.281   3.634  13.256
  458MPD2    C5 6971   0.276   3.604  13.390
  458MPD2     H 6972   0.024   3.437  13.155
  458MPD2    H1 6973   0.355   3.709  13.230
  458MPD2    H2 6974   0.183   3.487  13.545
  458MPD2    H3 6975   0.350   3.655  13.450
  458MPD2     N 6976   0.178   3.595  13.021
  458MPD2    H5 6977   0.126   3.525  12.968
  458MPD2    N1 6978   0.004   3.360  13.399
  458MPD2    H7 6979   4.721   3.342  13.328
  459MPD2     C 6980   4.777   3.469  12.265
  459MPD2    C1 6981   0.047   3.447  12.389
  459MPD2    C2 6982   4.742   3.433  12.493
  459MPD2    C3 6983   4.607   3.434  12.467
  459MPD2    C4 6984   4.555   3.448  12.339
  459MPD2    C5 6985   4.643   3.479  12.241
  459MPD2     H 6986   4.778   3.429  12.595
  459MPD2    H1 6987   4.451   3.436  12.314
  459MPD2    H2 6988   0.051   3.483  12.176
  459MPD2    H3 6989   4.600   3.508  12.145
  459MPD2     N 6990   4.510   3.426  12.568
  459MPD2    H5 6991   4.412   3.432  12.541
  459MPD2    N1 6992   0.185   3.433  12.413
  459MPD2    H7 6993   0.242   3.397  12.337
  460MPD2     C 6994   1.235   2.417   9.959
  460MPD2    C1 6995   1.238   2.337  10.067
  460MPD2    C2 6996   1.124   2.264  10.104
  460MPD2    C3 6997   1.004   2.295  10.038
  460MPD2    C4 6998   0.999   2.381   9.939
  460MPD2    C5 6999   1.110   2.438   9.897
  460MPD2     H 7000   1.130   2.198  10.190
  460MPD2    H1 7001   0.909   2.410   9.884
  460MPD2    H2 7002   1.320   2.475   9.926
  460MPD2    H3 7003   1.101   2.511   9.818
  460MPD2     N 7004   0.874   2.237  10.059
  460MPD2    H5 7005   0.793   2.270  10.008
  460MPD2    N1 7006   1.354   2.344  10.152
  460MPD2    H7 7007   1.357   2.281  10.232
  461MPD2     C 7008   0.366   1.732  10.532
  461MPD2    C1 7009   0.297   1.843  10.500
  461MPD2    C2 7010   0.164   1.854  10.548
  461MPD2    C3 7011   0.115   1.753  10.622
  461MPD2    C4 7012   0.180   1.638  10.653
  461MPD2    C5 7013   0.306   1.628  10.596
  461MPD2     H 7014   0.117   1.951  10.536
  461MPD2    H1 7015   0.140   1.555  10.708
  461MPD2    H2 7016   0.472   1.713  10.519
  461MPD2    H3 7017   0.371   1.546  10.625
  461MPD2     N 7018   4.778   1.769  10.688
  461MPD2    H5 7019   4.774   1.718  10.775
  461MPD2    N1 7020   0.358   1.957  10.435
  461MPD2    H7 7021   0.305   2.040  10.409
  462MPD2     C 7022   4.447   0.890   9.093
  462MPD2    C1 7023   4.566   0.941   9.048
  462MPD2    C2 7024   4.597   0.970   8.912
  462MPD2    C3 7025   4.496   0.960   8.816
  462MPD2    C4 7026   4.374   0.932   8.865
  462MPD2    C5 7027   4.352   0.891   8.993
  462MPD2     H 7028   4.698   0.999   8.888
  462MPD2    H1 7029   4.289   0.927   8.798
  462MPD2    H2 7030   4.423   0.859   9.194
  462MPD2    H3 7031   4.254   0.857   9.025
  462MPD2     N 7032   4.521   0.980   8.676
  462MPD2    H5 7033   4.619   0.985   8.647
  462MPD2    N1 7034   4.654   0.948   9.158
  462MPD2    H7 7035   4.624   0.913   9.249
  463MPD2     C 7036   1.336   1.003  15.047
  463MPD2    C1 7037   1.260   0.924  14.967
  463MPD2    C2 7038   1.122   0.917  15.001
  463MPD2    C3 7039   1.074   0.970  15.118
  463MPD2    C4 7040   1.156   1.054  15.193
  463MPD2    C5 7041   1.284   1.069  15.156
  463MPD2     H 7042   1.053   0.875  14.930
  463MPD2    H1 7043   1.121   1.115  15.276
  463MPD2    H2 7044   1.444   1.002  15.038
  463MPD2    H3 7045   1.346   1.122  15.227
  463MPD2     N 7046   0.928   0.956  15.141
  463MPD2    H5 7047   0.879   0.910  15.065
  463MPD2    N1 7048   1.301   0.854  14.852
  463MPD2    H7 7049   1.231   0.790  14.814
  464MPD2     C 7050   1.986   1.320  14.301
  464MPD2    C1 7051   1.855   1.348  14.324
  464MPD2    C2 7052   1.764   1.245  14.350
  464MPD2    C3 7053   1.808   1.115  14.357
  464MPD2    C4 7054   1.945   1.085  14.345
  464MPD2    C5 7055   2.030   1.186  14.309
  464MPD2     H 7056   1.663   1.271  14.378
  464MPD2    H1 7057   1.982   0.984  14.350
  464MPD2    H2 7058   2.064   1.393  14.286
  464MPD2    H3 7059   2.131   1.170  14.274
  464MPD2     N 7060   1.717   1.004  14.377
  464MPD2    H5 7061   1.754   0.910  14.387
  464MPD2    N1 7062   1.824   1.487  14.337
  464MPD2    H7 7063   1.897   1.558  14.344
  465MPD2     C 7064   1.455   1.577  12.494
  465MPD2    C1 7065   1.543   1.492  12.557
  465MPD2    C2 7066   1.671   1.543  12.577
  465MPD2    C3 7067   1.705   1.677  12.543
  465MPD2    C4 7068   1.617   1.755  12.475
  465MPD2    C5 7069   1.496   1.705  12.455
  465MPD2     H 7070   1.750   1.487  12.627
  465MPD2    H1 7071   1.638   1.856  12.439
  465MPD2    H2 7072   1.358   1.540  12.462
  465MPD2    H3 7073   1.429   1.768  12.398
  465MPD2     N 7074   1.833   1.720  12.580
  465MPD2    H5 7075   1.898   1.651  12.617
  465MPD2    N1 7076   1.490   1.377  12.609
  465MPD2    H7 7077   1.390   1.371  12.592
  466MPD2     C 7078   3.111   0.393  10.806
  466MPD2    C1 7079   3.062   0.409  10.934
  466MPD2    C2 7080   3.142   0.381  11.041
  466MPD2    C3 7081   3.270   0.337  11.023
  466MPD2    C4 7082   3.318   0.316  10.900
  466MPD2    C5 7083   3.234   0.341  10.791
  466MPD2     H 7084   3.103   0.394  11.141
  466MPD2    H1 7085   3.420   0.287  10.879
  466MPD2    H2 7086   3.057   0.419  10.716
  466MPD2    H3 7087   3.270   0.333  10.689
  466MPD2     N 7088   3.369   0.308  11.116
  466MPD2    H5 7089   3.445   0.251  11.080
  466MPD2    N1 7090   2.924   0.450  10.953
  466MPD2    H7 7091   2.888   0.436  11.047
  467MPD2     C 7092   2.402   4.485  10.613
  467MPD2    C1 7093   2.511   4.562  10.573
  467MPD2    C2 7094   2.547   4.669  10.642
  467MPD2    C3 7095   2.470   4.720  10.743
  467MPD2    C4 7096   2.365   4.644  10.782
  467MPD2    C5 7097   2.328   4.530  10.718
  467MPD2     H 7098   2.629   4.721  10.593
  467MPD2    H1 7099   2.295   4.675  10.858
  467MPD2    H2 7100   2.374   4.389  10.570
  467MPD2    H3 7101   2.238   4.475  10.743
  467MPD2     N 7102   2.489   0.057  10.807
  467MPD2    H5 7103   2.421   0.074  10.881
  467MPD2    N1 7104   2.582   4.519  10.462
  467MPD2    H7 7105   2.679   4.549  10.461
  468MPD2     C 7106   2.140   4.652   8.822
  468MPD2    C1 7107   2.241   4.716   8.753
  468MPD2    C2 7108   2.343   4.637   8.690
  468MPD2    C3 7109   2.346   4.501   8.705
  468MPD2    C4 7110   2.248   4.439   8.780
  468MPD2    C5 7111   2.144   4.515   8.834
  468MPD2     H 7112   2.425   4.682   8.635
  468MPD2    H1 7113   2.247   4.331   8.791
  468MPD2    H2 7114   2.050   4.696   8.864
  468MPD2    H3 7115   2.057   4.464   8.874
  468MPD2     N 7116   2.459   4.440   8.647
  468MPD2    H5 7117   2.497   4.468   8.557
  468MPD2    N1 7118   2.229   0.070   8.735
  468MPD2    H7 7119   2.155   0.123   8.779
  469MPD2     C 7120   3.151   4.555   8.403
  469MPD2    C1 7121   3.120   4.473   8.506
  469MPD2    C2 7122   3.209   4.462   8.612
  469MPD2    C3 7123   3.337   4.522   8.603
  469MPD2    C4 7124   3.372   4.602   8.499
  469MPD2    C5 7125   3.276   4.615   8.399
  469MPD2     H 7126   3.199   4.395   8.697
  469MPD2    H1 7127   3.470   4.646   8.482
  469MPD2    H2 7128   3.087   4.583   8.320
  469MPD2    H3 7129   3.300   4.673   8.311
  469MPD2     N 7130   3.424   4.486   8.704
  469MPD2    H5 7131   3.379   4.429   8.775
  469MPD2    N1 7132   2.993   4.403   8.510
  469MPD2    H7 7133   2.918   4.432   8.447
  470MPD2     C 7134   1.435   1.219  12.292
  470MPD2    C1 7135   1.562   1.256  12.245
  470MPD2    C2 7136   1.664   1.159  12.258
  470MPD2    C3 7137   1.632   1.033  12.308
  470MPD2    C4 7138   1.499   1.007  12.345
  470MPD2    C5 7139   1.403   1.096  12.345
  470MPD2     H 7140   1.767   1.181  12.231
  470MPD2    H1 7141   1.467   0.914  12.391
  470MPD2    H2 7142   1.367   1.303  12.284
  470MPD2    H3 7143   1.302   1.076  12.378
  470MPD2     N 7144   1.740   0.934  12.308
  470MPD2    H5 7145   1.832   0.967  12.281
  470MPD2    N1 7146   1.584   1.393  12.202
  470MPD2    H7 7147   1.502   1.446  12.172
  471MPD2     C 7148   1.197   1.832  11.850
  471MPD2    C1 7149   1.315   1.910  11.840
  471MPD2    C2 7150   1.318   1.996  11.729
  471MPD2    C3 7151   1.226   1.988  11.626
  471MPD2    C4 7152   1.118   1.902  11.632
  471MPD2    C5 7153   1.104   1.827  11.746
  471MPD2     H 7154   1.403   2.063  11.721
  471MPD2    H1 7155   1.041   1.902  11.556
  471MPD2    H2 7156   1.173   1.776  11.939
  471MPD2    H3 7157   1.014   1.767  11.749
  471MPD2     N 7158   1.242   2.040  11.497
  471MPD2    H5 7159   1.175   2.003  11.431
  471MPD2    N1 7160   1.415   1.918  11.939
  471MPD2    H7 7161   1.498   1.972  11.917
  472MPD2     C 7162   2.563   0.600   9.822
  472MPD2    C1 7163   2.685   0.581   9.768
  472MPD2    C2 7164   2.771   0.691   9.745
  472MPD2    C3 7165   2.739   0.814   9.799
  472MPD2    C4 7166   2.611   0.834   9.843
  472MPD2    C5 7167   2.526   0.731   9.854
  472MPD2     H 7168   2.862   0.669   9.690
  472MPD2    H1 7169   2.570   0.929   9.876
  472MPD2    H2 7170   2.491   0.521   9.841
  472MPD2    H3 7171   2.432   0.765   9.898
  472MPD2     N 7172   2.830   0.928   9.813
  472MPD2    H5 7173   2.796   1.019   9.842
  472MPD2    N1 7174   2.737   0.456   9.735
  472MPD2    H7 7175   2.832   0.458   9.700
  473MPD2     C 7176   3.546   0.869   9.730
  473MPD2    C1 7177   3.472   0.984   9.727
  473MPD2    C2 7178   3.454   1.054   9.848
  473MPD2    C3 7179   3.505   1.000   9.968
  473MPD2    C4 7180   3.573   0.884   9.974
  473MPD2    C5 7181   3.597   0.825   9.854
  473MPD2     H 7182   3.402   1.149   9.845
  473MPD2    H1 7183   3.607   0.836  10.066
  473MPD2    H2 7184   3.576   0.813   9.641
  473MPD2    H3 7185   3.656   0.734   9.849
  473MPD2     N 7186   3.477   1.064  10.093
  473MPD2    H5 7187   3.551   1.052  10.162
  473MPD2    N1 7188   3.423   1.027   9.604
  473MPD2    H7 7189   3.473   0.994   9.522
  474MPD2     C 7190   1.083   4.703  14.771
  474MPD2    C1 7191   1.149   4.637  14.671
  474MPD2    C2 7192   1.123   4.668  14.536
  474MPD2    C3 7193   1.018   4.755  14.501
  474MPD2    C4 7194   0.951   0.026  14.605
  474MPD2    C5 7195   0.980   4.785  14.736
  474MPD2     H 7196   1.183   4.637  14.452
  474MPD2    H1 7197   0.861   0.084  14.587
  474MPD2    H2 7198   1.100   4.699  14.878
  474MPD2    H3 7199   0.909   0.040  14.806
  474MPD2     N 7200   0.992   0.009  14.369
  474MPD2    H5 7201   0.933   0.091  14.372
  474MPD2    N1 7202   1.262   4.559  14.710
  474MPD2    H7 7203   1.280   4.570  14.809
  475MPD2     C 7204   2.007   2.623   9.893
  475MPD2    C1 7205   1.888   2.557   9.860
  475MPD2    C2 7206   1.768   2.596   9.909
  475MPD2    C3 7207   1.754   2.708   9.987
  475MPD2    C4 7208   1.871   2.773  10.021
  475MPD2    C5 7209   1.990   2.726   9.984
  475MPD2     H 7210   1.681   2.536   9.887
  475MPD2    H1 7211   1.879   2.858  10.087
  475MPD2    H2 7212   2.104   2.594   9.854
  475MPD2    H3 7213   2.076   2.769  10.034
  475MPD2     N 7214   1.628   2.750  10.030
  475MPD2    H5 7215   1.544   2.699  10.004
  475MPD2    N1 7216   1.894   2.457   9.765
  475MPD2    H7 7217   1.985   2.439   9.722
  476MPD2     C 7218   1.954   1.634   9.854
  476MPD2    C1 7219   1.955   1.770   9.887
  476MPD2    C2 7220   1.910   1.814  10.009
  476MPD2    C3 7221   1.848   1.717  10.093
  476MPD2    C4 7222   1.849   1.581  10.054
  476MPD2    C5 7223   1.915   1.544   9.941
  476MPD2     H 7224   1.918   1.921  10.027
  476MPD2    H1 7225   1.814   1.499  10.116
  476MPD2    H2 7226   1.997   1.606   9.759
  476MPD2    H3 7227   1.922   1.438   9.919
  476MPD2     N 7228   1.794   1.751  10.221
  476MPD2    H5 7229   1.815   1.844  10.255
  476MPD2    N1 7230   1.999   1.859   9.784
  476MPD2    H7 7231   2.019   1.813   9.695
  477MPD2     C 7232   2.014   3.855  12.357
  477MPD2    C1 7233   2.000   3.984  12.310
  477MPD2    C2 7234   1.907   4.070  12.359
  477MPD2    C3 7235   1.828   4.029  12.461
  477MPD2    C4 7236   1.815   3.893  12.492
  477MPD2    C5 7237   1.913   3.813  12.447
  477MPD2     H 7238   1.891   4.168  12.315
  477MPD2    H1 7239   1.750   3.853  12.569
  477MPD2    H2 7240   2.086   3.784  12.319
  477MPD2    H3 7241   1.920   3.709  12.476
  477MPD2     N 7242   1.756   4.130  12.526
  477MPD2    H5 7243   1.765   4.222  12.484
  477MPD2    N1 7244   2.063   4.030  12.189
  477MPD2    H7 7245   2.033   4.121  12.155
  478MPD2     C 7246   1.798   1.864  12.914
  478MPD2    C1 7247   1.859   1.829  13.030
  478MPD2    C2 7248   1.967   1.901  13.072
  478MPD2    C3 7249   1.985   2.032  13.026
  478MPD2    C4 7250   1.906   2.074  12.921
  478MPD2    C5 7251   1.821   1.984  12.860
  478MPD2     H 7252   2.027   1.866  13.155
  478MPD2    H1 7253   1.913   2.167  12.866
  478MPD2    H2 7254   1.717   1.808  12.868
  478MPD2    H3 7255   1.763   2.012  12.773
  478MPD2     N 7256   2.075   2.125  13.077
  478MPD2    H5 7257   2.069   2.220  13.045
  478MPD2    N1 7258   1.809   1.729  13.119
  478MPD2    H7 7259   1.874   1.700  13.191
  479MPD2     C 7260   2.121   2.832  13.141
  479MPD2    C1 7261   2.178   2.783  13.259
  479MPD2    C2 7262   2.248   2.868  13.338
  479MPD2    C3 7263   2.273   3.001  13.306
  479MPD2    C4 7264   2.217   3.046  13.193
  479MPD2    C5 7265   2.144   2.961  13.105
  479MPD2     H 7266   2.298   2.825  13.424
  479MPD2    H1 7267   2.240   3.145  13.155
  479MPD2    H2 7268   2.054   2.771  13.081
  479MPD2    H3 7269   2.118   2.992  13.004
  479MPD2     N 7270   2.361   3.086  13.371
  479MPD2    H5 7271   2.354   3.180  13.333
  479MPD2    N1 7272   2.160   2.651  13.296
  479MPD2    H7 7273   2.177   2.624  13.392
  480MPD2     C 7274   3.252   3.431   8.060
  480MPD2    C1 7275   3.135   3.369   8.037
  480MPD2    C2 7276   3.086   3.269   8.115
  480MPD2    C3 7277   3.151   3.242   8.237
  480MPD2    C4 7278   3.270   3.320   8.271
  480MPD2    C5 7279   3.321   3.410   8.178
  480MPD2     H 7280   2.998   3.211   8.090
  480MPD2    H1 7281   3.330   3.307   8.361
  480MPD2    H2 7282   3.289   3.517   8.006
  480MPD2    H3 7283   3.417   3.460   8.186
  480MPD2     N 7284   3.123   3.142   8.324
  480MPD2    H5 7285   3.168   3.149   8.415
  480MPD2    N1 7286   3.073   3.417   7.922
  480MPD2    H7 7287   3.121   3.472   7.852
  481MPD2     C 7288   2.648   0.145  13.958
  481MPD2    C1 7289   2.762   0.078  13.924
  481MPD2    C2 7290   2.831   0.009  14.024
  481MPD2    C3 7291   2.771   4.777  14.149
  481MPD2    C4 7292   2.668   0.071  14.180
  481MPD2    C5 7293   2.608   0.148  14.085
  481MPD2     H 7294   2.928   4.751  14.008
  481MPD2    H1 7295   2.632   0.079  14.282
  481MPD2    H2 7296   2.583   0.196  13.887
  481MPD2    H3 7297   2.523   0.210  14.113
  481MPD2     N 7298   2.819   4.683  14.243
  481MPD2    H5 7299   2.779   4.691  14.336
  481MPD2    N1 7300   2.798   0.086  13.784
  481MPD2    H7 7301   2.725   0.123  13.725
  482MPD2     C 7302   2.428   0.046  13.425
  482MPD2    C1 7303   2.548   0.114  13.404
  482MPD2    C2 7304   2.570   0.232  13.472
  482MPD2    C3 7305   2.481   0.278  13.573
  482MPD2    C4 7306   2.365   0.211  13.596
  482MPD2    C5 7307   2.338   0.099  13.521
  482MPD2     H 7308   2.665   0.284  13.467
  482MPD2    H1 7309   2.293   0.238  13.673
  482MPD2    H2 7310   2.405   4.742  13.371
  482MPD2    H3 7311   2.244   0.045  13.530
  482MPD2     N 7312   2.519   0.382  13.662
  482MPD2    H5 7313   2.614   0.412  13.642
  482MPD2    N1 7314   2.646   0.055  13.316
  482MPD2    H7 7315   2.598   4.786  13.247
  483MPD2     C 7316   3.487   0.699  13.535
  483MPD2    C1 7317   3.471   0.638  13.415
  483MPD2    C2 7318   3.389   0.527  13.407
  483MPD2    C3 7319   3.328   0.478  13.527
  483MPD2    C4 7320   3.334   0.556  13.645
  483MPD2    C5 7321   3.431   0.657  13.647
  483MPD2     H 7322   3.372   0.476  13.313
  483MPD2    H1 7323   3.284   0.523  13.736
  483MPD2    H2 7324   3.555   0.783  13.528
  483MPD2    H3 7325   3.429   0.723  13.732
  483MPD2     N 7326   3.231   0.374  13.529
  483MPD2    H5 7327   3.174   0.373  13.612
  483MPD2    N1 7328   3.534   0.700  13.308
  483MPD2    H7 7329   3.575   0.790  13.332
  484MPD2     C 7330   1.414   2.352  10.686
  484MPD2    C1 7331   1.319   2.284  10.752
  484MPD2    C2 7332   1.192   2.276  10.694
  484MPD2    C3 7333   1.168   2.316  10.561
  484MPD2    C4 7334   1.272   2.378  10.499
  484MPD2    C5 7335   1.393   2.397  10.563
  484MPD2     H 7336   1.110   2.250  10.760
  484MPD2    H1 7337   1.258   2.425  10.402
  484MPD2    H2 7338   1.510   2.366  10.736
  484MPD2    H3 7339   1.475   2.446  10.511
  484MPD2     N 7340   1.043   2.301  10.498
  484MPD2    H5 7341   1.035   2.339  10.404
  484MPD2    N1 7342   1.353   2.234  10.880
  484MPD2    H7 7343   1.451   2.243  10.905
  485MPD2     C 7344   3.714   2.006  11.569
  485MPD2    C1 7345   3.795   1.927  11.491
  485MPD2    C2 7346   3.728   1.833  11.403
  485MPD2    C3 7347   3.590   1.823  11.406
  485MPD2    C4 7348   3.510   1.909  11.479
  485MPD2    C5 7349   3.573   1.999  11.563
  485MPD2     H 7350   3.784   1.766  11.339
  485MPD2    H1 7351   3.403   1.893  11.483
  485MPD2    H2 7352   3.748   2.066  11.652
  485MPD2    H3 7353   3.526   2.066  11.633
  485MPD2     N 7354   3.515   1.727  11.334
  485MPD2    H5 7355   3.426   1.757  11.295
  485MPD2    N1 7356   3.934   1.921  11.516
  485MPD2    H7 7357   3.957   1.988  11.589
  486MPD2     C 7358   3.725   1.573  11.993
  486MPD2    C1 7359   3.770   1.648  11.889
  486MPD2    C2 7360   3.808   1.779  11.919
  486MPD2    C3 7361   3.816   1.817  12.053
  486MPD2    C4 7362   3.775   1.741  12.159
  486MPD2    C5 7363   3.722   1.617  12.127
  486MPD2     H 7364   3.845   1.832  11.832
  486MPD2    H1 7365   3.793   1.763  12.263
  486MPD2    H2 7366   3.690   1.475  11.964
  486MPD2    H3 7367   3.692   1.557  12.212
  486MPD2     N 7368   3.854   1.946  12.071
  486MPD2    H5 7369   3.880   1.995  11.986
  486MPD2    N1 7370   3.770   1.614  11.754
  486MPD2    H7 7371   3.786   1.684  11.682
  487MPD2     C 7372   1.884   4.455   7.653
  487MPD2    C1 7373   1.904   4.489   7.519
  487MPD2    C2 7374   1.996   4.412   7.441
  487MPD2    C3 7375   2.049   4.294   7.502
  487MPD2    C4 7376   2.029   4.268   7.638
  487MPD2    C5 7377   1.953   4.353   7.709
  487MPD2     H 7378   2.020   4.430   7.337
  487MPD2    H1 7379   2.070   4.187   7.698
  487MPD2    H2 7380   1.814   4.504   7.720
  487MPD2    H3 7381   1.926   4.327   7.811
  487MPD2     N 7382   2.112   4.201   7.418
  487MPD2    H5 7383   2.147   4.231   7.328
  487MPD2    N1 7384   1.827   4.597   7.473
  487MPD2    H7 7385   1.750   4.625   7.534
  488MPD2     C 7386   2.463   3.581   7.746
  488MPD2    C1 7387   2.541   3.692   7.710
  488MPD2    C2 7388   2.653   3.739   7.779
  488MPD2    C3 7389   2.692   3.667   7.886
  488MPD2    C4 7390   2.629   3.545   7.914
  488MPD2    C5 7391   2.516   3.502   7.844
  488MPD2     H 7392   2.710   3.824   7.743
  488MPD2    H1 7393   2.655   3.482   7.998
  488MPD2    H2 7394   2.373   3.560   7.691
  488MPD2    H3 7395   2.476   3.402   7.852
  488MPD2     N 7396   2.802   3.705   7.967
  488MPD2    H5 7397   2.822   3.664   8.058
  488MPD2    N1 7398   2.475   3.768   7.608
  488MPD2    H7 7399   2.374   3.759   7.598
  489MPD2     C 7400   0.909   2.654  11.530
  489MPD2    C1 7401   0.901   2.788  11.516
  489MPD2    C2 7402   0.780   2.849  11.551
  489MPD2    C3 7403   0.666   2.783  11.603
  489MPD2    C4 7404   0.690   2.655  11.628
  489MPD2    C5 7405   0.806   2.590  11.595
  489MPD2     H 7406   0.768   2.957  11.543
  489MPD2    H1 7407   0.626   2.590  11.687
  489MPD2    H2 7408   0.990   2.586  11.506
  489MPD2    H3 7409   0.813   2.484  11.617
  489MPD2     N 7410   0.543   2.853  11.615
  489MPD2    H5 7411   0.532   2.945  11.573
  489MPD2    N1 7412   1.010   2.863  11.482
  489MPD2    H7 7413   1.016   2.948  11.537
  490MPD2     C 7414   3.405   3.056  13.738
  490MPD2    C1 7415   3.483   3.125  13.828
  490MPD2    C2 7416   3.551   3.243  13.784
  490MPD2    C3 7417   3.519   3.300  13.655
  490MPD2    C4 7418   3.430   3.235  13.573
  490MPD2    C5 7419   3.386   3.113  13.617
  490MPD2     H 7420   3.624   3.298  13.841
  490MPD2    H1 7421   3.400   3.265  13.473
  490MPD2    H2 7422   3.363   2.959  13.763
  490MPD2    H3 7423   3.325   3.060  13.545
  490MPD2     N 7424   3.604   3.403  13.621
  490MPD2    H5 7425   3.652   3.435  13.705
  490MPD2    N1 7426   3.518   3.058  13.949
  490MPD2    H7 7427   3.488   2.961  13.959
  491MPD2     C 7428   3.578   3.912  12.730
  491MPD2    C1 7429   3.532   3.953  12.849
  491MPD2    C2 7430   3.516   3.859  12.954
  491MPD2    C3 7431   3.526   3.721  12.932
  491MPD2    C4 7432   3.566   3.687  12.808
  491MPD2    C5 7433   3.598   3.778  12.711
  491MPD2     H 7434   3.499   3.891  13.056
  491MPD2    H1 7435   3.591   3.583  12.790
  491MPD2    H2 7436   3.599   3.981  12.650
  491MPD2    H3 7437   3.645   3.734  12.624
  491MPD2     N 7438   3.507   3.624  13.038
  491MPD2    H5 7439   3.483   3.665  13.128
  491MPD2    N1 7440   3.509   4.091  12.878
  491MPD2    H7 7441   3.449   4.112  12.957
  492MPD2     C 7442   0.609   1.892  12.243
  492MPD2    C1 7443   0.605   1.768  12.179
  492MPD2    C2 7444   0.560   1.761  12.052
  492MPD2    C3 7445   0.509   1.877  11.989
  492MPD2    C4 7446   0.525   1.995  12.054
  492MPD2    C5 7447   0.572   2.004  12.182
  492MPD2     H 7448   0.555   1.668  11.997
  492MPD2    H1 7449   0.491   2.088  12.009
  492MPD2    H2 7450   0.653   1.896  12.342
  492MPD2    H3 7451   0.584   2.101  12.229
  492MPD2     N 7452   0.461   1.857  11.862
  492MPD2    H5 7453   0.445   1.761  11.831
  492MPD2    N1 7454   0.656   1.652  12.237
  492MPD2    H7 7455   0.632   1.570  12.182
  493MPD2     C 7456   1.225   1.711  12.668
  493MPD2    C1 7457   1.137   1.728  12.567
  493MPD2    C2 7458   1.114   1.855  12.509
  493MPD2    C3 7459   1.193   1.965  12.552
  493MPD2    C4 7460   1.281   1.947  12.653
  493MPD2    C5 7461   1.303   1.824  12.707
  493MPD2     H 7462   1.043   1.863  12.428
  493MPD2    H1 7463   1.351   2.024  12.684
  493MPD2    H2 7464   1.250   1.616  12.714
  493MPD2    H3 7465   1.391   1.819  12.770
  493MPD2     N 7466   1.190   2.087  12.472
  493MPD2    H5 7467   1.151   2.083  12.378
  493MPD2    N1 7468   1.045   1.626  12.531
  493MPD2    H7 7469   0.964   1.660  12.480
  494MPD2     C 7470   3.109   2.556  10.992
  494MPD2    C1 7471   3.171   2.484  11.095
  494MPD2    C2 7472   3.308   2.477  11.092
  494MPD2    C3 7473   3.388   2.518  10.982
  494MPD2    C4 7474   3.321   2.594  10.891
  494MPD2    C5 7475   3.181   2.621  10.899
  494MPD2     H 7476   3.353   2.423  11.175
  494MPD2    H1 7477   3.370   2.639  10.805
  494MPD2    H2 7478   3.003   2.572  10.978
  494MPD2    H3 7479   3.134   2.681  10.822
  494MPD2     N 7480   3.529   2.483  10.981
  494MPD2    H5 7481   3.565   2.437  11.065
  494MPD2    N1 7482   3.095   2.422  11.201
  494MPD2    H7 7483   3.143   2.363  11.268
  495MPD2     C 7484   2.524   1.639  11.096
  495MPD2    C1 7485   2.565   1.611  11.226
  495MPD2    C2 7486   2.631   1.708  11.305
  495MPD2    C3 7487   2.657   1.831  11.253
  495MPD2    C4 7488   2.617   1.858  11.123
  495MPD2    C5 7489   2.549   1.764  11.044
  495MPD2     H 7490   2.660   1.686  11.407
  495MPD2    H1 7491   2.629   1.957  11.081
  495MPD2    H2 7492   2.475   1.565  11.034
  495MPD2    H3 7493   2.523   1.794  10.943
  495MPD2     N 7494   2.710   1.934  11.336
  495MPD2    H5 7495   2.713   1.913  11.435
  495MPD2    N1 7496   2.550   1.484  11.283
  495MPD2    H7 7497   2.603   1.451  11.363
  496MPD2     C 7498   2.587   1.056   9.401
  496MPD2    C1 7499   2.466   1.116   9.398
  496MPD2    C2 7500   2.428   1.195   9.508
  496MPD2    C3 7501   2.516   1.224   9.608
  496MPD2    C4 7502   2.641   1.162   9.611
  496MPD2    C5 7503   2.670   1.065   9.519
  496MPD2     H 7504   2.333   1.247   9.501
  496MPD2    H1 7505   2.715   1.180   9.688
  496MPD2    H2 7506   2.618   1.000   9.314
  496MPD2    H3 7507   2.768   1.019   9.524
  496MPD2     N 7508   2.475   1.309   9.713
  496MPD2    H5 7509   2.387   1.360   9.708
  496MPD2    N1 7510   2.381   1.113   9.286
  496MPD2    H7 7511   2.294   1.165   9.294
  497MPD2     C 7512   4.360   1.796   9.234
  497MPD2    C1 7513   4.364   1.711   9.124
  497MPD2    C2 7514   4.275   1.611   9.114
  497MPD2    C3 7515   4.178   1.592   9.208
  497MPD2    C4 7516   4.158   1.680   9.310
  497MPD2    C5 7517   4.253   1.781   9.325
  497MPD2     H 7518   4.284   1.532   9.040
  497MPD2    H1 7519   4.069   1.675   9.372
  497MPD2    H2 7520   4.428   1.876   9.261
  497MPD2    H3 7521   4.238   1.868   9.388
  497MPD2     N 7522   4.096   1.477   9.193
  497MPD2    H5 7523   4.133   1.399   9.140
  497MPD2    N1 7524   4.466   1.732   9.027
  497MPD2    H7 7525   4.534   1.803   9.054
  498MPD2     C 7526   3.536   1.374   9.696
  498MPD2    C1 7527   3.650   1.296   9.700
  498MPD2    C2 7528   3.721   1.278   9.823
  498MPD2    C3 7529   3.695   1.363   9.926
  498MPD2    C4 7530   3.597   1.458   9.914
  498MPD2    C5 7531   3.511   1.447   9.809
  498MPD2     H 7532   3.804   1.208   9.823
  498MPD2    H1 7533   3.580   1.529   9.993
  498MPD2    H2 7534   3.477   1.403   9.609
  498MPD2    H3 7535   3.423   1.511   9.809
  498MPD2     N 7536   3.807   1.369  10.017
  498MPD2    H5 7537   3.867   1.286  10.019
  498MPD2    N1 7538   3.698   1.248   9.579
  498MPD2    H7 7539   3.644   1.282   9.500
  499MPD2     C 7540   4.485   1.459   9.532
  499MPD2    C1 7541   4.374   1.394   9.584
  499MPD2    C2 7542   4.320   1.291   9.504
  499MPD2    C3 7543   4.362   1.271   9.376
  499MPD2    C4 7544   4.461   1.351   9.329
  499MPD2    C5 7545   4.534   1.434   9.406
  499MPD2     H 7546   4.231   1.240   9.539
  499MPD2    H1 7547   4.509   1.324   9.236
  499MPD2    H2 7548   4.524   1.550   9.578
  499MPD2    H3 7549   4.610   1.493   9.356
  499MPD2     N 7550   4.299   1.185   9.290
  499MPD2    H5 7551   4.308   1.189   9.189
  499MPD2    N1 7552   4.329   1.430   9.714
  499MPD2    H7 7553   4.389   1.489   9.770
  500MPD2     C 7554   1.883   3.396  11.821
  500MPD2    C1 7555   1.828   3.293  11.741
  500MPD2    C2 7556   1.758   3.326  11.631
  500MPD2    C3 7557   1.737   3.456  11.593
  500MPD2    C4 7558   1.791   3.558  11.665
  500MPD2    C5 7559   1.869   3.527  11.780
  500MPD2     H 7560   1.713   3.250  11.567
  500MPD2    H1 7561   1.778   3.663  11.640
  500MPD2    H2 7562   1.926   3.370  11.917
  500MPD2    H3 7563   1.915   3.604  11.840
  500MPD2     N 7564   1.671   3.481  11.477
  500MPD2    H5 7565   1.619   3.406  11.433
  500MPD2    N1 7566   1.879   3.165  11.746
  500MPD2    H7 7567   1.968   3.160  11.794
  501MPD2     C 7568   2.530   3.072  11.705
  501MPD2    C1 7569   2.453   3.165  11.649
  501MPD2    C2 7570   2.478   3.303  11.647
  501MPD2    C3 7571   2.597   3.341  11.706
  501MPD2    C4 7572   2.680   3.246  11.758
  501MPD2    C5 7573   2.637   3.120  11.765
  501MPD2     H 7574   2.424   3.376  11.587
  501MPD2    H1 7575   2.769   3.279  11.810
  501MPD2    H2 7576   2.517   2.965  11.707
  501MPD2    H3 7577   2.704   3.046  11.808
  501MPD2     N 7578   2.652   3.471  11.702
  501MPD2    H5 7579   2.749   3.483  11.728
  501MPD2    N1 7580   2.336   3.123  11.582
  501MPD2    H7 7581   2.283   3.200  11.544
  502MPD2     C 7582   1.694   2.517  11.280
  502MPD2    C1 7583   1.813   2.535  11.346
  502MPD2    C2 7584   1.892   2.426  11.389
  502MPD2    C3 7585   1.835   2.303  11.373
  502MPD2    C4 7586   1.715   2.286  11.304
  502MPD2    C5 7587   1.650   2.396  11.251
  502MPD2     H 7588   1.990   2.431  11.434
  502MPD2    H1 7589   1.674   2.190  11.274
  502MPD2    H2 7590   1.635   2.604  11.255
  502MPD2    H3 7591   1.563   2.373  11.192
  502MPD2     N 7592   1.910   2.195  11.426
  502MPD2    H5 7593   2.001   2.220  11.462
  502MPD2    N1 7594   1.856   2.668  11.371
  502MPD2    H7 7595   1.790   2.745  11.375
  503MPD2     C 7596   3.240   3.166  10.786
  503MPD2    C1 7597   3.355   3.175  10.707
  503MPD2    C2 7598   3.476   3.135  10.759
  503MPD2    C3 7599   3.475   3.074  10.891
  503MPD2    C4 7600   3.357   3.073  10.959
  503MPD2    C5 7601   3.243   3.122  10.908
  503MPD2     H 7602   3.564   3.141  10.696
  503MPD2    H1 7603   3.358   3.036  11.061
  503MPD2    H2 7604   3.150   3.210  10.743
  503MPD2    H3 7605   3.153   3.123  10.969
  503MPD2     N 7606   3.589   3.024  10.967
  503MPD2    H5 7607   3.578   3.024  11.067
  503MPD2    N1 7608   3.347   3.227  10.576
  503MPD2    H7 7609   3.258   3.270  10.550
  504MPD2     C 7610   3.224   2.690  10.532
  504MPD2    C1 7611   3.267   2.820  10.534
  504MPD2    C2 7612   3.172   2.923  10.542
  504MPD2    C3 7613   3.043   2.900  10.526
  504MPD2    C4 7614   2.997   2.769  10.520
  504MPD2    C5 7615   3.089   2.668  10.527
  504MPD2     H 7616   3.197   3.028  10.555
  504MPD2    H1 7617   2.893   2.736  10.519
  504MPD2    H2 7618   3.288   2.603  10.542
  504MPD2    H3 7619   3.045   2.569  10.527
  504MPD2     N 7620   2.958   3.014  10.541
  504MPD2    H5 7621   3.001   3.106  10.534
  504MPD2    N1 7622   3.402   2.843  10.564
  504MPD2    H7 7623   3.433   2.934  10.598
  505MPD2     C 7624   4.301   0.977  12.639
  505MPD2    C1 7625   4.352   1.034  12.525
  505MPD2    C2 7626   4.495   1.026  12.514
  505MPD2    C3 7627   4.577   0.964  12.610
  505MPD2    C4 7628   4.519   0.916  12.724
  505MPD2    C5 7629   4.384   0.921  12.735
  505MPD2     H 7630   4.550   1.069  12.431
  505MPD2    H1 7631   4.579   0.896  12.812
  505MPD2    H2 7632   4.195   0.960  12.649
  505MPD2    H3 7633   4.340   0.887  12.828
  505MPD2     N 7634   4.716   0.990  12.594
  505MPD2    H5 7635   4.752   1.041  12.514
  505MPD2    N1 7636   4.268   1.104  12.438
  505MPD2    H7 7637   4.178   1.130  12.477
  506MPD2     C 7638   0.711   2.296  11.397
  506MPD2    C1 7639   0.623   2.234  11.312
  506MPD2    C2 7640   0.681   2.157  11.210
  506MPD2    C3 7641   0.817   2.158  11.182
  506MPD2    C4 7642   0.899   2.226  11.268
  506MPD2    C5 7643   0.842   2.279  11.378
  506MPD2     H 7644   0.610   2.120  11.136
  506MPD2    H1 7645   1.006   2.231  11.250
  506MPD2    H2 7646   0.689   2.345  11.491
  506MPD2    H3 7647   0.917   2.317  11.446
  506MPD2     N 7648   0.875   2.119  11.058
  506MPD2    H5 7649   0.970   2.149  11.037
  506MPD2    N1 7650   0.485   2.256  11.304
  506MPD2    H7 7651   0.427   2.190  11.253
  507MPD2     C 7652   0.038   2.908  11.071
  507MPD2    C1 7653   0.174   2.867  11.079
  507MPD2    C2 7654   0.275   2.962  11.092
  507MPD2    C3 7655   0.239   3.098  11.093
  507MPD2    C4 7656   0.106   3.130  11.085
  507MPD2    C5 7657   0.003   3.039  11.078
  507MPD2     H 7658   0.380   2.935  11.092
  507MPD2    H1 7659   0.081   3.235  11.085
  507MPD2    H2 7660   4.749   2.835  11.045
  507MPD2    H3 7661   4.688   3.073  11.076
  507MPD2     N 7662   0.338   3.207  11.084
  507MPD2    H5 7663   0.307   3.302  11.104
  507MPD2    N1 7664   0.204   2.728  11.086
  507MPD2    H7 7665   0.295   2.700  11.121
  508MPD2     C 7666   1.543   0.218  14.726
  508MPD2    C1 7667   1.521   0.345  14.784
  508MPD2    C2 7668   1.395   0.374  14.816
  508MPD2    C3 7669   1.293   0.295  14.776
  508MPD2    C4 7670   1.312   0.174  14.721
  508MPD2    C5 7671   1.440   0.139  14.688
  508MPD2     H 7672   1.373   0.467  14.868
  508MPD2    H1 7673   1.229   0.109  14.699
  508MPD2    H2 7674   1.641   0.177  14.705
  508MPD2    H3 7675   1.464   0.043  14.644
  508MPD2     N 7676   1.151   0.331  14.783
  508MPD2    H5 7677   1.079   0.268  14.751
  508MPD2    N1 7678   1.636   0.417  14.819
  508MPD2    H7 7679   1.723   0.379  14.782
  509MPD2     C 7680   1.731   1.193  14.732
  509MPD2    C1 7681   1.846   1.124  14.742
  509MPD2    C2 7682   1.961   1.202  14.734
  509MPD2    C3 7683   1.961   1.335  14.712
  509MPD2    C4 7684   1.846   1.396  14.680
  509MPD2    C5 7685   1.731   1.326  14.690
  509MPD2     H 7686   2.056   1.154  14.751
  509MPD2    H1 7687   1.837   1.502  14.658
  509MPD2    H2 7688   1.630   1.153  14.733
  509MPD2    H3 7689   1.642   1.387  14.678
  509MPD2     N 7690   2.086   1.400  14.712
  509MPD2    H5 7691   2.169   1.344  14.728
  509MPD2    N1 7692   1.837   0.987  14.772
  509MPD2    H7 7693   1.745   0.955  14.798
  510MPD2     C 7694   0.352   2.939  14.431
  510MPD2    C1 7695   0.310   3.070  14.457
  510MPD2    C2 7696   0.392   3.181  14.420
  510MPD2    C3 7697   0.516   3.156  14.362
  510MPD2    C4 7698   0.552   3.026  14.324
  510MPD2    C5 7699   0.474   2.921  14.367
  510MPD2     H 7700   0.358   3.282  14.441
  510MPD2    H1 7701   0.655   3.004  14.300
  510MPD2    H2 7702   0.302   2.850  14.468
  510MPD2    H3 7703   0.511   2.820  14.354
  510MPD2     N 7704   0.601   3.252  14.311
  510MPD2    H5 7705   0.674   3.211  14.253
  510MPD2    N1 7706   0.196   3.104  14.521
  510MPD2    H7 7707   0.188   3.198  14.558
  511MPD2     C 7708   0.801   3.228  15.195
  511MPD2    C1 7709   0.864   3.210  15.076
  511MPD2    C2 7710   0.811   3.260  14.958
  511MPD2    C3 7711   0.690   3.335  14.953
  511MPD2    C4 7712   0.627   3.359  15.071
  511MPD2    C5 7713   0.684   3.300  15.185
  511MPD2     H 7714   0.867   3.241  14.867
  511MPD2    H1 7715   0.537   3.413  15.097
  511MPD2    H2 7716   0.829   3.194  15.294
  511MPD2    H3 7717   0.640   3.303  15.283
  511MPD2     N 7718   0.651   3.386  14.826
  511MPD2    H5 7719   0.717   3.360  14.754
  511MPD2    N1 7720   0.981   3.131  15.062
  511MPD2    H7 7721   1.016   3.117  14.968
  512MPD2     C 7722   4.521   1.814  10.262
  512MPD2    C1 7723   4.531   1.682  10.232
  512MPD2    C2 7724   4.654   1.615  10.244
  512MPD2    C3 7725   4.774   1.677  10.268
  512MPD2    C4 7726   4.761   1.813  10.288
  512MPD2    C5 7727   4.641   1.878  10.291
  512MPD2     H 7728   4.650   1.506  10.250
  512MPD2    H1 7729   0.062   1.873  10.306
  512MPD2    H2 7730   4.428   1.869  10.267
  512MPD2    H3 7731   4.638   1.980  10.327
  512MPD2     N 7732   0.114   1.621  10.270
  512MPD2    H5 7733   0.187   1.688  10.293
  512MPD2    N1 7734   4.424   1.620  10.165
  512MPD2    H7 7735   4.453   1.540  10.110
  513MPD2     C 7736   0.212   3.611  11.350
  513MPD2    C1 7737   0.336   3.564  11.381
  513MPD2    C2 7738   0.342   3.435  11.430
  513MPD2    C3 7739   0.230   3.363  11.465
  513MPD2    C4 7740   0.109   3.415  11.441
  513MPD2    C5 7741   0.104   3.534  11.376
  513MPD2     H 7742   0.434   3.383  11.457
  513MPD2    H1 7743   0.015   3.365  11.460
  513MPD2    H2 7744   0.195   3.709  11.306
  513MPD2    H3 7745   0.005   3.568  11.347
  513MPD2     N 7746   0.249   3.238  11.529
  513MPD2    H5 7747   0.346   3.210  11.541
  513MPD2    N1 7748   0.447   3.642  11.347
  513MPD2    H7 7749   0.440   3.741  11.325
  514MPD2     C 7750   1.777   4.571  15.212
  514MPD2    C1 7751   1.795   4.447  15.148
  514MPD2    C2 7752   1.679   4.384  15.105
  514MPD2    C3 7753   1.553   4.438  15.111
  514MPD2    C4 7754   1.538   4.563  15.184
  514MPD2    C5 7755   1.650   4.622  15.234
  514MPD2     H 7756   1.687   4.288  15.057
  514MPD2    H1 7757   1.441   4.606  15.206
  514MPD2    H2 7758   1.856   4.639  15.243
  514MPD2    H3 7759   1.633   4.719  15.281
  514MPD2     N 7760   1.441   4.359  15.069
  514MPD2    H5 7761   1.468   4.267  15.036
  514MPD2    N1 7762   1.923   4.406  15.123
  514MPD2    H7 7763   1.991   4.480  15.133
  515MPD2     C 7764   3.583   0.563   7.689
  515MPD2    C1 7765   3.607   0.683   7.745
  515MPD2    C2 7766   3.515   0.747   7.824
  515MPD2    C3 7767   3.399   0.682   7.862
  515MPD2    C4 7768   3.374   0.550   7.822
  515MPD2    C5 7769   3.466   0.502   7.727
  515MPD2     H 7770   3.523   0.851   7.851
  515MPD2    H1 7771   3.290   0.487   7.846
  515MPD2    H2 7772   3.662   0.509   7.637
  515MPD2    H3 7773   3.453   0.398   7.697
  515MPD2     N 7774   3.314   0.752   7.956
  515MPD2    H5 7775   3.338   0.849   7.976
  515MPD2    N1 7776   3.731   0.743   7.705
  515MPD2    H7 7777   3.790   0.701   7.634
  516MPD2     C 7778   3.151   1.306   8.396
  516MPD2    C1 7779   3.211   1.180   8.368
  516MPD2    C2 7780   3.328   1.148   8.426
  516MPD2    C3 7781   3.385   1.229   8.524
  516MPD2    C4 7782   3.320   1.344   8.557
  516MPD2    C5 7783   3.206   1.385   8.488
  516MPD2     H 7784   3.381   1.062   8.388
  516MPD2    H1 7785   3.366   1.413   8.628
  516MPD2    H2 7786   3.056   1.331   8.351
  516MPD2    H3 7787   3.163   1.480   8.517
  516MPD2     N 7788   3.496   1.198   8.600
  516MPD2    H5 7789   3.531   1.275   8.656
  516MPD2    N1 7790   3.163   1.090   8.263
  516MPD2    H7 7791   3.203   0.997   8.264
  517MPD2     C 7792   2.241   1.036   7.890
  517MPD2    C1 7793   2.298   0.919   7.830
  517MPD2    C2 7794   2.427   0.885   7.863
  517MPD2    C3 7795   2.501   0.979   7.935
  517MPD2    C4 7796   2.442   1.096   7.972
  517MPD2    C5 7797   2.308   1.124   7.960
  517MPD2     H 7798   2.471   0.797   7.817
  517MPD2    H1 7799   2.493   1.177   8.023
  517MPD2    H2 7800   2.142   1.075   7.871
  517MPD2    H3 7801   2.261   1.214   7.999
  517MPD2     N 7802   2.640   0.966   7.955
  517MPD2    H5 7803   2.694   1.046   7.988
  517MPD2    N1 7804   2.205   0.838   7.755
  517MPD2    H7 7805   2.108   0.869   7.757
  518MPD2     C 7806   0.244   2.934  13.426
  518MPD2    C1 7807   0.233   2.924  13.290
  518MPD2    C2 7808   0.249   3.045  13.217
  518MPD2    C3 7809   0.288   3.165  13.280
  518MPD2    C4 7810   0.286   3.168  13.419
  518MPD2    C5 7811   0.270   3.056  13.488
  518MPD2     H 7812   0.263   3.039  13.109
  518MPD2    H1 7813   0.286   3.260  13.475
  518MPD2    H2 7814   0.226   2.847  13.488
  518MPD2    H3 7815   0.271   3.050  13.596
  518MPD2     N 7816   0.333   3.280  13.207
  518MPD2    H5 7817   0.356   3.358  13.267
  518MPD2    N1 7818   0.232   2.790  13.237
  518MPD2    H7 7819   0.240   2.721  13.311
  519MPD2     C 7820   0.260   1.860  13.520
  519MPD2    C1 7821   0.374   1.879  13.447
  519MPD2    C2 7822   0.386   2.004  13.396
  519MPD2    C3 7823   0.289   2.098  13.396
  519MPD2    C4 7824   0.174   2.074  13.464
  519MPD2    C5 7825   0.158   1.951  13.514
  519MPD2     H 7826   0.474   2.036  13.342
  519MPD2    H1 7827   0.099   2.148  13.489
  519MPD2    H2 7828   0.243   1.771  13.579
  519MPD2    H3 7829   0.067   1.936  13.571
  519MPD2     N 7830   0.315   2.220  13.321
  519MPD2    H5 7831   0.407   2.244  13.285
  519MPD2    N1 7832   0.490   1.792  13.438
  519MPD2    H7 7833   0.564   1.824  13.376
  520MPD2     C 7834   1.000   2.153  12.794
  520MPD2    C1 7835   1.032   2.240  12.895
  520MPD2    C2 7836   0.937   2.249  13.000
  520MPD2    C3 7837   0.811   2.194  12.988
  520MPD2    C4 7838   0.788   2.107  12.888
  520MPD2    C5 7839   0.885   2.092  12.790
  520MPD2     H 7840   0.963   2.309  13.086
  520MPD2    H1 7841   0.708   2.035  12.879
  520MPD2    H2 7842   1.063   2.145  12.706
  520MPD2    H3 7843   0.868   2.032  12.701
  520MPD2     N 7844   0.717   2.199  13.096
  520MPD2    H5 7845   0.643   2.130  13.094
  520MPD2    N1 7846   1.153   2.306  12.892
  520MPD2    H7 7847   1.205   2.304  12.804
  521MPD2     C 7848   0.958   3.964   8.986
  521MPD2    C1 7849   1.082   3.908   8.970
  521MPD2    C2 7850   1.115   3.833   8.858
  521MPD2    C3 7851   1.018   3.813   8.760
  521MPD2    C4 7852   0.897   3.870   8.769
  521MPD2    C5 7853   0.873   3.947   8.883
  521MPD2     H 7854   1.198   3.763   8.859
  521MPD2    H1 7855   0.817   3.860   8.697
  521MPD2    H2 7856   0.921   4.018   9.072
  521MPD2    H3 7857   0.776   3.993   8.894
  521MPD2     N 7858   1.053   3.711   8.667
  521MPD2    H5 7859   1.151   3.685   8.664
  521MPD2    N1 7860   1.168   3.920   9.081
  521MPD2    H7 7861   1.126   3.943   9.171
  522MPD2     C 7862   1.902   4.114   9.205
  522MPD2    C1 7863   1.865   4.011   9.281
  522MPD2    C2 7864   1.928   3.983   9.399
  522MPD2    C3 7865   2.025   4.063   9.443
  522MPD2    C4 7866   2.067   4.176   9.375
  522MPD2    C5 7867   2.007   4.194   9.254
  522MPD2     H 7868   1.911   3.898   9.465
  522MPD2    H1 7869   2.139   4.249   9.411
  522MPD2    H2 7870   1.844   4.144   9.119
  522MPD2    H3 7871   2.026   4.290   9.207
  522MPD2     N 7872   2.089   4.022   9.561
  522MPD2    H5 7873   2.066   3.927   9.588
  522MPD2    N1 7874   1.751   3.938   9.245
  522MPD2    H7 7875   1.686   3.974   9.176
  523MPD2     C 7876   1.247   3.549   9.992
  523MPD2    C1 7877   1.326   3.458   9.934
  523MPD2    C2 7878   1.374   3.489   9.809
  523MPD2    C3 7879   1.327   3.600   9.737
  523MPD2    C4 7880   1.233   3.676   9.798
  523MPD2    C5 7881   1.196   3.655   9.928
  523MPD2     H 7882   1.447   3.423   9.765
  523MPD2    H1 7883   1.183   3.755   9.743
  523MPD2    H2 7884   1.215   3.540  10.096
  523MPD2    H3 7885   1.130   3.727   9.976
  523MPD2     N 7886   1.365   3.626   9.599
  523MPD2    H5 7887   1.431   3.562   9.556
  523MPD2    N1 7888   1.348   3.328   9.990
  523MPD2    H7 7889   1.308   3.308  10.082
  524MPD2     C 7890   4.677   1.852   9.842
  524MPD2    C1 7891   4.705   1.877   9.710
  524MPD2    C2 7892   4.749   1.776   9.622
  524MPD2    C3 7893   0.004   1.657   9.677
  524MPD2    C4 7894   4.749   1.628   9.802
  524MPD2    C5 7895   4.701   1.722   9.887
  524MPD2     H 7896   0.004   1.806   9.527
  524MPD2    H1 7897   4.774   1.533   9.849
  524MPD2    H2 7898   4.639   1.921   9.917
  524MPD2    H3 7899   4.657   1.701   9.984
  524MPD2     N 7900   0.086   1.570   9.604
  524MPD2    H5 7901   0.095   1.477   9.644
  524MPD2    N1 7902   4.699   2.015   9.669
  524MPD2    H7 7903   4.710   2.090   9.737
  525MPD2     C 7904   4.694   1.426   8.718
  525MPD2    C1 7905   0.016   1.513   8.732
  525MPD2    C2 7906   0.096   1.498   8.844
  525MPD2    C3 7907   0.070   1.413   8.944
  525MPD2    C4 7908   4.756   1.325   8.922
  525MPD2    C5 7909   4.673   1.333   8.815
  525MPD2     H 7910   0.190   1.551   8.854
  525MPD2    H1 7911   4.732   1.246   8.993
  525MPD2    H2 7912   4.628   1.424   8.631
  525MPD2    H3 7913   4.592   1.261   8.814
  525MPD2     N 7914   0.151   1.417   9.058
  525MPD2    H5 7915   0.231   1.480   9.053
  525MPD2    N1 7916   0.042   1.607   8.629
  525MPD2    H7 7917   4.765   1.618   8.551
  526MPD2     C 7918   0.368   1.985   9.205
  526MPD2    C1 7919   0.353   1.856   9.151
  526MPD2    C2 7920   0.280   1.844   9.040
  526MPD2    C3 7921   0.205   1.948   8.985
  526MPD2    C4 7922   0.233   2.078   9.020
  526MPD2    C5 7923   0.307   2.092   9.136
  526MPD2     H 7924   0.271   1.753   8.982
  526MPD2    H1 7925   0.181   2.164   8.979
  526MPD2    H2 7926   0.418   2.007   9.299
  526MPD2    H3 7927   0.317   2.192   9.178
  526MPD2     N 7928   0.108   1.913   8.894
  526MPD2    H5 7929   0.075   1.817   8.897
  526MPD2    N1 7930   0.391   1.736   9.225
  526MPD2    H7 7931   0.404   1.757   9.324
  527MPD2     C 7932   2.158   4.617   9.876
  527MPD2    C1 7933   2.193   4.503   9.799
  527MPD2    C2 7934   2.328   4.463   9.798
  527MPD2    C3 7935   2.419   4.518   9.886
  527MPD2    C4 7936   2.379   4.620   9.972
  527MPD2    C5 7937   2.250   4.668   9.964
  527MPD2     H 7938   2.356   4.380   9.734
  527MPD2    H1 7939   2.441   4.645  10.058
  527MPD2    H2 7940   2.056   4.654   9.879
  527MPD2    H3 7941   2.221   4.741  10.039
  527MPD2     N 7942   2.552   4.469   9.897
  527MPD2    H5 7943   2.611   4.510   9.968
  527MPD2    N1 7944   2.099   4.433   9.725
  527MPD2    H7 7945   2.132   4.345   9.687
  528MPD2     C 7946   3.497   3.995   9.633
  528MPD2    C1 7947   3.497   4.128   9.608
  528MPD2    C2 7948   3.385   4.207   9.637
  528MPD2    C3 7949   3.278   4.140   9.694
  528MPD2    C4 7950   3.286   4.012   9.725
  528MPD2    C5 7951   3.390   3.932   9.692
  528MPD2     H 7952   3.378   4.315   9.631
  528MPD2    H1 7953   3.201   3.967   9.774
  528MPD2    H2 7954   3.593   3.946   9.630
  528MPD2    H3 7955   3.402   3.830   9.726
  528MPD2     N 7956   3.163   4.209   9.741
  528MPD2    H5 7957   3.160   4.310   9.733
  528MPD2    N1 7958   3.609   4.181   9.540
  528MPD2    H7 7959   3.688   4.120   9.527
  529MPD2     C 7960   0.018   1.264  10.486
  529MPD2    C1 7961   4.763   1.133  10.508
  529MPD2    C2 7962   0.061   1.040  10.570
  529MPD2    C3 7963   0.181   1.078  10.629
  529MPD2    C4 7964   0.216   1.209  10.606
  529MPD2    C5 7965   0.133   1.301  10.545
  529MPD2     H 7966   0.036   0.934  10.574
  529MPD2    H1 7967   0.311   1.242  10.647
  529MPD2    H2 7968   4.736   1.334  10.440
  529MPD2    H3 7969   0.176   1.397  10.520
  529MPD2     N 7970   0.266   0.973  10.666
  529MPD2    H5 7971   0.244   0.879  10.635
  529MPD2    N1 7972   4.629   1.099  10.471
  529MPD2    H7 7973   4.593   1.018  10.520
  530MPD2     C 7974   4.194   1.019   9.923
  530MPD2    C1 7975   4.222   1.104  10.034
  530MPD2    C2 7976   4.336   1.181  10.039
  530MPD2    C3 7977   4.430   1.153   9.936
  530MPD2    C4 7978   4.403   1.061   9.839
  530MPD2    C5 7979   4.291   0.995   9.830
  530MPD2     H 7980   4.348   1.261  10.111
  530MPD2    H1 7981   4.482   1.038   9.768
  530MPD2    H2 7982   4.099   0.967   9.918
  530MPD2    H3 7983   4.284   0.927   9.745
  530MPD2     N 7984   4.553   1.207   9.927
  530MPD2    H5 7985   4.621   1.160   9.868
  530MPD2    N1 7986   4.109   1.107  10.126
  530MPD2    H7 7987   4.027   1.059  10.089
  531MPD2     C 7988   4.284   1.393  10.922
  531MPD2    C1 7989   4.381   1.450  10.842
  531MPD2    C2 7990   4.511   1.484  10.892
  531MPD2    C3 7991   4.545   1.448  11.016
  531MPD2    C4 7992   4.449   1.392  11.093
  531MPD2    C5 7993   4.321   1.373  11.052
  531MPD2     H 7994   4.589   1.504  10.819
  531MPD2    H1 7995   4.478   1.346  11.187
  531MPD2    H2 7996   4.183   1.366  10.893
  531MPD2    H3 7997   4.249   1.330  11.121
  531MPD2     N 7998   4.679   1.451  11.064
  531MPD2    H5 7999   4.695   1.394  11.146
  531MPD2    N1 8000   4.363   1.462  10.703
  531MPD2    H7 8001   4.438   1.499  10.644
  532MPD2     C 8002   1.651   0.492   7.975
  532MPD2    C1 8003   1.625   0.446   7.849
  532MPD2    C2 8004   1.492   0.413   7.819
  532MPD2    C3 8005   1.393   0.407   7.906
  532MPD2    C4 8006   1.427   0.446   8.037
  532MPD2    C5 8007   1.549   0.485   8.063
  532MPD2     H 8008   1.475   0.370   7.721
  532MPD2    H1 8009   1.367   0.423   8.124
  532MPD2    H2 8010   1.747   0.516   8.018
  532MPD2    H3 8011   1.566   0.510   8.167
  532MPD2     N 8012   1.277   0.330   7.885
  532MPD2    H5 8013   1.286   0.249   7.823
  532MPD2    N1 8014   1.728   0.441   7.746
  532MPD2    H7 8015   1.702   0.425   7.650
  533MPD2     C 8016   0.378   0.060  10.971
  533MPD2    C1 8017   0.257   0.048  11.039
  533MPD2    C2 8018   0.141   0.058  10.969
  533MPD2    C3 8019   0.137   0.069  10.834
  533MPD2    C4 8020   0.256   0.089  10.770
  533MPD2    C5 8021   0.378   0.092  10.835
  533MPD2     H 8022   0.052   0.041  11.029
  533MPD2    H1 8023   0.259   0.112  10.664
  533MPD2    H2 8024   0.477   0.046  11.014
  533MPD2    H3 8025   0.463   0.105  10.769
  533MPD2     N 8026   0.013   0.053  10.761
  533MPD2    H5 8027   0.016   0.047  10.659
  533MPD2    N1 8028   0.251   0.021  11.177
  533MPD2    H7 8029   0.162   0.018  11.224
  534MPD2     C 8030   0.808   0.201  11.781
  534MPD2    C1 8031   0.772   0.072  11.756
  534MPD2    C2 8032   0.862   4.761  11.786
  534MPD2    C3 8033   0.986   0.000  11.846
  534MPD2    C4 8034   1.027   0.131  11.868
  534MPD2    C5 8035   0.933   0.230  11.826
  534MPD2     H 8036   0.847   4.658  11.755
  534MPD2    H1 8037   1.127   0.158  11.897
  534MPD2    H2 8038   0.744   0.286  11.761
  534MPD2    H3 8039   0.952   0.335  11.843
  534MPD2     N 8040   1.060   4.672  11.894
  534MPD2    H5 8041   1.016   4.581  11.883
  534MPD2    N1 8042   0.647   0.036  11.698
  534MPD2    H7 8043   0.634   4.723  11.684
  535MPD2     C 8044   3.936   1.571   7.626
  535MPD2    C1 8045   3.896   1.474   7.717
  535MPD2    C2 8046   3.842   1.508   7.836
  535MPD2    C3 8047   3.831   1.642   7.882
  535MPD2    C4 8048   3.866   1.740   7.790
  535MPD2    C5 8049   3.919   1.703   7.668
  535MPD2     H 8050   3.813   1.436   7.911
  535MPD2    H1 8051   3.856   1.847   7.802
  535MPD2    H2 8052   3.978   1.545   7.529
  535MPD2    H3 8053   3.948   1.787   7.605
  535MPD2     N 8054   3.779   1.679   8.008
  535MPD2    H5 8055   3.768   1.594   8.063
  535MPD2    N1 8056   3.918   1.333   7.693
  535MPD2    H7 8057   3.856   1.273   7.747
  536MPD2     C 8058   4.112   0.515   6.986
  536MPD2    C1 8059   4.002   0.587   6.958
  536MPD2    C2 8060   3.944   0.674   7.057
  536MPD2    C3 8061   4.000   0.690   7.178
  536MPD2    C4 8062   4.114   0.626   7.202
  536MPD2    C5 8063   4.170   0.533   7.117
  536MPD2     H 8064   3.854   0.730   7.038
  536MPD2    H1 8065   4.170   0.645   7.293
  536MPD2    H2 8066   4.163   0.460   6.907
  536MPD2    H3 8067   4.261   0.478   7.134
  536MPD2     N 8068   3.954   0.789   7.271
  536MPD2    H5 8069   3.855   0.809   7.285
  536MPD2    N1 8070   3.949   0.570   6.828
  536MPD2    H7 8071   3.990   0.494   6.774
  537MPD2     C 8072   1.422   0.045   7.719
  537MPD2    C1 8073   1.320   4.784   7.800
  537MPD2    C2 8074   1.189   0.022   7.772
  537MPD2    C3 8075   1.154   0.103   7.667
  537MPD2    C4 8076   1.259   0.158   7.590
  537MPD2    C5 8077   1.390   0.130   7.618
  537MPD2     H 8078   1.115   4.756   7.830
  537MPD2    H1 8079   1.240   0.205   7.494
  537MPD2    H2 8080   1.527   0.024   7.736
  537MPD2    H3 8081   1.456   0.178   7.547
  537MPD2     N 8082   1.018   0.140   7.622
  537MPD2    H5 8083   1.010   0.224   7.566
  537MPD2    N1 8084   1.345   4.697   7.911
  537MPD2    H7 8085   1.261   4.661   7.953
  538MPD2     C 8086   3.946   3.911   8.495
  538MPD2    C1 8087   3.946   4.051   8.499
  538MPD2    C2 8088   4.007   4.119   8.395
  538MPD2    C3 8089   4.050   4.052   8.284
  538MPD2    C4 8090   4.050   3.913   8.283
  538MPD2    C5 8091   4.012   3.843   8.394
  538MPD2     H 8092   3.998   4.227   8.392
  538MPD2    H1 8093   4.090   3.858   8.199
  538MPD2    H2 8094   3.911   3.855   8.581
  538MPD2    H3 8095   4.010   3.734   8.392
  538MPD2     N 8096   4.071   4.136   8.173
  538MPD2    H5 8097   4.062   4.236   8.190
  538MPD2    N1 8098   3.879   4.138   8.592
  538MPD2    H7 8099   3.888   4.237   8.577
  539MPD2     C 8100   4.607   4.321   7.386
  539MPD2    C1 8101   4.626   4.246   7.502
  539MPD2    C2 8102   4.518   4.219   7.584
  539MPD2    C3 8103   4.396   4.272   7.547
  539MPD2    C4 8104   4.380   4.347   7.428
  539MPD2    C5 8105   4.487   4.365   7.348
  539MPD2     H 8106   4.523   4.164   7.677
  539MPD2    H1 8107   4.285   4.389   7.396
  539MPD2    H2 8108   4.690   4.336   7.318
  539MPD2    H3 8109   4.480   4.414   7.252
  539MPD2     N 8110   4.281   4.250   7.628
  539MPD2    H5 8111   4.301   4.185   7.703
  539MPD2    N1 8112   4.753   4.197   7.517
  539MPD2    H7 8113   0.035   4.209   7.443
  540MPD2     C 8114   0.315   0.750  12.408
  540MPD2    C1 8115   0.323   0.630  12.344
  540MPD2    C2 8116   0.267   0.616  12.218
  540MPD2    C3 8117   0.196   0.720  12.161
  540MPD2    C4 8118   0.170   0.833  12.242
  540MPD2    C5 8119   0.239   0.852  12.356
  540MPD2     H 8120   0.262   0.521  12.167
  540MPD2    H1 8121   0.112   0.914  12.198
  540MPD2    H2 8122   0.360   0.769  12.505
  540MPD2    H3 8123   0.212   0.939  12.415
  540MPD2     N 8124   0.134   0.712  12.038
  540MPD2    H5 8125   0.082   0.797  12.018
  540MPD2    N1 8126   0.394   0.517  12.409
  540MPD2    H7 8127   0.424   0.448  12.341
  541MPD2     C 8128   0.168   0.032  12.705
  541MPD2    C1 8129   0.213   0.138  12.624
  541MPD2    C2 8130   0.263   0.109  12.505
  541MPD2    C3 8131   0.283   4.770  12.468
  541MPD2    C4 8132   0.229   4.665  12.539
  541MPD2    C5 8133   0.173   4.690  12.663
  541MPD2     H 8134   0.315   0.185  12.448
  541MPD2    H1 8135   0.252   4.563  12.511
  541MPD2    H2 8136   0.127   0.047  12.805
  541MPD2    H3 8137   0.144   4.612  12.732
  541MPD2     N 8138   0.349   4.764  12.341
  541MPD2    H5 8139   0.332   0.054  12.276
  541MPD2    N1 8140   0.211   0.282  12.649
  541MPD2    H7 8141   0.261   0.348  12.592
  542MPD2     C 8142   2.974   1.363  11.753
  542MPD2    C1 8143   2.995   1.438  11.870
  542MPD2    C2 8144   3.036   1.360  11.980
  542MPD2    C3 8145   3.060   1.219  11.965
  542MPD2    C4 8146   3.023   1.152  11.848
  542MPD2    C5 8147   2.984   1.227  11.741
  542MPD2     H 8148   3.060   1.405  12.076
  542MPD2    H1 8149   3.050   1.050  11.825
  542MPD2    H2 8150   2.942   1.412  11.662
  542MPD2    H3 8151   2.978   1.180  11.644
  542MPD2     N 8152   3.130   1.144  12.065
  542MPD2    H5 8153   3.169   1.059  12.026
  542MPD2    N1 8154   2.980   1.582  11.863
  542MPD2    H7 8155   2.943   1.612  11.773
  543MPD2     C 8156   3.325   2.183  11.993
  543MPD2    C1 8157   3.256   2.115  11.897
  543MPD2    C2 8158   3.326   2.018  11.826
  543MPD2    C3 8159   3.453   1.979  11.860
  543MPD2    C4 8160   3.524   2.044  11.952
  543MPD2    C5 8161   3.457   2.155  12.005
  543MPD2     H 8162   3.264   1.960  11.759
  543MPD2    H1 8163   3.617   2.011  11.997
  543MPD2    H2 8164   3.291   2.273  12.045
  543MPD2    H3 8165   3.513   2.216  12.074
  543MPD2     N 8166   3.492   1.851  11.838
  543MPD2    H5 8167   3.566   1.812  11.895
  543MPD2    N1 8168   3.115   2.106  11.891
  543MPD2    H7 8169   3.077   2.049  11.816
  544MPD2     C 8170   2.463   1.736  11.663
  544MPD2    C1 8171   2.537   1.790  11.761
  544MPD2    C2 8172   2.582   1.712  11.868
  544MPD2    C3 8173   2.567   1.574  11.862
  544MPD2    C4 8174   2.498   1.521  11.759
  544MPD2    C5 8175   2.460   1.603  11.660
  544MPD2     H 8176   2.624   1.763  11.955
  544MPD2    H1 8177   2.480   1.415  11.751
  544MPD2    H2 8178   2.425   1.788  11.576
  544MPD2    H3 8179   2.401   1.549  11.587
  544MPD2     N 8180   2.639   1.491  11.961
  544MPD2    H5 8181   2.661   1.522  12.055
  544MPD2    N1 8182   2.559   1.922  11.738
  544MPD2    H7 8183   2.509   1.953  11.656
  545MPD2     C 8184   4.771   3.416   6.215
  545MPD2    C1 8185   4.643   3.460   6.178
  545MPD2    C2 8186   4.614   3.596   6.176
  545MPD2    C3 8187   4.722   3.685   6.192
  545MPD2    C4 8188   0.066   3.639   6.209
  545MPD2    C5 8189   0.087   3.508   6.223
  545MPD2     H 8190   4.511   3.628   6.163
  545MPD2    H1 8191   0.156   3.699   6.221
  545MPD2    H2 8192   0.020   3.314   6.213
  545MPD2    H3 8193   0.186   3.478   6.253
  545MPD2     N 8194   4.704   3.822   6.203
  545MPD2    H5 8195   4.782   3.879   6.233
  545MPD2    N1 8196   4.546   3.358   6.151
  545MPD2    H7 8197   4.572   3.265   6.182
  546MPD2     C 8198   4.036   2.556   6.501
  546MPD2    C1 8199   4.115   2.652   6.558
  546MPD2    C2 8200   4.148   2.765   6.484
  546MPD2    C3 8201   4.133   2.761   6.343
  546MPD2    C4 8202   4.073   2.656   6.281
  546MPD2    C5 8203   4.018   2.561   6.368
  546MPD2     H 8204   4.198   2.846   6.535
  546MPD2    H1 8205   4.060   2.652   6.173
  546MPD2    H2 8206   3.981   2.483   6.560
  546MPD2    H3 8207   3.959   2.486   6.318
  546MPD2     N 8208   4.179   2.863   6.258
  546MPD2    H5 8209   4.143   2.860   6.163
  546MPD2    N1 8210   4.121   2.646   6.701
  546MPD2    H7 8211   4.053   2.576   6.730
  547MPD2     C 8212   0.526   4.225  11.305
  547MPD2    C1 8213   0.418   4.146  11.259
  547MPD2    C2 8214   0.438   4.092  11.134
  547MPD2    C3 8215   0.547   4.106  11.057
  547MPD2    C4 8216   0.656   4.167  11.115
  547MPD2    C5 8217   0.641   4.232  11.239
  547MPD2     H 8218   0.360   4.037  11.083
  547MPD2    H1 8219   0.753   4.169  11.067
  547MPD2    H2 8220   0.520   4.264  11.406
  547MPD2    H3 8221   0.727   4.280  11.284
  547MPD2     N 8222   0.544   4.060  10.925
  547MPD2    H5 8223   0.452   4.027  10.898
  547MPD2    N1 8224   0.290   4.155  11.320
  547MPD2    H7 8225   0.272   4.228  11.389
  548MPD2     C 8226   0.580   4.743  10.490
  548MPD2    C1 8227   0.589   4.617  10.439
  548MPD2    C2 8228   0.659   4.599  10.322
  548MPD2    C3 8229   0.726   4.697  10.255
  548MPD2    C4 8230   0.709   0.038  10.304
  548MPD2    C5 8231   0.640   0.056  10.424
  548MPD2     H 8232   0.669   4.497  10.284
  548MPD2    H1 8233   0.763   0.120  10.257
  548MPD2    H2 8234   0.530   4.769  10.583
  548MPD2    H3 8235   0.633   0.156  10.466
  548MPD2     N 8236   0.800   4.667  10.143
  548MPD2    H5 8237   0.789   4.571  10.110
  548MPD2    N1 8238   0.547   4.505  10.513
  548MPD2    H7 8239   0.485   4.513  10.593
  549MPD2     C 8240   4.539   1.531  13.682
  549MPD2    C1 8241   4.416   1.561  13.725
  549MPD2    C2 8242   4.378   1.504  13.844
  549MPD2    C3 8243   4.450   1.419  13.921
  549MPD2    C4 8244   4.577   1.388  13.875
  549MPD2    C5 8245   4.612   1.443  13.758
  549MPD2     H 8246   4.273   1.518  13.870
  549MPD2    H1 8247   4.645   1.325  13.932
  549MPD2    H2 8248   4.581   1.558  13.586
  549MPD2    H3 8249   4.704   1.407  13.714
  549MPD2     N 8250   4.395   1.342  14.024
  549MPD2    H5 8251   4.451   1.261  14.047
  549MPD2    N1 8252   4.320   1.622  13.637
  549MPD2    H7 8253   4.221   1.598  13.647
  550MPD2     C 8254   3.412   1.331  13.998
  550MPD2    C1 8255   3.454   1.210  14.047
  550MPD2    C2 8256   3.580   1.192  14.096
  550MPD2    C3 8257   3.672   1.294  14.098
  550MPD2    C4 8258   3.643   1.410  14.024
  550MPD2    C5 8259   3.510   1.425  13.982
  550MPD2     H 8260   3.608   1.098  14.144
  550MPD2    H1 8261   3.704   1.492  13.990
  550MPD2    H2 8262   3.315   1.354  13.955
  550MPD2    H3 8263   3.483   1.521  13.939
  550MPD2     N 8264   3.807   1.287  14.143
  550MPD2    H5 8265   3.884   1.344  14.110
  550MPD2    N1 8266   3.365   1.104  14.015
  550MPD2    H7 8267   3.276   1.151  14.000
  551MPD2     C 8268   3.142   4.087   9.385
  551MPD2    C1 8269   3.108   4.183   9.291
  551MPD2    C2 8270   3.211   4.221   9.204
  551MPD2    C3 8271   3.342   4.173   9.200
  551MPD2    C4 8272   3.371   4.076   9.293
  551MPD2    C5 8273   3.267   4.035   9.375
  551MPD2     H 8274   3.193   4.302   9.134
  551MPD2    H1 8275   3.460   4.014   9.288
  551MPD2    H2 8276   3.071   4.061   9.463
  551MPD2    H3 8277   3.292   3.952   9.440
  551MPD2     N 8278   3.430   4.231   9.102
  551MPD2    H5 8279   3.387   4.296   9.038
  551MPD2    N1 8280   2.980   4.237   9.273
  551MPD2    H7 8281   2.972   4.298   9.192
  552MPD2     C 8282   1.148   3.643  15.097
  552MPD2    C1 8283   1.167   3.703  14.973
  552MPD2    C2 8284   1.179   3.635  14.854
  552MPD2    C3 8285   1.180   3.495  14.854
  552MPD2    C4 8286   1.165   3.435  14.980
  552MPD2    C5 8287   1.155   3.510  15.093
  552MPD2     H 8288   1.178   3.700  14.768
  552MPD2    H1 8289   1.164   3.327  14.989
  552MPD2    H2 8290   1.140   3.687  15.195
  552MPD2    H3 8291   1.137   3.455  15.185
  552MPD2     N 8292   1.207   3.428  14.731
  552MPD2    H5 8293   1.229   3.490  14.653
  552MPD2    N1 8294   1.149   3.842  14.962
  552MPD2    H7 8295   1.144   3.880  14.868
  553MPD2     C 8296   1.619   2.905   9.383
  553MPD2    C1 8297   1.633   3.012   9.465
  553MPD2    C2 8298   1.555   3.026   9.578
  553MPD2    C3 8299   1.466   2.935   9.614
  553MPD2    C4 8300   1.451   2.826   9.534
  553MPD2    C5 8301   1.528   2.807   9.419
  553MPD2     H 8302   1.565   3.111   9.645
  553MPD2    H1 8303   1.391   2.740   9.562
  553MPD2    H2 8304   1.672   2.896   9.289
  553MPD2    H3 8305   1.506   2.721   9.357
  553MPD2     N 8306   1.399   2.943   9.738
  553MPD2    H5 8307   1.413   3.029   9.790
  553MPD2    N1 8308   1.734   3.096   9.413
  553MPD2    H7 8309   1.779   3.064   9.328
  554MPD2     C 8310   3.553   2.787  11.249
  554MPD2    C1 8311   3.544   2.773  11.382
  554MPD2    C2 8312   3.419   2.757  11.432
  554MPD2    C3 8313   3.302   2.764  11.354
  554MPD2    C4 8314   3.318   2.773  11.217
  554MPD2    C5 8315   3.445   2.790  11.172
  554MPD2     H 8316   3.417   2.753  11.541
  554MPD2    H1 8317   3.234   2.780  11.149
  554MPD2    H2 8318   3.651   2.789  11.203
  554MPD2    H3 8319   3.455   2.810  11.066
  554MPD2     N 8320   3.176   2.754  11.417
  554MPD2    H5 8321   3.185   2.723  11.513
  554MPD2    N1 8322   3.668   2.741  11.450
  554MPD2    H7 8323   3.747   2.725  11.388
  555MPD2     C 8324   4.253   2.548  12.029
  555MPD2    C1 8325   4.121   2.588  12.048
  555MPD2    C2 8326   4.083   2.660  12.160
  555MPD2    C3 8327   4.168   2.681  12.266
  555MPD2    C4 8328   4.307   2.647  12.247
  555MPD2    C5 8329   4.347   2.582  12.128
  555MPD2     H 8330   3.980   2.691  12.160
  555MPD2    H1 8331   4.386   2.671  12.318
  555MPD2    H2 8332   4.287   2.508  11.934
  555MPD2    H3 8333   4.452   2.564  12.108
  555MPD2     N 8334   4.115   2.750  12.377
  555MPD2    H5 8335   4.014   2.763  12.367
  555MPD2    N1 8336   4.023   2.572  11.947
  555MPD2    H7 8337   4.065   2.534  11.863
  556MPD2     C 8338   3.304   3.048  13.232
  556MPD2    C1 8339   3.189   2.984  13.252
  556MPD2    C2 8340   3.069   3.055  13.277
  556MPD2    C3 8341   3.062   3.193  13.279
  556MPD2    C4 8342   3.184   3.259  13.253
  556MPD2    C5 8343   3.301   3.185  13.226
  556MPD2     H 8344   2.987   2.999  13.320
  556MPD2    H1 8345   3.189   3.367  13.252
  556MPD2    H2 8346   3.396   2.998  13.202
  556MPD2    H3 8347   3.389   3.244  13.205
  556MPD2     N 8348   2.947   3.268  13.322
  556MPD2    H5 8349   2.962   3.363  13.354
  556MPD2    N1 8350   3.179   2.842  13.279
  556MPD2    H7 8351   3.094   2.802  13.318
  557MPD2     C 8352   4.492   2.132  12.374
  557MPD2    C1 8353   4.461   2.107  12.243
  557MPD2    C2 8354   4.550   2.039  12.159
  557MPD2    C3 8355   4.671   1.986  12.204
  557MPD2    C4 8356   4.699   2.011  12.334
  557MPD2    C5 8357   4.613   2.076  12.418
  557MPD2     H 8358   4.520   2.022  12.056
  557MPD2    H1 8359   0.006   1.975  12.376
  557MPD2    H2 8360   4.432   2.186  12.446
  557MPD2    H3 8361   4.656   2.077  12.517
  557MPD2     N 8362   4.756   1.904  12.120
  557MPD2    H5 8363   4.716   1.863  12.036
  557MPD2    N1 8364   4.339   2.147  12.185
  557MPD2    H7 8365   4.330   2.134  12.085
  558MPD2     C 8366   2.254   1.927  14.912
  558MPD2    C1 8367   2.284   1.964  14.783
  558MPD2    C2 8368   2.184   1.953  14.687
  558MPD2    C3 8369   2.055   1.908  14.715
  558MPD2    C4 8370   2.022   1.886  14.849
  558MPD2    C5 8371   2.130   1.885  14.938
  558MPD2     H 8372   2.224   1.983  14.590
  558MPD2    H1 8373   1.925   1.861  14.889
  558MPD2    H2 8374   2.331   1.913  14.987
  558MPD2    H3 8375   2.102   1.852  15.038
  558MPD2     N 8376   1.958   1.892  14.611
  558MPD2    H5 8377   1.990   1.903  14.515
  558MPD2    N1 8378   2.412   2.019  14.737
  558MPD2    H7 8379   2.417   2.065  14.647
  559MPD2     C 8380   1.119   1.965  14.865
  559MPD2    C1 8381   1.245   1.995  14.907
  559MPD2    C2 8382   1.346   1.988  14.816
  559MPD2    C3 8383   1.317   1.938  14.688
  559MPD2    C4 8384   1.191   1.921  14.646
  559MPD2    C5 8385   1.090   1.927  14.737
  559MPD2     H 8386   1.452   1.996  14.835
  559MPD2    H1 8387   1.159   1.900  14.545
  559MPD2    H2 8388   1.032   1.969  14.929
  559MPD2    H3 8389   0.986   1.919  14.708
  559MPD2     N 8390   1.427   1.913  14.603
  559MPD2    H5 8391   1.514   1.938  14.649
  559MPD2    N1 8392   1.257   2.051  15.033
  559MPD2    H7 8393   1.173   2.072  15.085
  560MPD2     C 8394   1.899   1.032  11.985
  560MPD2    C1 8395   1.927   0.899  11.977
  560MPD2    C2 8396   1.831   0.803  11.944
  560MPD2    C3 8397   1.697   0.841  11.920
  560MPD2    C4 8398   1.671   0.977  11.933
  560MPD2    C5 8399   1.772   1.070  11.955
  560MPD2     H 8400   1.856   0.698  11.936
  560MPD2    H1 8401   1.572   1.016  11.947
  560MPD2    H2 8402   1.961   1.115  12.016
  560MPD2    H3 8403   1.745   1.173  11.972
  560MPD2     N 8404   1.605   0.734  11.901
  560MPD2    H5 8405   1.636   0.637  11.900
  560MPD2    N1 8406   2.059   0.862  12.019
  560MPD2    H7 8407   2.123   0.939  12.001
  561MPD2     C 8408   3.110   3.468   8.540
  561MPD2    C1 8409   3.050   3.506   8.424
  561MPD2    C2 8410   3.120   3.595   8.342
  561MPD2    C3 8411   3.245   3.644   8.381
  561MPD2    C4 8412   3.303   3.612   8.500
  561MPD2    C5 8413   3.235   3.516   8.578
  561MPD2     H 8414   3.084   3.629   8.246
  561MPD2    H1 8415   3.384   3.669   8.544
  561MPD2    H2 8416   3.063   3.390   8.598
  561MPD2    H3 8417   3.293   3.479   8.661
  561MPD2     N 8418   3.327   3.722   8.301
  561MPD2    H5 8419   3.419   3.727   8.342
  561MPD2    N1 8420   2.921   3.459   8.400
  561MPD2    H7 8421   2.872   3.406   8.472
  562MPD2     C 8422   2.582   3.987   8.823
  562MPD2    C1 8423   2.693   3.916   8.771
  562MPD2    C2 8424   2.676   3.833   8.668
  562MPD2    C3 8425   2.550   3.805   8.629
  562MPD2    C4 8426   2.439   3.863   8.684
  562MPD2    C5 8427   2.457   3.956   8.779
  562MPD2     H 8428   2.760   3.789   8.616
  562MPD2    H1 8429   2.337   3.842   8.652
  562MPD2    H2 8430   2.598   4.077   8.881
  562MPD2    H3 8431   2.370   3.998   8.827
  562MPD2     N 8432   2.543   3.707   8.525
  562MPD2    H5 8433   2.631   3.683   8.481
  562MPD2    N1 8434   2.823   3.933   8.810
  562MPD2    H7 8435   2.896   3.903   8.746
  563MPD2     C 8436   0.639   1.338  10.593
  563MPD2    C1 8437   0.603   1.423  10.701
  563MPD2    C2 8438   0.638   1.555  10.694
  563MPD2    C3 8439   0.732   1.603  10.605
  563MPD2    C4 8440   0.774   1.519  10.500
  563MPD2    C5 8441   0.723   1.390  10.492
  563MPD2     H 8442   0.602   1.632  10.762
  563MPD2    H1 8443   0.841   1.551  10.421
  563MPD2    H2 8444   0.610   1.234  10.583
  563MPD2    H3 8445   0.755   1.321  10.415
  563MPD2     N 8446   0.783   1.728  10.635
  563MPD2    H5 8447   0.735   1.788  10.702
  563MPD2    N1 8448   0.513   1.374  10.793
  563MPD2    H7 8449   0.476   1.283  10.768
  564MPD2     C 8450   4.625   4.510  12.981
  564MPD2    C1 8451   4.588   4.631  12.916
  564MPD2    C2 8452   4.603   4.645  12.782
  564MPD2    C3 8453   4.669   4.545  12.714
  564MPD2    C4 8454   4.703   4.428  12.780
  564MPD2    C5 8455   4.688   4.411  12.918
  564MPD2     H 8456   4.565   4.736  12.739
  564MPD2    H1 8457   4.752   4.345  12.730
  564MPD2    H2 8458   4.620   4.493  13.088
  564MPD2    H3 8459   4.723   4.328  12.979
  564MPD2     N 8460   4.687   4.554  12.567
  564MPD2    H5 8461   4.736   4.477  12.523
  564MPD2    N1 8462   4.519   4.738  12.982
  564MPD2    H7 8463   4.511   0.040  12.933
  565MPD2     C 8464   4.117   4.759  13.926
  565MPD2    C1 8465   4.053   0.041  13.830
  565MPD2    C2 8466   4.109   0.078  13.711
  565MPD2    C3 8467   4.238   0.040  13.679
  565MPD2    C4 8468   4.312   4.767  13.781
  565MPD2    C5 8469   4.250   4.732  13.895
  565MPD2     H 8470   4.035   0.127  13.648
  565MPD2    H1 8471   4.419   4.754  13.767
  565MPD2    H2 8472   4.075   4.738  14.024
  565MPD2    H3 8473   4.305   4.679  13.972
  565MPD2     N 8474   4.306   0.082  13.559
  565MPD2    H5 8475   4.405   0.060  13.552
  565MPD2    N1 8476   3.922   0.091  13.844
  565MPD2    H7 8477   3.888   0.144  13.764
  566MPD2     C 8478   2.740   3.748  12.119
  566MPD2    C1 8479   2.674   3.632  12.155
  566MPD2    C2 8480   2.566   3.637  12.238
  566MPD2    C3 8481   2.511   3.756  12.270
  566MPD2    C4 8482   2.577   3.875  12.233
  566MPD2    C5 8483   2.686   3.872  12.152
  566MPD2     H 8484   2.513   3.549  12.273
  566MPD2    H1 8485   2.551   3.970  12.279
  566MPD2    H2 8486   2.833   3.746  12.064
  566MPD2    H3 8487   2.749   3.960  12.137
  566MPD2     N 8488   2.410   3.766  12.375
  566MPD2    H5 8489   2.410   3.854  12.424
  566MPD2    N1 8490   2.722   3.504  12.105
  566MPD2    H7 8491   2.811   3.497  12.056
  567MPD2     C 8492   3.322   2.810   8.707
  567MPD2    C1 8493   3.289   2.675   8.690
  567MPD2    C2 8494   3.308   2.615   8.565
  567MPD2    C3 8495   3.345   2.690   8.454
  567MPD2    C4 8496   3.365   2.828   8.475
  567MPD2    C5 8497   3.356   2.881   8.601
  567MPD2     H 8498   3.295   2.508   8.562
  567MPD2    H1 8499   3.398   2.898   8.399
  567MPD2    H2 8500   3.327   2.856   8.805
  567MPD2    H3 8501   3.380   2.986   8.608
  567MPD2     N 8502   3.364   2.629   8.328
  567MPD2    H5 8503   3.367   2.687   8.245
  567MPD2    N1 8504   3.251   2.598   8.801
  567MPD2    H7 8505   3.260   2.497   8.792
  568MPD2     C 8506   3.388   2.967   7.475
  568MPD2    C1 8507   3.267   2.902   7.499
  568MPD2    C2 8508   3.278   2.789   7.581
  568MPD2    C3 8509   3.385   2.775   7.669
  568MPD2    C4 8510   3.496   2.860   7.653
  568MPD2    C5 8511   3.499   2.942   7.547
  568MPD2     H 8512   3.193   2.722   7.593
  568MPD2    H1 8513   3.593   2.839   7.696
  568MPD2    H2 8514   3.406   3.045   7.402
  568MPD2    H3 8515   3.587   3.002   7.522
  568MPD2     N 8516   3.383   2.664   7.756
  568MPD2    H5 8517   3.300   2.606   7.754
  568MPD2    N1 8518   3.147   2.921   7.422
  568MPD2    H7 8519   3.069   2.861   7.446
  569MPD2     C 8520   3.730   1.419  12.615
  569MPD2    C1 8521   3.700   1.328  12.518
  569MPD2    C2 8522   3.584   1.248  12.536
  569MPD2    C3 8523   3.506   1.242  12.657
  569MPD2    C4 8524   3.553   1.331  12.753
  569MPD2    C5 8525   3.655   1.417  12.725
  569MPD2     H 8526   3.553   1.174  12.462
  569MPD2    H1 8527   3.507   1.346  12.850
  569MPD2    H2 8528   3.810   1.492  12.621
  569MPD2    H3 8529   3.683   1.490  12.800
  569MPD2     N 8530   3.406   1.148  12.681
  569MPD2    H5 8531   3.385   1.132  12.780
  569MPD2    N1 8532   3.777   1.310  12.404
  569MPD2    H7 8533   3.746   1.232  12.346
  570MPD2     C 8534   4.471   3.696  13.601
  570MPD2    C1 8535   4.339   3.708  13.562
  570MPD2    C2 8536   4.305   3.657  13.435
  570MPD2    C3 8537   4.402   3.602  13.351
  570MPD2    C4 8538   4.534   3.609  13.388
  570MPD2    C5 8539   4.570   3.662  13.513
  570MPD2     H 8540   4.204   3.655  13.396
  570MPD2    H1 8541   4.617   3.605  13.317
  570MPD2    H2 8542   4.512   3.747  13.687
  570MPD2    H3 8543   4.674   3.680  13.538
  570MPD2     N 8544   4.358   3.545  13.223
  570MPD2    H5 8545   4.260   3.556  13.201
  570MPD2    N1 8546   4.233   3.763  13.645
  570MPD2    H7 8547   4.141   3.755  13.603
  571MPD2     C 8548   2.824   2.341   8.641
  571MPD2    C1 8549   2.842   2.455   8.719
  571MPD2    C2 8550   2.802   2.459   8.849
  571MPD2    C3 8551   2.745   2.354   8.912
  571MPD2    C4 8552   2.732   2.236   8.833
  571MPD2    C5 8553   2.769   2.230   8.700
  571MPD2     H 8554   2.802   2.550   8.909
  571MPD2    H1 8555   2.683   2.151   8.879
  571MPD2    H2 8556   2.830   2.346   8.533
  571MPD2    H3 8557   2.749   2.141   8.641
  571MPD2     N 8558   2.686   2.371   9.043
  571MPD2    H5 8559   2.682   2.465   9.081
  571MPD2    N1 8560   2.896   2.585   8.669
  571MPD2    H7 8561   2.898   2.663   8.735
  572MPD2     C 8562   2.702   3.038   9.229
  572MPD2    C1 8563   2.727   2.908   9.182
  572MPD2    C2 8564   2.813   2.886   9.069
  572MPD2    C3 8565   2.862   2.992   8.999
  572MPD2    C4 8566   2.825   3.119   9.045
  572MPD2    C5 8567   2.755   3.140   9.157
  572MPD2     H 8568   2.837   2.788   9.031
  572MPD2    H1 8569   2.856   3.205   8.987
  572MPD2    H2 8570   2.645   3.066   9.317
  572MPD2    H3 8571   2.749   3.241   9.195
  572MPD2     N 8572   2.938   2.961   8.879
  572MPD2    H5 8573   2.970   2.866   8.866
  572MPD2    N1 8574   2.659   2.802   9.236
  572MPD2    H7 8575   2.622   2.819   9.329
  573MPD2     C 8576   0.260   1.747   6.569
  573MPD2    C1 8577   0.312   1.763   6.698
  573MPD2    C2 8578   0.414   1.681   6.741
  573MPD2    C3 8579   0.465   1.579   6.661
  573MPD2    C4 8580   0.412   1.572   6.534
  573MPD2    C5 8581   0.310   1.653   6.486
  573MPD2     H 8582   0.457   1.696   6.840
  573MPD2    H1 8583   0.442   1.500   6.459
  573MPD2    H2 8584   0.174   1.806   6.540
  573MPD2    H3 8585   0.287   1.658   6.380
  573MPD2     N 8586   0.560   1.475   6.688
  573MPD2    H5 8587   0.581   1.416   6.608
  573MPD2    N1 8588   0.250   1.856   6.777
  573MPD2    H7 8589   0.171   1.906   6.737
  574MPD2     C 8590   0.615   1.246   6.271
  574MPD2    C1 8591   0.706   1.243   6.369
  574MPD2    C2 8592   0.762   1.361   6.409
  574MPD2    C3 8593   0.727   1.479   6.348
  574MPD2    C4 8594   0.630   1.487   6.254
  574MPD2    C5 8595   0.581   1.365   6.213
  574MPD2     H 8596   0.854   1.350   6.465
  574MPD2    H1 8597   0.581   1.575   6.213
  574MPD2    H2 8598   0.586   1.153   6.223
  574MPD2    H3 8599   0.519   1.354   6.125
  574MPD2     N 8600   0.778   1.607   6.392
  574MPD2    H5 8601   0.740   1.686   6.340
  574MPD2    N1 8602   0.740   1.118   6.425
  574MPD2    H7 8603   0.705   1.050   6.359
  575MPD2     C 8604   2.612   2.343   7.379
  575MPD2    C1 8605   2.531   2.453   7.387
  575MPD2    C2 8606   2.573   2.573   7.328
  575MPD2    C3 8607   2.691   2.578   7.263
  575MPD2    C4 8608   2.769   2.462   7.249
  575MPD2    C5 8609   2.728   2.345   7.312
  575MPD2     H 8610   2.508   2.657   7.348
  575MPD2    H1 8611   2.866   2.445   7.205
  575MPD2    H2 8612   2.580   2.246   7.415
  575MPD2    H3 8613   2.785   2.252   7.314
  575MPD2     N 8614   2.745   2.693   7.214
  575MPD2    H5 8615   2.841   2.679   7.184
  575MPD2    N1 8616   2.411   2.444   7.454
  575MPD2    H7 8617   2.400   2.366   7.518
  576MPD2     C 8618   0.729   3.910  12.222
  576MPD2    C1 8619   0.718   4.046  12.192
  576MPD2    C2 8620   0.819   4.111  12.119
  576MPD2    C3 8621   0.926   4.039  12.065
  576MPD2    C4 8622   0.935   3.907  12.094
  576MPD2    C5 8623   0.838   3.843  12.162
  576MPD2     H 8624   0.812   4.219  12.106
  576MPD2    H1 8625   1.021   3.851  12.059
  576MPD2    H2 8626   0.662   3.846  12.278
  576MPD2    H3 8627   0.838   3.735  12.175
  576MPD2     N 8628   1.043   4.099  12.016
  576MPD2    H5 8629   1.124   4.039  12.026
  576MPD2    N1 8630   0.613   4.121  12.251
  576MPD2    H7 8631   0.559   4.071  12.320
  577MPD2     C 8632   1.088   4.118  12.598
  577MPD2    C1 8633   1.076   4.236  12.519
  577MPD2    C2 8634   0.961   4.316  12.539
  577MPD2    C3 8635   0.857   4.278  12.627
  577MPD2    C4 8636   0.878   4.170  12.706
  577MPD2    C5 8637   0.995   4.093  12.697
  577MPD2     H 8638   0.934   4.382  12.456
  577MPD2    H1 8639   0.816   4.112  12.773
  577MPD2    H2 8640   1.177   4.058  12.590
  577MPD2    H3 8641   1.006   4.011  12.766
  577MPD2     N 8642   0.731   4.341  12.620
  577MPD2    H5 8643   0.652   4.304  12.671
  577MPD2    N1 8644   1.166   4.262  12.406
  577MPD2    H7 8645   1.218   4.187  12.362
  578MPD2     C 8646   0.921   1.050  13.048
  578MPD2    C1 8647   0.978   1.102  12.931
  578MPD2    C2 8648   0.904   1.193  12.858
  578MPD2    C3 8649   0.771   1.213  12.880
  578MPD2    C4 8650   0.716   1.162  12.995
  578MPD2    C5 8651   0.790   1.078  13.073
  578MPD2     H 8652   0.939   1.243  12.768
  578MPD2    H1 8653   0.612   1.183  13.014
  578MPD2    H2 8654   0.971   0.969  13.101
  578MPD2    H3 8655   0.744   1.034  13.161
  578MPD2     N 8656   0.706   1.297  12.787
  578MPD2    H5 8657   0.746   1.296  12.693
  578MPD2    N1 8658   1.106   1.055  12.891
  578MPD2    H7 8659   1.156   1.016  12.970
  579MPD2     C 8660   0.543   0.863  12.222
  579MPD2    C1 8661   0.479   0.978  12.178
  579MPD2    C2 8662   0.438   0.976  12.047
  579MPD2    C3 8663   0.443   0.862  11.968
  579MPD2    C4 8664   0.494   0.743  12.018
  579MPD2    C5 8665   0.548   0.751  12.144
  579MPD2     H 8666   0.404   1.068  12.001
  579MPD2    H1 8667   0.505   0.652  11.960
  579MPD2    H2 8668   0.585   0.860  12.322
  579MPD2    H3 8669   0.588   0.660  12.188
  579MPD2     N 8670   0.393   0.854  11.838
  579MPD2    H5 8671   0.417   0.773  11.782
  579MPD2    N1 8672   0.482   1.100  12.246
  579MPD2    H7 8673   0.467   1.188  12.198
  580MPD2     C 8674   3.941   3.435  10.196
  580MPD2    C1 8675   4.009   3.552  10.226
  580MPD2    C2 8676   4.147   3.546  10.240
  580MPD2    C3 8677   4.223   3.436  10.225
  580MPD2    C4 8678   4.151   3.320  10.194
  580MPD2    C5 8679   4.018   3.325  10.184
  580MPD2     H 8680   4.196   3.639  10.265
  580MPD2    H1 8681   4.204   3.225  10.194
  580MPD2    H2 8682   3.833   3.434  10.185
  580MPD2    H3 8683   3.970   3.228  10.175
  580MPD2     N 8684   4.366   3.434  10.238
  580MPD2    H5 8685   4.403   3.340  10.236
  580MPD2    N1 8686   3.949   3.679  10.244
  580MPD2    H7 8687   4.016   3.746  10.281
  581MPD2     C 8688   4.180   4.329  10.182
  581MPD2    C1 8689   4.142   4.204  10.226
  581MPD2    C2 8690   4.193   4.092  10.169
  581MPD2    C3 8691   4.292   4.103  10.073
  581MPD2    C4 8692   4.352   4.224  10.039
  581MPD2    C5 8693   4.283   4.331  10.087
  581MPD2     H 8694   4.141   3.999  10.190
  581MPD2    H1 8695   4.437   4.234   9.972
  581MPD2    H2 8696   4.137   4.417  10.228
  581MPD2    H3 8697   4.325   4.428  10.067
  581MPD2     N 8698   4.344   3.984  10.011
  581MPD2    H5 8699   4.421   4.002   9.947
  581MPD2    N1 8700   4.020   4.197  10.304
  581MPD2    H7 8701   3.955   4.275  10.303
  582MPD2     C 8702   4.760   0.778  10.312
  582MPD2    C1 8703   4.692   0.836  10.203
  582MPD2    C2 8704   4.569   0.788  10.159
  582MPD2    C3 8705   4.528   0.666  10.212
  582MPD2    C4 8706   4.595   0.613  10.320
  582MPD2    C5 8707   4.706   0.672  10.374
  582MPD2     H 8708   4.510   0.843  10.086
  582MPD2    H1 8709   4.555   0.522  10.363
  582MPD2    H2 8710   0.053   0.832  10.362
  582MPD2    H3 8711   4.738   0.620  10.464
  582MPD2     N 8712   4.414   0.602  10.159
  582MPD2    H5 8713   4.382   0.518  10.206
  582MPD2    N1 8714   4.749   0.952  10.140
  582MPD2    H7 8715   4.697   0.998  10.067
  583MPD2     C 8716   0.420   0.924   7.646
  583MPD2    C1 8717   0.347   0.913   7.529
  583MPD2    C2 8718   0.281   1.013   7.462
  583MPD2    C3 8719   0.284   1.138   7.521
  583MPD2    C4 8720   0.354   1.150   7.637
  583MPD2    C5 8721   0.413   1.047   7.703
  583MPD2     H 8722   0.240   0.990   7.365
  583MPD2    H1 8723   0.364   1.244   7.692
  583MPD2    H2 8724   0.462   0.846   7.707
  583MPD2    H3 8725   0.467   1.049   7.797
  583MPD2     N 8726   0.225   1.247   7.448
  583MPD2    H5 8727   0.196   1.238   7.351
  583MPD2    N1 8728   0.339   0.787   7.467
  583MPD2    H7 8729   0.272   0.770   7.393
  584MPD2     C 8730   0.733   0.005   7.080
  584MPD2    C1 8731   0.703   0.132   7.041
  584MPD2    C2 8732   0.642   0.215   7.141
  584MPD2    C3 8733   0.603   0.162   7.260
  584MPD2    C4 8734   0.629   0.030   7.282
  584MPD2    C5 8735   0.700   4.740   7.201
  584MPD2     H 8736   0.616   0.320   7.136
  584MPD2    H1 8737   0.600   4.768   7.375
  584MPD2    H2 8738   0.781   4.735   7.001
  584MPD2    H3 8739   0.725   4.640   7.232
  584MPD2     N 8740   0.528   0.244   7.352
  584MPD2    H5 8741   0.521   0.342   7.325
  584MPD2    N1 8742   0.755   0.186   6.924
  584MPD2    H7 8743   0.836   0.142   6.882
  585MPD2     C 8744   3.444   0.970  11.848
  585MPD2    C1 8745   3.476   1.099  11.825
  585MPD2    C2 8746   3.599   1.147  11.849
  585MPD2    C3 8747   3.692   1.067  11.899
  585MPD2    C4 8748   3.663   0.930  11.914
  585MPD2    C5 8749   3.544   0.882  11.886
  585MPD2     H 8750   3.635   1.245  11.819
  585MPD2    H1 8751   3.737   0.855  11.939
  585MPD2    H2 8752   3.348   0.926  11.822
  585MPD2    H3 8753   3.534   0.774  11.892
  585MPD2     N 8754   3.807   1.128  11.950
  585MPD2    H5 8755   3.817   1.229  11.949
  585MPD2    N1 8756   3.367   1.172  11.773
  585MPD2    H7 8757   3.301   1.107  11.731
  586MPD2     C 8758   2.584   2.942  10.815
  586MPD2    C1 8759   2.594   2.870  10.934
  586MPD2    C2 8760   2.496   2.774  10.960
  586MPD2    C3 8761   2.403   2.741  10.862
  586MPD2    C4 8762   2.403   2.813  10.739
  586MPD2    C5 8763   2.496   2.909  10.712
  586MPD2     H 8764   2.507   2.707  11.045
  586MPD2    H1 8765   2.334   2.787  10.659
  586MPD2    H2 8766   2.658   3.020  10.798
  586MPD2    H3 8767   2.480   2.965  10.620
  586MPD2     N 8768   2.319   2.628  10.876
  586MPD2    H5 8769   2.300   2.600  10.971
  586MPD2    N1 8770   2.696   2.892  11.034
  586MPD2    H7 8771   2.693   2.829  11.114
  587MPD2     C 8772   4.296   1.238  11.447
  587MPD2    C1 8773   4.386   1.341  11.452
  587MPD2    C2 8774   4.521   1.318  11.439
  587MPD2    C3 8775   4.563   1.185  11.432
  587MPD2    C4 8776   4.468   1.078  11.426
  587MPD2    C5 8777   4.333   1.107  11.431
  587MPD2     H 8778   4.600   1.391  11.446
  587MPD2    H1 8779   4.489   0.973  11.410
  587MPD2    H2 8780   4.192   1.266  11.460
  587MPD2    H3 8781   4.267   1.021  11.437
  587MPD2     N 8782   4.703   1.163  11.442
  587MPD2    H5 8783   4.762   1.241  11.466
  587MPD2    N1 8784   4.345   1.466  11.484
  587MPD2    H7 8785   4.244   1.474  11.495
  588MPD2     C 8786   0.005   1.906  11.419
  588MPD2    C1 8787   4.660   1.925  11.396
  588MPD2    C2 8788   4.579   1.969  11.496
  588MPD2    C3 8789   4.622   1.978  11.625
  588MPD2    C4 8790   4.756   1.955  11.654
  588MPD2    C5 8791   0.052   1.927  11.547
  588MPD2     H 8792   4.479   1.999  11.466
  588MPD2    H1 8793   0.011   1.955  11.754
  588MPD2    H2 8794   0.081   1.879  11.346
  588MPD2    H3 8795   0.159   1.917  11.558
  588MPD2     N 8796   4.538   2.007  11.734
  588MPD2    H5 8797   4.590   2.034  11.817
  588MPD2    N1 8798   4.600   1.898  11.265
  588MPD2    H7 8799   4.505   1.932  11.261
  589MPD2     C 8800   3.860   3.961  13.140
  589MPD2    C1 8801   3.974   3.972  13.062
  589MPD2    C2 8802   4.019   3.856  12.999
  589MPD2    C3 8803   3.957   3.739  13.000
  589MPD2    C4 8804   3.846   3.723  13.085
  589MPD2    C5 8805   3.795   3.843  13.138
  589MPD2     H 8806   4.107   3.867  12.935
  589MPD2    H1 8807   3.795   3.628  13.082
  589MPD2    H2 8808   3.814   4.041  13.197
  589MPD2    H3 8809   3.701   3.834  13.192
  589MPD2     N 8810   4.021   3.627  12.941
  589MPD2    H5 8811   3.959   3.548  12.954
  589MPD2    N1 8812   4.052   4.086  13.060
  589MPD2    H7 8813   4.134   4.077  13.000
  590MPD2     C 8814   1.549   2.232   6.272
  590MPD2    C1 8815   1.492   2.258   6.397
  590MPD2    C2 8816   1.361   2.216   6.423
  590MPD2    C3 8817   1.298   2.128   6.339
  590MPD2    C4 8818   1.350   2.105   6.209
  590MPD2    C5 8819   1.467   2.172   6.180
  590MPD2     H 8820   1.324   2.226   6.524
  590MPD2    H1 8821   1.324   2.023   6.142
  590MPD2    H2 8822   1.652   2.258   6.250
  590MPD2    H3 8823   1.516   2.147   6.087
  590MPD2     N 8824   1.186   2.066   6.397
  590MPD2    H5 8825   1.186   2.053   6.498
  590MPD2    N1 8826   1.577   2.313   6.494
  590MPD2    H7 8827   1.672   2.326   6.460
  591MPD2     C 8828   1.184   2.717  13.636
  591MPD2    C1 8829   1.098   2.607  13.655
  591MPD2    C2 8830   1.093   2.556  13.779
  591MPD2    C3 8831   1.176   2.596  13.883
  591MPD2    C4 8832   1.249   2.711  13.866
  591MPD2    C5 8833   1.251   2.769  13.743
  591MPD2     H 8834   1.028   2.470  13.791
  591MPD2    H1 8835   1.300   2.761  13.948
  591MPD2    H2 8836   1.196   2.767  13.540
  591MPD2    H3 8837   1.312   2.859  13.740
  591MPD2     N 8838   1.196   2.520  14.003
  591MPD2    H5 8839   1.255   2.572  14.067
  591MPD2    N1 8840   1.010   2.552  13.552
  591MPD2    H7 8841   0.945   2.478  13.576
  592MPD2     C 8842   2.905   0.543   8.669
  592MPD2    C1 8843   3.009   0.621   8.724
  592MPD2    C2 8844   3.007   0.757   8.699
  592MPD2    C3 8845   2.923   0.819   8.606
  592MPD2    C4 8846   2.816   0.746   8.561
  592MPD2    C5 8847   2.815   0.609   8.581
  592MPD2     H 8848   3.077   0.819   8.754
  592MPD2    H1 8849   2.728   0.791   8.516
  592MPD2    H2 8850   2.881   0.439   8.684
  592MPD2    H3 8851   2.745   0.537   8.540
  592MPD2     N 8852   2.923   0.956   8.588
  592MPD2    H5 8853   2.989   1.008   8.645
  592MPD2    N1 8854   3.100   0.554   8.807
  592MPD2    H7 8855   3.093   0.453   8.811
  593MPD2     C 8856   3.383   0.242   9.710
  593MPD2    C1 8857   3.279   0.224   9.619
  593MPD2    C2 8858   3.298   0.243   9.484
  593MPD2    C3 8859   3.423   0.288   9.434
  593MPD2    C4 8860   3.530   0.279   9.525
  593MPD2    C5 8861   3.510   0.261   9.659
  593MPD2     H 8862   3.208   0.243   9.423
  593MPD2    H1 8863   3.629   0.298   9.485
  593MPD2    H2 8864   3.377   0.227   9.817
  593MPD2    H3 8865   3.591   0.266   9.731
  593MPD2     N 8866   3.449   0.322   9.301
  593MPD2    H5 8867   3.541   0.358   9.279
  593MPD2    N1 8868   3.146   0.181   9.656
  593MPD2    H7 8869   3.073   0.192   9.586
  594MPD2     C 8870   1.040   0.737   7.438
  594MPD2    C1 8871   0.916   0.742   7.496
  594MPD2    C2 8872   0.863   0.861   7.538
  594MPD2    C3 8873   0.933   0.980   7.514
  594MPD2    C4 8874   1.058   0.972   7.457
  594MPD2    C5 8875   1.113   0.848   7.419
  594MPD2     H 8876   0.762   0.860   7.576
  594MPD2    H1 8877   1.128   1.054   7.446
  594MPD2    H2 8878   1.080   0.646   7.396
  594MPD2    H3 8879   1.212   0.853   7.376
  594MPD2     N 8880   0.878   1.098   7.570
  594MPD2    H5 8881   0.787   1.082   7.611
  594MPD2    N1 8882   0.840   0.631   7.521
  594MPD2    H7 8883   0.749   0.649   7.563
  595MPD2     C 8884   3.276   4.723  13.580
  595MPD2    C1 8885   3.395   4.766  13.539
  595MPD2    C2 8886   3.437   4.715  13.415
  595MPD2    C3 8887   3.355   4.628  13.335
  595MPD2    C4 8888   3.229   4.592  13.382
  595MPD2    C5 8889   3.193   4.639  13.506
  595MPD2     H 8890   3.532   4.754  13.379
  595MPD2    H1 8891   3.167   4.512  13.342
  595MPD2    H2 8892   3.239   4.763  13.674
  595MPD2    H3 8893   3.106   4.598  13.556
  595MPD2     N 8894   3.408   4.573  13.212
  595MPD2    H5 8895   3.497   4.615  13.187
  595MPD2    N1 8896   3.475   0.064  13.612
  595MPD2    H7 8897   3.567   0.096  13.583
  596MPD2     C 8898   0.149   4.624  11.965
  596MPD2    C1 8899   0.042   4.660  11.891
  596MPD2    C2 8900   0.016   4.589  11.779
  596MPD2    C3 8901   0.081   4.472  11.743
  596MPD2    C4 8902   0.180   4.428  11.827
  596MPD2    C5 8903   0.212   4.506  11.940
  596MPD2     H 8904   4.721   4.628  11.720
  596MPD2    H1 8905   0.247   4.347  11.804
  596MPD2    H2 8906   0.173   4.676  12.057
  596MPD2    H3 8907   0.302   4.484  11.997
  596MPD2     N 8908   0.051   4.392  11.637
  596MPD2    H5 8909   0.099   4.304  11.620
  596MPD2    N1 8910   4.754   4.778  11.915
  596MPD2    H7 8911   4.681   0.013  11.849
  597MPD2     C 8912   3.479   3.670   9.394
  597MPD2    C1 8913   3.347   3.660   9.358
  597MPD2    C2 8914   3.262   3.622   9.448
  597MPD2    C3 8915   3.308   3.572   9.569
  597MPD2    C4 8916   3.443   3.579   9.603
  597MPD2    C5 8917   3.531   3.623   9.513
  597MPD2     H 8918   3.154   3.617   9.438
  597MPD2    H1 8919   3.485   3.539   9.694
  597MPD2    H2 8920   3.556   3.718   9.335
  597MPD2    H3 8921   3.635   3.645   9.531
  597MPD2     N 8922   3.227   3.506   9.666
  597MPD2    H5 8923   3.267   3.458   9.746
  597MPD2    N1 8924   3.305   3.727   9.238
  597MPD2    H7 8925   3.377   3.780   9.189
  598MPD2     C 8926   3.445   4.154   8.308
  598MPD2    C1 8927   3.498   4.039   8.365
  598MPD2    C2 8928   3.438   3.993   8.481
  598MPD2    C3 8929   3.336   4.061   8.538
  598MPD2    C4 8930   3.287   4.169   8.476
  598MPD2    C5 8931   3.339   4.217   8.356
  598MPD2     H 8932   3.480   3.914   8.543
  598MPD2    H1 8933   3.201   4.222   8.518
  598MPD2    H2 8934   3.490   4.191   8.217
  598MPD2    H3 8935   3.292   4.303   8.308
  598MPD2     N 8936   3.267   4.021   8.651
  598MPD2    H5 8937   3.180   4.073   8.663
  598MPD2    N1 8938   3.604   3.980   8.292
  598MPD2    H7 8939   3.627   4.031   8.207
  599MPD2     C 8940   2.464   2.509  13.401
  599MPD2    C1 8941   2.558   2.574  13.477
  599MPD2    C2 8942   2.691   2.575  13.434
  599MPD2    C3 8943   2.732   2.504  13.326
  599MPD2    C4 8944   2.646   2.437  13.245
  599MPD2    C5 8945   2.512   2.444  13.286
  599MPD2     H 8946   2.762   2.625  13.499
  599MPD2    H1 8947   2.674   2.396  13.149
  599MPD2    H2 8948   2.358   2.503  13.421
  599MPD2    H3 8949   2.442   2.387  13.226
  599MPD2     N 8950   2.866   2.513  13.292
  599MPD2    H5 8951   2.921   2.579  13.345
  599MPD2    N1 8952   2.509   2.636  13.592
  599MPD2    H7 8953   2.414   2.612  13.616
  600MPD2     C 8954   4.774   0.508  14.490
  600MPD2    C1 8955   0.007   0.645  14.481
  600MPD2    C2 8956   0.118   0.686  14.414
  600MPD2    C3 8957   0.213   0.595  14.366
  600MPD2    C4 8958   0.204   0.460  14.385
  600MPD2    C5 8959   0.088   0.424  14.446
  600MPD2     H 8960   0.122   0.791  14.389
  600MPD2    H1 8961   0.264   0.383  14.337
  600MPD2    H2 8962   4.699   0.457  14.549
  600MPD2    H3 8963   0.081   0.318  14.466
  600MPD2     N 8964   0.325   0.632  14.291
  600MPD2    H5 8965   0.376   0.559  14.243
  600MPD2    N1 8966   4.693   0.732  14.529
  600MPD2    H7 8967   4.627   0.685  14.590
  601MPD2     C 8968   0.522   1.192   7.127
  601MPD2    C1 8969   0.503   1.310   7.188
  601MPD2    C2 8970   0.403   1.392   7.140
  601MPD2    C3 8971   0.323   1.355   7.033
  601MPD2    C4 8972   0.346   1.236   6.966
  601MPD2    C5 8973   0.444   1.156   7.016
  601MPD2     H 8974   0.379   1.487   7.187
  601MPD2    H1 8975   0.284   1.193   6.888
  601MPD2    H2 8976   0.600   1.133   7.173
  601MPD2    H3 8977   0.472   1.059   6.976
  601MPD2     N 8978   0.214   1.427   6.986
  601MPD2    H5 8979   0.175   1.408   6.894
  601MPD2    N1 8980   0.583   1.348   7.301
  601MPD2    H7 8981   0.663   1.291   7.325
  602MPD2     C 8982   0.488   0.864  11.185
  602MPD2    C1 8983   0.358   0.914  11.191
  602MPD2    C2 8984   0.276   0.848  11.281
  602MPD2    C3 8985   0.328   0.738  11.358
  602MPD2    C4 8986   0.458   0.701  11.352
  602MPD2    C5 8987   0.537   0.759  11.259
  602MPD2     H 8988   0.175   0.885  11.293
  602MPD2    H1 8989   0.501   0.626  11.418
  602MPD2    H2 8990   0.558   0.904  11.113
  602MPD2    H3 8991   0.643   0.739  11.251
  602MPD2     N 8992   0.255   0.675  11.458
  602MPD2    H5 8993   0.310   0.624  11.526
  602MPD2    N1 8994   0.331   1.028  11.106
  602MPD2    H7 8995   0.411   1.072  11.063
  603MPD2     C 8996   3.027   3.559  10.328
  603MPD2    C1 8997   3.076   3.605  10.448
  603MPD2    C2 8998   3.005   3.587  10.565
  603MPD2    C3 8999   2.886   3.520  10.569
  603MPD2    C4 9000   2.829   3.490  10.445
  603MPD2    C5 9001   2.898   3.515  10.327
  603MPD2     H 9002   3.046   3.627  10.658
  603MPD2    H1 9003   2.731   3.446  10.428
  603MPD2    H2 9004   3.087   3.577  10.239
  603MPD2    H3 9005   2.860   3.484  10.231
  603MPD2     N 9006   2.813   3.503  10.692
  603MPD2    H5 9007   2.837   3.563  10.770
  603MPD2    N1 9008   3.198   3.677  10.448
  603MPD2    H7 9009   3.205   3.761  10.504
  604MPD2     C 9010   3.913   3.375   9.706
  604MPD2    C1 9011   3.946   3.459   9.809
  604MPD2    C2 9012   3.841   3.482   9.896
  604MPD2    C3 9013   3.713   3.424   9.896
  604MPD2    C4 9014   3.688   3.347   9.784
  604MPD2    C5 9015   3.786   3.316   9.702
  604MPD2     H 9016   3.857   3.545   9.983
  604MPD2    H1 9017   3.591   3.306   9.758
  604MPD2    H2 9018   3.985   3.340   9.633
  604MPD2    H3 9019   3.774   3.258   9.611
  604MPD2     N 9020   3.622   3.453   9.996
  604MPD2    H5 9021   3.645   3.517  10.071
  604MPD2    N1 9022   4.067   3.527   9.832
  604MPD2    H7 9023   4.077   3.589   9.912
  605MPD2     C 9024   2.102   2.155   8.396
  605MPD2    C1 9025   1.987   2.155   8.468
  605MPD2    C2 9026   1.873   2.122   8.415
  605MPD2    C3 9027   1.869   2.096   8.279
  605MPD2    C4 9028   1.980   2.104   8.198
  605MPD2    C5 9029   2.100   2.132   8.262
  605MPD2     H 9030   1.781   2.126   8.471
  605MPD2    H1 9031   1.956   2.108   8.092
  605MPD2    H2 9032   2.191   2.186   8.450
  605MPD2    H3 9033   2.193   2.152   8.210
  605MPD2     N 9034   1.751   2.082   8.206
  605MPD2    H5 9035   1.765   2.062   8.108
  605MPD2    N1 9036   1.988   2.197   8.605
  605MPD2    H7 9037   1.898   2.194   8.653
  606MPD2     C 9038   2.997   2.533  14.402
  606MPD2    C1 9039   2.863   2.520  14.431
  606MPD2    C2 9040   2.766   2.581  14.350
  606MPD2    C3 9041   2.810   2.658  14.244
  606MPD2    C4 9042   2.945   2.666  14.210
  606MPD2    C5 9043   3.035   2.604  14.289
  606MPD2     H 9044   2.660   2.586  14.372
  606MPD2    H1 9045   2.969   2.722  14.121
  606MPD2    H2 9046   3.066   2.486  14.471
  606MPD2    H3 9047   3.140   2.615  14.264
  606MPD2     N 9048   2.715   2.719  14.158
  606MPD2    H5 9049   2.758   2.767  14.080
  606MPD2    N1 9050   2.833   2.431  14.536
  606MPD2    H7 9051   2.909   2.397  14.594
  607MPD2     C 9052   0.301   2.607   8.611
  607MPD2    C1 9053   0.341   2.548   8.495
  607MPD2    C2 9054   0.317   2.417   8.469
  607MPD2    C3 9055   0.262   2.335   8.565
  607MPD2    C4 9056   0.205   2.396   8.674
  607MPD2    C5 9057   0.219   2.535   8.693
  607MPD2     H 9058   0.358   2.380   8.375
  607MPD2    H1 9059   0.152   2.333   8.745
  607MPD2    H2 9060   0.306   2.714   8.626
  607MPD2    H3 9061   0.185   2.580   8.785
  607MPD2     N 9062   0.238   2.192   8.549
  607MPD2    H5 9063   0.174   2.149   8.615
  607MPD2    N1 9064   0.430   2.611   8.409
  607MPD2    H7 9065   0.478   2.545   8.348
  608MPD2     C 9066   0.057   1.561  11.495
  608MPD2    C1 9067   0.099   1.457  11.580
  608MPD2    C2 9068   0.211   1.387  11.543
  608MPD2    C3 9069   0.262   1.406  11.417
  608MPD2    C4 9070   0.222   1.514  11.336
  608MPD2    C5 9071   0.124   1.588  11.384
  608MPD2     H 9072   0.244   1.307  11.607
  608MPD2    H1 9073   0.274   1.547  11.247
  608MPD2    H2 9074   4.768   1.633  11.518
  608MPD2    H3 9075   0.082   1.672  11.329
  608MPD2     N 9076   0.371   1.318  11.370
  608MPD2    H5 9077   0.438   1.359  11.306
  608MPD2    N1 9078   0.011   1.427  11.683
  608MPD2    H7 9079   4.711   1.479  11.684
  609MPD2     C 9080   1.803   2.096  12.242
  609MPD2    C1 9081   1.754   2.166  12.128
  609MPD2    C2 9082   1.810   2.142  12.010
  609MPD2    C3 9083   1.914   2.051  11.992
  609MPD2    C4 9084   1.957   1.978  12.103
  609MPD2    C5 9085   1.892   1.994  12.220
  609MPD2     H 9086   1.770   2.182  11.917
  609MPD2    H1 9087   2.037   1.905  12.096
  609MPD2    H2 9088   1.761   2.111  12.341
  609MPD2    H3 9089   1.926   1.925  12.296
  609MPD2     N 9090   1.964   2.041  11.863
  609MPD2    H5 9091   1.909   2.079  11.786
  609MPD2    N1 9092   1.639   2.252  12.131
  609MPD2    H7 9093   1.585   2.279  12.049
  610MPD2     C 9094   3.581   1.066  11.073
  610MPD2    C1 9095   3.470   1.015  10.999
  610MPD2    C2 9096   3.444   1.060  10.874
  610MPD2    C3 9097   3.522   1.160  10.816
  610MPD2    C4 9098   3.616   1.214  10.892
  610MPD2    C5 9099   3.644   1.176  11.019
  610MPD2     H 9100   3.369   1.020  10.808
  610MPD2    H1 9101   3.669   1.299  10.850
  610MPD2    H2 9102   3.609   1.019  11.166
  610MPD2    H3 9103   3.716   1.228  11.080
  610MPD2     N 9104   3.502   1.216  10.684
  610MPD2    H5 9105   3.539   1.309  10.666
  610MPD2    N1 9106   3.401   0.900  11.049
  610MPD2    H7 9107   3.319   0.875  10.996
  611MPD2     C 9108   1.664   0.463  13.333
  611MPD2    C1 9109   1.730   0.392  13.235
  611MPD2    C2 9110   1.870   0.390  13.238
  611MPD2    C3 9111   1.940   0.470  13.323
  611MPD2    C4 9112   1.875   0.548  13.415
  611MPD2    C5 9113   1.733   0.544  13.416
  611MPD2     H 9114   1.922   0.321  13.172
  611MPD2    H1 9115   1.924   0.610  13.489
  611MPD2    H2 9116   1.557   0.454  13.351
  611MPD2    H3 9117   1.683   0.596  13.497
  611MPD2     N 9118   2.081   0.463  13.334
  611MPD2    H5 9119   2.127   0.505  13.414
  611MPD2    N1 9120   1.640   0.304  13.162
  611MPD2    H7 9121   1.545   0.308  13.197
  612MPD2     C 9122   2.287   4.266  11.598
  612MPD2    C1 9123   2.259   4.402  11.590
  612MPD2    C2 9124   2.125   4.438  11.585
  612MPD2    C3 9125   2.027   4.343  11.579
  612MPD2    C4 9126   2.051   4.209  11.593
  612MPD2    C5 9127   2.187   4.177  11.606
  612MPD2     H 9128   2.097   4.541  11.567
  612MPD2    H1 9129   1.983   4.125  11.590
  612MPD2    H2 9130   2.393   4.244  11.606
  612MPD2    H3 9131   2.223   4.075  11.621
  612MPD2     N 9132   1.891   4.374  11.571
  612MPD2    H5 9133   1.828   4.299  11.599
  612MPD2    N1 9134   2.366   4.496  11.568
  612MPD2    H7 9135   2.458   4.454  11.571
  613MPD2     C 9136   1.497   0.147  11.541
  613MPD2    C1 9137   1.602   0.203  11.611
  613MPD2    C2 9138   1.734   0.187  11.565
  613MPD2    C3 9139   1.754   0.118  11.450
  613MPD2    C4 9140   1.649   0.057  11.388
  613MPD2    C5 9141   1.520   0.076  11.429
  613MPD2     H 9142   1.820   0.225  11.619
  613MPD2    H1 9143   1.691   0.006  11.302
  613MPD2    H2 9144   1.396   0.171  11.571
  613MPD2    H3 9145   1.436   0.037  11.373
  613MPD2     N 9146   1.885   0.081  11.400
  613MPD2    H5 9147   1.889   0.007  11.331
  613MPD2    N1 9148   1.571   0.274  11.731
  613MPD2    H7 9149   1.645   0.338  11.760
  614MPD2     C 9150   1.597   2.042   7.501
  614MPD2    C1 9151   1.589   2.141   7.588
  614MPD2    C2 9152   1.640   2.265   7.547
  614MPD2    C3 9153   1.725   2.276   7.435
  614MPD2    C4 9154   1.728   2.177   7.345
  614MPD2    C5 9155   1.663   2.060   7.381
  614MPD2     H 9156   1.628   2.346   7.619
  614MPD2    H1 9157   1.790   2.181   7.256
  614MPD2    H2 9158   1.549   1.947   7.524
  614MPD2    H3 9159   1.666   1.979   7.309
  614MPD2     N 9160   1.814   2.387   7.410
  614MPD2    H5 9161   1.896   2.369   7.354
  614MPD2    N1 9162   1.546   2.137   7.724
  614MPD2    H7 9163   1.542   2.222   7.780
  615MPD2     C 9164   0.447   4.247   9.387
  615MPD2    C1 9165   0.322   4.297   9.423
  615MPD2    C2 9166   0.256   4.384   9.333
  615MPD2    C3 9167   0.280   4.371   9.199
  615MPD2    C4 9168   0.393   4.308   9.158
  615MPD2    C5 9169   0.473   4.243   9.251
  615MPD2     H 9170   0.173   4.444   9.370
  615MPD2    H1 9171   0.419   4.317   9.053
  615MPD2    H2 9172   0.506   4.194   9.460
  615MPD2    H3 9173   0.564   4.203   9.208
  615MPD2     N 9174   0.192   4.443   9.109
  615MPD2    H5 9175   0.133   4.517   9.147
  615MPD2    N1 9176   0.280   4.259   9.553
  615MPD2    H7 9177   0.359   4.244   9.615
  616MPD2     C 9178   4.527   4.617   9.149
  616MPD2    C1 9179   4.473   4.492   9.132
  616MPD2    C2 9180   4.371   4.473   9.049
  616MPD2    C3 9181   4.312   4.583   8.985
  616MPD2    C4 9182   4.358   4.709   9.008
  616MPD2    C5 9183   4.474   4.723   9.084
  616MPD2     H 9184   4.317   4.379   9.044
  616MPD2    H1 9185   4.308   0.006   8.962
  616MPD2    H2 9186   4.605   4.642   9.221
  616MPD2    H3 9187   4.514   0.035   9.102
  616MPD2     N 9188   4.200   4.539   8.910
  616MPD2    H5 9189   4.167   4.445   8.930
  616MPD2    N1 9190   4.527   4.378   9.198
  616MPD2    H7 9191   4.468   4.299   9.174
  617MPD2     C 9192   4.477   1.622  14.483
  617MPD2    C1 9193   4.520   1.504  14.426
  617MPD2    C2 9194   4.606   1.510  14.320
  617MPD2    C3 9195   4.645   1.632  14.277
  617MPD2    C4 9196   4.603   1.752  14.339
  617MPD2    C5 9197   4.514   1.743  14.439
  617MPD2     H 9198   4.636   1.424  14.261
  617MPD2    H1 9199   4.639   1.847  14.301
  617MPD2    H2 9200   4.409   1.614  14.567
  617MPD2    H3 9201   4.485   1.841  14.476
  617MPD2     N 9202   4.747   1.623  14.181
  617MPD2    H5 9203   4.783   1.529  14.165
  617MPD2    N1 9204   4.472   1.384  14.484
  617MPD2    H7 9205   4.424   1.394  14.573
  618MPD2     C 9206   1.934   3.029  13.941
  618MPD2    C1 9207   2.010   2.986  14.045
  618MPD2    C2 9208   1.985   3.020  14.173
  618MPD2    C3 9209   1.876   3.103  14.201
  618MPD2    C4 9210   1.795   3.145  14.102
  618MPD2    C5 9211   1.825   3.110  13.977
  618MPD2     H 9212   2.033   2.964  14.252
  618MPD2    H1 9213   1.715   3.216  14.122
  618MPD2    H2 9214   1.948   3.012  13.834
  618MPD2    H3 9215   1.764   3.153  13.899
  618MPD2     N 9216   1.845   3.161  14.327
  618MPD2    H5 9217   1.760   3.215  14.343
  618MPD2    N1 9218   2.124   2.910  14.032
  618MPD2    H7 9219   2.189   2.905  14.110
  619MPD2     C 9220   3.682   4.708  10.031
  619MPD2    C1 9221   3.806   4.714  10.090
  619MPD2    C2 9222   3.879   0.043  10.097
  619MPD2    C3 9223   3.827   0.166  10.046
  619MPD2    C4 9224   3.704   0.161   9.994
  619MPD2    C5 9225   3.632   0.043   9.988
  619MPD2     H 9226   3.979   0.047  10.138
  619MPD2    H1 9227   3.661   0.254   9.957
  619MPD2    H2 9228   3.619   4.620  10.019
  619MPD2    H3 9229   3.531   0.044   9.947
  619MPD2     N 9230   3.885   0.291  10.044
  619MPD2    H5 9231   3.834   0.369  10.003
  619MPD2    N1 9232   3.851   4.621  10.190
  619MPD2    H7 9233   3.910   4.667  10.258
  620MPD2     C 9234   1.279   2.309  14.810
  620MPD2    C1 9235   1.385   2.373  14.860
  620MPD2    C2 9236   1.370   2.479  14.946
  620MPD2    C3 9237   1.245   2.496  15.006
  620MPD2    C4 9238   1.137   2.435  14.953
  620MPD2    C5 9239   1.149   2.335  14.859
  620MPD2     H 9240   1.452   2.546  14.970
  620MPD2    H1 9241   1.047   2.452  15.010
  620MPD2    H2 9242   1.294   2.235  14.733
  620MPD2    H3 9243   1.060   2.279  14.833
  620MPD2     N 9244   1.224   2.586  15.113
  620MPD2    H5 9245   1.126   2.612  15.118
  620MPD2    N1 9246   1.519   2.344  14.824
  620MPD2    H7 9247   1.594   2.389  14.876
  621MPD2     C 9248   1.638   2.610  14.556
  621MPD2    C1 9249   1.499   2.635  14.560
  621MPD2    C2 9250   1.445   2.719  14.658
  621MPD2    C3 9251   1.530   2.784  14.749
  621MPD2    C4 9252   1.661   2.752  14.746
  621MPD2    C5 9253   1.714   2.665  14.653
  621MPD2     H 9254   1.337   2.730  14.658
  621MPD2    H1 9255   1.736   2.781  14.819
  621MPD2    H2 9256   1.685   2.533  14.495
  621MPD2    H3 9257   1.821   2.650  14.657
  621MPD2     N 9258   1.486   2.858  14.861
  621MPD2    H5 9259   1.563   2.877  14.925
  621MPD2    N1 9260   1.408   2.559  14.487
  621MPD2    H7 9261   1.311   2.578  14.509
  622MPD2     C 9262   1.243   0.981   9.440
  622MPD2    C1 9263   1.126   1.032   9.383
  622MPD2    C2 9264   1.010   0.961   9.400
  622MPD2    C3 9265   0.999   0.848   9.483
  622MPD2    C4 9266   1.112   0.811   9.555
  622MPD2    C5 9267   1.232   0.876   9.528
  622MPD2     H 9268   0.930   1.009   9.344
  622MPD2    H1 9269   1.109   0.726   9.623
  622MPD2    H2 9270   1.342   1.018   9.415
  622MPD2    H3 9271   1.328   0.845   9.567
  622MPD2     N 9272   0.878   0.777   9.477
  622MPD2    H5 9273   0.805   0.814   9.417
  622MPD2    N1 9274   1.141   1.137   9.292
  622MPD2    H7 9275   1.237   1.166   9.273
  623MPD2     C 9276   1.096   0.566   8.928
  623MPD2    C1 9277   0.995   0.644   8.974
  623MPD2    C2 9278   1.001   0.779   8.952
  623MPD2    C3 9279   1.088   0.830   8.860
  623MPD2    C4 9280   1.186   0.751   8.806
  623MPD2    C5 9281   1.194   0.616   8.842
  623MPD2     H 9282   0.934   0.836   9.015
  623MPD2    H1 9283   1.259   0.793   8.738
  623MPD2    H2 9284   1.112   0.463   8.959
  623MPD2    H3 9285   1.279   0.568   8.796
  623MPD2     N 9286   1.084   0.970   8.830
  623MPD2    H5 9287   1.163   1.007   8.777
  623MPD2    N1 9288   0.901   0.592   9.066
  623MPD2    H7 9289   0.837   0.659   9.108
  624MPD2     C 9290   3.228   3.912   6.782
  624MPD2    C1 9291   3.244   4.042   6.746
  624MPD2    C2 9292   3.366   4.106   6.785
  624MPD2    C3 9293   3.457   4.046   6.871
  624MPD2    C4 9294   3.438   3.920   6.911
  624MPD2    C5 9295   3.324   3.854   6.869
  624MPD2     H 9296   3.394   4.205   6.753
  624MPD2    H1 9297   3.513   3.859   6.962
  624MPD2    H2 9298   3.139   3.857   6.754
  624MPD2    H3 9299   3.306   3.751   6.899
  624MPD2     N 9300   3.566   4.122   6.914
  624MPD2    H5 9301   3.580   4.217   6.880
  624MPD2    N1 9302   3.147   4.106   6.658
  624MPD2    H7 9303   3.073   4.048   6.619
  625MPD2     C 9304   3.475   0.095   6.618
  625MPD2    C1 9305   3.417   0.040   6.733
  625MPD2    C2 9306   3.297   4.760   6.713
  625MPD2    C3 9307   3.246   4.745   6.584
  625MPD2    C4 9308   3.296   0.020   6.474
  625MPD2    C5 9309   3.412   0.087   6.499
  625MPD2     H 9310   3.250   4.715   6.799
  625MPD2    H1 9311   3.256   0.015   6.374
  625MPD2    H2 9312   3.576   0.136   6.615
  625MPD2    H3 9313   3.464   0.122   6.411
  625MPD2     N 9314   3.130   4.661   6.576
  625MPD2    H5 9315   3.113   4.620   6.668
  625MPD2    N1 9316   3.470   0.067   6.859
  625MPD2    H7 9317   3.557   0.120   6.866
  626MPD2     C 9318   2.847   4.347   7.757
  626MPD2    C1 9319   2.868   4.409   7.640
  626MPD2    C2 9320   2.865   4.335   7.522
  626MPD2    C3 9321   2.833   4.196   7.523
  626MPD2    C4 9322   2.802   4.134   7.645
  626MPD2    C5 9323   2.807   4.212   7.757
  626MPD2     H 9324   2.887   4.387   7.430
  626MPD2    H1 9325   2.765   4.032   7.646
  626MPD2    H2 9326   2.849   4.400   7.852
  626MPD2    H3 9327   2.771   4.167   7.849
  626MPD2     N 9328   2.830   4.112   7.407
  626MPD2    H5 9329   2.831   4.011   7.420
  626MPD2    N1 9330   2.897   4.538   7.621
  626MPD2    H7 9331   2.921   4.558   7.525
  627MPD2     C 9332   2.767   2.189   9.686
  627MPD2    C1 9333   2.732   2.301   9.609
  627MPD2    C2 9334   2.826   2.342   9.512
  627MPD2    C3 9335   2.944   2.275   9.491
  627MPD2    C4 9336   2.980   2.171   9.576
  627MPD2    C5 9337   2.887   2.117   9.667
  627MPD2     H 9338   2.801   2.428   9.451
  627MPD2    H1 9339   3.071   2.114   9.567
  627MPD2    H2 9340   2.718   2.165   9.780
  627MPD2    H3 9341   2.923   2.038   9.732
  627MPD2     N 9342   3.032   2.314   9.389
  627MPD2    H5 9343   3.117   2.260   9.376
  627MPD2    N1 9344   2.604   2.367   9.635
  627MPD2    H7 9345   2.558   2.325   9.715
  628MPD2     C 9346   3.073   1.950   8.718
  628MPD2    C1 9347   3.159   2.057   8.708
  628MPD2    C2 9348   3.265   2.047   8.616
  628MPD2    C3 9349   3.293   1.929   8.549
  628MPD2    C4 9350   3.211   1.822   8.580
  628MPD2    C5 9351   3.097   1.832   8.646
  628MPD2     H 9352   3.336   2.129   8.617
  628MPD2    H1 9353   3.236   1.721   8.549
  628MPD2    H2 9354   2.982   1.936   8.774
  628MPD2    H3 9355   3.049   1.736   8.656
  628MPD2     N 9356   3.410   1.932   8.463
  628MPD2    H5 9357   3.459   2.019   8.446
  628MPD2    N1 9358   3.150   2.168   8.794
  628MPD2    H7 9359   3.217   2.242   8.777
  629MPD2     C 9360   4.703   1.307  15.096
  629MPD2    C1 9361   4.732   1.200  15.013
  629MPD2    C2 9362   0.063   1.134  15.038
  629MPD2    C3 9363   0.146   1.174  15.139
  629MPD2    C4 9364   0.113   1.283  15.223
  629MPD2    C5 9365   4.782   1.335  15.201
  629MPD2     H 9366   0.100   1.054  14.975
  629MPD2    H1 9367   0.167   1.316  15.311
  629MPD2    H2 9368   4.609   1.360  15.083
  629MPD2    H3 9369   4.745   1.402  15.278
  629MPD2     N 9370   0.264   1.096  15.167
  629MPD2    H5 9371   0.270   1.005  15.122
  629MPD2    N1 9372   4.639   1.167  14.912
  629MPD2    H7 9373   4.547   1.210  14.919
  630MPD2     C 9374   4.113   2.266   8.284
  630MPD2    C1 9375   4.046   2.212   8.395
  630MPD2    C2 9376   4.077   2.251   8.525
  630MPD2    C3 9377   4.176   2.352   8.542
  630MPD2    C4 9378   4.247   2.397   8.433
  630MPD2    C5 9379   4.219   2.347   8.311
  630MPD2     H 9380   4.023   2.203   8.606
  630MPD2    H1 9381   4.327   2.469   8.445
  630MPD2    H2 9382   4.092   2.236   8.182
  630MPD2    H3 9383   4.269   2.393   8.226
  630MPD2     N 9384   4.197   2.412   8.665
  630MPD2    H5 9385   4.174   2.356   8.747
  630MPD2    N1 9386   3.949   2.120   8.361
  630MPD2    H7 9387   3.950   2.084   8.267
  631MPD2     C 9388   0.969   2.699  14.319
  631MPD2    C1 9389   0.926   2.808  14.399
  631MPD2    C2 9390   0.812   2.780  14.473
  631MPD2    C3 9391   0.734   2.662  14.458
  631MPD2    C4 9392   0.775   2.564  14.369
  631MPD2    C5 9393   0.893   2.592  14.304
  631MPD2     H 9394   0.784   2.855  14.546
  631MPD2    H1 9395   0.721   2.471  14.355
  631MPD2    H2 9396   1.062   2.689  14.265
  631MPD2    H3 9397   0.932   2.524  14.229
  631MPD2     N 9398   0.619   2.636  14.543
  631MPD2    H5 9399   0.563   2.552  14.529
  631MPD2    N1 9400   0.993   2.930  14.411
  631MPD2    H7 9401   0.946   2.997  14.471
  632MPD2     C 9402   4.427   2.629  14.756
  632MPD2    C1 9403   4.504   2.517  14.760
  632MPD2    C2 9404   4.643   2.516  14.775
  632MPD2    C3 9405   4.708   2.638  14.785
  632MPD2    C4 9406   4.632   2.753  14.787
  632MPD2    C5 9407   4.493   2.753  14.777
  632MPD2     H 9408   4.701   2.424  14.773
  632MPD2    H1 9409   4.684   2.846  14.809
  632MPD2    H2 9410   4.319   2.626  14.749
  632MPD2    H3 9411   4.429   2.839  14.790
  632MPD2     N 9412   0.061   2.635  14.814
  632MPD2    H5 9413   0.114   2.548  14.813
  632MPD2    N1 9414   4.432   2.392  14.752
  632MPD2    H7 9415   4.335   2.390  14.723
  633MPD2     C 9416   2.108   0.048  10.601
  633MPD2    C1 9417   2.108   0.016  10.465
  633MPD2    C2 9418   2.085   0.116  10.368
  633MPD2    C3 9419   2.051   0.247  10.401
  633MPD2    C4 9420   2.060   0.279  10.539
  633MPD2    C5 9421   2.086   0.182  10.629
  633MPD2     H 9422   2.075   0.096  10.262
  633MPD2    H1 9423   2.047   0.380  10.578
  633MPD2    H2 9424   2.121   4.761  10.680
  633MPD2    H3 9425   2.093   0.203  10.736
  633MPD2     N 9426   2.030   0.352  10.309
  633MPD2    H5 9427   2.049   0.445  10.345
  633MPD2    N1 9428   2.134   4.668  10.425
  633MPD2    H7 9429   2.181   4.607  10.492
  634MPD2     C 9430   3.726   4.577   8.317
  634MPD2    C1 9431   3.639   4.640   8.232
  634MPD2    C2 9432   3.575   4.568   8.129
  634MPD2    C3 9433   3.621   4.442   8.104
  634MPD2    C4 9434   3.726   4.391   8.177
  634MPD2    C5 9435   3.784   4.456   8.284
  634MPD2     H 9436   3.508   4.614   8.058
  634MPD2    H1 9437   3.764   4.290   8.160
  634MPD2    H2 9438   3.754   4.615   8.415
  634MPD2    H3 9439   3.846   4.407   8.359
  634MPD2     N 9440   3.558   4.369   7.999
  634MPD2    H5 9441   3.485   4.417   7.947
  634MPD2    N1 9442   3.586   4.770   8.265
  634MPD2    H7 9443   3.518   0.031   8.207
  635MPD2     C 9444   1.956   3.928  14.784
  635MPD2    C1 9445   1.882   3.997  14.684
  635MPD2    C2 9446   1.912   3.979  14.554
  635MPD2    C3 9447   2.011   3.889  14.517
  635MPD2    C4 9448   2.077   3.816  14.612
  635MPD2    C5 9449   2.053   3.845  14.746
  635MPD2     H 9450   1.862   4.031  14.472
  635MPD2    H1 9451   2.146   3.735  14.592
  635MPD2    H2 9452   1.941   3.940  14.891
  635MPD2    H3 9453   2.107   3.797  14.827
  635MPD2     N 9454   2.039   3.880  14.380
  635MPD2    H5 9455   1.980   3.930  14.314
  635MPD2    N1 9456   1.792   4.099  14.719
  635MPD2    H7 9457   1.794   4.128  14.817
  636MPD2     C 9458   1.178   0.649  10.101
  636MPD2    C1 9459   1.296   0.666  10.024
  636MPD2    C2 9460   1.308   0.614   9.899
  636MPD2    C3 9461   1.198   0.548   9.841
  636MPD2    C4 9462   1.077   0.554   9.906
  636MPD2    C5 9463   1.068   0.597  10.037
  636MPD2     H 9464   1.398   0.624   9.839
  636MPD2    H1 9465   0.988   0.512   9.860
  636MPD2    H2 9466   1.173   0.678  10.205
  636MPD2    H3 9467   0.973   0.590  10.088
  636MPD2     N 9468   1.207   0.472   9.718
  636MPD2    H5 9469   1.122   0.417   9.711
  636MPD2    N1 9470   1.415   0.725  10.071
  636MPD2    H7 9471   1.479   0.757   9.999
  637MPD2     C 9472   1.858   3.723  10.048
  637MPD2    C1 9473   1.818   3.795  10.154
  637MPD2    C2 9474   1.686   3.831  10.161
  637MPD2    C3 9475   1.604   3.813  10.056
  637MPD2    C4 9476   1.654   3.744   9.945
  637MPD2    C5 9477   1.778   3.685   9.943
  637MPD2     H 9478   1.644   3.885  10.246
  637MPD2    H1 9479   1.587   3.736   9.860
  637MPD2    H2 9480   1.961   3.689  10.042
  637MPD2    H3 9481   1.811   3.640   9.850
  637MPD2     N 9482   1.472   3.868  10.048
  637MPD2    H5 9483   1.412   3.830   9.976
  637MPD2    N1 9484   1.898   3.825  10.264
  637MPD2    H7 9485   1.848   3.859  10.345
  638MPD2     C 9486   1.130   0.077  10.391
  638MPD2    C1 9487   1.102   0.178  10.477
  638MPD2    C2 9488   1.011   0.151  10.576
  638MPD2    C3 9489   0.943   0.029  10.586
  638MPD2    C4 9490   0.971   4.722  10.488
  638MPD2    C5 9491   1.068   4.745  10.401
  638MPD2     H 9492   1.008   0.218  10.661
  638MPD2    H1 9493   0.918   4.627  10.487
  638MPD2    H2 9494   1.209   0.083  10.317
  638MPD2    H3 9495   1.104   4.661  10.343
  638MPD2     N 9496   0.853   4.780  10.690
  638MPD2    H5 9497   0.828   4.684  10.708
  638MPD2    N1 9498   1.168   0.302  10.465
  638MPD2    H7 9499   1.143   0.368  10.538
  639MPD2     C 9500   1.994   2.649  15.123
  639MPD2    C1 9501   1.999   2.649  14.985
  639MPD2    C2 9502   2.016   2.764  14.915
  639MPD2    C3 9503   2.001   2.890  14.975
  639MPD2    C4 9504   1.983   2.889  15.114
  639MPD2    C5 9505   1.983   2.769  15.182
  639MPD2     H 9506   2.023   2.759  14.807
  639MPD2    H1 9507   1.970   2.985  15.162
  639MPD2    H2 9508   1.988   2.563  15.188
  639MPD2    H3 9509   1.964   2.776  15.288
  639MPD2     N 9510   2.003   3.005  14.890
  639MPD2    H5 9511   2.023   2.988  14.792
  639MPD2    N1 9512   1.978   2.532  14.908
  639MPD2    H7 9513   1.997   2.547  14.810
  640MPD2     C 9514   4.398   2.866   8.009
  640MPD2    C1 9515   4.267   2.903   8.026
  640MPD2    C2 9516   4.193   2.845   8.132
  640MPD2    C3 9517   4.249   2.772   8.226
  640MPD2    C4 9518   4.382   2.728   8.211
  640MPD2    C5 9519   4.448   2.778   8.105
  640MPD2     H 9520   4.091   2.883   8.139
  640MPD2    H1 9521   4.439   2.680   8.289
  640MPD2    H2 9522   4.460   2.901   7.928
  640MPD2    H3 9523   4.552   2.752   8.094
  640MPD2     N 9524   4.171   2.739   8.340
  640MPD2    H5 9525   4.219   2.710   8.424
  640MPD2    N1 9526   4.204   3.006   7.945
  640MPD2    H7 9527   4.112   3.040   7.971
  641MPD2     C 9528   4.651   4.335   6.928
  641MPD2    C1 9529   4.757   4.260   6.977
  641MPD2    C2 9530   4.747   4.160   7.060
  641MPD2    C3 9531   4.618   4.115   7.098
  641MPD2    C4 9532   4.513   4.193   7.051
  641MPD2    C5 9533   4.528   4.297   6.963
  641MPD2     H 9534   0.051   4.128   7.110
  641MPD2    H1 9535   4.412   4.170   7.084
  641MPD2    H2 9536   4.658   4.423   6.866
  641MPD2    H3 9537   4.440   4.349   6.926
  641MPD2     N 9538   4.592   4.019   7.196
  641MPD2    H5 9539   4.496   4.007   7.226
  641MPD2    N1 9540   0.098   4.299   6.931
  641MPD2    H7 9541   0.093   4.372   6.860
  642MPD2     C 9542   3.978   1.687   7.229
  642MPD2    C1 9543   3.926   1.558   7.251
  642MPD2    C2 9544   4.001   1.452   7.197
  642MPD2    C3 9545   4.104   1.473   7.104
  642MPD2    C4 9546   4.152   1.599   7.089
  642MPD2    C5 9547   4.091   1.711   7.155
  642MPD2     H 9548   3.953   1.357   7.217
  642MPD2    H1 9549   4.233   1.630   7.024
  642MPD2    H2 9550   3.930   1.776   7.269
  642MPD2    H3 9551   4.126   1.812   7.138
  642MPD2     N 9552   4.184   1.370   7.047
  642MPD2    H5 9553   4.271   1.395   7.002
  642MPD2    N1 9554   3.809   1.529   7.335
  642MPD2    H7 9555   3.797   1.430   7.354
  643MPD2     C 9556   0.080   4.644   8.415
  643MPD2    C1 9557   0.041   4.771   8.452
  643MPD2    C2 9558   4.699   0.005   8.481
  643MPD2    C3 9559   4.603   4.686   8.482
  643MPD2    C4 9560   4.644   4.557   8.456
  643MPD2    C5 9561   4.778   4.537   8.421
  643MPD2     H 9562   4.675   0.103   8.519
  643MPD2    H1 9563   4.576   4.473   8.454
  643MPD2    H2 9564   0.179   4.626   8.377
  643MPD2    H3 9565   0.024   4.436   8.397
  643MPD2     N 9566   4.462   4.701   8.510
  643MPD2    H5 9567   4.400   4.621   8.508
  643MPD2    N1 9568   0.127   0.092   8.464
  643MPD2    H7 9569   0.081   0.179   8.491
  644MPD2     C 9570   0.909   4.522   9.542
  644MPD2    C1 9571   0.979   4.609   9.465
  644MPD2    C2 9572   0.978   4.591   9.330
  644MPD2    C3 9573   0.904   4.492   9.271
  644MPD2    C4 9574   0.835   4.397   9.352
  644MPD2    C5 9575   0.839   4.414   9.484
  644MPD2     H 9576   1.042   4.659   9.275
  644MPD2    H1 9577   0.775   4.317   9.310
  644MPD2    H2 9578   0.926   4.510   9.649
  644MPD2    H3 9579   0.796   4.334   9.543
  644MPD2     N 9580   0.885   4.492   9.132
  644MPD2    H5 9581   0.929   4.567   9.079
  644MPD2    N1 9582   1.064   4.711   9.528
  644MPD2    H7 9583   1.088   4.689   9.624
  645MPD2     C 9584   4.040   4.325   6.267
  645MPD2    C1 9585   4.142   4.311   6.360
  645MPD2    C2 9586   4.109   4.302   6.497
  645MPD2    C3 9587   3.984   4.312   6.546
  645MPD2    C4 9588   3.888   4.339   6.457
  645MPD2    C5 9589   3.912   4.353   6.321
  645MPD2     H 9590   4.185   4.278   6.570
  645MPD2    H1 9591   3.786   4.357   6.489
  645MPD2    H2 9592   4.056   4.329   6.160
  645MPD2    H3 9593   3.833   4.369   6.249
  645MPD2     N 9594   3.934   4.304   6.676
  645MPD2    H5 9595   3.833   4.296   6.687
  645MPD2    N1 9596   4.268   4.274   6.310
  645MPD2    H7 9597   4.277   4.250   6.211
  646MPD2     C 9598   2.267   1.729  15.415
  646MPD2    C1 9599   2.181   1.822  15.353
  646MPD2    C2 9600   2.228   1.928  15.286
  646MPD2    C3 9601   2.361   1.936  15.260
  646MPD2    C4 9602   2.448   1.847  15.317
  646MPD2    C5 9603   2.401   1.746  15.399
  646MPD2     H 9604   2.156   1.996  15.242
  646MPD2    H1 9605   2.551   1.838  15.284
  646MPD2    H2 9606   2.233   1.643  15.471
  646MPD2    H3 9607   2.475   1.681  15.444
  646MPD2     N 9608   2.403   2.041  15.181
  646MPD2    H5 9609   2.329   2.100  15.144
  646MPD2    N1 9610   2.042   1.819  15.383
  646MPD2    H7 9611   1.982   1.892  15.349
  647MPD2     C 9612   3.885   1.996  14.161
  647MPD2    C1 9613   3.824   2.027  14.277
  647MPD2    C2 9614   3.905   2.061  14.382
  647MPD2    C3 9615   4.040   2.054  14.377
  647MPD2    C4 9616   4.102   2.027  14.255
  647MPD2    C5 9617   4.023   1.997  14.146
  647MPD2     H 9618   3.862   2.101  14.473
  647MPD2    H1 9619   4.209   2.022  14.238
  647MPD2    H2 9620   3.822   1.977  14.075
  647MPD2    H3 9621   4.068   1.985  14.048
  647MPD2     N 9622   4.123   2.089  14.487
  647MPD2    H5 9623   4.221   2.070  14.467
  647MPD2    N1 9624   3.681   2.039  14.287
  647MPD2    H7 9625   3.636   2.049  14.196
  648MPD2     C 9626   1.004   3.080  11.184
  648MPD2    C1 9627   1.095   3.061  11.086
  648MPD2    C2 9628   1.195   3.156  11.076
  648MPD2    C3 9629   1.213   3.250  11.180
  648MPD2    C4 9630   1.124   3.260  11.284
  648MPD2    C5 9631   1.013   3.176  11.284
  648MPD2     H 9632   1.267   3.151  10.995
  648MPD2    H1 9633   1.134   3.331  11.365
  648MPD2    H2 9634   0.917   3.014  11.187
  648MPD2    H3 9635   0.933   3.185  11.356
  648MPD2     N 9636   1.326   3.325  11.199
  648MPD2    H5 9637   1.335   3.394  11.273
  648MPD2    N1 9638   1.072   2.958  10.996
  648MPD2    H7 9639   0.987   2.905  11.009
  649MPD2     C 9640   2.942   4.643   8.786
  649MPD2    C1 9641   2.825   4.667   8.852
  649MPD2    C2 9642   2.750   4.783   8.823
  649MPD2    C3 9643   2.794   0.071   8.717
  649MPD2    C4 9644   2.904   0.030   8.644
  649MPD2    C5 9645   2.980   4.717   8.684
  649MPD2     H 9646   2.658   4.783   8.880
  649MPD2    H1 9647   2.937   0.081   8.554
  649MPD2    H2 9648   3.006   4.558   8.808
  649MPD2    H3 9649   3.070   4.685   8.631
  649MPD2     N 9650   2.725   0.187   8.673
  649MPD2    H5 9651   2.725   0.196   8.572
  649MPD2    N1 9652   2.788   4.593   8.963
  649MPD2    H7 9653   2.693   4.603   8.997
  650MPD2     C 9654   3.563   2.984   8.110
  650MPD2    C1 9655   3.619   3.049   8.216
  650MPD2    C2 9656   3.655   3.181   8.201
  650MPD2    C3 9657   3.629   3.253   8.084
  650MPD2    C4 9658   3.586   3.179   7.974
  650MPD2    C5 9659   3.540   3.048   7.989
  650MPD2     H 9660   3.707   3.237   8.278
  650MPD2    H1 9661   3.573   3.233   7.881
  650MPD2    H2 9662   3.546   2.879   8.125
  650MPD2    H3 9663   3.512   3.002   7.895
  650MPD2     N 9664   3.668   3.390   8.084
  650MPD2    H5 9665   3.696   3.429   8.174
  650MPD2    N1 9666   3.654   2.970   8.326
  650MPD2    H7 9667   3.653   2.871   8.306
  651TMC3    C1 9668   0.543   2.955   9.883
  651TMC3    C2 9669   0.514   3.082   9.834
  651TMC3    C3 9670   0.590   3.188   9.873
  651TMC3    C4 9671   0.633   2.933   9.989
  651TMC3    C5 9672   0.702   3.045  10.031
  651TMC3    C6 9673   0.675   3.171   9.974
  651TMC3     C 9674   0.440   2.859   9.855
  651TMC3     O 9675   0.390   2.859   9.741
  651TMC3     H 9676   0.443   3.094   9.754
  651TMC3    H1 9677   0.647   2.829  10.016
  651TMC3    H2 9678   0.712   3.261  10.022
  651TMC3    C7 9679   0.819   3.033  10.112
  651TMC3    C8 9680   0.522   3.317   9.856
  651TMC3    O1 9681   0.819   2.927  10.175
  651TMC3    O2 9682   0.411   3.319   9.803
  652TMC3    C1 9683   0.988   3.917   6.858
  652TMC3    C2 9684   1.036   4.039   6.819
  652TMC3    C3 9685   1.061   4.061   6.690
  652TMC3    C4 9686   0.984   3.807   6.776
  652TMC3    C5 9687   1.005   3.836   6.642
  652TMC3    C6 9688   1.031   3.963   6.599
  652TMC3     C 9689   0.993   3.898   7.003
  652TMC3     O 9690   0.916   3.823   7.057
  652TMC3     H 9691   1.014   4.129   6.875
  652TMC3    H1 9692   0.952   3.708   6.807
  652TMC3    H2 9693   1.040   3.983   6.493
  652TMC3    C7 9694   0.985   3.733   6.545
  652TMC3    C8 9695   1.134   4.178   6.645
  652TMC3    O1 9696   0.964   3.777   6.433
  652TMC3    O2 9697   1.096   4.227   6.540
  653TMC3    C1 9698   1.749   2.649  12.392
  653TMC3    C2 9699   1.865   2.714  12.421
  653TMC3    C3 9700   1.859   2.775  12.549
  653TMC3    C4 9701   1.643   2.616  12.481
  653TMC3    C5 9702   1.668   2.652  12.610
  653TMC3    C6 9703   1.778   2.734  12.651
  653TMC3     C 9704   1.708   2.648  12.249
  653TMC3     O 9705   1.590   2.649  12.226
  653TMC3     H 9706   1.931   2.754  12.345
  653TMC3    H1 9707   1.570   2.541  12.453
  653TMC3    H2 9708   1.787   2.779  12.750
  653TMC3    C7 9709   1.628   2.545  12.709
  653TMC3    C8 9710   1.961   2.881  12.580
  653TMC3    O1 9711   1.551   2.455  12.685
  653TMC3    O2 9712   2.010   2.876  12.697
  654TMC3    C1 9713   4.617   1.135   7.825
  654TMC3    C2 9714   4.685   1.204   7.724
  654TMC3    C3 9715   4.627   1.320   7.674
  654TMC3    C4 9716   4.500   1.191   7.881
  654TMC3    C5 9717   4.453   1.315   7.834
  654TMC3    C6 9718   4.515   1.382   7.732
  654TMC3     C 9719   4.650   0.996   7.834
  654TMC3     O 9720   4.563   0.913   7.860
  654TMC3     H 9721   4.764   1.156   7.668
  654TMC3    H1 9722   4.447   1.132   7.955
  654TMC3    H2 9723   4.479   1.475   7.691
  654TMC3    C7 9724   4.359   1.386   7.928
  654TMC3    C8 9725   4.633   1.334   7.528
  654TMC3    O1 9726   4.401   1.497   7.958
  654TMC3    O2 9727   4.670   1.242   7.454
  655TMC3    C1 9728   3.979   2.429  10.090
  655TMC3    C2 9729   4.008   2.336   9.995
  655TMC3    C3 9730   3.981   2.208  10.030
  655TMC3    C4 9731   3.921   2.394  10.212
  655TMC3    C5 9732   3.909   2.264  10.241
  655TMC3    C6 9733   3.927   2.168  10.150
  655TMC3     C 9734   4.018   2.569  10.080
  655TMC3     O 9735   4.010   2.638  10.182
  655TMC3     H 9736   4.058   2.366   9.903
  655TMC3    H1 9737   3.892   2.474  10.279
  655TMC3    H2 9738   3.906   2.064  10.172
  655TMC3    C7 9739   3.869   2.222  10.370
  655TMC3    C8 9740   4.055   2.115   9.948
  655TMC3    O1 9741   3.783   2.286  10.431
  655TMC3    O2 9742   4.141   2.164   9.880
  656TMC3    C1 9743   2.717   3.906  14.196
  656TMC3    C2 9744   2.792   3.968  14.102
  656TMC3    C3 9745   2.914   3.925  14.066
  656TMC3    C4 9746   2.758   3.787  14.254
  656TMC3    C5 9747   2.885   3.740  14.215
  656TMC3    C6 9748   2.961   3.810  14.125
  656TMC3     C 9749   2.577   3.952  14.197
  656TMC3     O 9750   2.524   3.974  14.090
  656TMC3     H 9751   2.748   4.053  14.050
  656TMC3    H1 9752   2.689   3.732  14.316
  656TMC3    H2 9753   3.063   3.779  14.110
  656TMC3    C7 9754   2.887   3.607  14.166
  656TMC3    C8 9755   2.936   3.930  13.926
  656TMC3    O1 9756   2.922   3.592  14.050
  656TMC3    O2 9757   2.935   4.034  13.867
  657TMC3    C1 9758   4.555   2.870   8.575
  657TMC3    C2 9759   4.569   2.903   8.439
  657TMC3    C3 9760   4.511   3.018   8.400
  657TMC3    C4 9761   4.478   2.939   8.660
  657TMC3    C5 9762   4.420   3.055   8.618
  657TMC3    C6 9763   4.438   3.095   8.484
  657TMC3     C 9764   4.600   2.739   8.606
  657TMC3     O 9765   4.620   2.663   8.513
  657TMC3     H 9766   4.637   2.850   8.373
  657TMC3    H1 9767   4.462   2.914   8.764
  657TMC3    H2 9768   4.384   3.176   8.436
  657TMC3    C7 9769   4.413   3.164   8.708
  657TMC3    C8 9770   4.605   3.102   8.335
  657TMC3    O1 9771   4.472   3.154   8.810
  657TMC3    O2 9772   4.705   3.038   8.296
  658TMC3    C1 9773   1.232   2.510   8.405
  658TMC3    C2 9774   1.319   2.451   8.314
  658TMC3    C3 9775   1.430   2.528   8.277
  658TMC3    C4 9776   1.238   2.636   8.452
  658TMC3    C5 9777   1.345   2.713   8.409
  658TMC3    C6 9778   1.445   2.656   8.326
  658TMC3     C 9779   1.128   2.433   8.455
  658TMC3     O 9780   1.059   2.359   8.383
  658TMC3     H 9781   1.300   2.355   8.268
  658TMC3    H1 9782   1.150   2.665   8.508
  658TMC3    H2 9783   1.515   2.729   8.285
  658TMC3    C7 9784   1.332   2.860   8.408
  658TMC3    C8 9785   1.545   2.460   8.221
  658TMC3    O1 9786   1.405   2.920   8.329
  658TMC3    O2 9787   1.527   2.379   8.127
  659TMC3    C1 9788   2.337   2.883  12.094
  659TMC3    C2 9789   2.340   2.921  12.226
  659TMC3    C3 9790   2.341   3.055  12.256
  659TMC3    C4 9791   2.315   2.970  11.995
  659TMC3    C5 9792   2.304   3.105  12.037
  659TMC3    C6 9793   2.330   3.147  12.160
  659TMC3     C 9794   2.327   2.745  12.062
  659TMC3     O 9795   2.268   2.675  12.143
  659TMC3     H 9796   2.352   2.846  12.304
  659TMC3    H1 9797   2.315   2.948  11.889
  659TMC3    H2 9798   2.301   3.244  12.199
  659TMC3    C7 9799   2.256   3.207  11.945
  659TMC3    C8 9800   2.349   3.101  12.396
  659TMC3    O1 9801   2.171   3.175  11.858
  659TMC3    O2 9802   2.276   3.051  12.480
  660TMC3    C1 9803   4.217   4.112  14.714
  660TMC3    C2 9804   4.197   4.215  14.628
  660TMC3    C3 9805   4.296   4.258  14.549
  660TMC3    C4 9806   4.341   4.056  14.730
  660TMC3    C5 9807   4.442   4.106  14.650
  660TMC3    C6 9808   4.418   4.208  14.557
  660TMC3     C 9809   4.119   4.005  14.688
  660TMC3     O 9810   4.169   3.893  14.673
  660TMC3     H 9811   4.098   4.248  14.602
  660TMC3    H1 9812   4.357   3.965  14.787
  660TMC3    H2 9813   4.490   4.218  14.476
  660TMC3    C7 9814   4.568   4.033  14.633
  660TMC3    C8 9815   4.258   4.314  14.421
  660TMC3    O1 9816   4.585   3.919  14.674
  660TMC3    O2 9817   4.140   4.325  14.397
  661TMC3    C1 9818   0.307   2.683  11.969
  661TMC3    C2 9819   0.215   2.622  11.895
  661TMC3    C3 9820   0.224   2.489  11.873
  661TMC3    C4 9821   0.418   2.625  12.023
  661TMC3    C5 9822   0.433   2.490  11.988
  661TMC3    C6 9823   0.332   2.427  11.919
  661TMC3     C 9824   0.311   2.828  11.963
  661TMC3     O 9825   0.213   2.891  11.929
  661TMC3     H 9826   0.145   2.674  11.830
  661TMC3    H1 9827   0.494   2.678  12.080
  661TMC3    H2 9828   0.342   2.320  11.904
  661TMC3    C7 9829   0.572   2.443  11.991
  661TMC3    C8 9830   0.141   2.440  11.764
  661TMC3    O1 9831   0.635   2.507  12.073
  661TMC3    O2 9832   0.185   2.341  11.708
  662TMC3    C1 9833   4.598   2.466  10.736
  662TMC3    C2 9834   4.724   2.408  10.745
  662TMC3    C3 9835   4.746   2.311  10.834
  662TMC3    C4 9836   4.495   2.430  10.821
  662TMC3    C5 9837   4.527   2.343  10.916
  662TMC3    C6 9838   4.645   2.275  10.925
  662TMC3     C 9839   4.577   2.591  10.654
  662TMC3     O 9840   4.663   2.645  10.594
  662TMC3     H 9841   0.014   2.449  10.681
  662TMC3    H1 9842   4.397   2.476  10.818
  662TMC3    H2 9843   4.651   2.191  10.993
  662TMC3    C7 9844   4.478   2.400  11.040
  662TMC3    C8 9845   0.073   2.223  10.804
  662TMC3    O1 9846   4.417   2.336  11.119
  662TMC3    O2 9847   0.126   2.244  10.694
  663TMC3    C1 9848   1.451   1.465   7.959
  663TMC3    C2 9849   1.407   1.512   7.837
  663TMC3    C3 9850   1.332   1.628   7.838
  663TMC3    C4 9851   1.406   1.538   8.070
  663TMC3    C5 9852   1.322   1.649   8.064
  663TMC3    C6 9853   1.276   1.693   7.942
  663TMC3     C 9854   1.572   1.376   7.963
  663TMC3     O 9855   1.632   1.342   7.858
  663TMC3     H 9856   1.460   1.468   7.754
  663TMC3    H1 9857   1.433   1.509   8.171
  663TMC3    H2 9858   1.216   1.783   7.932
  663TMC3    C7 9859   1.230   1.668   8.176
  663TMC3    C8 9860   1.268   1.648   7.705
  663TMC3    O1 9861   1.109   1.667   8.142
  663TMC3    O2 9862   1.193   1.565   7.656
  664TMC3    C1 9863   1.419   3.872  11.396
  664TMC3    C2 9864   1.420   3.840  11.530
  664TMC3    C3 9865   1.522   3.866  11.609
  664TMC3    C4 9866   1.518   3.948  11.346
  664TMC3    C5 9867   1.624   3.974  11.424
  664TMC3    C6 9868   1.618   3.952  11.561
  664TMC3     C 9869   1.311   3.824  11.315
  664TMC3     O 9870   1.208   3.813  11.380
  664TMC3     H 9871   1.340   3.776  11.563
  664TMC3    H1 9872   1.523   4.000  11.251
  664TMC3    H2 9873   1.709   3.974  11.616
  664TMC3    C7 9874   1.728   4.061  11.376
  664TMC3    C8 9875   1.549   3.785  11.722
  664TMC3    O1 9876   1.780   4.129  11.470
  664TMC3    O2 9877   1.617   3.829  11.817
  665TMC3    C1 9878   2.766   2.625  10.284
  665TMC3    C2 9879   2.670   2.726  10.296
  665TMC3    C3 9880   2.552   2.693  10.350
  665TMC3    C4 9881   2.741   2.490  10.313
  665TMC3    C5 9882   2.620   2.461  10.366
  665TMC3    C6 9883   2.525   2.559  10.388
  665TMC3     C 9884   2.868   2.634  10.186
  665TMC3     O 9885   2.902   2.536  10.123
  665TMC3     H 9886   2.686   2.829  10.266
  665TMC3    H1 9887   2.817   2.414  10.319
  665TMC3    H2 9888   2.429   2.518  10.419
  665TMC3    C7 9889   2.569   2.320  10.361
  665TMC3    C8 9890   2.439   2.784  10.331
  665TMC3    O1 9891   2.469   2.301  10.427
  665TMC3    O2 9892   2.452   2.878  10.255
  666TMC3    C1 9893   1.402   2.076  13.804
  666TMC3    C2 9894   1.459   2.192  13.831
  666TMC3    C3 9895   1.410   2.303  13.770
  666TMC3    C4 9896   1.301   2.064  13.724
  666TMC3    C5 9897   1.244   2.179  13.668
  666TMC3    C6 9898   1.307   2.302  13.687
  666TMC3     C 9899   1.500   1.966  13.797
  666TMC3     O 9900   1.466   1.856  13.760
  666TMC3     H 9901   1.530   2.189  13.912
  666TMC3    H1 9902   1.281   1.958  13.708
  666TMC3    H2 9903   1.266   2.381  13.626
  666TMC3    C7 9904   1.110   2.174  13.618
  666TMC3    C8 9905   1.505   2.410  13.765
  666TMC3    O1 9906   1.066   2.257  13.544
  666TMC3    O2 9907   1.595   2.388  13.846
  667TMC3    C1 9908   0.938   2.694  10.431
  667TMC3    C2 9909   1.077   2.726  10.432
  667TMC3    C3 9910   1.136   2.718  10.308
  667TMC3    C4 9911   0.870   2.657  10.319
  667TMC3    C5 9912   0.937   2.652  10.204
  667TMC3    C6 9913   1.067   2.688  10.191
  667TMC3     C 9914   0.855   2.773  10.517
  667TMC3     O 9915   0.855   2.742  10.632
  667TMC3     H 9916   1.120   2.757  10.526
  667TMC3    H1 9917   0.763   2.645  10.329
  667TMC3    H2 9918   1.114   2.699  10.094
  667TMC3    C7 9919   0.863   2.642  10.076
  667TMC3    C8 9920   1.271   2.762  10.313
  667TMC3    O1 9921   0.919   2.698   9.982
  667TMC3    O2 9922   1.349   2.670  10.331
  668TMC3    C1 9923   2.582   4.518  11.169
  668TMC3    C2 9924   2.554   4.648  11.182
  668TMC3    C3 9925   2.610   4.722  11.281
  668TMC3    C4 9926   2.651   4.451  11.264
  668TMC3    C5 9927   2.699   4.520  11.368
  668TMC3    C6 9928   2.680   4.659  11.384
  668TMC3     C 9929   2.612   4.496  11.034
  668TMC3     O 9930   2.675   4.578  10.971
  668TMC3     H 9931   2.506   4.702  11.100
  668TMC3    H1 9932   2.669   4.344  11.272
  668TMC3    H2 9933   2.681   4.711  11.479
  668TMC3    C7 9934   2.684   4.455  11.495
  668TMC3    C8 9935   2.573   0.073  11.288
  668TMC3    O1 9936   2.593   4.373  11.502
  668TMC3    O2 9937   2.459   0.094  11.244
  669TMC3    C1 9938   1.483   3.785   8.600
  669TMC3    C2 9939   1.610   3.792   8.564
  669TMC3    C3 9940   1.661   3.909   8.522
  669TMC3    C4 9941   1.402   3.898   8.601
  669TMC3    C5 9942   1.460   4.019   8.575
  669TMC3    C6 9943   1.592   4.025   8.521
  669TMC3     C 9944   1.433   3.677   8.674
  669TMC3     O 9945   1.309   3.653   8.673
  669TMC3     H 9946   1.669   3.701   8.560
  669TMC3    H1 9947   1.302   3.893   8.642
  669TMC3    H2 9948   1.637   4.120   8.494
  669TMC3    C7 9949   1.400   4.144   8.604
  669TMC3    C8 9950   1.799   3.919   8.481
  669TMC3    O1 9951   1.444   4.243   8.553
  669TMC3    O2 9952   1.885   3.870   8.553
  670TMC3    C1 9953   0.783   1.681  14.829
  670TMC3    C2 9954   0.763   1.578  14.739
  670TMC3    C3 9955   0.868   1.488  14.712
  670TMC3    C4 9956   0.905   1.687  14.897
  670TMC3    C5 9957   1.003   1.600  14.868
  670TMC3    C6 9958   0.990   1.498  14.783
  670TMC3     C 9959   0.693   1.797  14.823
  670TMC3     O 9960   0.749   1.899  14.871
  670TMC3     H 9961   0.669   1.580  14.684
  670TMC3    H1 9962   0.934   1.778  14.948
  670TMC3    H2 9963   1.063   1.417  14.781
  670TMC3    C7 9964   1.131   1.617  14.941
  670TMC3    C8 9965   0.855   1.383  14.617
  670TMC3    O1 9966   1.128   1.677  15.047
  670TMC3    O2 9967   0.741   1.361  14.585
  671TMC3    C1 9968   2.519   1.742  10.641
  671TMC3    C2 9969   2.391   1.790  10.624
  671TMC3    C3 9970   2.365   1.921  10.659
  671TMC3    C4 9971   2.625   1.822  10.650
  671TMC3    C5 9972   2.601   1.956  10.670
  671TMC3    C6 9973   2.475   2.006  10.673
  671TMC3     C 9974   2.509   1.622  10.714
  671TMC3     O 9975   2.396   1.592  10.753
  671TMC3     H 9976   2.309   1.722  10.604
  671TMC3    H1 9977   2.722   1.776  10.667
  671TMC3    H2 9978   2.454   2.113  10.678
  671TMC3    C7 9979   2.717   2.041  10.664
  671TMC3    C8 9980   2.267   1.931  10.769
  671TMC3    O1 9981   2.819   1.993  10.709
  671TMC3    O2 9982   2.269   2.043  10.821
  672TMC3    C1 9983   2.466   1.399  10.432
  672TMC3    C2 9984   2.399   1.493  10.358
  672TMC3    C3 9985   2.267   1.502  10.369
  672TMC3    C4 9986   2.403   1.315  10.512
  672TMC3    C5 9987   2.265   1.329  10.518
  672TMC3    C6 9988   2.195   1.417  10.445
  672TMC3     C 9989   2.609   1.400  10.425
  672TMC3     O 9990   2.660   1.506  10.384
  672TMC3     H 9991   2.453   1.557  10.289
  672TMC3    H1 9992   2.454   1.246  10.578
  672TMC3    H2 9993   2.087   1.427  10.443
  672TMC3    C7 9994   2.193   1.210  10.560
  672TMC3    C8 9995   2.206   1.602  10.289
  672TMC3    O1 9996   2.081   1.201  10.515
  672TMC3    O2 9997   2.239   1.609  10.174
  673TMC3    C1 9998   1.884   0.851  13.916
  673TMC3    C2 9999   1.859   0.748  13.827
  673TMC3    C310000   1.847   0.625  13.879
  673TMC3    C410001   1.862   0.823  14.046
  673TMC3    C510002   1.841   0.696  14.098
  673TMC3    C610003   1.832   0.591  14.012
  673TMC3     C10004   1.848   0.982  13.872
  673TMC3     O10005   1.764   0.993  13.789
  673TMC3     H10006   1.860   0.770  13.721
  673TMC3    H110007   1.862   0.905  14.116
  673TMC3    H210008   1.818   0.489  14.047
  673TMC3    C710009   1.757   0.692  14.216
  673TMC3    C810010   1.825   0.512  13.794
  673TMC3    O110011   1.792   0.752  14.320
  673TMC3    O210012   1.920   0.456  13.740
  674TMC3    C110013   3.710   2.286   9.459
  674TMC3    C210014   3.674   2.413   9.477
  674TMC3    C310015   3.557   2.456   9.422
  674TMC3    C410016   3.622   2.191   9.419
  674TMC3    C510017   3.491   2.233   9.397
  674TMC3    C610018   3.462   2.365   9.404
  674TMC3     C10019   3.842   2.252   9.510
  674TMC3     O10020   3.876   2.325   9.599
  674TMC3     H10021   3.742   2.489   9.513
  674TMC3    H110022   3.648   2.086   9.423
  674TMC3    H210023   3.361   2.389   9.374
  674TMC3    C710024   3.376   2.144   9.363
  674TMC3    C810025   3.561   2.560   9.313
  674TMC3    O110026   3.262   2.179   9.365
  674TMC3    O210027   3.465   2.579   9.243
  675TMC3    C110028   4.012   0.836  14.780
  675TMC3    C210029   4.100   0.941  14.743
  675TMC3    C310030   4.042   1.066  14.728
  675TMC3    C410031   3.879   0.864  14.814
  675TMC3    C510032   3.833   0.985  14.784
  675TMC3    C610033   3.908   1.089  14.745
  675TMC3     C10034   4.047   0.697  14.821
  675TMC3     O10035   3.972   0.658  14.909
  675TMC3     H10036   4.207   0.932  14.732
  675TMC3    H110037   3.810   0.783  14.834
  675TMC3    H210038   3.856   1.180  14.717
  675TMC3    C710039   3.698   0.992  14.727
  675TMC3    C810040   4.112   1.165  14.651
  675TMC3    O110041   3.693   1.003  14.604
  675TMC3    O210042   4.195   1.130  14.570
  676TMC3    C110043   1.369   3.611  12.269
  676TMC3    C210044   1.426   3.727  12.280
  676TMC3    C310045   1.352   3.842  12.307
  676TMC3    C410046   1.238   3.599  12.307
  676TMC3    C510047   1.164   3.708  12.334
  676TMC3    C610048   1.213   3.836  12.329
  676TMC3     C10049   1.438   3.506  12.337
  676TMC3     O10050   1.406   3.388  12.320
  676TMC3     H10051   1.533   3.733  12.267
  676TMC3    H110052   1.194   3.504  12.338
  676TMC3    H210053   1.155   3.922  12.361
  676TMC3    C710054   1.053   3.702  12.432
  676TMC3    C810055   1.408   3.977  12.292
  676TMC3    O110056   1.057   3.797  12.513
  676TMC3    O210057   1.341   4.072  12.329
  677TMC3    C110058   2.160   2.899   7.411
  677TMC3    C210059   2.085   2.957   7.309
  677TMC3    C310060   1.948   2.955   7.321
  677TMC3    C410061   2.098   2.864   7.528
  677TMC3    C510062   1.963   2.881   7.539
  677TMC3    C610063   1.886   2.921   7.433
  677TMC3     C10064   2.290   2.939   7.425
  677TMC3     O10065   2.317   3.052   7.387
  677TMC3     H10066   2.131   3.012   7.228
  677TMC3    H110067   2.161   2.847   7.615
  677TMC3    H210068   1.780   2.920   7.455
  677TMC3    C710069   1.905   2.872   7.672
  677TMC3    C810070   1.889   3.071   7.261
  677TMC3    O110071   1.978   2.822   7.754
  677TMC3    O210072   1.958   3.166   7.230
  678TMC3    C110073   3.786   3.769  14.878
  678TMC3    C210074   3.892   3.684  14.853
  678TMC3    C310075   3.865   3.585  14.762
  678TMC3    C410076   3.663   3.757  14.825
  678TMC3    C510077   3.640   3.655  14.736
  678TMC3    C610078   3.738   3.569  14.703
  678TMC3     C10079   3.808   3.898  14.934
  678TMC3     O10080   3.712   3.973  14.944
  678TMC3     H10081   3.993   3.703  14.888
  678TMC3    H110082   3.581   3.818  14.864
  678TMC3    H210083   3.721   3.488  14.632
  678TMC3    C710084   3.523   3.654  14.654
  678TMC3    C810085   3.977   3.509  14.719
  678TMC3    O110086   3.505   3.553  14.587
  678TMC3    O210087   4.062   3.486  14.804
  679TMC3    C110088   4.551   2.695   7.621
  679TMC3    C210089   4.416   2.694   7.635
  679TMC3    C310090   4.373   2.637   7.751
  679TMC3    C410091   4.642   2.663   7.717
  679TMC3    C510092   4.598   2.608   7.831
  679TMC3    C610093   4.464   2.604   7.851
  679TMC3     C10094   4.595   2.693   7.484
  679TMC3     O10095   4.513   2.654   7.398
  679TMC3     H10096   4.345   2.721   7.558
  679TMC3    H110097   4.744   2.634   7.693
  679TMC3    H210098   4.415   2.566   7.939
  679TMC3    C710099   4.705   2.588   7.930
  679TMC3    C810100   4.239   2.586   7.750
  679TMC3    O110101   0.013   2.660   7.901
  679TMC3    O210102   4.197   2.550   7.640
  680TMC3    C110103   3.146   4.334  10.790
  680TMC3    C210104   3.237   4.229  10.804
  680TMC3    C310105   3.295   4.198  10.926
  680TMC3    C410106   3.091   4.393  10.903
  680TMC3    C510107   3.136   4.347  11.022
  680TMC3    C610108   3.246   4.263  11.039
  680TMC3     C10109   3.107   4.368  10.661
  680TMC3     O10110   3.118   4.291  10.567
  680TMC3     H10111   3.267   4.176  10.715
  680TMC3    H110112   3.011   4.467  10.899
  680TMC3    H210113   3.285   4.237  11.136
  680TMC3    C710114   3.046   4.373  11.137
  680TMC3    C810115   3.361   4.070  10.935
  680TMC3    O110116   2.933   4.335  11.116
  680TMC3    O210117   3.315   3.977  10.871
  681TMC3    C110118   4.778   2.534  14.206
  681TMC3    C210119   4.697   2.452  14.270
  681TMC3    C310120   4.585   2.502  14.347
  681TMC3    C410121   4.756   2.671  14.220
  681TMC3    C510122   4.650   2.717  14.297
  681TMC3    C610123   4.563   2.636  14.365
  681TMC3     C10124   0.005   2.485  14.068
  681TMC3     O10125   4.736   2.380  14.035
  681TMC3     H10126   4.721   2.347  14.277
  681TMC3    H110127   0.030   2.747  14.173
  681TMC3    H210128   4.481   2.680  14.420
  681TMC3    C710129   4.582   2.841  14.253
  681TMC3    C810130   4.463   2.431  14.340
  681TMC3    O110131   4.463   2.835  14.224
  681TMC3    O210132   4.472   2.310  14.339
  682TMC3    C110133   4.436   2.806  13.013
  682TMC3    C210134   4.527   2.705  12.972
  682TMC3    C310135   4.618   2.733  12.874
  682TMC3    C410136   4.448   2.940  12.963
  682TMC3    C510137   4.524   2.955  12.853
  682TMC3    C610138   4.606   2.850  12.807
  682TMC3     C10139   4.351   2.786  13.129
  682TMC3     O10140   4.380   2.681  13.189
  682TMC3     H10141   4.526   2.618  13.037
  682TMC3    H110142   4.379   3.019  12.991
  682TMC3    H210143   4.649   2.856  12.708
  682TMC3    C710144   4.499   3.063  12.761
  682TMC3    C810145   4.715   2.637  12.832
  682TMC3    O110146   4.383   3.077  12.726
  682TMC3    O210147   4.685   2.522  12.849
  683TMC3    C110148   1.243   4.273   9.508
  683TMC3    C210149   1.259   4.149   9.573
  683TMC3    C310150   1.227   4.140   9.706
  683TMC3    C410151   1.195   4.382   9.576
  683TMC3    C510152   1.182   4.373   9.711
  683TMC3    C610153   1.191   4.248   9.773
  683TMC3     C10154   1.253   4.284   9.360
  683TMC3     O10155   1.226   4.184   9.302
  683TMC3     H10156   1.307   4.067   9.521
  683TMC3    H110157   1.193   4.479   9.529
  683TMC3    H210158   1.172   4.232   9.879
  683TMC3    C710159   1.180   4.492   9.801
  683TMC3    C810160   1.281   4.029   9.788
  683TMC3    O110161   1.122   4.596   9.770
  683TMC3    O210162   1.404   4.023   9.792
  684TMC3    C110163   0.813   4.078   7.858
  684TMC3    C210164   0.821   4.053   7.991
  684TMC3    C310165   0.792   4.156   8.073
  684TMC3    C410166   0.810   4.202   7.799
  684TMC3    C510167   0.782   4.301   7.893
  684TMC3    C610168   0.753   4.279   8.027
  684TMC3     C10169   0.852   3.963   7.773
  684TMC3     O10170   0.931   3.884   7.820
  684TMC3     H10171   0.824   3.948   8.018
  684TMC3    H110172   0.816   4.223   7.693
  684TMC3    H210173   0.714   4.354   8.095
  684TMC3    C710174   0.780   4.447   7.858
  684TMC3    C810175   0.731   4.117   8.201
  684TMC3    O110176   0.673   4.497   7.894
  684TMC3    O210177   0.618   4.158   8.210
  685TMC3    C110178   1.401   3.262  13.258
  685TMC3    C210179   1.449   3.158  13.336
  685TMC3    C310180   1.469   3.184  13.468
  685TMC3    C410181   1.378   3.385  13.302
  685TMC3    C510182   1.405   3.413  13.437
  685TMC3    C610183   1.447   3.314  13.519
  685TMC3     C10184   1.344   3.233  13.131
  685TMC3     O10185   1.336   3.324  13.052
  685TMC3     H10186   1.495   3.070  13.292
  685TMC3    H110187   1.367   3.472  13.238
  685TMC3    H210188   1.463   3.323  13.626
  685TMC3    C710189   1.366   3.536  13.501
  685TMC3    C810190   1.559   3.104  13.544
  685TMC3    O110191   1.426   3.573  13.602
  685TMC3    O210192   1.633   3.165  13.625
  686TMC3    C110193   3.089   0.916   9.391
  686TMC3    C210194   2.982   0.838   9.421
  686TMC3    C310195   3.010   0.700   9.430
  686TMC3    C410196   3.214   0.866   9.362
  686TMC3    C510197   3.232   0.735   9.395
  686TMC3    C610198   3.132   0.647   9.423
  686TMC3     C10199   3.061   1.054   9.359
  686TMC3     O10200   2.976   1.115   9.421
  686TMC3     H10201   2.882   0.879   9.429
  686TMC3    H110202   3.292   0.940   9.344
  686TMC3    H210203   3.156   0.541   9.431
  686TMC3    C710204   3.364   0.684   9.353
  686TMC3    C810205   2.899   0.600   9.415
  686TMC3    O110206   3.394   0.714   9.239
  686TMC3    O210207   2.896   0.506   9.495
  687TMC3    C110208   3.082   2.253  12.737
  687TMC3    C210209   3.002   2.338  12.675
  687TMC3    C310210   2.946   2.301  12.551
  687TMC3    C410211   3.103   2.123  12.677
  687TMC3    C510212   3.040   2.088  12.565
  687TMC3    C610213   2.956   2.171  12.499
  687TMC3     C10214   3.191   2.301  12.830
  687TMC3     O10215   3.301   2.246  12.824
  687TMC3     H10216   2.999   2.443  12.702
  687TMC3    H110217   3.165   2.055  12.734
  687TMC3    H210218   2.912   2.149  12.402
  687TMC3    C710219   3.074   1.961  12.505
  687TMC3    C810220   2.913   2.413  12.463
  687TMC3    O110221   3.060   1.964  12.382
  687TMC3    O210222   2.892   2.520  12.517
  688TMC3    C110223   3.840   2.622  12.932
  688TMC3    C210224   3.855   2.519  12.844
  688TMC3    C310225   3.976   2.455  12.837
  688TMC3    C410226   3.943   2.649  13.018
  688TMC3    C510227   4.057   2.584  13.016
  688TMC3    C610228   4.077   2.500  12.910
  688TMC3     C10229   3.710   2.674  12.967
  688TMC3     O10230   3.714   2.786  13.011
  688TMC3     H10231   3.769   2.482  12.789
  688TMC3    H110232   3.926   2.719  13.099
  688TMC3    H210233   4.179   2.466  12.895
  688TMC3    C710234   4.074   2.517  13.141
  688TMC3    C810235   3.975   2.321  12.779
  688TMC3    O110236   4.000   2.539  13.234
  688TMC3    O210237   3.867   2.261  12.789
  689TMC3    C110238   2.728   3.901  10.654
  689TMC3    C210239   2.765   3.848  10.777
  689TMC3    C310240   2.889   3.866  10.840
  689TMC3    C410241   2.828   3.962  10.583
  689TMC3    C510242   2.952   3.979  10.637
  689TMC3    C610243   2.983   3.942  10.766
  689TMC3     C10244   2.631   3.818  10.580
  689TMC3     O10245   2.551   3.760  10.651
  689TMC3     H10246   2.702   3.778  10.831
  689TMC3    H110247   2.803   4.003  10.486
  689TMC3    H210248   3.083   3.949  10.807
  689TMC3    C710249   3.067   4.000  10.552
  689TMC3    C810250   2.941   3.748  10.916
  689TMC3    O110251   3.171   3.944  10.589
  689TMC3    O210252   2.873   3.643  10.905
  690TMC3    C110253   3.515   0.098  10.354
  690TMC3    C210254   3.510   0.200  10.266
  690TMC3    C310255   3.399   0.219  10.198
  690TMC3    C410256   3.411   0.015  10.373
  690TMC3    C510257   3.313   0.023  10.277
  690TMC3    C610258   3.296   0.131  10.194
  690TMC3     C10259   3.648   0.071  10.421
  690TMC3     O10260   3.730   0.157  10.391
  690TMC3     H10261   3.588   0.274  10.260
  690TMC3    H110262   3.423   4.715  10.437
  690TMC3    H210263   3.214   0.150  10.126
  690TMC3    C710264   3.282   4.680  10.210
  690TMC3    C810265   3.391   0.344  10.132
  690TMC3    O110266   3.287   4.579  10.278
  690TMC3    O210267   3.489   0.395  10.079
  691TMC3    C110268   0.529   1.781   7.982
  691TMC3    C210269   0.420   1.855   7.940
  691TMC3    C310270   0.416   1.894   7.807
  691TMC3    C410271   0.624   1.739   7.893
  691TMC3    C510272   0.625   1.796   7.767
  691TMC3    C610273   0.510   1.853   7.721
  691TMC3     C10274   0.557   1.784   8.124
  691TMC3     O10275   0.472   1.724   8.179
  691TMC3     H10276   0.349   1.885   8.016
  691TMC3    H110277   0.716   1.692   7.928
  691TMC3    H210278   0.506   1.888   7.618
  691TMC3    C710279   0.733   1.757   7.684
  691TMC3    C810280   0.369   2.026   7.793
  691TMC3    O110281   0.796   1.655   7.710
  691TMC3    O210282   0.435   2.094   7.714
  692TMC3    C110283   3.164   0.818  13.382
  692TMC3    C210284   3.078   0.848  13.486
  692TMC3    C310285   2.967   0.766  13.503
  692TMC3    C410286   3.142   0.723  13.282
  692TMC3    C510287   3.024   0.652  13.304
  692TMC3    C610288   2.944   0.671  13.410
  692TMC3     C10289   3.255   0.927  13.343
  692TMC3     O10290   3.269   0.945  13.226
  692TMC3     H10291   3.085   0.932  13.554
  692TMC3    H110292   3.218   0.696  13.209
  692TMC3    H210293   2.863   0.602  13.429
  692TMC3    C710294   2.990   0.542  13.222
  692TMC3    C810295   2.913   0.758  13.635
  692TMC3    O110296   2.903   0.459  13.257
  692TMC3    O210297   2.902   0.645  13.685
  693TMC3    C110298   0.487   0.758   6.557
  693TMC3    C210299   0.394   0.672   6.501
  693TMC3    C310300   0.426   0.536   6.472
  693TMC3    C410301   0.613   0.721   6.563
  693TMC3    C510302   0.647   0.600   6.509
  693TMC3    C610303   0.557   0.500   6.473
  693TMC3     C10304   0.444   0.889   6.594
  693TMC3     O10305   0.522   0.981   6.565
  693TMC3     H10306   0.290   0.697   6.481
  693TMC3    H110307   0.685   0.796   6.595
  693TMC3    H210308   0.581   0.405   6.428
  693TMC3    C710309   0.786   0.574   6.497
  693TMC3    C810310   0.321   0.441   6.492
  693TMC3    O110311   0.818   0.458   6.473
  693TMC3    O210312   0.204   0.482   6.499
  694TMC3    C110313   4.152   3.549   9.247
  694TMC3    C210314   4.196   3.639   9.150
  694TMC3    C310315   4.329   3.642   9.123
  694TMC3    C410316   4.234   3.460   9.300
  694TMC3    C510317   4.370   3.462   9.283
  694TMC3    C610318   4.420   3.562   9.198
  694TMC3     C10319   4.099   3.628   9.354
  694TMC3     O10320   4.005   3.578   9.417
  694TMC3     H10321   4.122   3.698   9.097
  694TMC3    H110322   4.186   3.400   9.377
  694TMC3    H210323   4.527   3.571   9.180
  694TMC3    C710324   4.456   3.386   9.366
  694TMC3    C810325   4.382   3.756   9.049
  694TMC3    O110326   4.417   3.278   9.407
  694TMC3    O210327   4.485   3.805   9.081
  695TMC3    C110328   4.419   0.158   8.127
  695TMC3    C210329   4.544   0.163   8.184
  695TMC3    C310330   4.646   0.215   8.104
  695TMC3    C410331   4.406   0.193   7.994
  695TMC3    C510332   4.515   0.247   7.920
  695TMC3    C610333   4.633   0.263   7.977
  695TMC3     C10334   4.306   0.093   8.189
  695TMC3     O10335   4.335   4.765   8.217
  695TMC3     H10336   4.566   0.126   8.283
  695TMC3    H110337   4.313   0.162   7.948
  695TMC3    H210338   4.716   0.311   7.926
  695TMC3    C710339   4.479   0.361   7.841
  695TMC3    C810340   4.764   0.253   8.172
  695TMC3    O110341   4.561   0.445   7.812
  695TMC3    O210342   4.757   0.294   8.288
  696TMC3    C110343   4.063   1.271  12.993
  696TMC3    C210344   3.992   1.200  12.905
  696TMC3    C310345   4.014   1.227  12.775
  696TMC3    C410346   4.135   1.380  12.951
  696TMC3    C510347   4.146   1.413  12.819
  696TMC3    C610348   4.087   1.330  12.724
  696TMC3     C10349   4.158   1.192  13.065
  696TMC3     O10350   4.112   1.091  13.118
  696TMC3     H10351   3.948   1.106  12.937
  696TMC3    H110352   4.180   1.448  13.023
  696TMC3    H210353   4.092   1.331  12.616
  696TMC3    C710354   4.280   1.448  12.780
  696TMC3    C810355   3.957   1.130  12.673
  696TMC3    O110356   4.317   1.402  12.674
  696TMC3    O210357   4.011   1.127  12.564
  697TMC3    C110358   3.900   3.875  12.355
  697TMC3    C210359   3.891   3.999  12.299
  697TMC3    C310360   3.801   4.023  12.205
  697TMC3    C410361   3.812   3.781  12.309
  697TMC3    C510362   3.730   3.807  12.205
  697TMC3    C610363   3.724   3.932  12.149
  697TMC3     C10364   3.934   3.868  12.490
  697TMC3     O10365   3.886   3.965  12.545
  697TMC3     H10366   3.951   4.079  12.342
  697TMC3    H110367   3.809   3.682  12.353
  697TMC3    H210368   3.643   3.957  12.081
  697TMC3    C710369   3.629   3.703  12.174
  697TMC3    C810370   3.814   4.150  12.136
  697TMC3    O110371   3.646   3.594  12.223
  697TMC3    O210372   3.775   4.159  12.018
  698TMC3    C110373   3.234   3.423  14.920
  698TMC3    C210374   3.145   3.468  14.829
  698TMC3    C310375   3.024   3.401  14.820
  698TMC3    C410376   3.194   3.331  15.017
  698TMC3    C510377   3.072   3.276  15.006
  698TMC3    C610378   2.980   3.308  14.911
  698TMC3     C10379   3.346   3.373  14.845
  698TMC3     O10380   3.320   3.340  14.730
  698TMC3     H10381   3.182   3.527  14.747
  698TMC3    H110382   3.267   3.283  15.080
  698TMC3    H210383   2.877   3.273  14.904
  698TMC3    C710384   3.047   3.161  15.096
  698TMC3    C810385   3.003   3.365  14.685
  698TMC3    O110386   3.098   3.182  15.204
  698TMC3    O210387   3.022   3.452  14.604
  699TMC3    C110388   4.395   0.808   7.591
  699TMC3    C210389   4.308   0.701   7.546
  699TMC3    C310390   4.368   0.591   7.502
  699TMC3    C410391   4.522   0.811   7.554
  699TMC3    C510392   4.577   0.695   7.501
  699TMC3    C610393   4.500   0.583   7.482
  699TMC3     C10394   4.326   0.928   7.643
  699TMC3     O10395   4.356   1.030   7.585
  699TMC3     H10396   4.202   0.715   7.560
  699TMC3    H110397   4.580   0.899   7.576
  699TMC3    H210398   4.550   0.501   7.432
  699TMC3    C710399   4.699   0.693   7.432
  699TMC3    C810400   4.274   0.483   7.465
  699TMC3    O110401   4.762   0.591   7.441
  699TMC3    O210402   4.157   0.506   7.494
  700TMC3    C110403   1.792   3.591  13.161
  700TMC3    C210404   1.929   3.603  13.187
  700TMC3    C310405   2.005   3.483  13.190
  700TMC3    C410406   1.737   3.467  13.143
  700TMC3    C510407   1.818   3.362  13.142
  700TMC3    C610408   1.953   3.363  13.163
  700TMC3     C10409   1.704   3.696  13.208
  700TMC3     O10410   1.589   3.665  13.218
  700TMC3     H10411   1.972   3.698  13.217
  700TMC3    H110412   1.631   3.452  13.124
  700TMC3    H210413   2.019   3.278  13.157
  700TMC3    C710414   1.763   3.233  13.124
  700TMC3    C810415   2.140   3.506  13.231
  700TMC3    O110416   1.665   3.225  13.054
  700TMC3    O210417   2.167   3.607  13.298
  701TMC3    C110418   3.287   4.250   7.165
  701TMC3    C210419   3.414   4.306   7.150
  701TMC3    C310420   3.432   4.412   7.067
  701TMC3    C410421   3.175   4.290   7.102
  701TMC3    C510422   3.195   4.392   7.010
  701TMC3    C610423   3.323   4.445   6.995
  701TMC3     C10424   3.270   4.127   7.248
  701TMC3     O10425   3.157   4.112   7.295
  701TMC3     H10426   3.494   4.269   7.213
  701TMC3    H110427   3.082   4.236   7.115
  701TMC3    H210428   3.348   4.523   6.925
  701TMC3    C710429   3.088   4.462   6.954
  701TMC3    C810430   3.558   4.445   7.005
  701TMC3    O110431   3.109   4.545   6.870
  701TMC3    O210432   3.561   4.426   6.884
  702TMC3    C110433   2.488   0.612  10.319
  702TMC3    C210434   2.573   0.615  10.215
  702TMC3    C310435   2.689   0.689  10.219
  702TMC3    C410436   2.516   0.685  10.432
  702TMC3    C510437   2.644   0.737  10.449
  702TMC3    C610438   2.729   0.739  10.338
  702TMC3     C10439   2.396   0.502  10.336
  702TMC3     O10440   2.353   0.472  10.447
  702TMC3     H10441   2.565   0.561  10.121
  702TMC3    H110442   2.444   0.698  10.513
  702TMC3    H210443   2.820   0.798  10.345
  702TMC3    C710444   2.690   0.771  10.585
  702TMC3    C810445   2.803   0.625  10.157
  702TMC3    O110446   2.598   0.803  10.661
  702TMC3    O210447   2.796   0.499  10.152
  703TMC3    C110448   1.717   0.159   8.724
  703TMC3    C210449   1.726   0.085   8.840
  703TMC3    C310450   1.783   4.750   8.826
  703TMC3    C410451   1.769   0.112   8.603
  703TMC3    C510452   1.808   4.770   8.592
  703TMC3    C610453   1.822   4.695   8.702
  703TMC3     C10454   1.654   0.289   8.724
  703TMC3     O10455   1.650   0.348   8.829
  703TMC3     H10456   1.691   0.125   8.934
  703TMC3    H110457   1.764   0.172   8.513
  703TMC3    H210458   1.873   4.600   8.691
  703TMC3    C710459   1.881   4.732   8.466
  703TMC3    C810460   1.759   4.662   8.937
  703TMC3    O110461   2.000   4.698   8.481
  703TMC3    O210462   1.759   4.708   9.050
  704TMC3    C110463   0.604   2.402   7.197
  704TMC3    C210464   0.734   2.396   7.196
  704TMC3    C310465   0.790   2.331   7.089
  704TMC3    C410466   0.518   2.340   7.108
  704TMC3    C510467   0.575   2.271   7.005
  704TMC3    C610468   0.717   2.265   6.995
  704TMC3     C10469   0.540   2.513   7.264
  704TMC3     O10470   0.440   2.492   7.330
  704TMC3     H10471   0.775   2.457   7.275
  704TMC3    H110472   0.412   2.362   7.104
  704TMC3    H210473   0.764   2.221   6.907
  704TMC3    C710474   0.487   2.218   6.902
  704TMC3    C810475   0.938   2.329   7.079
  704TMC3    O110476   0.385   2.284   6.890
  704TMC3    O210477   0.983   2.308   6.967
  705TMC3    C110478   3.775   0.016  15.157
  705TMC3    C210479   3.646   4.760  15.157
  705TMC3    C310480   3.622   4.625  15.159
  705TMC3    C410481   3.881   4.720  15.174
  705TMC3    C510482   3.850   4.587  15.174
  705TMC3    C610483   3.724   4.539  15.157
  705TMC3     C10484   3.797   0.163  15.137
  705TMC3     O10485   3.907   0.212  15.141
  705TMC3     H10486   3.558   0.035  15.137
  705TMC3    H110487   3.983   4.755  15.181
  705TMC3    H210488   3.707   4.436  15.184
  705TMC3    C710489   3.954   4.497  15.164
  705TMC3    C810490   3.499   4.573  15.099
  705TMC3    O110491   4.058   4.519  15.223
  705TMC3    O210492   3.513   4.462  15.047
  706TMC3    C110493   1.078   1.488  10.139
  706TMC3    C210494   1.082   1.492  10.004
  706TMC3    C310495   1.193   1.537   9.938
  706TMC3    C410496   1.172   1.552  10.214
  706TMC3    C510497   1.276   1.602  10.149
  706TMC3    C610498   1.299   1.579  10.016
  706TMC3     C10499   1.013   1.374  10.200
  706TMC3     O10500   0.900   1.343  10.161
  706TMC3     H10501   1.003   1.438   9.954
  706TMC3    H110502   1.151   1.576  10.317
  706TMC3    H210503   1.395   1.599   9.971
  706TMC3    C710504   1.294   1.744  10.164
  706TMC3    C810505   1.192   1.583   9.797
  706TMC3    O110506   1.196   1.807  10.204
  706TMC3    O210507   1.102   1.543   9.725
  707TMC3    C110508   2.272   2.734   9.197
  707TMC3    C210509   2.314   2.777   9.081
  707TMC3    C310510   2.364   2.903   9.070
  707TMC3    C410511   2.286   2.805   9.308
  707TMC3    C510512   2.356   2.917   9.313
  707TMC3    C610513   2.380   2.971   9.192
  707TMC3     C10514   2.167   2.637   9.194
  707TMC3     O10515   2.171   2.563   9.098
  707TMC3     H10516   2.287   2.722   8.992
  707TMC3    H110517   2.264   2.758   9.403
  707TMC3    H210518   2.407   3.076   9.185
  707TMC3    C710519   2.348   3.008   9.421
  707TMC3    C810520   2.431   2.954   8.948
  707TMC3    O110521   2.349   2.959   9.530
  707TMC3    O210522   2.428   3.079   8.943
  708TMC3    C110523   0.723   1.663  14.359
  708TMC3    C210524   0.766   1.555  14.288
  708TMC3    C310525   0.666   1.459  14.262
  708TMC3    C410526   0.596   1.680  14.408
  708TMC3    C510527   0.500   1.589  14.364
  708TMC3    C610528   0.534   1.478  14.292
  708TMC3     C10529   0.820   1.763  14.384
  708TMC3     O10530   0.928   1.725  14.437
  708TMC3     H10531   0.865   1.556  14.245
  708TMC3    H110532   0.562   1.759  14.475
  708TMC3    H210533   0.453   1.427  14.240
  708TMC3    C710534   0.370   1.602  14.425
  708TMC3    C810535   0.697   1.379  14.154
  708TMC3    O110536   0.345   1.715  14.454
  708TMC3    O210537   0.806   1.391  14.100
  709TMC3    C110538   1.653   1.341   8.924
  709TMC3    C210539   1.719   1.237   8.990
  709TMC3    C310540   1.766   1.134   8.915
  709TMC3    C410541   1.666   1.360   8.791
  709TMC3    C510542   1.722   1.264   8.716
  709TMC3    C610543   1.771   1.147   8.776
  709TMC3     C10544   1.585   1.438   9.006
  709TMC3     O10545   1.611   1.443   9.125
  709TMC3     H10546   1.712   1.227   9.098
  709TMC3    H110547   1.629   1.451   8.746
  709TMC3    H210548   1.793   1.065   8.708
  709TMC3    C710549   1.731   1.278   8.572
  709TMC3    C810550   1.779   1.003   8.976
  709TMC3    O110551   1.666   1.375   8.528
  709TMC3    O210552   1.728   0.995   9.089
  710TMC3    C110553   2.819   0.029  12.198
  710TMC3    C210554   2.733   4.739  12.280
  710TMC3    C310555   2.616   0.004  12.321
  710TMC3    C410556   2.779   0.151  12.145
  710TMC3    C510557   2.664   0.205  12.197
  710TMC3    C610558   2.580   0.127  12.269
  710TMC3     C10559   2.958   4.785  12.186
  710TMC3     O10560   3.006   0.052  12.090
  710TMC3     H10561   2.762   4.644  12.324
  710TMC3    H110562   2.846   0.207  12.082
  710TMC3    H210563   2.487   0.175  12.295
  710TMC3    C710564   2.648   0.349  12.197
  710TMC3    C810565   2.532   4.702  12.405
  710TMC3    O110566   2.560   0.401  12.263
  710TMC3    O210567   2.571   4.584  12.420
  711TMC3    C110568   2.178   1.984   7.420
  711TMC3    C210569   2.308   1.945   7.399
  711TMC3    C310570   2.371   2.013   7.300
  711TMC3    C410571   2.119   2.088   7.344
  711TMC3    C510572   2.190   2.156   7.254
  711TMC3    C610573   2.322   2.132   7.242
  711TMC3     C10574   2.083   1.890   7.472
  711TMC3     O10575   1.973   1.893   7.425
  711TMC3     H10576   2.357   1.860   7.445
  711TMC3    H110577   2.017   2.109   7.375
  711TMC3    H210578   2.391   2.194   7.186
  711TMC3    C710579   2.137   2.275   7.188
  711TMC3    C810580   2.477   1.941   7.231
  711TMC3    O110581   2.025   2.316   7.222
  711TMC3    O210582   2.570   1.991   7.174
  712TMC3    C110583   0.539   2.457   7.790
  712TMC3    C210584   0.552   2.400   7.665
  712TMC3    C310585   0.678   2.366   7.634
  712TMC3    C410586   0.646   2.496   7.870
  712TMC3    C510587   0.773   2.482   7.809
  712TMC3    C610588   0.795   2.406   7.701
  712TMC3     C10589   0.439   2.558   7.799
  712TMC3     O10590   0.468   2.667   7.755
  712TMC3     H10591   0.467   2.368   7.606
  712TMC3    H110592   0.633   2.573   7.946
  712TMC3    H210593   0.894   2.368   7.681
  712TMC3    C710594   0.895   2.558   7.852
  712TMC3    C810595   0.690   2.291   7.509
  712TMC3    O110596   0.993   2.555   7.775
  712TMC3    O210597   0.803   2.308   7.461
  713TMC3    C110598   2.981   2.960  11.789
  713TMC3    C210599   2.945   3.024  11.674
  713TMC3    C310600   3.006   3.135  11.643
  713TMC3    C410601   3.086   2.999  11.862
  713TMC3    C510602   3.155   3.109  11.821
  713TMC3    C610603   3.115   3.178  11.709
  713TMC3     C10604   2.987   2.817  11.781
  713TMC3     O10605   2.894   2.766  11.718
  713TMC3     H10606   2.860   2.989  11.615
  713TMC3    H110607   3.122   2.946  11.949
  713TMC3    H210608   3.170   3.261  11.667
  713TMC3    C710609   3.287   3.115  11.855
  713TMC3    C810610   2.936   3.245  11.580
  713TMC3    O110611   3.329   3.003  11.896
  713TMC3    O210612   2.957   3.357  11.623
  714TMC3    C110613   0.075   0.038   9.861
  714TMC3    C210614   4.758   4.747   9.821
  714TMC3    C310615   4.648   4.750   9.898
  714TMC3    C410616   0.065   0.128   9.966
  714TMC3    C510617   4.738   0.140  10.037
  714TMC3    C610618   4.643   0.039  10.016
  714TMC3     C10619   0.183   0.062   9.765
  714TMC3     O10620   0.232   0.173   9.771
  714TMC3     H10621   4.773   4.674   9.742
  714TMC3    H110622   0.153   0.189   9.987
  714TMC3    H210623   4.559   0.045  10.083
  714TMC3    C710624   4.671   0.264  10.001
  714TMC3    C810625   4.547   4.650   9.880
  714TMC3    O110626   4.578   0.256   9.920
  714TMC3    O210627   4.471   4.637   9.977
  715TMC3    C110628   4.073   0.493  12.427
  715TMC3    C210629   4.047   0.411  12.539
  715TMC3    C310630   3.950   0.314  12.533
  715TMC3    C410631   4.008   0.467  12.316
  715TMC3    C510632   3.914   0.368  12.311
  715TMC3    C610633   3.882   0.287  12.417
  715TMC3     C10634   4.190   0.576  12.439
  715TMC3     O10635   4.235   0.579  12.551
  715TMC3     H10636   4.109   0.409  12.628
  715TMC3    H110637   4.024   0.518  12.222
  715TMC3    H210638   3.811   0.207  12.400
  715TMC3    C710639   3.914   0.308  12.180
  715TMC3    C810640   3.938   0.225  12.650
  715TMC3    O110641   3.888   0.377  12.079
  715TMC3    O210642   3.916   0.112  12.617
  716TMC3    C110643   0.294   3.549  11.756
  716TMC3    C210644   0.177   3.548  11.831
  716TMC3    C310645   0.096   3.662  11.829
  716TMC3    C410646   0.329   3.667  11.692
  716TMC3    C510647   0.244   3.768  11.688
  716TMC3    C610648   0.121   3.771  11.747
  716TMC3     C10649   0.410   3.465  11.784
  716TMC3     O10650   0.523   3.508  11.762
  716TMC3     H10651   0.144   3.473  11.902
  716TMC3    H110652   0.426   3.664  11.643
  716TMC3    H210653   0.049   3.852  11.736
  716TMC3    C710654   0.298   3.898  11.654
  716TMC3    C810655   4.768   3.669  11.919
  716TMC3    O110656   0.213   3.980  11.622
  716TMC3    O210657   4.695   3.572  11.934
  717TMC3    C110658   0.014   4.482  10.455
  717TMC3    C210659   4.704   4.488  10.548
  717TMC3    C310660   4.647   4.371  10.583
  717TMC3    C410661   0.063   4.361  10.411
  717TMC3    C510662   0.009   4.244  10.454
  717TMC3    C610663   4.686   4.248  10.534
  717TMC3     C10664   0.083   4.606  10.404
  717TMC3     O10665   0.047   4.705  10.463
  717TMC3     H10666   4.668   4.579  10.595
  717TMC3    H110667   0.143   4.363  10.338
  717TMC3    H210668   4.637   4.160  10.575
  717TMC3    C710669   0.107   4.139  10.443
  717TMC3    C810670   4.544   4.377  10.685
  717TMC3    O110671   0.222   4.161  10.407
  717TMC3    O210672   4.432   4.367  10.637
  718TMC3    C110673   1.124   0.185   7.110
  718TMC3    C210674   1.196   0.176   6.993
  718TMC3    C310675   1.175   0.278   6.903
  718TMC3    C410676   1.048   0.289   7.138
  718TMC3    C510677   1.029   0.388   7.045
  718TMC3    C610678   1.077   0.374   6.916
  718TMC3     C10679   1.100   0.050   7.167
  718TMC3     O10680   1.099   0.053   7.289
  718TMC3     H10681   1.267   0.096   6.976
  718TMC3    H110682   1.007   0.303   7.237
  718TMC3    H210683   1.074   0.445   6.834
  718TMC3    C710684   0.960   0.507   7.090
  718TMC3    C810685   1.290   0.302   6.811
  718TMC3    O110686   0.978   0.536   7.210
  718TMC3    O210687   1.355   0.210   6.769
  719TMC3    C110688   0.942   0.517  12.776
  719TMC3    C210689   1.063   0.476  12.731
  719TMC3    C310690   1.074   0.419  12.607
  719TMC3    C410691   0.838   0.529  12.676
  719TMC3    C510692   0.861   0.490  12.547
  719TMC3    C610693   0.973   0.417  12.519
  719TMC3     C10694   0.947   0.633  12.860
  719TMC3     O10695   0.962   0.743  12.807
  719TMC3     H10696   1.151   0.489  12.793
  719TMC3    H110697   0.748   0.586  12.697
  719TMC3    H210698   0.995   0.394  12.415
  719TMC3    C710699   0.836   0.609  12.468
  719TMC3    C810700   1.208   0.408  12.557
  719TMC3    O110701   0.760   0.688  12.517
  719TMC3    O210702   1.299   0.479  12.610
  720TMC3    C110703   4.400   0.337   9.292
  720TMC3    C210704   4.327   0.404   9.199
  720TMC3    C310705   4.394   0.451   9.085
  720TMC3    C410706   4.536   0.319   9.283
  720TMC3    C510707   4.595   0.359   9.165
  720TMC3    C610708   4.524   0.427   9.065
  720TMC3     C10709   4.321   0.245   9.372
  720TMC3     O10710   4.367   0.131   9.382
  720TMC3     H10711   4.219   0.400   9.197
  720TMC3    H110712   4.602   0.258   9.344
  720TMC3    H210713   4.568   0.466   8.974
  720TMC3    C710714   4.700   0.274   9.107
  720TMC3    C810715   4.313   0.531   8.999
  720TMC3    O110716   4.703   0.157   9.134
  720TMC3    O210717   4.230   0.603   9.058
  721TMC3    C110718   4.226   2.990  12.162
  721TMC3    C210719   4.098   3.035  12.156
  721TMC3    C310720   4.026   3.021  12.042
  721TMC3    C410721   4.271   2.920  12.046
  721TMC3    C510722   4.195   2.899  11.941
  721TMC3    C610723   4.069   2.939  11.938
  721TMC3     C10724   4.317   3.050  12.258
  721TMC3     O10725   4.259   3.100  12.352
  721TMC3     H10726   4.053   3.093  12.236
  721TMC3    H110727   4.370   2.876  12.050
  721TMC3    H210728   4.018   2.942  11.842
  721TMC3    C710729   4.258   2.836  11.819
  721TMC3    C810730   3.943   3.137  12.008
  721TMC3    O110731   4.190   2.766  11.749
  721TMC3    O210732   3.991   3.240  12.049
  722TMC3    C110733   4.108   4.307  12.455
  722TMC3    C210734   4.013   4.305  12.556
  722TMC3    C310735   3.961   4.430  12.599
  722TMC3    C410736   4.158   4.425  12.420
  722TMC3    C510737   4.117   4.541  12.479
  722TMC3    C610738   4.010   4.554  12.568
  722TMC3     C10739   4.169   4.190  12.397
  722TMC3     O10740   4.210   4.211  12.285
  722TMC3     H10741   3.973   4.207  12.580
  722TMC3    H110742   4.243   4.424  12.354
  722TMC3    H210743   3.963   4.651  12.578
  722TMC3    C710744   4.206   4.652  12.462
  722TMC3    C810745   3.886   4.425  12.719
  722TMC3    O110746   4.275   4.654  12.364
  722TMC3    O210747   3.906   4.326  12.788
  723TMC3    C110748   3.071   1.597  13.586
  723TMC3    C210749   3.005   1.553  13.476
  723TMC3    C310750   3.002   1.420  13.444
  723TMC3    C410751   3.125   1.510  13.676
  723TMC3    C510752   3.114   1.371  13.643
  723TMC3    C610753   3.065   1.324  13.520
  723TMC3     C10754   3.116   1.738  13.583
  723TMC3     O10755   3.046   1.820  13.524
  723TMC3     H10756   2.963   1.632  13.416
  723TMC3    H110757   3.185   1.552  13.756
  723TMC3    H210758   3.053   1.216  13.511
  723TMC3    C710759   3.091   1.279  13.751
  723TMC3    C810760   2.938   1.387  13.319
  723TMC3    O110761   3.103   1.158  13.729
  723TMC3    O210762   2.880   1.476  13.260
  724TMC3    C110763   0.905   2.955   9.463
  724TMC3    C210764   0.886   2.843   9.398
  724TMC3    C310765   0.767   2.777   9.418
  724TMC3    C410766   0.805   3.023   9.529
  724TMC3    C510767   0.684   2.963   9.543
  724TMC3    C610768   0.663   2.837   9.490
  724TMC3     C10769   1.036   3.017   9.470
  724TMC3     O10770   1.059   3.074   9.579
  724TMC3     H10771   0.974   2.791   9.361
  724TMC3    H110772   0.818   3.129   9.548
  724TMC3    H210773   0.572   2.780   9.506
  724TMC3    C710774   0.582   3.057   9.500
  724TMC3    C810775   0.746   2.653   9.345
  724TMC3    O110776   0.619   3.168   9.460
  724TMC3    O210777   0.673   2.575   9.401
  725TMC3    C110778   0.774   0.632   8.486
  725TMC3    C210779   0.706   0.739   8.420
  725TMC3    C310780   0.648   0.834   8.501
  725TMC3    C410781   0.771   0.621   8.624
  725TMC3    C510782   0.721   0.726   8.694
  725TMC3    C610783   0.660   0.835   8.637
  725TMC3     C10784   0.786   0.506   8.411
  725TMC3     O10785   0.779   0.517   8.287
  725TMC3     H10786   0.696   0.732   8.313
  725TMC3    H110787   0.807   0.533   8.676
  725TMC3    H210788   0.605   0.896   8.707
  725TMC3    C710789   0.681   0.690   8.824
  725TMC3    C810790   0.525   0.889   8.450
  725TMC3    O110791   0.648   0.576   8.844
  725TMC3    O210792   0.439   0.909   8.530
  726TMC3    C110793   2.672   1.199   7.620
  726TMC3    C210794   2.721   1.324   7.635
  726TMC3    C310795   2.855   1.340   7.666
  726TMC3    C410796   2.741   1.084   7.652
  726TMC3    C510797   2.871   1.108   7.693
  726TMC3    C610798   2.928   1.232   7.696
  726TMC3     C10799   2.607   1.191   7.495
  726TMC3     O10800   2.518   1.269   7.471
  726TMC3     H10801   2.670   1.408   7.590
  726TMC3    H110802   2.694   0.987   7.651
  726TMC3    H210803   3.019   1.259   7.748
  726TMC3    C710804   2.966   1.000   7.675
  726TMC3    C810805   2.932   1.423   7.569
  726TMC3    O110806   3.088   1.028   7.687
  726TMC3    O210807   3.043   1.381   7.527
  727TMC3    C110808   1.776   3.336   8.110
  727TMC3    C210809   1.864   3.230   8.090
  727TMC3    C310810   1.925   3.176   8.203
  727TMC3    C410811   1.745   3.382   8.230
  727TMC3    C510812   1.804   3.326   8.344
  727TMC3    C610813   1.901   3.230   8.329
  727TMC3     C10814   1.792   3.434   8.005
  727TMC3     O10815   1.820   3.390   7.891
  727TMC3     H10816   1.889   3.204   7.988
  727TMC3    H110817   1.666   3.455   8.242
  727TMC3    H210818   1.953   3.185   8.414
  727TMC3    C710819   1.744   3.341   8.477
  727TMC3    C810820   2.038   3.083   8.189
  727TMC3    O110821   1.624   3.361   8.486
  727TMC3    O210822   2.131   3.111   8.116
  728TMC3    C110823   1.585   1.005   7.244
  728TMC3    C210824   1.566   1.027   7.112
  728TMC3    C310825   1.642   0.963   7.024
  728TMC3    C410826   1.686   0.925   7.298
  728TMC3    C510827   1.767   0.867   7.203
  728TMC3    C610828   1.750   0.885   7.067
  728TMC3     C10829   1.491   1.074   7.327
  728TMC3     O10830   1.454   1.182   7.280
  728TMC3     H10831   1.482   1.086   7.077
  728TMC3    H110832   1.708   0.923   7.404
  728TMC3    H210833   1.827   0.832   7.012
  728TMC3    C710834   1.838   0.739   7.237
  728TMC3    C810835   1.573   0.889   6.926
  728TMC3    O110836   1.878   0.727   7.351
  728TMC3    O210837   1.452   0.898   6.925
  729TMC3    C110838   0.685   3.530   7.656
  729TMC3    C210839   0.756   3.425   7.599
  729TMC3    C310840   0.876   3.392   7.651
  729TMC3    C410841   0.727   3.599   7.764
  729TMC3    C510842   0.848   3.556   7.822
  729TMC3    C610843   0.927   3.456   7.759
  729TMC3     C10844   0.541   3.520   7.633
  729TMC3     O10845   0.476   3.618   7.662
  729TMC3     H10846   0.724   3.382   7.504
  729TMC3    H110847   0.674   3.686   7.801
  729TMC3    H210848   1.022   3.426   7.802
  729TMC3    C710849   0.906   3.603   7.952
  729TMC3    C810850   0.966   3.309   7.567
  729TMC3    O110851   1.027   3.608   7.958
  729TMC3    O210852   1.050   3.236   7.618
  730TMC3    C110853   1.793   3.765   7.421
  730TMC3    C210854   1.920   3.771   7.375
  730TMC3    C310855   1.941   3.750   7.238
  730TMC3    C410856   1.689   3.751   7.331
  730TMC3    C510857   1.706   3.731   7.198
  730TMC3    C610858   1.837   3.732   7.153
  730TMC3     C10859   1.765   3.743   7.561
  730TMC3     O10860   1.653   3.691   7.582
  730TMC3     H10861   2.009   3.783   7.436
  730TMC3    H110862   1.590   3.740   7.374
  730TMC3    H210863   1.855   3.709   7.048
  730TMC3    C710864   1.622   3.634   7.147
  730TMC3    C810865   2.069   3.699   7.201
  730TMC3    O110866   1.515   3.664   7.096
  730TMC3    O210867   2.105   3.729   7.085
  731TMC3    C110868   1.106   0.975  11.220
  731TMC3    C210869   1.051   0.857  11.252
  731TMC3    C310870   1.130   0.764  11.298
  731TMC3    C410871   1.243   0.998  11.234
  731TMC3    C510872   1.323   0.896  11.265
  731TMC3    C610873   1.266   0.774  11.297
  731TMC3     C10874   1.039   1.071  11.131
  731TMC3     O10875   1.053   1.188  11.172
  731TMC3     H10876   0.943   0.845  11.250
  731TMC3    H110877   1.288   1.093  11.206
  731TMC3    H210878   1.323   0.690  11.335
  731TMC3    C710879   1.466   0.912  11.269
  731TMC3    C810880   1.082   0.630  11.291
  731TMC3    O110881   1.514   1.015  11.318
  731TMC3    O210882   0.998   0.612  11.204
  732TMC3    C110883   1.271   0.972  13.401
  732TMC3    C210884   1.390   0.953  13.459
  732TMC3    C310885   1.432   0.823  13.467
  732TMC3    C410886   1.188   0.874  13.345
  732TMC3    C510887   1.225   0.745  13.389
  732TMC3    C610888   1.351   0.712  13.446
  732TMC3     C10889   1.258   1.102  13.340
  732TMC3     O10890   1.361   1.170  13.331
  732TMC3     H10891   1.455   1.036  13.481
  732TMC3    H110892   1.091   0.898  13.303
  732TMC3    H210893   1.377   0.610  13.473
  732TMC3    C710894   1.125   0.643  13.386
  732TMC3    C810895   1.537   0.808  13.563
  732TMC3    O110896   1.157   0.526  13.371
  732TMC3    O210897   1.510   0.742  13.662
  733TMC3    C110898   4.083   2.487  13.842
  733TMC3    C210899   4.183   2.393  13.830
  733TMC3    C310900   4.141   2.264  13.815
  733TMC3    C410901   3.947   2.462  13.846
  733TMC3    C510902   3.909   2.333  13.838
  733TMC3    C610903   4.007   2.231  13.825
  733TMC3     C10904   4.123   2.624  13.816
  733TMC3     O10905   4.030   2.699  13.783
  733TMC3     H10906   4.282   2.422  13.796
  733TMC3    H110907   3.872   2.538  13.864
  733TMC3    H210908   3.976   2.128  13.811
  733TMC3    C710909   3.775   2.290  13.866
  733TMC3    C810910   4.230   2.151  13.790
  733TMC3    O110911   3.756   2.168  13.879
  733TMC3    O210912   4.171   2.044  13.777
  734TMC3    C110913   3.299   1.632  13.170
  734TMC3    C210914   3.268   1.541  13.065
  734TMC3    C310915   3.142   1.526  13.012
  734TMC3    C410916   3.204   1.720  13.201
  734TMC3    C510917   3.076   1.702  13.157
  734TMC3    C610918   3.042   1.609  13.055
  734TMC3     C10919   3.366   1.569  13.290
  734TMC3     O10920   3.365   1.628  13.397
  734TMC3     H10921   3.349   1.481  13.025
  734TMC3    H110922   3.215   1.786  13.286
  734TMC3    H210923   2.943   1.594  13.014
  734TMC3    C710924   2.980   1.802  13.193
  734TMC3    C810925   3.122   1.403  12.947
  734TMC3    O110926   3.019   1.907  13.241
  734TMC3    O210927   3.187   1.313  12.992
  735TMC3    C110928   1.276   3.947  14.010
  735TMC3    C210929   1.149   3.948  14.057
  735TMC3    C310930   1.104   3.843  14.131
  735TMC3    C410931   1.369   3.850  14.041
  735TMC3    C510932   1.324   3.747  14.114
  735TMC3    C610933   1.187   3.734  14.142
  735TMC3     C10934   1.330   4.052  13.925
  735TMC3     O10935   1.422   4.018  13.850
  735TMC3     H10936   1.085   4.034  14.040
  735TMC3    H110937   1.476   3.865  14.028
  735TMC3    H210938   1.153   3.653  14.205
  735TMC3    C710939   1.412   3.720  14.228
  735TMC3    C810940   1.039   3.878  14.258
  735TMC3    O110941   1.367   3.727  14.340
  735TMC3    O210942   1.070   3.812  14.358
  736TMC3    C110943   4.453   2.577   9.940
  736TMC3    C210944   4.386   2.515  10.042
  736TMC3    C310945   4.367   2.382  10.035
  736TMC3    C410946   4.487   2.507   9.833
  736TMC3    C510947   4.460   2.372   9.828
  736TMC3    C610948   4.410   2.307   9.932
  736TMC3     C10949   4.546   2.677   9.987
  736TMC3     O10950   4.557   2.686  10.109
  736TMC3     H10951   4.340   2.580  10.116
  736TMC3    H110952   4.541   2.547   9.748
  736TMC3    H210953   4.389   2.200   9.931
  736TMC3    C710954   4.420   2.332   9.693
  736TMC3    C810955   4.356   2.311  10.163
  736TMC3    O110956   4.485   2.384   9.605
  736TMC3    O210957   4.395   2.193  10.170
  737TMC3    C110958   4.167   3.733  11.203
  737TMC3    C210959   4.094   3.835  11.146
  737TMC3    C310960   4.100   3.846  11.010
  737TMC3    C410961   4.241   3.647  11.129
  737TMC3    C510962   4.240   3.663  10.995
  737TMC3    C610963   4.178   3.758  10.931
  737TMC3     C10964   4.168   3.707  11.346
  737TMC3     O10965   4.150   3.790  11.429
  737TMC3     H10966   4.037   3.897  11.214
  737TMC3    H110967   4.312   3.574  11.166
  737TMC3    H210968   4.188   3.767  10.824
  737TMC3    C710969   4.305   3.565  10.917
  737TMC3    C810970   3.985   3.906  10.950
  737TMC3    O110971   4.359   3.601  10.811
  737TMC3    O210972   3.932   4.001  11.010
  738TMC3    C110973   2.572   0.884   6.600
  738TMC3    C210974   2.623   0.915   6.720
  738TMC3    C310975   2.753   0.880   6.740
  738TMC3    C410976   2.642   0.820   6.502
  738TMC3    C510977   2.763   0.764   6.541
  738TMC3    C610978   2.816   0.788   6.665
  738TMC3     C10979   2.431   0.854   6.604
  738TMC3     O10980   2.362   0.895   6.509
  738TMC3     H10981   2.556   0.956   6.794
  738TMC3    H110982   2.590   0.796   6.409
  738TMC3    H210983   2.920   0.765   6.684
  738TMC3    C710984   2.857   0.727   6.436
  738TMC3    C810985   2.813   0.921   6.867
  738TMC3    O110986   2.817   0.745   6.321
  738TMC3    O210987   2.916   0.856   6.899
  739TMC3    C110988   2.370   1.153  12.665
  739TMC3    C210989   2.476   1.166  12.752
  739TMC3    C310990   2.556   1.277  12.733
  739TMC3    C410991   2.349   1.233  12.564
  739TMC3    C510992   2.426   1.348  12.556
  739TMC3    C610993   2.525   1.378  12.641
  739TMC3     C10994   2.268   1.055  12.701
  739TMC3     O10995   2.292   0.982  12.801
  739TMC3     H10996   2.491   1.107  12.841
  739TMC3    H110997   2.280   1.208  12.485
  739TMC3    H210998   2.598   1.452  12.614
  739TMC3    C710999   2.432   1.408  12.429
  739TMC3    C811000   2.665   1.294  12.830
  739TMC3    O111001   2.418   1.341  12.327
  739TMC3    O211002   2.686   1.410  12.870
  740TMC3    C111003   1.533   1.200  11.049
  740TMC3    C211004   1.431   1.170  10.966
  740TMC3    C311005   1.453   1.072  10.878
  740TMC3    C411006   1.658   1.134  11.046
  740TMC3    C511007   1.667   1.031  10.949
  740TMC3    C611008   1.563   1.000  10.868
  740TMC3     C11009   1.510   1.316  11.134
  740TMC3     O11010   1.440   1.405  11.080
  740TMC3     H11011   1.336   1.216  10.988
  740TMC3    H111012   1.735   1.183  11.104
  740TMC3    H211013   1.582   0.942  10.779
  740TMC3    C711014   1.786   1.056  10.866
  740TMC3    C811015   1.343   1.004  10.822
  740TMC3    O111016   1.764   1.066  10.749
  740TMC3    O211017   1.341   0.881  10.828
  741TMC3    C111018   4.181   4.522  11.129
  741TMC3    C211019   4.181   4.447  11.242
  741TMC3    C311020   4.153   4.312  11.229
  741TMC3    C411021   4.142   4.467  11.008
  741TMC3    C511022   4.120   4.335  11.003
  741TMC3    C611023   4.123   4.259  11.114
  741TMC3     C11024   4.129   4.663  11.136
  741TMC3     O11025   4.169   4.740  11.049
  741TMC3     H11026   4.205   4.488  11.340
  741TMC3    H111027   4.131   4.528  10.920
  741TMC3    H211028   4.107   4.152  11.104
  741TMC3    C711029   4.062   4.276  10.886
  741TMC3    C811030   4.181   4.225  11.347
  741TMC3    O111031   3.941   4.301  10.876
  741TMC3    O211032   4.124   4.116  11.338
  742TMC3    C111033   4.610   2.602   6.844
  742TMC3    C211034   4.731   2.573   6.775
  742TMC3    C311035   4.718   2.468   6.689
  742TMC3    C411036   4.501   2.518   6.843
  742TMC3    C511037   4.501   2.407   6.767
  742TMC3    C611038   4.607   2.387   6.692
  742TMC3     C11039   4.624   2.690   6.963
  742TMC3     O11040   4.529   2.722   7.035
  742TMC3     H11041   0.023   2.646   6.763
  742TMC3    H111042   4.411   2.533   6.902
  742TMC3    H211043   4.603   2.308   6.618
  742TMC3    C711044   4.425   2.289   6.804
  742TMC3    C811045   0.041   2.419   6.612
  742TMC3    O111046   4.439   2.197   6.724
  742TMC3    O211047   0.013   2.347   6.517
  743TMC3    C111048   0.693   1.856   8.566
  743TMC3    C211049   0.646   1.804   8.687
  743TMC3    C311050   0.580   1.902   8.761
  743TMC3    C411051   0.676   1.985   8.523
  743TMC3    C511052   0.597   2.069   8.595
  743TMC3    C611053   0.543   2.024   8.708
  743TMC3     C11054   0.815   1.792   8.515
  743TMC3     O11055   0.806   1.743   8.401
  743TMC3     H11056   0.678   1.704   8.714
  743TMC3    H111057   0.726   2.012   8.431
  743TMC3    H211058   0.471   2.089   8.757
  743TMC3    C711059   0.654   2.199   8.598
  743TMC3    C811060   0.609   1.912   8.901
  743TMC3    O111061   0.670   2.272   8.501
  743TMC3    O211062   0.622   2.030   8.934
  744TMC3    C111063   0.211   3.008  14.014
  744TMC3    C211064   0.090   2.990  13.949
  744TMC3    C311065   0.036   3.105  13.896
  744TMC3    C411066   0.264   3.135  14.045
  744TMC3    C511067   0.189   3.242  14.015
  744TMC3    C611068   0.089   3.232  13.921
  744TMC3     C11069   0.303   2.899  14.045
  744TMC3     O11070   0.244   2.801  14.082
  744TMC3     H11071   0.050   2.891  13.933
  744TMC3    H111072   0.350   3.147  14.110
  744TMC3    H211073   0.062   3.328  13.879
  744TMC3    C711074   0.175   3.350  14.116
  744TMC3    C811075   4.677   3.110  13.871
  744TMC3    O111076   0.273   3.415  14.147
  744TMC3    O211077   4.628   3.217  13.840
  745TMC3    C111078   3.448   1.921   9.860
  745TMC3    C211079   3.404   1.882   9.977
  745TMC3    C311080   3.333   1.965  10.057
  745TMC3    C411081   3.405   2.041   9.809
  745TMC3    C511082   3.336   2.119   9.892
  745TMC3    C611083   3.291   2.085  10.015
  745TMC3     C11084   3.417   1.814   9.764
  745TMC3     O11085   3.343   1.727   9.811
  745TMC3     H11086   3.444   1.786  10.008
  745TMC3    H111087   3.440   2.073   9.712
  745TMC3    H211088   3.245   2.155  10.084
  745TMC3    C711089   3.296   2.240   9.828
  745TMC3    C811090   3.231   1.888  10.134
  745TMC3    O111091   3.352   2.263   9.721
  745TMC3    O211092   3.152   1.948  10.206
  746TMC3    C111093   0.270   3.001  10.386
  746TMC3    C211094   0.279   2.872  10.429
  746TMC3    C311095   0.312   2.838  10.557
  746TMC3    C411096   0.291   3.101  10.474
  746TMC3    C511097   0.298   3.069  10.607
  746TMC3    C611098   0.308   2.935  10.653
  746TMC3     C11099   0.238   3.033  10.242
  746TMC3     O11100   0.291   3.129  10.193
  746TMC3     H11101   0.272   2.798  10.350
  746TMC3    H111102   0.301   3.202  10.436
  746TMC3    H211103   0.346   2.919  10.753
  746TMC3    C711104   0.346   3.182  10.684
  746TMC3    C811105   0.397   2.726  10.577
  746TMC3    O111106   0.465   3.187  10.718
  746TMC3    O211107   0.461   2.679  10.486
  747TMC3    C111108   1.794   0.192   9.332
  747TMC3    C211109   1.788   0.299   9.415
  747TMC3    C311110   1.666   0.365   9.428
  747TMC3    C411111   1.684   0.150   9.259
  747TMC3    C511112   1.569   0.216   9.280
  747TMC3    C611113   1.552   0.324   9.364
  747TMC3     C11114   1.914   0.119   9.312
  747TMC3     O11115   1.951   0.084   9.198
  747TMC3     H11116   1.879   0.332   9.463
  747TMC3    H111117   1.682   0.052   9.213
  747TMC3    H211118   1.467   0.389   9.350
  747TMC3    C711119   1.455   0.186   9.196
  747TMC3    C811120   1.677   0.505   9.444
  747TMC3    O111121   1.396   0.273   9.131
  747TMC3    O211122   1.610   0.571   9.370
  748TMC3    C111123   3.048   0.568  14.694
  748TMC3    C211124   3.167   0.589  14.761
  748TMC3    C311125   3.166   0.624  14.892
  748TMC3    C411126   2.933   0.567  14.764
  748TMC3    C511127   2.935   0.580  14.901
  748TMC3    C611128   3.054   0.609  14.971
  748TMC3     C11129   3.037   0.600  14.561
  748TMC3     O11130   2.935   0.667  14.529
  748TMC3     H11131   3.257   0.608  14.705
  748TMC3    H111132   2.835   0.546  14.721
  748TMC3    H211133   3.053   0.625  15.078
  748TMC3    C711134   2.830   0.510  14.976
  748TMC3    C811135   3.286   0.624  14.971
  748TMC3    O111136   2.858   0.457  15.086
  748TMC3    O211137   3.283   0.687  15.075
  749TMC3    C111138   2.638   4.205  13.153
  749TMC3    C211139   2.681   4.190  13.023
  749TMC3    C311140   2.751   4.074  12.998
  749TMC3    C411141   2.638   4.100  13.247
  749TMC3    C511142   2.723   3.999  13.216
  749TMC3    C611143   2.789   3.994  13.097
  749TMC3     C11144   2.546   4.314  13.187
  749TMC3     O11145   2.470   4.312  13.283
  749TMC3     H11146   2.636   4.253  12.947
  749TMC3    H111147   2.612   4.134  13.347
  749TMC3    H211148   2.852   3.907  13.081
  749TMC3    C711149   2.741   3.897  13.317
  749TMC3    C811150   2.807   4.038  12.864
  749TMC3    O111151   2.844   3.836  13.313
  749TMC3    O211152   2.846   3.923  12.853
  750TMC3    C111153   1.126   1.028  11.682
  750TMC3    C211154   1.176   0.906  11.669
  750TMC3    C311155   1.312   0.888  11.644
  750TMC3    C411156   1.209   1.142  11.674
  750TMC3    C511157   1.347   1.112  11.662
  750TMC3    C611158   1.402   0.990  11.659
  750TMC3     C11159   0.986   1.043  11.709
  750TMC3     O11160   0.931   0.935  11.725
  750TMC3     H11161   1.122   0.815  11.696
  750TMC3    H111162   1.180   1.244  11.699
  750TMC3    H211163   1.506   0.982  11.631
  750TMC3    C711164   1.432   1.233  11.664
  750TMC3    C811165   1.350   0.749  11.603
  750TMC3    O111166   1.546   1.214  11.693
  750TMC3    O211167   1.259   0.665  11.598
  751TMC3    C111168   2.227   1.353  13.609
  751TMC3    C211169   2.108   1.394  13.546
  751TMC3    C311170   2.100   1.521  13.511
  751TMC3    C411171   2.329   1.440  13.619
  751TMC3    C511172   2.318   1.564  13.567
  751TMC3    C611173   2.203   1.610  13.518
  751TMC3     C11174   2.260   1.212  13.592
  751TMC3     O11175   2.192   1.138  13.519
  751TMC3     H11176   2.028   1.325  13.521
  751TMC3    H111177   2.427   1.415  13.658
  751TMC3    H211178   2.206   1.711  13.479
  751TMC3    C711179   2.436   1.595  13.490
  751TMC3    C811180   2.054   1.529  13.372
  751TMC3    O111181   2.526   1.519  13.484
  751TMC3    O211182   2.023   1.641  13.337
  752TMC3    C111183   3.589   1.688   8.782
  752TMC3    C211184   3.717   1.742   8.773
  752TMC3    C311185   3.797   1.724   8.888
  752TMC3    C411186   3.560   1.594   8.874
  752TMC3    C511187   3.646   1.584   8.986
  752TMC3    C611188   3.763   1.658   8.994
  752TMC3     C11189   3.510   1.809   8.821
  752TMC3     O11190   3.574   1.910   8.814
  752TMC3     H11191   3.741   1.809   8.692
  752TMC3    H111192   3.464   1.545   8.883
  752TMC3    H211193   3.821   1.657   9.086
  752TMC3    C711194   3.578   1.542   9.103
  752TMC3    C811195   3.909   1.810   8.904
  752TMC3    O111196   3.515   1.435   9.099
  752TMC3    O211197   3.951   1.817   9.019
  753TMC3    C111198   2.138   0.005   7.713
  753TMC3    C211199   2.178   4.784   7.583
  753TMC3    C311200   2.223   4.675   7.530
  753TMC3    C411201   2.151   4.677   7.785
  753TMC3    C511202   2.204   4.562   7.729
  753TMC3    C611203   2.238   4.559   7.600
  753TMC3     C11204   2.109   0.125   7.788
  753TMC3     O11205   2.030   0.120   7.880
  753TMC3     H11206   2.174   0.086   7.522
  753TMC3    H111207   2.114   4.668   7.886
  753TMC3    H211208   2.269   4.463   7.559
  753TMC3    C711209   2.232   4.458   7.826
  753TMC3    C811210   2.226   4.668   7.381
  753TMC3    O111211   2.187   4.461   7.940
  753TMC3    O211212   2.158   4.747   7.316
  754TMC3    C111213   3.700   0.273  11.666
  754TMC3    C211214   3.619   0.365  11.594
  754TMC3    C311215   3.496   0.373  11.648
  754TMC3    C411216   3.655   0.185  11.756
  754TMC3    C511217   3.525   0.201  11.801
  754TMC3    C611218   3.444   0.298  11.752
  754TMC3     C11219   3.836   0.262  11.635
  754TMC3     O11220   3.900   0.172  11.677
  754TMC3     H11221   3.655   0.423  11.509
  754TMC3    H111222   3.718   0.104  11.790
  754TMC3    H211223   3.343   0.302  11.792
  754TMC3    C711224   3.522   0.195  11.941
  754TMC3    C811225   3.448   0.506  11.638
  754TMC3    O111226   3.559   0.089  11.995
  754TMC3    O211227   3.532   0.592  11.622
  755TMC3    C111228   3.453   3.263   9.419
  755TMC3    C211229   3.333   3.318   9.378
  755TMC3    C311230   3.319   3.374   9.255
  755TMC3    C411231   3.565   3.284   9.343
  755TMC3    C511232   3.551   3.343   9.215
  755TMC3    C611233   3.424   3.378   9.164
  755TMC3     C11234   3.456   3.191   9.541
  755TMC3     O11235   3.353   3.203   9.607
  755TMC3     H11236   3.247   3.323   9.444
  755TMC3    H111237   3.662   3.250   9.376
  755TMC3    H211238   3.419   3.417   9.063
  755TMC3    C711239   3.667   3.372   9.133
  755TMC3    C811240   3.179   3.383   9.198
  755TMC3    O111241   3.643   3.452   9.044
  755TMC3    O211242   3.098   3.313   9.258
  756TMC3    C111243   1.141   3.026  12.214
  756TMC3    C211244   1.254   3.058  12.280
  756TMC3    C311245   1.373   2.981  12.264
  756TMC3    C411246   1.135   2.923  12.129
  756TMC3    C511247   1.253   2.856  12.110
  756TMC3    C611248   1.374   2.886  12.173
  756TMC3     C11249   1.016   3.103  12.215
  756TMC3     O11250   0.949   3.102  12.113
  756TMC3     H11251   1.254   3.143  12.347
  756TMC3    H111252   1.039   2.886  12.094
  756TMC3    H211253   1.458   2.818  12.174
  756TMC3    C711254   1.255   2.743  12.019
  756TMC3    C811255   1.496   3.017  12.327
  756TMC3    O111256   1.328   2.756  11.924
  756TMC3    O211257   1.505   3.030  12.450
  757TMC3    C111258   4.050   3.664  11.849
  757TMC3    C211259   4.135   3.767  11.883
  757TMC3    C311260   4.264   3.736  11.900
  757TMC3    C411261   4.086   3.535  11.846
  757TMC3    C511262   4.218   3.511  11.866
  757TMC3    C611263   4.312   3.609  11.894
  757TMC3     C11264   3.911   3.701  11.841
  757TMC3     O11265   3.892   3.813  11.884
  757TMC3     H11266   4.101   3.870  11.886
  757TMC3    H111267   4.016   3.454  11.832
  757TMC3    H211268   4.414   3.583  11.920
  757TMC3    C711269   4.263   3.371  11.862
  757TMC3    C811270   4.356   3.844  11.870
  757TMC3    O111271   4.180   3.296  11.818
  757TMC3    O211272   4.462   3.849  11.928
  758TMC3    C111273   1.867   4.714  12.645
  758TMC3    C211274   1.954   4.701  12.541
  758TMC3    C311275   1.959   0.007  12.446
  758TMC3    C411276   1.785   0.038  12.653
  758TMC3    C511277   1.794   0.129  12.554
  758TMC3    C611278   1.882   0.121  12.451
  758TMC3     C11279   1.859   4.614  12.747
  758TMC3     O11280   1.791   4.648  12.842
  758TMC3     H11281   2.037   4.633  12.556
  758TMC3    H111282   1.734   0.054  12.748
  758TMC3    H211283   1.873   0.198  12.376
  758TMC3    C711284   1.734   0.267  12.574
  758TMC3    C811285   1.985   4.735  12.314
  758TMC3    O111286   1.812   0.354  12.533
  758TMC3    O211287   2.046   4.629  12.324
  759TMC3    C111288   2.815   3.184  12.819
  759TMC3    C211289   2.731   3.149  12.716
  759TMC3    C311290   2.785   3.086  12.609
  759TMC3    C411291   2.949   3.157  12.817
  759TMC3    C511292   2.993   3.097  12.700
  759TMC3    C611293   2.918   3.063  12.591
  759TMC3     C11294   2.769   3.261  12.926
  759TMC3     O11295   2.852   3.330  12.984
  759TMC3     H11296   2.623   3.161  12.718
  759TMC3    H111297   3.012   3.171  12.904
  759TMC3    H211298   2.960   3.017  12.502
  759TMC3    C711299   3.120   3.031  12.716
  759TMC3    C811300   2.695   3.004  12.524
  759TMC3    O111301   3.203   3.090  12.789
  759TMC3    O211302   2.742   2.968  12.411
  760TMC3    C111303   2.466   4.690   8.179
  760TMC3    C211304   2.443   4.719   8.045
  760TMC3    C311305   2.503   0.051   8.002
  760TMC3    C411306   2.514   4.787   8.265
  760TMC3    C511307   2.552   0.128   8.223
  760TMC3    C611308   2.556   0.147   8.089
  760TMC3     C11309   2.407   4.573   8.239
  760TMC3     O11310   2.473   4.507   8.320
  760TMC3     H11311   2.414   4.646   7.971
  760TMC3    H111312   2.523   4.769   8.371
  760TMC3    H211313   2.590   0.242   8.051
  760TMC3    C711314   2.660   0.193   8.292
  760TMC3    C811315   2.518   0.076   7.863
  760TMC3    O111316   2.732   0.132   8.369
  760TMC3    O211317   2.422   0.034   7.793
  761TMC3    C111318   4.722   4.700  13.582
  761TMC3    C211319   4.678   4.635  13.697
  761TMC3    C311320   4.674   4.499  13.705
  761TMC3    C411321   4.769   4.632  13.479
  761TMC3    C511322   4.779   4.492  13.500
  761TMC3    C611323   4.727   4.426  13.603
  761TMC3     C11324   4.690   0.053  13.562
  761TMC3     O11325   4.592   0.091  13.625
  761TMC3     H11326   4.639   4.693  13.779
  761TMC3    H111327   0.017   4.678  13.387
  761TMC3    H211328   4.717   4.318  13.595
  761TMC3    C711329   0.066   4.413  13.409
  761TMC3    C811330   4.549   4.451  13.761
  761TMC3    O111331   0.107   4.301  13.437
  761TMC3    O211332   4.467   4.422  13.676
  762TMC3    C111333   2.044   3.468  10.414
  762TMC3    C211334   1.909   3.470  10.431
  762TMC3    C311335   1.819   3.462  10.328
  762TMC3    C411336   2.094   3.449  10.286
  762TMC3    C511337   2.010   3.430  10.183
  762TMC3    C611338   1.871   3.437  10.201
  762TMC3     C11339   2.118   3.384  10.503
  762TMC3     O11340   2.236   3.409  10.514
  762TMC3     H11341   1.868   3.475  10.532
  762TMC3    H111342   2.200   3.440  10.267
  762TMC3    H211343   1.797   3.423  10.123
  762TMC3    C711344   2.059   3.371  10.057
  762TMC3    C811345   1.725   3.363  10.375
  762TMC3    O111346   1.984   3.282  10.025
  762TMC3    O211347   1.775   3.258  10.397
  763TMC3    C111348   3.306   1.482  15.073
  763TMC3    C211349   3.181   1.430  15.106
  763TMC3    C311350   3.124   1.326  15.030
  763TMC3    C411351   3.385   1.429  14.973
  763TMC3    C511352   3.321   1.333  14.892
  763TMC3    C611353   3.194   1.282  14.922
  763TMC3     C11354   3.290   1.634  15.059
  763TMC3     O11355   3.201   1.691  15.124
  763TMC3     H11356   3.113   1.489  15.167
  763TMC3    H111357   3.486   1.463  14.957
  763TMC3    H211358   3.145   1.220  14.848
  763TMC3    C711359   3.346   1.341  14.751
  763TMC3    C811360   2.977   1.332  15.013
  763TMC3    O111361   3.250   1.317  14.677
  763TMC3    O211362   2.948   1.345  14.894
  764TMC3    C111363   0.182   3.862   9.022
  764TMC3    C211364   0.075   3.784   8.981
  764TMC3    C311365   0.069   3.740   8.858
  764TMC3    C411366   0.259   3.923   8.929
  764TMC3    C511367   0.229   3.888   8.801
  764TMC3    C611368   0.152   3.787   8.763
  764TMC3     C11369   0.177   3.900   9.161
  764TMC3     O11370   0.068   3.916   9.212
  764TMC3     H11371   0.012   3.750   9.062
  764TMC3    H111372   0.336   3.991   8.962
  764TMC3    H211373   0.119   3.768   8.661
  764TMC3    C711374   0.285   3.962   8.687
  764TMC3    C811375   4.722   3.732   8.805
  764TMC3    O111376   0.266   3.922   8.574
  764TMC3    O211377   4.680   3.839   8.766
  765TMC3    C111378   3.114   3.594  12.689
  765TMC3    C211379   3.184   3.667  12.598
  765TMC3    C311380   3.118   3.717  12.489
  765TMC3    C411381   2.984   3.575  12.683
  765TMC3    C511382   2.931   3.606  12.560
  765TMC3    C611383   2.996   3.670  12.458
  765TMC3     C11384   3.188   3.531  12.795
  765TMC3     O11385   3.171   3.580  12.906
  765TMC3     H11386   3.289   3.688  12.615
  765TMC3    H111387   2.937   3.509  12.755
  765TMC3    H211388   2.943   3.704  12.370
  765TMC3    C711389   2.822   3.517  12.521
  765TMC3    C811390   3.130   3.860  12.502
  765TMC3    O111391   2.853   3.422  12.450
  765TMC3    O211392   3.184   3.906  12.600
  766TMC3    C111393   0.605   3.866  12.954
  766TMC3    C211394   0.526   3.968  12.998
  766TMC3    C311395   0.543   4.008  13.131
  766TMC3    C411396   0.705   3.820  13.034
  766TMC3    C511397   0.732   3.877  13.156
  766TMC3    C611398   0.642   3.967  13.218
  766TMC3     C11399   0.582   3.824  12.821
  766TMC3     O11400   0.470   3.849  12.774
  766TMC3     H11401   0.447   4.009  12.937
  766TMC3    H111402   0.782   3.751  13.002
  766TMC3    H211403   0.664   4.014  13.313
  766TMC3    C711404   0.866   3.852  13.212
  766TMC3    C811405   0.457   4.113  13.184
  766TMC3    O111406   0.940   3.780  13.143
  766TMC3    O211407   0.409   4.105  13.299
  767TMC3    C111408   4.340   2.993   9.306
  767TMC3    C211409   4.427   2.936   9.219
  767TMC3    C311410   4.520   2.854   9.274
  767TMC3    C411411   4.338   2.982   9.438
  767TMC3    C511412   4.437   2.907   9.493
  767TMC3    C611413   4.530   2.842   9.410
  767TMC3     C11414   4.211   3.040   9.247
  767TMC3     O11415   4.113   3.019   9.320
  767TMC3     H11416   4.419   2.946   9.112
  767TMC3    H111417   4.261   3.037   9.491
  767TMC3    H211418   4.621   2.802   9.452
  767TMC3    C711419   4.405   2.856   9.628
  767TMC3    C811420   4.642   2.830   9.207
  767TMC3    O111421   4.455   2.751   9.657
  767TMC3    O211422   4.700   2.724   9.218
  768TMC3    C111423   2.420   0.482   7.263
  768TMC3    C211424   2.368   0.401   7.168
  768TMC3    C311425   2.278   0.457   7.082
  768TMC3    C411426   2.371   0.607   7.289
  768TMC3    C511427   2.266   0.650   7.209
  768TMC3    C611428   2.219   0.578   7.106
  768TMC3     C11429   2.543   0.443   7.323
  768TMC3     O11430   2.640   0.519   7.314
  768TMC3     H11431   2.434   0.323   7.132
  768TMC3    H111432   2.418   0.661   7.371
  768TMC3    H211433   2.129   0.610   7.053
  768TMC3    C711434   2.202   0.777   7.226
  768TMC3    C811435   2.214   0.362   6.996
  768TMC3    O111436   2.115   0.806   7.143
  768TMC3    O211437   2.209   0.262   7.063
  769TMC3    C111438   2.535   1.712  13.900
  769TMC3    C211439   2.431   1.650  13.962
  769TMC3    C311440   2.441   1.509  13.969
  769TMC3    C411441   2.652   1.646  13.859
  769TMC3    C511442   2.660   1.515  13.884
  769TMC3    C611443   2.558   1.446  13.938
  769TMC3     C11444   2.547   1.855  13.916
  769TMC3     O11445   2.485   1.918  14.003
  769TMC3     H11446   2.345   1.710  13.991
  769TMC3    H111447   2.742   1.694  13.823
  769TMC3    H211448   2.570   1.342  13.969
  769TMC3    C711449   2.731   1.445  13.787
  769TMC3    C811450   2.326   1.423  13.950
  769TMC3    O111451   2.760   1.510  13.687
  769TMC3    O211452   2.356   1.310  13.920
  770TMC3    C111453   3.028   0.173  14.977
  770TMC3    C211454   2.916   0.141  15.056
  770TMC3    C311455   2.805   0.102  14.987
  770TMC3    C411456   3.024   0.179  14.845
  770TMC3    C511457   2.906   0.155  14.778
  770TMC3    C611458   2.792   0.122  14.848
  770TMC3     C11459   3.152   0.204  15.052
  770TMC3     O11460   3.258   0.161  15.007
  770TMC3     H11461   2.937   0.122  15.161
  770TMC3    H111462   3.120   0.192  14.797
  770TMC3    H211463   2.695   0.108  14.800
  770TMC3    C711464   2.881   0.186  14.636
  770TMC3    C811465   2.703   0.015  15.044
  770TMC3    O111466   2.774   0.241  14.610
  770TMC3    O211467   2.633   4.736  14.972
  771TMC3    C111468   0.212   3.693  12.814
  771TMC3    C211469   0.169   3.804  12.750
  771TMC3    C311470   0.159   3.794  12.614
  771TMC3    C411471   0.222   3.564  12.753
  771TMC3    C511472   0.205   3.567  12.616
  771TMC3    C611473   0.177   3.680  12.546
  771TMC3     C11474   0.225   3.706  12.960
  771TMC3     O11475   0.252   3.815  13.012
  771TMC3     H11476   0.150   3.895  12.805
  771TMC3    H111477   0.263   3.476  12.801
  771TMC3    H211478   0.153   3.679  12.441
  771TMC3    C711479   0.240   3.448  12.542
  771TMC3    C811480   0.104   3.903  12.538
  771TMC3    O111481   0.319   3.373  12.594
  771TMC3    O211482   0.117   3.903  12.416
  772TMC3    C111483   0.708   2.120  10.179
  772TMC3    C211484   0.616   2.153  10.078
  772TMC3    C311485   0.487   2.161  10.111
  772TMC3    C411486   0.666   2.074  10.302
  772TMC3    C511487   0.532   2.071  10.324
  772TMC3    C611488   0.437   2.117  10.233
  772TMC3     C11489   0.850   2.153  10.166
  772TMC3     O11490   0.923   2.119  10.255
  772TMC3     H11491   0.643   2.171   9.975
  772TMC3    H111492   0.736   2.044  10.379
  772TMC3    H211493   0.330   2.102  10.243
  772TMC3    C711494   0.494   1.972  10.424
  772TMC3    C811495   0.379   2.192  10.009
  772TMC3    O111496   0.582   1.910  10.480
  772TMC3    O211497   0.277   2.126  10.028
  773TMC3    C111498   4.387   0.962   8.236
  773TMC3    C211499   4.511   0.982   8.184
  773TMC3    C311500   4.611   1.005   8.267
  773TMC3    C411501   4.356   0.992   8.363
  773TMC3    C511502   4.467   1.016   8.444
  773TMC3    C611503   4.594   1.009   8.402
  773TMC3     C11504   4.289   0.883   8.169
  773TMC3     O11505   4.181   0.866   8.223
  773TMC3     H11506   4.532   0.958   8.081
  773TMC3    H111507   4.258   0.966   8.399
  773TMC3    H211508   4.674   1.025   8.474
  773TMC3    C711509   4.424   1.007   8.579
  773TMC3    C811510   4.731   1.053   8.214
  773TMC3    O111511   4.308   1.039   8.605
  773TMC3    O211512   4.714   1.147   8.136
  774TMC3    C111513   1.276   0.829  14.447
  774TMC3    C211514   1.371   0.891  14.366
  774TMC3    C311515   1.494   0.923  14.424
  774TMC3    C411516   1.299   0.811  14.584
  774TMC3    C511517   1.411   0.858  14.638
  774TMC3    C611518   1.516   0.914  14.560
  774TMC3     C11519   1.168   0.756  14.385
  774TMC3     O11520   1.195   0.714  14.271
  774TMC3     H11521   1.362   0.903  14.259
  774TMC3    H111522   1.230   0.749  14.641
  774TMC3    H211523   1.611   0.942  14.605
  774TMC3    C711524   1.413   0.881  14.783
  774TMC3    C811525   1.580   1.019  14.360
  774TMC3    O111526   1.494   0.966  14.816
  774TMC3    O211527   1.519   1.112  14.306
  775TMC3    C111528   2.198   1.818  12.747
  775TMC3    C211529   2.074   1.792  12.706
  775TMC3    C311530   2.025   1.867  12.600
  775TMC3    C411531   2.280   1.900  12.682
  775TMC3    C511532   2.233   1.960  12.569
  775TMC3    C611533   2.107   1.952  12.527
  775TMC3     C11534   2.261   1.702  12.787
  775TMC3     O11535   2.314   1.632  12.702
  775TMC3     H11536   2.020   1.711  12.752
  775TMC3    H111537   2.383   1.892  12.714
  775TMC3    H211538   2.085   2.006  12.435
  775TMC3    C711539   2.337   2.034  12.499
  775TMC3    C811540   1.885   1.846  12.563
  775TMC3    O111541   2.370   2.138  12.558
  775TMC3    O211542   1.836   1.949  12.521
  776TMC3    C111543   2.580   0.251  10.868
  776TMC3    C211544   2.479   0.328  10.806
  776TMC3    C311545   2.484   0.465  10.819
  776TMC3    C411546   2.690   0.310  10.927
  776TMC3    C511547   2.697   0.444  10.906
  776TMC3    C611548   2.603   0.523  10.859
  776TMC3     C11549   2.610   0.125  10.809
  776TMC3     O11550   2.722   0.091  10.779
  776TMC3     H11551   2.406   0.290  10.735
  776TMC3    H111552   2.779   0.250  10.941
  776TMC3    H211553   2.627   0.628  10.852
  776TMC3    C711554   2.827   0.473  10.858
  776TMC3    C811555   2.362   0.542  10.789
  776TMC3    O111556   2.837   0.511  10.745
  776TMC3    O211557   2.256   0.483  10.779
  777TMC3    C111558   0.755   3.418   6.993
  777TMC3    C211559   0.709   3.544   7.006
  777TMC3    C311560   0.645   3.572   7.122
  777TMC3    C411561   0.708   3.308   7.062
  777TMC3    C511562   0.618   3.345   7.159
  777TMC3    C611563   0.596   3.469   7.204
  777TMC3     C11564   0.875   3.400   6.908
  777TMC3     O11565   0.879   3.470   6.806
  777TMC3     H11566   0.727   3.621   6.933
  777TMC3    H111567   0.755   3.210   7.058
  777TMC3    H211568   0.543   3.489   7.297
  777TMC3    C711569   0.562   3.242   7.246
  777TMC3    C811570   0.589   3.705   7.131
  777TMC3    O111571   0.552   3.279   7.362
  777TMC3    O211572   0.500   3.724   7.052
  778TMC3    C111573   2.827   4.256   8.577
  778TMC3    C211574   2.806   4.252   8.439
  778TMC3    C311575   2.676   4.238   8.395
  778TMC3    C411576   2.728   4.261   8.666
  778TMC3    C511577   2.597   4.252   8.615
  778TMC3    C611578   2.568   4.243   8.480
  778TMC3     C11579   2.958   4.310   8.613
  778TMC3     O11580   3.027   4.249   8.695
  778TMC3     H11581   2.884   4.222   8.370
  778TMC3    H111582   2.746   4.286   8.770
  778TMC3    H211583   2.463   4.229   8.457
  778TMC3    C711584   2.507   4.325   8.704
  778TMC3    C811585   2.661   4.197   8.254
  778TMC3    O111586   2.508   4.308   8.825
  778TMC3    O211587   2.752   4.133   8.198
  779TMC3    C111588   1.750   1.733  11.942
  779TMC3    C211589   1.652   1.822  11.964
  779TMC3    C311590   1.553   1.783  12.058
  779TMC3    C411591   1.777   1.624  12.022
  779TMC3    C511592   1.682   1.598  12.121
  779TMC3    C611593   1.563   1.667  12.125
  779TMC3     C11594   1.741   1.674  11.803
  779TMC3     O11595   1.788   1.565  11.785
  779TMC3     H11596   1.655   1.921  11.920
  779TMC3    H111597   1.858   1.555  12.004
  779TMC3    H211598   1.494   1.645  12.205
  779TMC3    C711599   1.698   1.461  12.176
  779TMC3    C811600   1.424   1.837  12.049
  779TMC3    O111601   1.805   1.400  12.165
  779TMC3    O211602   1.331   1.777  12.097
  780TMC3    C111603   3.221   1.134   9.666
  780TMC3    C211604   3.166   1.021   9.728
  780TMC3    C311605   3.036   1.034   9.776
  780TMC3    C411606   3.152   1.253   9.663
  780TMC3    C511607   3.033   1.265   9.729
  780TMC3    C611608   2.970   1.156   9.783
  780TMC3     C11609   3.330   1.123   9.576
  780TMC3     O11610   3.338   1.202   9.479
  780TMC3     H11611   3.220   0.927   9.721
  780TMC3    H111612   3.209   1.339   9.629
  780TMC3    H211613   2.874   1.170   9.832
  780TMC3    C711614   3.025   1.392   9.795
  780TMC3    C811615   2.956   0.917   9.767
  780TMC3    O111616   3.069   1.490   9.746
  780TMC3    O211617   3.021   0.822   9.721
  781TMC3    C111618   1.103   0.052  13.929
  781TMC3    C211619   1.151   0.180  13.952
  781TMC3    C311620   1.127   0.235  14.075
  781TMC3    C411621   1.017   4.779  14.023
  781TMC3    C511622   0.988   0.050  14.146
  781TMC3    C611623   1.044   0.176  14.172
  781TMC3     C11624   1.187   4.761  13.837
  781TMC3     O11625   1.248   0.041  13.752
  781TMC3     H11626   1.227   0.216  13.884
  781TMC3    H111627   0.970   4.683  14.010
  781TMC3    H211628   1.039   0.225  14.269
  781TMC3    C711629   1.033   4.742  14.247
  781TMC3    C811630   1.201   0.356  14.100
  781TMC3    O111631   1.106   4.648  14.222
  781TMC3    O211632   1.247   0.415  14.008
  782TMC3    C111633   0.478   2.920   9.054
  782TMC3    C211634   0.403   3.030   9.096
  782TMC3    C311635   0.449   3.163   9.064
  782TMC3    C411636   0.591   2.937   8.980
  782TMC3    C511637   0.628   3.059   8.945
  782TMC3    C611638   0.557   3.168   8.982
  782TMC3     C11639   0.379   2.821   9.017
  782TMC3     O11640   0.332   2.755   9.107
  782TMC3     H11641   0.304   3.018   9.139
  782TMC3    H111642   0.647   2.849   8.951
  782TMC3    H211643   0.592   3.265   8.948
  782TMC3    C711644   0.763   3.077   9.003
  782TMC3    C811645   0.359   3.277   9.078
  782TMC3    O111646   0.786   3.168   9.083
  782TMC3    O211647   0.374   3.365   8.995
  783TMC3    C111648   1.853   2.251   9.649
  783TMC3    C211649   1.753   2.178   9.597
  783TMC3    C311650   1.782   2.045   9.564
  783TMC3    C411651   1.975   2.195   9.682
  783TMC3    C511652   1.991   2.056   9.663
  783TMC3    C611653   1.897   1.989   9.591
  783TMC3     C11654   1.799   2.369   9.722
  783TMC3     O11655   1.680   2.361   9.747
  783TMC3     H11656   1.669   2.227   9.549
  783TMC3    H111657   2.042   2.253   9.744
  783TMC3    H211658   1.921   1.888   9.559
  783TMC3    C711659   2.010   1.998   9.792
  783TMC3    C811660   1.672   1.948   9.575
  783TMC3    O111661   2.016   2.065   9.892
  783TMC3    O211662   1.714   1.842   9.627
  784TMC3    C111663   1.581   4.227  12.671
  784TMC3    C211664   1.579   4.330  12.585
  784TMC3    C311665   1.481   4.419  12.584
  784TMC3    C411666   1.466   4.199  12.749
  784TMC3    C511667   1.357   4.282  12.731
  784TMC3    C611668   1.366   4.391  12.645
  784TMC3     C11669   1.658   4.110  12.622
  784TMC3     O11670   1.635   4.009  12.684
  784TMC3     H11671   1.673   4.354  12.536
  784TMC3    H111672   1.478   4.118  12.820
  784TMC3    H211673   1.270   4.433  12.618
  784TMC3    C711674   1.275   4.315  12.845
  784TMC3    C811675   1.490   4.562  12.544
  784TMC3    O111676   1.230   4.431  12.852
  784TMC3    O211677   1.584   4.601  12.478
  785TMC3    C111678   2.153   2.425  13.257
  785TMC3    C211679   2.195   2.324  13.172
  785TMC3    C311680   2.222   2.205  13.235
  785TMC3    C411681   2.112   2.408  13.384
  785TMC3    C511682   2.138   2.283  13.438
  785TMC3    C611683   2.198   2.186  13.369
  785TMC3     C11684   2.136   2.554  13.203
  785TMC3     O11685   2.130   2.555  13.085
  785TMC3     H11686   2.216   2.351  13.070
  785TMC3    H111687   2.064   2.486  13.442
  785TMC3    H211688   2.233   2.094  13.414
  785TMC3    C711689   2.025   2.237  13.521
  785TMC3    C811690   2.173   2.092  13.165
  785TMC3    O111691   1.946   2.322  13.558
  785TMC3    O211692   2.204   1.986  13.219
  786TMC3    C111693   2.914   3.416   7.746
  786TMC3    C211694   2.815   3.345   7.690
  786TMC3    C311695   2.812   3.344   7.550
  786TMC3    C411696   3.005   3.491   7.673
  786TMC3    C511697   2.979   3.503   7.540
  786TMC3    C611698   2.893   3.418   7.475
  786TMC3     C11699   2.943   3.382   7.885
  786TMC3     O11700   2.851   3.318   7.935
  786TMC3     H11701   2.734   3.312   7.755
  786TMC3    H111702   3.080   3.558   7.714
  786TMC3    H211703   2.888   3.430   7.367
  786TMC3    C711704   3.095   3.524   7.456
  786TMC3    C811705   2.757   3.226   7.494
  786TMC3    O111706   3.154   3.427   7.409
  786TMC3    O211707   2.714   3.232   7.378
  787TMC3    C111708   2.872   0.129  13.392
  787TMC3    C211709   2.843   0.093  13.519
  787TMC3    C311710   2.935   0.125  13.610
  787TMC3    C411711   2.987   0.191  13.357
  787TMC3    C511712   3.077   0.219  13.455
  787TMC3    C611713   3.050   0.192  13.582
  787TMC3     C11714   2.779   0.095  13.285
  787TMC3     O11715   2.833   0.078  13.175
  787TMC3     H11716   2.770   0.015  13.536
  787TMC3    H111717   3.008   0.236  13.260
  787TMC3    H211718   3.114   0.214  13.667
  787TMC3    C711719   3.201   0.287  13.430
  787TMC3    C811720   2.922   0.059  13.737
  787TMC3    O111721   3.254   0.282  13.318
  787TMC3    O211722   3.027   0.021  13.786
  788TMC3    C111723   1.528   1.982  11.161
  788TMC3    C211724   1.441   2.027  11.064
  788TMC3    C311725   1.348   2.126  11.092
  788TMC3    C411726   1.486   2.019  11.289
  788TMC3    C511727   1.379   2.092  11.316
  788TMC3    C611728   1.304   2.159  11.220
  788TMC3     C11729   1.587   1.852  11.144
  788TMC3     O11730   1.553   1.782  11.054
  788TMC3     H11731   1.471   1.998  10.963
  788TMC3    H111732   1.536   1.983  11.379
  788TMC3    H211733   1.211   2.213  11.233
  788TMC3    C711734   1.350   2.107  11.458
  788TMC3    C811735   1.266   2.184  10.978
  788TMC3    O111736   1.442   2.152  11.527
  788TMC3    O211737   1.147   2.203  10.988
  789TMC3    C111738   3.669   1.545  11.366
  789TMC3    C211739   3.754   1.450  11.311
  789TMC3    C311740   3.823   1.356  11.381
  789TMC3    C411741   3.673   1.554  11.507
  789TMC3    C511742   3.752   1.463  11.577
  789TMC3    C611743   3.818   1.360  11.519
  789TMC3     C11744   3.565   1.606  11.286
  789TMC3     O11745   3.525   1.545  11.187
  789TMC3     H11746   3.746   1.452  11.202
  789TMC3    H111747   3.607   1.621  11.559
  789TMC3    H211748   3.896   1.305  11.570
  789TMC3    C711749   3.782   1.483  11.718
  789TMC3    C811750   3.923   1.273  11.313
  789TMC3    O111751   3.818   1.388  11.786
  789TMC3    O211752   3.966   1.178  11.379
  790TMC3    C111753   0.817   2.766   6.658
  790TMC3    C211754   0.813   2.731   6.788
  790TMC3    C311755   0.894   2.800   6.874
  790TMC3    C411756   0.888   2.870   6.615
  790TMC3    C511757   0.964   2.942   6.702
  790TMC3    C611758   0.964   2.912   6.838
  790TMC3     C11759   0.737   2.689   6.557
  790TMC3     O11760   0.779   2.690   6.443
  790TMC3     H11761   0.767   2.637   6.817
  790TMC3    H111762   0.908   2.887   6.510
  790TMC3    H211763   1.014   2.975   6.911
  790TMC3    C711764   1.016   3.071   6.670
  790TMC3    C811765   0.900   2.747   7.008
  790TMC3    O111766   1.076   3.134   6.759
  790TMC3    O211767   0.864   2.634   7.032
  791TMC3    C111768   2.236   4.006   7.394
  791TMC3    C211769   2.274   4.075   7.282
  791TMC3    C311770   2.409   4.071   7.254
  791TMC3    C411771   2.316   3.937   7.478
  791TMC3    C511772   2.446   3.938   7.446
  791TMC3    C611773   2.495   4.013   7.341
  791TMC3     C11774   2.124   4.068   7.454
  791TMC3     O11775   2.057   4.001   7.533
  791TMC3     H11776   2.211   4.111   7.201
  791TMC3    H111777   2.282   3.894   7.572
  791TMC3    H211778   2.602   4.006   7.321
  791TMC3    C711779   2.538   3.858   7.526
  791TMC3    C811780   2.456   4.082   7.116
  791TMC3    O111781   2.660   3.864   7.509
  791TMC3    O211782   2.529   3.987   7.087
  792TMC3    C111783   1.411   2.830  11.623
  792TMC3    C211784   1.400   2.946  11.691
  792TMC3    C311785   1.313   3.032  11.640
  792TMC3    C411786   1.350   2.801  11.505
  792TMC3    C511787   1.242   2.880  11.472
  792TMC3    C611788   1.222   2.995  11.548
  792TMC3     C11789   1.543   2.769  11.633
  792TMC3     O11790   1.588   2.726  11.532
  792TMC3     H11791   1.466   2.973  11.773
  792TMC3    H111792   1.355   2.704  11.456
  792TMC3    H211793   1.150   3.072  11.522
  792TMC3    C711794   1.124   2.807  11.435
  792TMC3    C811795   1.320   3.175  11.681
  792TMC3    O111796   1.141   2.711  11.360
  792TMC3    O211797   1.243   3.257  11.624
  793TMC3    C111798   3.576   3.428  13.153
  793TMC3    C211799   3.637   3.307  13.136
  793TMC3    C311800   3.690   3.240  13.252
  793TMC3    C411801   3.563   3.483  13.275
  793TMC3    C511802   3.602   3.410  13.383
  793TMC3    C611803   3.673   3.288  13.378
  793TMC3     C11804   3.530   3.490  13.029
  793TMC3     O11805   3.524   3.423  12.929
  793TMC3     H11806   3.651   3.262  13.039
  793TMC3    H111807   3.518   3.580  13.293
  793TMC3    H211808   3.728   3.253  13.465
  793TMC3    C711809   3.606   3.480  13.508
  793TMC3    C811810   3.799   3.141  13.216
  793TMC3    O111811   3.640   3.595  13.498
  793TMC3    O211812   3.862   3.172  13.114
  794TMC3    C111813   4.045   2.128   7.681
  794TMC3    C211814   4.090   2.092   7.806
  794TMC3    C311815   4.216   2.045   7.816
  794TMC3    C411816   4.109   2.091   7.561
  794TMC3    C511817   4.233   2.036   7.587
  794TMC3    C611818   4.291   2.023   7.710
  794TMC3     C11819   3.903   2.155   7.665
  794TMC3     O11820   3.862   2.094   7.567
  794TMC3     H11821   4.038   2.123   7.896
  794TMC3    H111822   4.068   2.118   7.464
  794TMC3    H211823   4.392   1.987   7.726
  794TMC3    C711824   4.319   2.016   7.468
  794TMC3    C811825   4.277   2.091   7.940
  794TMC3    O111826   4.401   1.927   7.462
  794TMC3    O211827   4.213   2.074   8.043
  795TMC3    C111828   4.158   3.033  11.470
  795TMC3    C211829   4.165   2.977  11.346
  795TMC3    C311830   4.261   3.013  11.257
  795TMC3    C411831   4.249   3.116  11.510
  795TMC3    C511832   4.365   3.130  11.436
  795TMC3    C611833   4.377   3.066  11.311
  795TMC3     C11834   4.025   3.050  11.520
  795TMC3     O11835   4.010   3.083  11.636
  795TMC3     H11836   4.089   2.906  11.318
  795TMC3    H111837   4.250   3.170  11.603
  795TMC3    H211838   4.474   3.069  11.264
  795TMC3    C711839   4.483   3.122  11.517
  795TMC3    C811840   4.266   2.931  11.135
  795TMC3    O111841   4.537   3.013  11.531
  795TMC3    O211842   4.189   2.837  11.118
  796TMC3    C111843   0.855   1.321  12.323
  796TMC3    C211844   0.955   1.331  12.419
  796TMC3    C311845   0.939   1.428  12.510
  796TMC3    C411846   0.751   1.406  12.306
  796TMC3    C511847   0.752   1.514  12.396
  796TMC3    C611848   0.844   1.518  12.499
  796TMC3     C11849   0.857   1.208  12.228
  796TMC3     O11850   0.846   1.239  12.113
  796TMC3     H11851   1.042   1.268  12.431
  796TMC3    H111852   0.678   1.387  12.228
  796TMC3    H211853   0.822   1.581  12.584
  796TMC3    C711854   0.715   1.641  12.356
  796TMC3    C811855   1.059   1.492  12.550
  796TMC3    O111856   0.773   1.729  12.425
  796TMC3    O211857   1.162   1.428  12.568
  797TMC3    C111858   2.925   2.371  11.355
  797TMC3    C211859   2.846   2.426  11.451
  797TMC3    C311860   2.758   2.347  11.508
  797TMC3    C411861   2.910   2.238  11.315
  797TMC3    C511862   2.821   2.153  11.368
  797TMC3    C611863   2.740   2.214  11.464
  797TMC3     C11864   2.961   2.446  11.239
  797TMC3     O11865   2.872   2.517  11.193
  797TMC3     H11866   2.858   2.530  11.479
  797TMC3    H111867   2.976   2.209  11.234
  797TMC3    H211868   2.643   2.167  11.475
  797TMC3    C711869   2.773   2.044  11.280
  797TMC3    C811870   2.654   2.421  11.585
  797TMC3    O111871   2.814   2.057  11.165
  797TMC3    O211872   2.636   2.539  11.557
  798TMC3    C111873   2.388   1.662   9.871
  798TMC3    C211874   2.490   1.735   9.924
  798TMC3    C311875   2.604   1.671   9.961
  798TMC3    C411876   2.394   1.526   9.854
  798TMC3    C511877   2.509   1.466   9.889
  798TMC3    C611878   2.616   1.536   9.933
  798TMC3     C11879   2.315   1.727   9.765
  798TMC3     O11880   2.224   1.660   9.715
  798TMC3     H11881   2.483   1.843   9.937
  798TMC3    H111882   2.312   1.476   9.803
  798TMC3    H211883   2.709   1.487   9.959
  798TMC3    C711884   2.543   1.336   9.832
  798TMC3    C811885   2.725   1.739   9.940
  798TMC3    O111886   2.647   1.288   9.871
  798TMC3    O211887   2.813   1.693   9.866
  799TMC3    C111888   3.878   1.170   9.438
  799TMC3    C211889   3.855   1.282   9.362
  799TMC3    C311890   3.952   1.318   9.269
  799TMC3    C411891   3.989   1.093   9.421
  799TMC3    C511892   4.071   1.129   9.319
  799TMC3    C611893   4.053   1.237   9.240
  799TMC3     C11894   3.811   1.164   9.566
  799TMC3     O11895   3.857   1.089   9.649
  799TMC3     H11896   3.777   1.354   9.386
  799TMC3    H111897   4.005   1.006   9.484
  799TMC3    H211898   4.106   1.236   9.146
  799TMC3    C711899   4.210   1.088   9.344
  799TMC3    C811900   3.975   1.451   9.258
  799TMC3    O111901   4.233   1.013   9.439
  799TMC3    O211902   3.895   1.534   9.301
  800TMC3    C111903   2.166   2.993  11.501
  800TMC3    C211904   2.075   3.048  11.579
  800TMC3    C311905   1.948   2.991  11.594
  800TMC3    C411906   2.133   2.888  11.425
  800TMC3    C511907   2.002   2.837  11.427
  800TMC3    C611908   1.913   2.881  11.521
  800TMC3     C11909   2.298   2.994  11.555
  800TMC3     O11910   2.332   2.884  11.595
  800TMC3     H11911   2.094   3.135  11.640
  800TMC3    H111912   2.210   2.841  11.365
  800TMC3    H211913   1.820   2.829  11.538
  800TMC3    C711914   1.985   2.699  11.403
  800TMC3    C811915   1.841   3.060  11.663
  800TMC3    O111916   2.086   2.636  11.393
  800TMC3    O211917   1.726   3.029  11.627
  801TMC3    C111918   1.758   4.700  13.352
  801TMC3    C211919   1.871   4.759  13.305
  801TMC3    C311920   1.954   4.670  13.242
  801TMC3    C411921   1.735   4.564  13.351
  801TMC3    C511922   1.827   4.485  13.291
  801TMC3    C611923   1.940   4.537  13.239
  801TMC3     C11924   1.667   0.004  13.417
  801TMC3     O11925   1.553   4.750  13.431
  801TMC3     H11926   1.892   0.079  13.302
  801TMC3    H111927   1.640   4.536  13.396
  801TMC3    H211928   1.994   4.476  13.169
  801TMC3    C711929   1.831   4.341  13.315
  801TMC3    C811930   2.057   4.721  13.157
  801TMC3    O111931   1.937   4.280  13.308
  801TMC3    O211932   2.053   0.052  13.122
  802TMC3    C111933   3.719   2.941  10.775
  802TMC3    C211934   3.835   2.929  10.714
  802TMC3    C311935   3.847   2.857  10.598
  802TMC3    C411936   3.613   2.861  10.728
  802TMC3    C511937   3.626   2.788  10.614
  802TMC3    C611938   3.747   2.777  10.551
  802TMC3     C11939   3.714   2.990  10.912
  802TMC3     O11940   3.812   2.968  10.979
  802TMC3     H11941   3.921   2.982  10.751
  802TMC3    H111942   3.515   2.860  10.775
  802TMC3    H211943   3.760   2.715  10.463
  802TMC3    C711944   3.503   2.753  10.543
  802TMC3    C811945   3.976   2.811  10.562
  802TMC3    O111946   3.509   2.651  10.475
  802TMC3    O211947   3.994   2.692  10.538
  803TMC3    C111948   0.179   1.214  12.773
  803TMC3    C211949   0.277   1.159  12.853
  803TMC3    C311950   0.311   1.030  12.843
  803TMC3    C411951   0.116   1.139  12.679
  803TMC3    C511952   0.146   1.007  12.680
  803TMC3    C611953   0.243   0.949  12.761
  803TMC3     C11954   0.118   1.341  12.815
  803TMC3     O11955   0.185   1.406  12.894
  803TMC3     H11956   0.322   1.214  12.935
  803TMC3    H111957   0.044   1.189  12.614
  803TMC3    H211958   0.261   0.842  12.755
  803TMC3    C711959   0.020   0.931  12.675
  803TMC3    C811960   0.380   0.962  12.952
  803TMC3    O111961   0.011   0.842  12.760
  803TMC3    O211962   0.336   0.983  13.068
  804TMC3    C111963   2.027   1.173   7.034
  804TMC3    C211964   1.961   1.117   6.929
  804TMC3    C311965   2.027   1.130   6.808
  804TMC3    C411966   2.143   1.247   7.021
  804TMC3    C511967   2.205   1.240   6.905
  804TMC3    C611968   2.152   1.194   6.793
  804TMC3     C11969   1.941   1.227   7.140
  804TMC3     O11970   1.834   1.263   7.097
  804TMC3     H11971   1.858   1.083   6.934
  804TMC3    H111972   2.193   1.271   7.113
  804TMC3    H211973   2.205   1.201   6.698
  804TMC3    C711974   2.332   1.302   6.897
  804TMC3    C811975   1.971   1.043   6.696
  804TMC3    O111976   2.408   1.271   6.805
  804TMC3    O211977   1.903   0.948   6.740
  805TMC3    C111978   0.159   2.501  11.125
  805TMC3    C211979   0.061   2.417  11.169
  805TMC3    C311980   0.084   2.334  11.273
  805TMC3    C411981   0.283   2.495  11.184
  805TMC3    C511982   0.306   2.396  11.280
  805TMC3    C611983   0.205   2.315  11.324
  805TMC3     C11984   0.120   2.623  11.063
  805TMC3     O11985   0.013   2.611  11.002
  805TMC3     H11986   4.745   2.424  11.133
  805TMC3    H111987   0.366   2.545  11.135
  805TMC3    H211988   0.213   2.255  11.414
  805TMC3    C711989   0.441   2.382  11.317
  805TMC3    C811990   4.778   2.226  11.273
  805TMC3    O111991   0.495   2.489  11.336
  805TMC3    O211992   0.002   2.140  11.183
  806TMC3    C111993   1.997   0.562  14.916
  806TMC3    C211994   2.018   0.696  14.885
  806TMC3    C311995   1.911   0.780  14.875
  806TMC3    C411996   1.875   0.508  14.928
  806TMC3    C511997   1.769   0.594  14.915
  806TMC3    C611998   1.780   0.728  14.888
  806TMC3     C11999   2.107   0.464  14.933
  806TMC3     O12000   2.075   0.357  14.986
  806TMC3     H12001   2.118   0.739  14.885
  806TMC3    H112002   1.866   0.400  14.940
  806TMC3    H212003   1.689   0.781  14.861
  806TMC3    C712004   1.636   0.542  14.883
  806TMC3    C812005   1.946   0.904  14.802
  806TMC3    O112006   1.542   0.613  14.913
  806TMC3    O212007   2.062   0.926  14.779
  807TMC3    C112008   0.412   3.623  14.503
  807TMC3    C212009   0.442   3.604  14.633
  807TMC3    C312010   0.528   3.497  14.659
  807TMC3    C412011   0.472   3.556  14.397
  807TMC3    C512012   0.552   3.450  14.431
  807TMC3    C612013   0.577   3.413  14.562
  807TMC3     C12014   0.372   3.757  14.473
  807TMC3     O12015   0.437   3.813  14.385
  807TMC3     H12016   0.404   3.662  14.716
  807TMC3    H112017   0.442   3.568  14.293
  807TMC3    H212018   0.627   3.322  14.592
  807TMC3    C712019   0.624   3.388  14.328
  807TMC3    C812020   0.548   3.471  14.800
  807TMC3    O112021   0.705   3.454  14.266
  807TMC3    O212022   0.458   3.500  14.880
  808TMC3    C112023   4.177   1.446   9.902
  808TMC3    C212024   4.058   1.405   9.948
  808TMC3    C312025   4.011   1.470  10.062
  808TMC3    C412026   4.258   1.527   9.968
  808TMC3    C512027   4.205   1.597  10.077
  808TMC3    C612028   4.075   1.571  10.123
  808TMC3     C12029   4.209   1.388   9.772
  808TMC3     O12030   4.120   1.332   9.719
  808TMC3     H12031   3.993   1.342   9.890
  808TMC3    H112032   4.352   1.558   9.924
  808TMC3    H212033   4.022   1.630  10.196
  808TMC3    C712034   4.291   1.673  10.158
  808TMC3    C812035   3.860   1.485  10.065
  808TMC3    O112036   4.242   1.758  10.229
  808TMC3    O212037   3.815   1.602  10.060
  809TMC3    C112038   0.549   3.310  11.101
  809TMC3    C212039   0.504   3.407  11.187
  809TMC3    C312040   0.594   3.470  11.279
  809TMC3    C412041   0.681   3.284  11.092
  809TMC3    C512042   0.767   3.357  11.163
  809TMC3    C612043   0.728   3.443  11.260
  809TMC3     C12044   0.472   3.193  11.069
  809TMC3     O12045   0.535   3.091  11.039
  809TMC3     H12046   0.398   3.432  11.185
  809TMC3    H112047   0.721   3.209  11.026
  809TMC3    H212048   0.800   3.492  11.323
  809TMC3    C712049   0.865   3.411  11.075
  809TMC3    C812050   0.574   3.608  11.319
  809TMC3    O112051   0.847   3.386  10.957
  809TMC3    O212052   0.675   3.681  11.311
  810TMC3    C112053   2.319   4.245  15.121
  810TMC3    C212054   2.360   4.194  15.001
  810TMC3    C312055   2.275   4.208  14.893
  810TMC3    C412056   2.190   4.292  15.134
  810TMC3    C512057   2.100   4.285  15.032
  810TMC3    C612058   2.140   4.231  14.912
  810TMC3     C12059   2.427   4.340  15.150
  810TMC3     O12060   2.532   4.342  15.092
  810TMC3     H12061   2.460   4.153  14.994
  810TMC3    H112062   2.162   4.316  15.236
  810TMC3    H212063   2.066   4.215  14.834
  810TMC3    C712064   1.960   4.288  15.059
  810TMC3    C812065   2.311   4.145  14.772
  810TMC3    O112066   1.892   4.196  15.005
  810TMC3    O212067   2.409   4.069  14.769
  811TMC3    C112068   1.463   1.960  13.075
  811TMC3    C212069   1.575   1.893  13.112
  811TMC3    C312070   1.568   1.755  13.095
  811TMC3    C412071   1.347   1.903  13.033
  811TMC3    C512072   1.342   1.764  13.035
  811TMC3    C612073   1.457   1.692  13.055
  811TMC3     C12074   1.492   2.089  13.018
  811TMC3     O12075   1.438   2.121  12.914
  811TMC3     H12076   1.671   1.940  13.134
  811TMC3    H112077   1.261   1.968  13.018
  811TMC3    H212078   1.458   1.584  13.045
  811TMC3    C712079   1.220   1.709  13.097
  811TMC3    C812080   1.683   1.668  13.127
  811TMC3    O112081   1.113   1.765  13.090
  811TMC3    O212082   1.659   1.557  13.175
  812TMC3    C112083   3.029   1.003   8.101
  812TMC3    C212084   3.129   0.916   8.068
  812TMC3    C312085   3.094   0.810   7.997
  812TMC3    C412086   2.893   0.983   8.068
  812TMC3    C512087   2.860   0.875   7.987
  812TMC3    C612088   2.957   0.784   7.965
  812TMC3     C12089   3.062   1.118   8.178
  812TMC3     O12090   2.987   1.213   8.161
  812TMC3     H12091   3.230   0.946   8.093
  812TMC3    H112092   2.820   1.043   8.121
  812TMC3    H212093   2.922   0.700   7.907
  812TMC3    C712094   2.715   0.846   7.958
  812TMC3    C812095   3.185   0.701   7.985
  812TMC3    O112096   2.678   0.734   7.929
  812TMC3    O212097   3.151   0.584   7.983
  813TMC3    C112098   2.269   0.271   8.628
  813TMC3    C212099   2.332   0.321   8.517
  813TMC3    C312100   2.251   0.395   8.434
  813TMC3    C412101   2.140   0.304   8.659
  813TMC3    C512102   2.075   0.389   8.577
  813TMC3    C612103   2.122   0.420   8.452
  813TMC3     C12104   2.306   0.135   8.645
  813TMC3     O12105   2.385   0.093   8.561
  813TMC3     H12106   2.434   0.300   8.488
  813TMC3    H112107   2.086   0.252   8.738
  813TMC3    H212108   2.075   0.497   8.393
  813TMC3    C712109   1.981   0.487   8.633
  813TMC3    C812110   2.315   0.443   8.312
  813TMC3    O112111   1.963   0.583   8.566
  813TMC3    O212112   2.436   0.468   8.318
  814TMC3    C112113   1.096   2.224   9.606
  814TMC3    C212114   1.021   2.134   9.533
  814TMC3    C312115   0.957   2.174   9.422
  814TMC3    C412116   1.102   2.353   9.557
  814TMC3    C512117   1.032   2.395   9.448
  814TMC3    C612118   0.952   2.305   9.380
  814TMC3     C12119   1.218   2.193   9.678
  814TMC3     O12120   1.313   2.251   9.639
  814TMC3     H12121   1.021   2.028   9.559
  814TMC3    H112122   1.172   2.417   9.610
  814TMC3    H212123   0.904   2.332   9.287
  814TMC3    C712124   1.099   2.484   9.367
  814TMC3    C812125   0.915   2.081   9.315
  814TMC3    O112126   1.140   2.588   9.407
  814TMC3    O212127   0.910   2.120   9.203
  815TMC3    C112128   0.642   3.411  12.870
  815TMC3    C212129   0.514   3.370  12.896
  815TMC3    C312130   0.459   3.388  13.019
  815TMC3    C412131   0.718   3.457  12.975
  815TMC3    C512132   0.656   3.477  13.089
  815TMC3    C612133   0.528   3.453  13.110
  815TMC3     C12134   0.720   3.354  12.755
  815TMC3     O12135   0.843   3.354  12.756
  815TMC3     H12136   0.455   3.332  12.813
  815TMC3    H112137   0.821   3.481  12.951
  815TMC3    H212138   0.495   3.461  13.213
  815TMC3    C712139   0.733   3.487  13.209
  815TMC3    C812140   0.360   3.284  13.067
  815TMC3    O112141   0.682   3.547  13.302
  815TMC3    O212142   0.325   3.205  12.980
  816TMC3    C112143   0.229   2.614  13.092
  816TMC3    C212144   0.301   2.567  12.981
  816TMC3    C312145   0.346   2.438  12.989
  816TMC3    C412146   0.203   2.528  13.199
  816TMC3    C512147   0.265   2.408  13.199
  816TMC3    C612148   0.327   2.349  13.092
  816TMC3     C12149   0.218   2.758  13.111
  816TMC3     O12150   0.193   2.832  13.015
  816TMC3     H12151   0.320   2.633  12.897
  816TMC3    H112152   0.141   2.562  13.281
  816TMC3    H212153   0.362   2.246  13.091
  816TMC3    C712154   0.216   2.312  13.293
  816TMC3    C812155   0.410   2.373  12.877
  816TMC3    O112156   0.101   2.318  13.332
  816TMC3    O212157   0.432   2.255  12.887
  817TMC3    C112158   1.380   2.713  12.907
  817TMC3    C212159   1.326   2.607  12.976
  817TMC3    C312160   1.263   2.510  12.905
  817TMC3    C412161   1.345   2.732  12.779
  817TMC3    C512162   1.281   2.633  12.712
  817TMC3    C612163   1.237   2.519  12.769
  817TMC3     C12164   1.476   2.806  12.965
  817TMC3     O12165   1.527   2.883  12.889
  817TMC3     H12166   1.336   2.581  13.081
  817TMC3    H112167   1.384   2.813  12.717
  817TMC3    H212168   1.186   2.444  12.710
  817TMC3    C712169   1.244   2.663  12.566
  817TMC3    C812170   1.203   2.398  12.983
  817TMC3    O112171   1.317   2.731  12.495
  817TMC3    O212172   1.169   2.421  13.102
  818TMC3    C112173   1.576   3.790   9.276
  818TMC3    C212174   1.514   3.737   9.377
  818TMC3    C312175   1.377   3.752   9.387
  818TMC3    C412176   1.517   3.861   9.174
  818TMC3    C512177   1.380   3.876   9.186
  818TMC3    C612178   1.310   3.831   9.297
  818TMC3     C12179   1.717   3.819   9.303
  818TMC3     O12180   1.782   3.738   9.361
  818TMC3     H12181   1.566   3.689   9.460
  818TMC3    H112182   1.572   3.897   9.088
  818TMC3    H212183   1.205   3.849   9.316
  818TMC3    C712184   1.308   3.909   9.065
  818TMC3    C812185   1.308   3.724   9.516
  818TMC3    O112186   1.371   3.930   8.957
  818TMC3    O212187   1.220   3.802   9.533
  819TMC3    C112188   0.215   1.365   9.281
  819TMC3    C212189   0.172   1.425   9.390
  819TMC3    C312190   0.253   1.516   9.445
  819TMC3    C412191   0.340   1.394   9.228
  819TMC3    C512192   0.412   1.501   9.277
  819TMC3    C612193   0.370   1.555   9.393
  819TMC3     C12194   0.123   1.343   9.179
  819TMC3     O12195   0.019   1.287   9.214
  819TMC3     H12196   0.067   1.412   9.415
  819TMC3    H112197   0.372   1.345   9.137
  819TMC3    H212198   0.441   1.619   9.445
  819TMC3    C712199   0.412   1.607   9.178
  819TMC3    C812200   0.181   1.617   9.519
  819TMC3    O112201   0.391   1.568   9.065
  819TMC3    O212202   0.221   1.732   9.504
  820TMC3    C112203   2.743   4.352   9.854
  820TMC3    C212204   2.829   4.272   9.781
  820TMC3    C312205   2.952   4.258   9.832
  820TMC3    C412206   2.791   4.422   9.963
  820TMC3    C512207   2.922   4.404  10.002
  820TMC3    C612208   3.008   4.323   9.942
  820TMC3     C12209   2.610   4.379   9.807
  820TMC3     O12210   2.570   4.330   9.700
  820TMC3     H12211   2.802   4.226   9.687
  820TMC3    H112212   2.725   4.467  10.036
  820TMC3    H212213   3.107   4.297   9.978
  820TMC3    C712214   2.955   4.427  10.140
  820TMC3    C812215   3.041   4.161   9.774
  820TMC3    O112216   2.982   4.322  10.197
  820TMC3    O212217   2.987   4.057   9.740
  821TMC3    C112218   4.282   1.345  10.520
  821TMC3    C212219   4.184   1.316  10.428
  821TMC3    C312220   4.209   1.225  10.323
  821TMC3    C412221   4.404   1.277  10.519
  821TMC3    C512222   4.415   1.170  10.425
  821TMC3    C612223   4.320   1.145  10.333
  821TMC3     C12224   4.251   1.420  10.633
  821TMC3     O12225   4.134   1.402  10.675
  821TMC3     H12226   4.089   1.367  10.424
  821TMC3    H112227   4.488   1.299  10.584
  821TMC3    H212228   4.321   1.048  10.285
  821TMC3    C712229   4.549   1.165  10.379
  821TMC3    C812230   4.091   1.187  10.236
  821TMC3    O112231   4.580   1.247  10.294
  821TMC3    O212232   3.980   1.205  10.285
  822TMC3    C112233   1.151   0.649   8.161
  822TMC3    C212234   1.156   0.739   8.063
  822TMC3    C312235   1.147   0.692   7.932
  822TMC3    C412236   1.116   0.520   8.132
  822TMC3    C512237   1.123   0.477   7.999
  822TMC3    C612238   1.136   0.560   7.890
  822TMC3     C12239   1.204   0.681   8.296
  822TMC3     O12240   1.206   0.799   8.332
  822TMC3     H12241   1.195   0.839   8.080
  822TMC3    H112242   1.096   0.450   8.212
  822TMC3    H212243   1.150   0.519   7.791
  822TMC3    C712244   1.169   0.339   7.969
  822TMC3    C812245   1.221   0.760   7.830
  822TMC3    O112246   1.088   0.249   7.989
  822TMC3    O212247   1.296   0.690   7.760
  823TMC3    C112248   0.316   0.000  11.388
  823TMC3    C212249   0.373   0.086  11.485
  823TMC3    C312250   0.445   0.029  11.588
  823TMC3    C412251   0.321   4.650  11.411
  823TMC3    C512252   0.367   4.600  11.531
  823TMC3    C612253   0.439   4.682  11.619
  823TMC3     C12254   0.358   0.028  11.255
  823TMC3     O12255   0.479   0.001  11.238
  823TMC3     H12256   0.393   0.186  11.449
  823TMC3    H112257   0.280   4.581  11.338
  823TMC3    H212258   0.481   4.653  11.715
  823TMC3    C712259   0.376   4.456  11.549
  823TMC3    C812260   0.545   0.114  11.655
  823TMC3    O112261   0.301   4.379  11.490
  823TMC3    O212262   0.528   0.234  11.638
  824TMC3    C112263   3.952   1.132   7.571
  824TMC3    C212264   3.998   1.071   7.454
  824TMC3    C312265   3.966   0.938   7.447
  824TMC3    C412266   3.887   1.062   7.669
  824TMC3    C512267   3.853   0.932   7.648
  824TMC3    C612268   3.895   0.866   7.531
  824TMC3     C12269   3.984   1.274   7.584
  824TMC3     O12270   4.050   1.328   7.496
  824TMC3     H12271   4.066   1.116   7.383
  824TMC3    H112272   3.868   1.101   7.769
  824TMC3    H212273   3.891   0.761   7.505
  824TMC3    C712274   3.772   0.862   7.744
  824TMC3    C812275   4.038   0.863   7.349
  824TMC3    O112276   3.746   0.921   7.848
  824TMC3    O212277   4.156   0.883   7.326
  825TMC3    C112278   1.693   4.720   7.340
  825TMC3    C212279   1.642   4.726   7.215
  825TMC3    C312280   1.515   4.685   7.195
  825TMC3    C412281   1.601   4.701   7.442
  825TMC3    C512282   1.473   4.655   7.415
  825TMC3    C612283   1.431   4.632   7.289
  825TMC3     C12284   1.823   4.651   7.348
  825TMC3     O12285   1.879   4.615   7.248
  825TMC3     H12286   1.709   4.740   7.131
  825TMC3    H112287   1.632   4.709   7.546
  825TMC3    H212288   1.330   4.598   7.271
  825TMC3    C712289   1.411   4.582   7.524
  825TMC3    C812290   1.466   4.683   7.061
  825TMC3    O112291   1.493   4.527   7.595
  825TMC3    O212292   1.476   0.002   7.006
  826TMC3    C112293   1.465   4.546   8.053
  826TMC3    C212294   1.573   4.527   8.128
  826TMC3    C312295   1.574   4.422   8.205
  826TMC3    C412296   1.359   4.464   8.062
  826TMC3    C512297   1.363   4.358   8.147
  826TMC3    C612298   1.466   4.339   8.225
  826TMC3     C12299   1.469   4.646   7.947
  826TMC3     O12300   1.582   4.674   7.914
  826TMC3     H12301   1.660   4.590   8.114
  826TMC3    H112302   1.285   4.455   7.984
  826TMC3    H212303   1.467   4.264   8.303
  826TMC3    C712304   1.239   4.291   8.174
  826TMC3    C812305   1.692   4.396   8.286
  826TMC3    O112306   1.144   4.334   8.113
  826TMC3    O212307   1.678   4.337   8.396
  827TMC3    C112308   4.073   4.244   7.713
  827TMC3    C212309   4.128   4.167   7.819
  827TMC3    C312310   4.072   4.194   7.943
  827TMC3    C412311   3.969   4.330   7.731
  827TMC3    C512312   3.929   4.359   7.856
  827TMC3    C612313   3.981   4.295   7.967
  827TMC3     C12314   4.157   4.299   7.610
  827TMC3     O12315   4.123   4.400   7.549
  827TMC3     H12316   4.202   4.088   7.816
  827TMC3    H112317   3.926   4.390   7.651
  827TMC3    H212318   3.945   4.320   8.066
  827TMC3    C712319   3.886   4.491   7.878
  827TMC3    C812320   4.094   4.097   8.045
  827TMC3    O112321   3.791   4.528   7.812
  827TMC3    O212322   4.129   3.989   7.997
  828TMC3    C112323   0.393   0.525  12.884
  828TMC3    C212324   0.450   0.563  12.767
  828TMC3    C312325   0.380   0.564  12.650
  828TMC3    C412326   0.265   0.482  12.882
  828TMC3    C512327   0.192   0.479  12.765
  828TMC3    C612328   0.256   0.515  12.652
  828TMC3     C12329   0.479   0.426  12.951
  828TMC3     O12330   0.438   0.367  13.051
  828TMC3     H12331   0.553   0.595  12.781
  828TMC3    H112332   0.227   0.443  12.975
  828TMC3    H212333   0.196   0.532  12.562
  828TMC3    C712334   0.151   0.341  12.758
  828TMC3    C812335   0.458   0.514  12.534
  828TMC3    O112336   0.105   0.287  12.860
  828TMC3    O212337   0.548   0.445  12.573
  829TMC3    C112338   2.935   2.029  12.017
  829TMC3    C212339   2.827   2.051  11.940
  829TMC3    C312340   2.773   1.950  11.867
  829TMC3    C412341   2.992   1.903  12.018
  829TMC3    C512342   2.951   1.810  11.932
  829TMC3    C612343   2.846   1.834  11.846
  829TMC3     C12344   3.036   2.135  12.009
  829TMC3     O12345   3.061   2.193  12.109
  829TMC3     H12346   2.789   2.152  11.931
  829TMC3    H112347   3.083   1.881  12.073
  829TMC3    H212348   2.805   1.756  11.785
  829TMC3    C712349   3.015   1.677  11.956
  829TMC3    C812350   2.669   1.993  11.774
  829TMC3    O112351   3.070   1.653  12.063
  829TMC3    O212352   2.690   2.111  11.744
  830TMC3    C112353   4.337   3.263   6.083
  830TMC3    C212354   4.336   3.175   6.188
  830TMC3    C312355   4.246   3.076   6.177
  830TMC3    C412356   4.244   3.266   5.984
  830TMC3    C512357   4.159   3.164   5.985
  830TMC3    C612358   4.151   3.069   6.083
  830TMC3     C12359   4.421   3.381   6.098
  830TMC3     O12360   4.390   3.481   6.029
  830TMC3     H12361   4.401   3.193   6.273
  830TMC3    H112362   4.268   3.313   5.889
  830TMC3    H212363   4.068   2.999   6.081
  830TMC3    C712364   4.064   3.161   5.870
  830TMC3    C812365   4.235   2.987   6.294
  830TMC3    O112366   4.064   3.256   5.796
  830TMC3    O212367   4.274   3.025   6.405
  831TMC3    C112368   0.369   4.188  10.690
  831TMC3    C212369   0.416   4.293  10.618
  831TMC3    C312370   0.540   4.271  10.576
  831TMC3    C412371   0.433   4.072  10.720
  831TMC3    C512372   0.570   4.067  10.702
  831TMC3    C612373   0.624   4.167  10.616
  831TMC3     C12374   0.240   4.204  10.765
  831TMC3     O12375   0.166   4.108  10.767
  831TMC3     H12376   0.355   4.377  10.587
  831TMC3    H112377   0.375   3.989  10.759
  831TMC3    H212378   0.722   4.153  10.572
  831TMC3    C712379   0.638   4.070  10.830
  831TMC3    C812380   0.599   4.382  10.499
  831TMC3    O112381   0.752   4.108  10.837
  831TMC3    O212382   0.700   4.345  10.442
  832TMC3    C112383   2.555   1.068  12.097
  832TMC3    C212384   2.632   1.069  12.212
  832TMC3    C312385   2.709   1.180  12.243
  832TMC3    C412386   2.549   1.178  12.017
  832TMC3    C512387   2.642   1.276  12.048
  832TMC3    C612388   2.720   1.286  12.162
  832TMC3     C12389   2.448   0.979  12.069
  832TMC3     O12390   2.339   1.031  12.045
  832TMC3     H12391   2.620   0.988  12.284
  832TMC3    H112392   2.481   1.184  11.932
  832TMC3    H212393   2.796   1.362  12.170
  832TMC3    C712394   2.668   1.360  11.935
  832TMC3    C812395   2.816   1.148  12.334
  832TMC3    O112396   2.669   1.302  11.828
  832TMC3    O212397   2.854   1.033  12.327
  833TMC3    C112398   2.200   4.023  11.999
  833TMC3    C212399   2.116   4.128  11.960
  833TMC3    C312400   2.164   4.258  11.946
  833TMC3    C412401   2.329   4.053  12.022
  833TMC3    C512402   2.374   4.183  12.004
  833TMC3    C612403   2.294   4.294  11.966
  833TMC3     C12404   2.149   3.955  12.114
  833TMC3     O12405   2.200   3.849  12.140
  833TMC3     H12406   2.010   4.105  11.954
  833TMC3    H112407   2.388   3.981  12.078
  833TMC3    H212408   2.331   4.395  11.961
  833TMC3    C712409   2.493   4.206  11.931
  833TMC3    C812410   2.068   4.364  11.979
  833TMC3    O112411   2.501   4.144  11.828
  833TMC3    O212412   2.010   4.349  12.083
  834TMC3    C112413   4.003   1.169  14.205
  834TMC3    C212414   4.081   1.279  14.182
  834TMC3    C312415   4.217   1.257  14.162
  834TMC3    C412416   4.058   1.042  14.203
  834TMC3    C512417   4.193   1.029  14.180
  834TMC3    C612418   4.278   1.138  14.162
  834TMC3     C12419   3.859   1.176  14.214
  834TMC3     O12420   3.804   1.084  14.276
  834TMC3     H12421   4.035   1.377  14.190
  834TMC3    H112422   4.002   0.950  14.218
  834TMC3    H212423   4.386   1.130  14.163
  834TMC3    C712424   4.252   0.906  14.224
  834TMC3    C812425   4.279   1.373  14.095
  834TMC3    O112426   4.360   0.881  14.170
  834TMC3    O212427   4.208   1.474  14.088
  835TMC3    C112428   0.775   1.445  13.542
  835TMC3    C212429   0.647   1.477  13.508
  835TMC3    C312430   0.628   1.602  13.470
  835TMC3    C412431   0.887   1.522  13.518
  835TMC3    C512432   0.867   1.650  13.476
  835TMC3    C612433   0.736   1.690  13.454
  835TMC3     C12434   0.789   1.349  13.651
  835TMC3     O12435   0.877   1.386  13.730
  835TMC3     H12436   0.554   1.422  13.524
  835TMC3    H112437   0.980   1.479  13.554
  835TMC3    H212438   0.723   1.795  13.430
  835TMC3    C712439   0.981   1.736  13.457
  835TMC3    C812440   0.493   1.661  13.487
  835TMC3    O112441   0.964   1.836  13.384
  835TMC3    O212442   0.410   1.602  13.554
  836TMC3    C112443   4.199   2.769   7.154
  836TMC3    C212444   4.135   2.659   7.200
  836TMC3    C312445   4.075   2.583   7.102
  836TMC3    C412446   4.215   2.794   7.020
  836TMC3    C512447   4.150   2.716   6.924
  836TMC3    C612448   4.081   2.609   6.968
  836TMC3     C12449   4.270   2.838   7.255
  836TMC3     O12450   4.235   2.837   7.373
  836TMC3     H12451   4.124   2.638   7.306
  836TMC3    H112452   4.250   2.894   6.993
  836TMC3    H212453   4.035   2.540   6.898
  836TMC3    C712454   4.184   2.735   6.786
  836TMC3    C812455   4.015   2.456   7.155
  836TMC3    O112456   4.274   2.818   6.774
  836TMC3    O212457   3.987   2.445   7.275
  837TMC3    C112458   3.626   4.244   8.962
  837TMC3    C212459   3.728   4.172   8.909
  837TMC3    C312460   3.775   4.206   8.790
  837TMC3    C412461   3.567   4.347   8.905
  837TMC3    C512462   3.622   4.382   8.786
  837TMC3    C612463   3.729   4.316   8.729
  837TMC3     C12464   3.562   4.187   9.083
  837TMC3     O12465   3.620   4.097   9.141
  837TMC3     H12466   3.730   4.067   8.936
  837TMC3    H112467   3.489   4.407   8.953
  837TMC3    H212468   3.760   4.358   8.635
  837TMC3    C712469   3.558   4.487   8.703
  837TMC3    C812470   3.813   4.096   8.708
  837TMC3    O112471   3.629   4.554   8.630
  837TMC3    O212472   3.820   3.982   8.754
  838TMC3    C112473   1.023   4.217  14.919
  838TMC3    C212474   1.103   4.319  14.961
  838TMC3    C312475   1.213   4.281  15.036
  838TMC3    C412476   1.050   4.081  14.944
  838TMC3    C512477   1.163   4.054  15.027
  838TMC3    C612478   1.243   4.154  15.077
  838TMC3     C12479   0.947   4.249  14.802
  838TMC3     O12480   0.883   4.354  14.812
  838TMC3     H12481   1.092   4.421  14.924
  838TMC3    H112482   0.981   4.002  14.913
  838TMC3    H212483   1.338   4.132  15.125
  838TMC3    C712484   1.189   3.919  15.059
  838TMC3    C812485   1.307   4.392  15.072
  838TMC3    O112486   1.267   3.901  15.153
  838TMC3    O212487   1.262   4.505  15.074
  839TMC3    C112488   1.912   3.412   9.239
  839TMC3    C212489   1.995   3.327   9.174
  839TMC3    C312490   2.023   3.202   9.230
  839TMC3    C412491   1.869   3.392   9.366
  839TMC3    C512492   1.888   3.268   9.419
  839TMC3    C612493   1.967   3.172   9.351
  839TMC3     C12494   1.833   3.486   9.146
  839TMC3     O12495   1.888   3.555   9.062
  839TMC3     H12496   2.053   3.361   9.089
  839TMC3    H112497   1.802   3.460   9.417
  839TMC3    H212498   1.989   3.075   9.395
  839TMC3    C712499   1.768   3.219   9.471
  839TMC3    C812500   1.960   3.110   9.136
  839TMC3    O112501   1.710   3.285   9.554
  839TMC3    O212502   1.871   3.033   9.178
  840TMC3    C112503   3.804   2.638  11.613
  840TMC3    C212504   3.849   2.651  11.744
  840TMC3    C312505   3.814   2.555  11.830
  840TMC3    C412506   3.747   2.516  11.584
  840TMC3    C512507   3.707   2.423  11.679
  840TMC3    C612508   3.735   2.445  11.807
  840TMC3     C12509   3.696   2.731  11.589
  840TMC3     O12510   3.628   2.755  11.688
  840TMC3     H12511   3.898   2.737  11.789
  840TMC3    H112512   3.692   2.501  11.492
  840TMC3    H212513   3.688   2.383  11.882
  840TMC3    C712514   3.567   2.395  11.661
  840TMC3    C812515   3.888   2.554  11.958
  840TMC3    O112516   3.533   2.295  11.601
  840TMC3    O212517   3.815   2.574  12.052
  841TMC3    C112518   3.603   0.344  13.066
  841TMC3    C212519   3.568   0.434  13.164
  841TMC3    C312520   3.497   0.544  13.123
  841TMC3    C412521   3.598   0.367  12.934
  841TMC3    C512522   3.521   0.476  12.896
  841TMC3    C612523   3.467   0.560  12.993
  841TMC3     C12524   3.640   0.212  13.109
  841TMC3     O12525   3.670   0.186  13.224
  841TMC3     H12526   3.570   0.402  13.267
  841TMC3    H112527   3.644   0.317  12.850
  841TMC3    H212528   3.402   0.641  12.963
  841TMC3    C712529   3.559   0.538  12.767
  841TMC3    C812530   3.527   0.667  13.173
  841TMC3    O112531   3.553   0.468  12.669
  841TMC3    O212532   3.549   0.742  13.083
  842TMC3    C112533   2.702   3.252  13.651
  842TMC3    C212534   2.588   3.188  13.638
  842TMC3    C312535   2.542   3.171  13.512
  842TMC3    C412536   2.771   3.307  13.541
  842TMC3    C512537   2.723   3.273  13.415
  842TMC3    C612538   2.603   3.213  13.401
  842TMC3     C12539   2.750   3.286  13.783
  842TMC3     O12540   2.821   3.381  13.770
  842TMC3     H12541   2.542   3.136  13.721
  842TMC3    H112542   2.866   3.356  13.556
  842TMC3    H212543   2.575   3.182  13.301
  842TMC3    C712544   2.825   3.209  13.337
  842TMC3    C812545   2.436   3.064  13.488
  842TMC3    O112546   2.789   3.102  13.300
  842TMC3    O212547   2.445   2.966  13.558
  843TMC3    C112548   0.181   1.951  12.219
  843TMC3    C212549   0.174   2.088  12.207
  843TMC3    C312550   0.226   2.169  12.306
  843TMC3    C412551   0.266   1.895  12.315
  843TMC3    C512552   0.307   1.973  12.416
  843TMC3    C612553   0.285   2.107  12.417
  843TMC3     C12554   0.095   1.863  12.137
  843TMC3     O12555   0.146   1.759  12.094
  843TMC3     H12556   0.114   2.134  12.129
  843TMC3    H112557   0.260   1.789  12.335
  843TMC3    H212558   0.322   2.166  12.500
  843TMC3    C712559   0.353   1.899  12.533
  843TMC3    C812560   0.179   2.308  12.314
  843TMC3    O112561   0.415   1.795  12.510
  843TMC3    O212562   0.170   2.366  12.205
  844TMC3    C112563   2.721   0.550   7.001
  844TMC3    C212564   2.667   0.427   6.976
  844TMC3    C312565   2.738   0.310   7.007
  844TMC3    C412566   2.840   0.560   7.068
  844TMC3    C512567   2.906   0.438   7.104
  844TMC3    C612568   2.857   0.312   7.086
  844TMC3     C12569   2.631   0.660   7.010
  844TMC3     O12570   2.552   0.671   6.915
  844TMC3     H12571   2.576   0.422   6.917
  844TMC3    H112572   2.894   0.653   7.085
  844TMC3    H212573   2.901   0.225   7.132
  844TMC3    C712574   2.992   0.450   7.221
  844TMC3    C812575   2.676   0.184   6.980
  844TMC3    O112576   3.083   0.365   7.237
  844TMC3    O212577   2.556   0.176   6.961
  845TMC3    C112578   1.551   1.858  14.416
  845TMC3    C212579   1.639   1.933  14.485
  845TMC3    C312580   1.756   1.867  14.504
  845TMC3    C412581   1.573   1.736  14.364
  845TMC3    C512582   1.696   1.679  14.378
  845TMC3    C612583   1.793   1.739  14.454
  845TMC3     C12584   1.419   1.870  14.473
  845TMC3     O12585   1.335   1.814  14.404
  845TMC3     H12586   1.626   2.032  14.528
  845TMC3    H112587   1.497   1.698  14.296
  845TMC3    H212588   1.894   1.701  14.460
  845TMC3    C712589   1.696   1.540  14.362
  845TMC3    C812590   1.824   1.880  14.626
  845TMC3    O112591   1.588   1.482  14.352
  845TMC3    O212592   1.752   1.928  14.709
  846TMC3    C112593   1.858   0.508  12.253
  846TMC3    C212594   1.946   0.557  12.155
  846TMC3    C312595   1.984   0.690  12.155
  846TMC3    C412596   1.818   0.594  12.350
  846TMC3    C512597   1.849   0.727  12.340
  846TMC3    C612598   1.950   0.769  12.255
  846TMC3     C12599   1.764   0.404  12.222
  846TMC3     O12600   1.796   0.324  12.139
  846TMC3     H12601   1.979   0.496  12.071
  846TMC3    H112602   1.755   0.564  12.433
  846TMC3    H212603   1.982   0.873  12.254
  846TMC3    C712604   1.728   0.808  12.342
  846TMC3    C812605   2.087   0.736  12.061
  846TMC3    O112606   1.628   0.745  12.363
  846TMC3    O212607   2.192   0.674  12.062
  847TMC3    C112608   2.532   3.321   8.397
  847TMC3    C212609   2.441   3.419   8.409
  847TMC3    C312610   2.488   3.546   8.382
  847TMC3    C412611   2.663   3.338   8.369
  847TMC3    C512612   2.703   3.458   8.317
  847TMC3    C612613   2.615   3.569   8.331
  847TMC3     C12614   2.499   3.211   8.484
  847TMC3     O12615   2.403   3.227   8.558
  847TMC3     H12616   2.342   3.400   8.449
  847TMC3    H112617   2.741   3.267   8.393
  847TMC3    H212618   2.652   3.668   8.305
  847TMC3    C712619   2.838   3.496   8.295
  847TMC3    C812620   2.437   3.637   8.481
  847TMC3    O112621   2.863   3.573   8.207
  847TMC3    O212622   2.322   3.626   8.524
  848TMC3    C112623   0.930   1.900  10.659
  848TMC3    C212624   0.961   2.015  10.585
  848TMC3    C312625   0.930   2.138  10.643
  848TMC3    C412626   0.880   1.912  10.789
  848TMC3    C512627   0.863   2.035  10.847
  848TMC3    C612628   0.885   2.149  10.771
  848TMC3     C12629   0.893   1.786  10.579
  848TMC3     O12630   0.976   1.738  10.500
  848TMC3     H12631   0.987   1.998  10.481
  848TMC3    H112632   0.852   1.824  10.844
  848TMC3    H212633   0.853   2.245  10.811
  848TMC3    C712634   0.804   2.035  10.973
  848TMC3    C812635   0.922   2.257  10.559
  848TMC3    O112636   0.712   1.958  10.997
  848TMC3    O212637   0.809   2.294  10.531
  849TMC3    C112638   4.446   0.082  13.178
  849TMC3    C212639   4.406   0.078  13.306
  849TMC3    C312640   4.330   0.183  13.349
  849TMC3    C412641   4.430   0.193  13.102
  849TMC3    C512642   4.368   0.301  13.156
  849TMC3    C612643   4.308   0.296  13.278
  849TMC3     C12644   4.503   4.747  13.120
  849TMC3     O12645   4.537   4.663  13.202
  849TMC3     H12646   4.411   4.766  13.350
  849TMC3    H112647   4.470   0.194  13.002
  849TMC3    H212648   4.269   0.387  13.323
  849TMC3    C712649   4.358   0.429  13.083
  849TMC3    C812650   4.254   0.164  13.466
  849TMC3    O112651   4.417   0.445  12.980
  849TMC3    O212652   4.152   0.232  13.469
  850TMC3    C112653   2.729   1.137  11.327
  850TMC3    C212654   2.677   1.260  11.308
  850TMC3    C312655   2.555   1.263  11.245
  850TMC3    C412656   2.668   1.021  11.293
  850TMC3    C512657   2.545   1.026  11.236
  850TMC3    C612658   2.488   1.146  11.216
  850TMC3     C12659   2.875   1.130  11.345
  850TMC3     O12660   2.920   1.036  11.411
  850TMC3     H12661   2.737   1.349  11.327
  850TMC3    H112662   2.726   0.934  11.323
  850TMC3    H212663   2.394   1.153  11.161
  850TMC3    C712664   2.473   0.907  11.192
  850TMC3    C812665   2.485   1.385  11.218
  850TMC3    O112666   2.447   0.905  11.070
  850TMC3    O212667   2.381   1.379  11.151
  851TMC3    C112668   2.258   3.711  12.541
  851TMC3    C212669   2.184   3.612  12.590
  851TMC3    C312670   2.105   3.632  12.703
  851TMC3    C412671   2.257   3.839  12.595
  851TMC3    C512672   2.166   3.860  12.699
  851TMC3    C612673   2.090   3.758  12.759
  851TMC3     C12674   2.326   3.670  12.421
  851TMC3     O12675   2.294   3.562  12.359
  851TMC3     H12676   2.185   3.520  12.533
  851TMC3    H112677   2.302   3.920  12.539
  851TMC3    H212678   2.032   3.767  12.851
  851TMC3    C712679   2.109   4.000  12.708
  851TMC3    C812680   2.005   3.531  12.736
  851TMC3    O112681   2.170   4.092  12.653
  851TMC3    O212682   2.044   3.412  12.746
  852TMC3    C112683   4.209   1.703  13.450
  852TMC3    C212684   4.126   1.789  13.516
  852TMC3    C312685   4.036   1.862  13.450
  852TMC3    C412686   4.202   1.691  13.316
  852TMC3    C512687   4.107   1.764  13.245
  852TMC3    C612688   4.032   1.856  13.317
  852TMC3     C12689   4.336   1.665  13.513
  852TMC3     O12690   4.438   1.688  13.448
  852TMC3     H12691   4.149   1.793  13.622
  852TMC3    H112692   4.278   1.627  13.272
  852TMC3    H212693   3.974   1.933  13.266
  852TMC3    C712694   4.147   1.796  13.106
  852TMC3    C812695   3.978   1.979  13.512
  852TMC3    O112696   4.215   1.716  13.047
  852TMC3    O212697   3.897   1.945  13.599
  853TMC3    C112698   3.279   2.359   7.969
  853TMC3    C212699   3.279   2.373   8.108
  853TMC3    C312700   3.342   2.479   8.159
  853TMC3    C412701   3.356   2.440   7.886
  853TMC3    C512702   3.412   2.545   7.950
  853TMC3    C612703   3.414   2.561   8.087
  853TMC3     C12704   3.203   2.246   7.912
  853TMC3     O12705   3.105   2.206   7.979
  853TMC3     H12706   3.218   2.314   8.175
  853TMC3    H112707   3.356   2.438   7.777
  853TMC3    H212708   3.474   2.643   8.124
  853TMC3    C712709   3.461   2.654   7.867
  853TMC3    C812710   3.345   2.495   8.303
  853TMC3    O112711   3.548   2.727   7.915
  853TMC3    O212712   3.319   2.394   8.370
  854TMC3    C112713   3.343   0.881  12.285
  854TMC3    C212714   3.385   0.912  12.412
  854TMC3    C312715   3.361   1.039  12.461
  854TMC3    C412716   3.290   0.969  12.194
  854TMC3    C512717   3.258   1.091  12.251
  854TMC3    C612718   3.290   1.126  12.380
  854TMC3     C12719   3.358   0.745  12.236
  854TMC3     O12720   3.354   0.737  12.113
  854TMC3     H12721   3.448   0.840  12.463
  854TMC3    H112722   3.259   0.946  12.093
  854TMC3    H212723   3.252   1.215  12.429
  854TMC3    C712724   3.161   1.179  12.192
  854TMC3    C812725   3.363   1.041  12.606
  854TMC3    O112726   3.136   1.283  12.253
  854TMC3    O212727   3.323   0.938  12.653
  855TMC3    C112728   3.901   3.904  13.827
  855TMC3    C212729   3.886   3.878  13.958
  855TMC3    C312730   4.004   3.850  14.029
  855TMC3    C412731   4.021   3.897  13.759
  855TMC3    C512732   4.134   3.867  13.831
  855TMC3    C612733   4.129   3.851  13.969
  855TMC3     C12734   3.778   3.927  13.748
  855TMC3     O12735   3.671   3.910  13.807
  855TMC3     H12736   3.792   3.897  14.007
  855TMC3    H112737   4.018   3.907  13.651
  855TMC3    H212738   4.218   3.842  14.029
  855TMC3    C712739   4.253   3.822  13.767
  855TMC3    C812740   4.008   3.862  14.176
  855TMC3    O112741   4.349   3.815  13.842
  855TMC3    O212742   4.116   3.886  14.230
  856TMC3    C112743   2.993   2.752   8.546
  856TMC3    C212744   2.998   2.824   8.663
  856TMC3    C312745   3.018   2.964   8.657
  856TMC3    C412746   2.998   2.827   8.428
  856TMC3    C512747   3.009   2.969   8.428
  856TMC3    C612748   3.009   3.042   8.543
  856TMC3     C12749   2.952   2.614   8.551
  856TMC3     O12750   2.969   2.543   8.452
  856TMC3     H12751   3.009   2.774   8.759
  856TMC3    H112752   3.004   2.772   8.335
  856TMC3    H212753   3.024   3.149   8.542
  856TMC3    C712754   3.040   3.042   8.307
  856TMC3    C812755   2.971   3.039   8.771
  856TMC3    O112756   2.984   2.996   8.208
  856TMC3    O212757   2.961   3.160   8.755
  857TMC3    C112758   0.736   1.365   6.781
  857TMC3    C212759   0.712   1.271   6.686
  857TMC3    C312760   0.812   1.183   6.654
  857TMC3    C412761   0.850   1.373   6.853
  857TMC3    C512762   0.945   1.272   6.831
  857TMC3    C612763   0.931   1.176   6.732
  857TMC3     C12764   0.635   1.471   6.804
  857TMC3     O12765   0.651   1.549   6.895
  857TMC3     H12766   0.613   1.245   6.651
  857TMC3    H112767   0.871   1.454   6.920
  857TMC3    H212768   1.001   1.095   6.718
  857TMC3    C712769   1.081   1.283   6.879
  857TMC3    C812770   0.797   1.080   6.543
  857TMC3    O112771   1.104   1.323   6.991
  857TMC3    O212772   0.839   0.967   6.570
  858TMC3    C112773   3.097   3.005   9.471
  858TMC3    C212774   3.150   2.921   9.557
  858TMC3    C312775   3.250   2.844   9.512
  858TMC3    C412776   3.140   3.036   9.344
  858TMC3    C512777   3.247   2.958   9.305
  858TMC3    C612778   3.301   2.868   9.390
  858TMC3     C12779   2.973   3.060   9.524
  858TMC3     O12780   2.928   3.006   9.624
  858TMC3     H12781   3.127   2.908   9.662
  858TMC3    H112782   3.078   3.098   9.279
  858TMC3    H212783   3.391   2.809   9.372
  858TMC3    C712784   3.342   3.006   9.207
  858TMC3    C812785   3.253   2.705   9.558
  858TMC3    O112786   3.459   2.977   9.215
  858TMC3    O212787   3.353   2.635   9.561
  859TMC3    C112788   2.798   2.916   7.182
  859TMC3    C212789   2.908   2.907   7.263
  859TMC3    C312790   2.988   3.016   7.266
  859TMC3    C412791   2.756   3.028   7.116
  859TMC3    C512792   2.842   3.135   7.123
  859TMC3    C612793   2.958   3.126   7.193
  859TMC3     C12794   2.692   2.821   7.201
  859TMC3     O12795   2.579   2.863   7.201
  859TMC3     H12796   2.948   2.814   7.302
  859TMC3    H112797   2.663   3.029   7.061
  859TMC3    H212798   3.034   3.203   7.194
  859TMC3    C712799   2.809   3.262   7.057
  859TMC3    C812800   3.125   3.017   7.329
  859TMC3    O112801   2.898   3.349   7.047
  859TMC3    O212802   3.203   3.104   7.288
  860TMC3    C112803   1.229   4.387  12.208
  860TMC3    C212804   1.200   4.279  12.134
  860TMC3    C312805   1.158   4.297  12.007
  860TMC3    C412806   1.250   4.508  12.153
  860TMC3    C512807   1.201   4.532  12.025
  860TMC3    C612808   1.156   4.425  11.952
  860TMC3     C12809   1.164   4.384  12.339
  860TMC3     O12810   1.120   4.496  12.372
  860TMC3     H12811   1.190   4.182  12.181
  860TMC3    H112812   1.260   4.593  12.220
  860TMC3    H212813   1.134   4.427  11.846
  860TMC3    C712814   1.158   4.667  11.989
  860TMC3    C812815   1.047   4.224  11.969
  860TMC3    O112816   1.191   4.755  12.064
  860TMC3    O212817   0.956   4.286  11.916
  861TMC3    C112818   0.507   1.243  12.440
  861TMC3    C212819   0.568   1.260  12.564
  861TMC3    C312820   0.525   1.359  12.651
  861TMC3    C412821   0.410   1.338  12.406
  861TMC3    C512822   0.372   1.434  12.496
  861TMC3    C612823   0.424   1.449  12.620
  861TMC3     C12824   0.489   1.112  12.385
  861TMC3     O12825   0.487   1.015  12.458
  861TMC3     H12826   0.610   1.169  12.607
  861TMC3    H112827   0.361   1.314  12.311
  861TMC3    H212828   0.382   1.521  12.689
  861TMC3    C712829   0.249   1.499  12.461
  861TMC3    C812830   0.578   1.343  12.790
  861TMC3    O112831   0.221   1.488  12.341
  861TMC3    O212832   0.498   1.350  12.885
  862TMC3    C112833   3.686   4.043  10.290
  862TMC3    C212834   3.707   3.921  10.238
  862TMC3    C312835   3.810   3.847  10.283
  862TMC3    C412836   3.775   4.107  10.363
  862TMC3    C512837   3.887   4.038  10.400
  862TMC3    C612838   3.905   3.905  10.359
  862TMC3     C12839   3.548   4.083  10.304
  862TMC3     O12840   3.525   4.170  10.390
  862TMC3     H12841   3.627   3.871  10.184
  862TMC3    H112842   3.742   4.203  10.402
  862TMC3    H212843   3.987   3.846  10.399
  862TMC3    C712844   4.017   4.104  10.405
  862TMC3    C812845   3.831   3.723  10.216
  862TMC3    O112846   4.111   4.039  10.446
  862TMC3    O212847   3.737   3.682  10.148
  863TMC3    C112848   0.078   1.151  10.125
  863TMC3    C212849   4.785   1.178  10.019
  863TMC3    C312850   4.745   1.308   9.995
  863TMC3    C412851   0.127   1.253  10.204
  863TMC3    C512852   0.085   1.383  10.179
  863TMC3    C612853   0.009   1.409  10.067
  863TMC3     C12854   0.075   1.019  10.182
  863TMC3     O12855   0.161   0.996  10.267
  863TMC3     H12856   4.767   1.093   9.953
  863TMC3    H112857   0.203   1.230  10.278
  863TMC3    H212858   4.754   1.507  10.045
  863TMC3    C712859   0.156   1.491  10.252
  863TMC3    C812860   4.597   1.320   9.983
  863TMC3    O112861   0.268   1.458  10.291
  863TMC3    O212862   4.539   1.416  10.032
  864TMC3    C112863   0.342   0.563   7.484
  864TMC3    C212864   0.232   0.547   7.569
  864TMC3    C312865   0.208   0.426   7.630
  864TMC3    C412866   0.427   0.458   7.474
  864TMC3    C512867   0.399   0.334   7.528
  864TMC3    C612868   0.289   0.320   7.608
  864TMC3     C12869   0.413   0.680   7.502
  864TMC3     O12870   0.523   0.677   7.552
  864TMC3     H12871   0.170   0.632   7.596
  864TMC3    H112872   0.523   0.470   7.425
  864TMC3    H212873   0.268   0.231   7.665
  864TMC3    C712874   0.460   0.212   7.471
  864TMC3    C812875   0.089   0.399   7.704
  864TMC3    O112876   0.424   0.108   7.520
  864TMC3    O212877   0.038   0.291   7.674
  865TMC3    C112878   3.987   1.138  12.096
  865TMC3    C212879   4.118   1.102  12.134
  865TMC3    C312880   4.173   1.179  12.233
  865TMC3    C412881   3.918   1.242  12.161
  865TMC3    C512882   3.975   1.305  12.269
  865TMC3    C612883   4.107   1.279  12.305
  865TMC3     C12884   3.908   1.056  12.010
  865TMC3     O12885   3.955   0.946  11.975
  865TMC3     H12886   4.161   1.015  12.084
  865TMC3    H112887   3.815   1.265  12.140
  865TMC3    H212888   4.159   1.333  12.384
  865TMC3    C712889   3.897   1.367  12.379
  865TMC3    C812890   4.289   1.122  12.302
  865TMC3    O112891   3.957   1.464  12.426
  865TMC3    O212892   4.389   1.112  12.232
  866TMC3    C112893   3.745   2.824  14.199
  866TMC3    C212894   3.776   2.861  14.328
  866TMC3    C312895   3.733   2.989  14.365
  866TMC3    C412896   3.668   2.897  14.114
  866TMC3    C512897   3.631   3.020  14.153
  866TMC3    C612898   3.673   3.074  14.276
  866TMC3     C12899   3.810   2.701  14.158
  866TMC3     O12900   3.753   2.638  14.069
  866TMC3     H12901   3.826   2.789  14.392
  866TMC3    H112902   3.654   2.873  14.009
  866TMC3    H212903   3.651   3.177  14.297
  866TMC3    C712904   3.586   3.119  14.052
  866TMC3    C812905   3.793   3.051  14.483
  866TMC3    O112906   3.604   3.237  14.073
  866TMC3    O212907   3.886   2.992  14.534
  867TMC3    C112908   2.890   2.987  11.131
  867TMC3    C212909   2.936   2.872  11.192
  867TMC3    C312910   3.044   2.881  11.279
  867TMC3    C412911   2.950   3.104  11.160
  867TMC3    C512912   3.055   3.110  11.256
  867TMC3    C612913   3.102   3.002  11.317
  867TMC3     C12914   2.798   2.982  11.023
  867TMC3     O12915   2.824   3.067  10.933
  867TMC3     H12916   2.881   2.783  11.165
  867TMC3    H112917   2.912   3.198  11.121
  867TMC3    H212918   3.191   3.001  11.379
  867TMC3    C712919   3.136   3.228  11.262
  867TMC3    C812920   3.051   2.775  11.371
  867TMC3    O112921   3.212   3.241  11.360
  867TMC3    O212922   2.939   2.759  11.419
  868TMC3    C112923   1.301   1.056  12.767
  868TMC3    C212924   1.374   1.150  12.696
  868TMC3    C312925   1.505   1.169  12.731
  868TMC3    C412926   1.358   0.991  12.876
  868TMC3    C512927   1.491   1.012  12.902
  868TMC3    C612928   1.575   1.096  12.824
  868TMC3     C12929   1.160   1.069  12.765
  868TMC3     O12930   1.108   1.113  12.664
  868TMC3     H12931   1.328   1.199  12.611
  868TMC3    H112932   1.312   0.909  12.930
  868TMC3    H212933   1.684   1.100  12.827
  868TMC3    C712934   1.539   0.959  13.031
  868TMC3    C812935   1.570   1.285  12.669
  868TMC3    O112936   1.458   0.896  13.100
  868TMC3    O212937   1.684   1.295  12.711
  869TMC3    C112938   4.346   1.683  11.568
  869TMC3    C212939   4.238   1.712  11.491
  869TMC3    C312940   4.163   1.826  11.516
  869TMC3    C412941   4.399   1.775  11.654
  869TMC3    C512942   4.338   1.900  11.658
  869TMC3    C612943   4.209   1.925  11.600
  869TMC3     C12944   4.423   1.565  11.536
  869TMC3     O12945   4.540   1.559  11.579
  869TMC3     H12946   4.195   1.644  11.420
  869TMC3    H112947   4.498   1.760  11.696
  869TMC3    H212948   4.154   2.015  11.627
  869TMC3    C712949   4.399   2.014  11.725
  869TMC3    C812950   4.024   1.825  11.471
  869TMC3    O112951   4.329   2.088  11.789
  869TMC3    O212952   3.981   1.723  11.420
  870TMC3    C112953   4.151   4.289  13.096
  870TMC3    C212954   4.252   4.225  13.031
  870TMC3    C312955   4.316   4.284  12.935
  870TMC3    C412956   4.126   4.419  13.067
  870TMC3    C512957   4.206   4.484  12.983
  870TMC3    C612958   4.300   4.416  12.905
  870TMC3     C12959   4.038   4.205  13.137
  870TMC3     O12960   3.949   4.241  13.213
  870TMC3     H12961   4.283   4.129  13.070
  870TMC3    H112962   4.039   4.473  13.103
  870TMC3    H212963   4.369   4.467  12.840
  870TMC3    C712964   4.169   4.615  12.934
  870TMC3    C812965   4.399   4.199  12.862
  870TMC3    O112966   4.172   4.635  12.812
  870TMC3    O212967   4.418   4.084  12.901
  871TMC3    C112968   3.498   0.903  13.987
  871TMC3    C212969   3.540   0.820  14.086
  871TMC3    C312970   3.678   0.792  14.081
  871TMC3    C412971   3.578   0.971  13.901
  871TMC3    C512972   3.706   0.931  13.893
  871TMC3    C612973   3.753   0.837  13.977
  871TMC3     C12974   3.373   0.969  14.021
  871TMC3     O12975   3.283   0.883  14.011
  871TMC3     H12976   3.470   0.775  14.154
  871TMC3    H112977   3.532   1.052  13.846
  871TMC3    H212978   3.855   0.803  13.982
  871TMC3    C712979   3.804   1.020  13.829
  871TMC3    C812980   3.745   0.717  14.184
  871TMC3    O112981   3.756   1.119  13.780
  871TMC3    O212982   3.852   0.662  14.167
  872TMC3    C112983   0.428   4.531  12.343
  872TMC3    C212984   0.489   4.541  12.465
  872TMC3    C312985   0.547   4.425  12.514
  872TMC3    C412986   0.432   4.417  12.270
  872TMC3    C512987   0.478   4.304  12.321
  872TMC3    C612988   0.527   4.303  12.449
  872TMC3     C12989   0.411   4.658  12.271
  872TMC3     O12990   0.441   4.663  12.153
  872TMC3     H12991   0.515   4.631  12.520
  872TMC3    H112992   0.413   4.415  12.163
  872TMC3    H212993   0.597   4.225  12.479
  872TMC3    C712994   0.574   4.248  12.227
  872TMC3    C812995   0.691   4.441  12.538
  872TMC3    O112996   0.606   4.321  12.130
  872TMC3    O212997   0.752   4.513  12.457
  873TMC3    C112998   0.163   3.033  11.617
  873TMC3    C212999   0.291   2.991  11.624
  873TMC3    C313000   0.313   2.858  11.586
  873TMC3    C413001   0.064   2.954  11.556
  873TMC3    C513002   0.091   2.825  11.517
  873TMC3    C613003   0.216   2.775  11.532
  873TMC3     C13004   0.142   3.176  11.591
  873TMC3     O13005   0.026   3.206  11.613
  873TMC3     H13006   0.373   3.048  11.668
  873TMC3    H113007   4.752   2.994  11.539
  873TMC3    H213008   0.248   2.677  11.496
  873TMC3    C713009   0.005   2.762  11.424
  873TMC3    C813010   0.427   2.783  11.626
  873TMC3    O113011   0.056   2.662  11.379
  873TMC3    O213012   0.403   2.668  11.653
  874TMC3    C113013   1.658   2.459   6.922
  874TMC3    C213014   1.788   2.419   6.910
  874TMC3    C313015   1.843   2.394   6.787
  874TMC3    C413016   1.582   2.463   6.818
  874TMC3    C513017   1.632   2.429   6.695
  874TMC3    C613018   1.759   2.393   6.678
  874TMC3     C13019   1.604   2.433   7.058
  874TMC3     O13020   1.666   2.465   7.159
  874TMC3     H13021   1.849   2.419   7.000
  874TMC3    H113022   1.483   2.507   6.828
  874TMC3    H213023   1.798   2.362   6.582
  874TMC3    C713024   1.539   2.368   6.614
  874TMC3    C813025   1.945   2.297   6.781
  874TMC3    O113026   1.428   2.368   6.660
  874TMC3    O213027   1.999   2.279   6.668
  875TMC3    C113028   2.314   3.996   9.592
  875TMC3    C213029   2.420   4.050   9.517
  875TMC3    C313030   2.452   4.003   9.395
  875TMC3    C413031   2.273   3.871   9.544
  875TMC3    C513032   2.316   3.817   9.424
  875TMC3    C613033   2.399   3.892   9.349
  875TMC3     C13034   2.199   4.082   9.611
  875TMC3     O13035   2.221   4.203   9.617
  875TMC3     H13036   2.472   4.135   9.559
  875TMC3    H113037   2.206   3.820   9.613
  875TMC3    H213038   2.425   3.858   9.250
  875TMC3    C713039   2.302   3.679   9.397
  875TMC3    C813040   2.467   4.108   9.296
  875TMC3    O113041   2.365   3.630   9.302
  875TMC3    O213042   2.504   4.077   9.180
  876TMC3    C113043   0.875   2.579  13.359
  876TMC3    C213044   0.854   2.673  13.256
  876TMC3    C313045   0.798   2.636  13.137
  876TMC3    C413046   0.831   2.450  13.337
  876TMC3    C513047   0.787   2.411  13.211
  876TMC3    C613048   0.762   2.509  13.114
  876TMC3     C13049   0.999   2.605  13.428
  876TMC3     O13050   1.080   2.661  13.357
  876TMC3     H13051   0.882   2.774  13.281
  876TMC3    H113052   0.847   2.380  13.419
  876TMC3    H213053   0.739   2.485  13.011
  876TMC3    C713054   0.714   2.285  13.204
  876TMC3    C813055   0.873   2.689  13.026
  876TMC3    O113056   0.630   2.285  13.293
  876TMC3    O213057   0.815   2.685  12.920
  877TMC3    C113058   1.886   2.936   6.936
  877TMC3    C213059   1.893   3.075   6.910
  877TMC3    C313060   1.782   3.143   6.866
  877TMC3    C413061   1.771   2.866   6.923
  877TMC3    C513062   1.669   2.933   6.863
  877TMC3    C613063   1.672   3.070   6.833
  877TMC3     C13064   2.004   2.860   6.906
  877TMC3     O13065   2.071   2.917   6.821
  877TMC3     H13066   1.991   3.121   6.919
  877TMC3    H113067   1.767   2.758   6.931
  877TMC3    H213068   1.575   3.108   6.805
  877TMC3    C713069   1.551   2.848   6.866
  877TMC3    C813070   1.796   3.286   6.842
  877TMC3    O113071   1.555   2.761   6.954
  877TMC3    O213072   1.911   3.326   6.851
  878TMC3    C113073   0.424   1.856  11.411
  878TMC3    C213074   0.423   1.927  11.527
  878TMC3    C313075   0.455   1.871  11.644
  878TMC3    C413076   0.489   1.737  11.408
  878TMC3    C513077   0.538   1.689  11.529
  878TMC3    C613078   0.515   1.752  11.647
  878TMC3     C13079   0.358   1.908  11.296
  878TMC3     O13080   0.296   2.010  11.317
  878TMC3     H13081   0.381   2.027  11.531
  878TMC3    H113082   0.498   1.678  11.317
  878TMC3    H213083   0.570   1.704  11.727
  878TMC3    C713084   0.616   1.571  11.541
  878TMC3    C813085   0.447   1.947  11.763
  878TMC3    O113086   0.688   1.542  11.443
  878TMC3    O213087   0.437   2.069  11.758
  879TMC3    C113088   4.646   4.612  12.350
  879TMC3    C213089   4.736   4.512  12.311
  879TMC3    C313090   4.728   4.455  12.187
  879TMC3    C413091   4.550   4.652  12.261
  879TMC3    C513092   4.532   4.586  12.146
  879TMC3    C613093   4.627   4.493  12.103
  879TMC3     C13094   4.633   4.654  12.487
  879TMC3     O13095   4.582   4.760  12.510
  879TMC3     H13096   0.035   4.492  12.374
  879TMC3    H113097   4.483   4.730  12.294
  879TMC3    H213098   4.630   4.459  12.000
  879TMC3    C713099   4.444   4.629  12.040
  879TMC3    C813100   0.026   4.341  12.163
  879TMC3    O113101   4.477   4.636  11.922
  879TMC3    O213102   0.126   4.334  12.232
  880TMC3    C113103   3.314   0.488   8.876
  880TMC3    C213104   3.441   0.528   8.846
  880TMC3    C313105   3.540   0.505   8.937
  880TMC3    C413106   3.279   0.427   8.992
  880TMC3    C513107   3.385   0.390   9.079
  880TMC3    C613108   3.517   0.436   9.051
  880TMC3     C13109   3.228   0.598   8.840
  880TMC3     O13110   3.285   0.702   8.811
  880TMC3     H13111   3.463   0.569   8.749
  880TMC3    H113112   3.179   0.385   9.002
  880TMC3    H213113   3.600   0.423   9.120
  880TMC3    C713114   3.345   0.332   9.204
  880TMC3    C813115   3.631   0.620   8.944
  880TMC3    O113116   3.236   0.277   9.210
  880TMC3    O213117   3.734   0.605   9.009
  881TMC3    C113118   1.478   2.919  10.066
  881TMC3    C213119   1.389   2.836  10.000
  881TMC3    C313120   1.290   2.883   9.930
  881TMC3    C413121   1.472   3.052  10.060
  881TMC3    C513122   1.369   3.104   9.995
  881TMC3    C613123   1.280   3.018   9.934
  881TMC3     C13124   1.609   2.869  10.095
  881TMC3     O13125   1.683   2.948  10.156
  881TMC3     H13126   1.390   2.728   9.988
  881TMC3    H113127   1.541   3.121  10.107
  881TMC3    H213128   1.195   3.057   9.878
  881TMC3    C713129   1.399   3.223   9.926
  881TMC3    C813130   1.317   2.845   9.797
  881TMC3    O113131   1.437   3.215   9.809
  881TMC3    O213132   1.291   2.727   9.773
  882TMC3    C113133   0.687   0.360   7.764
  882TMC3    C213134   0.729   0.455   7.676
  882TMC3    C313135   0.790   0.412   7.566
  882TMC3    C413136   0.726   0.227   7.755
  882TMC3    C513137   0.787   0.184   7.640
  882TMC3    C613138   0.818   0.279   7.550
  882TMC3     C13139   0.619   0.411   7.881
  882TMC3     O13140   0.644   0.528   7.921
  882TMC3     H13141   0.721   0.560   7.704
  882TMC3    H113142   0.723   0.165   7.844
  882TMC3    H213143   0.873   0.244   7.463
  882TMC3    C713144   0.894   0.088   7.653
  882TMC3    C813145   0.889   0.499   7.520
  882TMC3    O113146   0.875   4.772   7.711
  882TMC3    O213147   1.001   0.456   7.502
  883TMC3    C113148   3.420   4.456  13.005
  883TMC3    C213149   3.419   4.567  12.920
  883TMC3    C313150   3.455   4.552  12.788
  883TMC3    C413151   3.460   4.335  12.971
  883TMC3    C513152   3.496   4.325  12.839
  883TMC3    C613153   3.493   4.428  12.743
  883TMC3     C13154   3.364   4.471  13.136
  883TMC3     O13155   3.292   4.379  13.165
  883TMC3     H13156   3.381   4.664  12.950
  883TMC3    H113157   3.456   4.249  13.038
  883TMC3    H213158   3.497   4.408  12.637
  883TMC3    C713159   3.522   4.194  12.785
  883TMC3    C813160   3.370   4.612  12.694
  883TMC3    O113161   3.547   4.191  12.663
  883TMC3    O213162   3.260   4.640  12.734
  884TMC3    C113163   4.685   0.195  12.006
  884TMC3    C213164   4.622   0.228  12.126
  884TMC3    C313165   4.517   0.320  12.113
  884TMC3    C413166   4.654   0.256  11.886
  884TMC3    C513167   4.547   0.336  11.875
  884TMC3    C613168   4.475   0.365  11.988
  884TMC3     C13169   4.767   0.075  12.019
  884TMC3     O13170   0.051   0.067  12.118
  884TMC3     H13171   4.646   0.178  12.219
  884TMC3    H113172   4.703   0.225  11.794
  884TMC3    H213173   4.402   0.444  11.992
  884TMC3    C713174   4.477   0.363  11.751
  884TMC3    C813175   4.407   0.289  12.212
  884TMC3    O113176   4.552   0.357  11.656
  884TMC3    O213177   4.297   0.268  12.165
  885TMC3    C113178   3.551   4.192  11.464
  885TMC3    C213179   3.686   4.197  11.463
  885TMC3    C313180   3.751   4.294  11.389
  885TMC3    C413181   3.481   4.259  11.376
  885TMC3    C513182   3.551   4.347  11.296
  885TMC3    C613183   3.683   4.376  11.307
  885TMC3     C13184   3.488   4.071  11.517
  885TMC3     O13185   3.386   4.035  11.461
  885TMC3     H13186   3.745   4.122  11.516
  885TMC3    H113187   3.373   4.254  11.383
  885TMC3    H213188   3.723   4.465  11.259
  885TMC3    C713189   3.478   4.447  11.226
  885TMC3    C813190   3.884   4.335  11.426
  885TMC3    O113191   3.365   4.475  11.268
  885TMC3    O213192   3.919   4.441  11.372
  886TMC3    C113193   0.061   4.118  11.340
  886TMC3    C213194   0.067   4.216  11.439
  886TMC3    C313195   4.758   4.314  11.440
  886TMC3    C413196   4.742   4.114  11.248
  886TMC3    C513197   4.653   4.219  11.251
  886TMC3    C613198   4.662   4.319  11.346
  886TMC3     C13199   0.188   4.076  11.286
  886TMC3     O13200   0.180   3.985  11.205
  886TMC3     H13201   0.140   4.201  11.518
  886TMC3    H113202   4.732   4.021  11.192
  886TMC3    H213203   4.580   4.389  11.358
  886TMC3    C713204   4.541   4.231  11.153
  886TMC3    C813205   4.750   4.418  11.538
  886TMC3    O113206   4.453   4.312  11.178
  886TMC3    O213207   4.671   4.507  11.527
  887TMC3    C113208   3.170   3.858   9.082
  887TMC3    C213209   3.247   3.851   8.977
  887TMC3    C313210   3.204   3.911   8.856
  887TMC3    C413211   3.045   3.915   9.064
  887TMC3    C513212   3.000   3.973   8.952
  887TMC3    C613213   3.086   3.969   8.838
  887TMC3     C13214   3.174   3.753   9.187
  887TMC3     O13215   3.066   3.723   9.236
  887TMC3     H13216   3.353   3.831   8.982
  887TMC3    H113217   2.978   3.930   9.148
  887TMC3    H213218   3.048   3.998   8.740
  887TMC3    C713219   2.856   3.975   8.941
  887TMC3    C813220   3.297   3.920   8.741
  887TMC3    O113221   2.789   3.992   9.039
  887TMC3    O213222   3.395   3.850   8.742
  888TMC3    C113223   3.239   2.622  13.285
  888TMC3    C213224   3.110   2.593  13.245
  888TMC3    C313225   3.076   2.463  13.236
  888TMC3    C413226   3.325   2.533  13.332
  888TMC3    C513227   3.283   2.405  13.345
  888TMC3    C613228   3.162   2.365  13.280
  888TMC3     C13229   3.287   2.757  13.270
  888TMC3     O13230   3.406   2.778  13.278
  888TMC3     H13231   3.051   2.672  13.199
  888TMC3    H113232   3.412   2.574  13.381
  888TMC3    H213233   3.131   2.262  13.280
  888TMC3    C713234   3.355   2.323  13.449
  888TMC3    C813235   2.935   2.426  13.215
  888TMC3    O113236   3.447   2.384  13.510
  888TMC3    O213237   2.906   2.314  13.169
  889TMC3    C113238   0.587   0.695  13.982
  889TMC3    C213239   0.699   0.773  14.012
  889TMC3    C313240   0.687   0.858  14.121
  889TMC3    C413241   0.472   0.691  14.062
  889TMC3    C513242   0.472   0.778  14.170
  889TMC3    C613243   0.570   0.866  14.194
  889TMC3     C13244   0.597   0.617  13.858
  889TMC3     O13245   0.533   0.515  13.858
  889TMC3     H13246   0.790   0.771  13.954
  889TMC3    H113247   0.390   0.626  14.032
  889TMC3    H213248   0.575   0.919  14.289
  889TMC3    C713249   0.367   0.760  14.276
  889TMC3    C813250   0.801   0.947  14.139
  889TMC3    O113251   0.335   0.861  14.337
  889TMC3    O213252   0.886   0.946  14.048
  890TMC3    C113253   0.178   1.472   7.412
  890TMC3    C213254   0.196   1.603   7.452
  890TMC3    C313255   0.193   1.702   7.362
  890TMC3    C413256   0.141   1.440   7.275
  890TMC3    C513257   0.154   1.549   7.187
  890TMC3    C613258   0.182   1.678   7.229
  890TMC3     C13259   0.209   1.371   7.505
  890TMC3     O13260   0.224   1.406   7.623
  890TMC3     H13261   0.223   1.626   7.555
  890TMC3    H113262   0.111   1.343   7.236
  890TMC3    H213263   0.185   1.759   7.157
  890TMC3    C713264   0.148   1.535   7.048
  890TMC3    C813265   0.280   1.812   7.389
  890TMC3    O113266   0.075   1.619   6.998
  890TMC3    O213267   0.267   1.862   7.500
  891TMC3    C113268   2.085   1.156  11.302
  891TMC3    C213269   2.067   1.282  11.278
  891TMC3    C313270   2.122   1.366  11.367
  891TMC3    C413271   2.173   1.110  11.393
  891TMC3    C513272   2.237   1.199  11.477
  891TMC3    C613273   2.214   1.333  11.465
  891TMC3     C13274   1.969   1.070  11.276
  891TMC3     O13275   1.862   1.133  11.275
  891TMC3     H13276   1.990   1.322  11.213
  891TMC3    H113277   2.186   1.003  11.406
  891TMC3    H213278   2.257   1.394  11.544
  891TMC3    C713279   2.349   1.160  11.551
  891TMC3    C813280   2.114   1.508  11.339
  891TMC3    O113281   2.454   1.224  11.545
  891TMC3    O213282   2.123   1.592  11.432
  892TMC3    C113283   0.216   1.212  11.021
  892TMC3    C213284   0.111   1.293  11.041
  892TMC3    C313285   0.125   1.433  11.018
  892TMC3    C413286   0.330   1.259  10.971
  892TMC3    C513287   0.335   1.392  10.941
  892TMC3    C613288   0.234   1.479  10.956
  892TMC3     C13289   0.203   1.078  11.090
  892TMC3     O13290   0.093   1.036  11.129
  892TMC3     H13291   0.022   1.247  11.081
  892TMC3    H113292   0.420   1.199  10.961
  892TMC3    H213293   0.249   1.582  10.925
  892TMC3    C713294   0.459   1.447  10.901
  892TMC3    C813295   0.004   1.505  10.994
  892TMC3    O113296   0.488   1.558  10.943
  892TMC3    O213297   0.011   1.577  10.892
  893TMC3    C113298   3.456   3.402  10.159
  893TMC3    C213299   3.445   3.296  10.244
  893TMC3    C313300   3.392   3.314  10.368
  893TMC3    C413301   3.396   3.521  10.186
  893TMC3    C513302   3.331   3.531  10.306
  893TMC3    C613303   3.330   3.434  10.400
  893TMC3     C13304   3.511   3.372  10.031
  893TMC3     O13305   3.472   3.267   9.978
  893TMC3     H13306   3.485   3.200  10.215
  893TMC3    H113307   3.404   3.604  10.117
  893TMC3    H213308   3.300   3.455  10.502
  893TMC3    C713309   3.310   3.663  10.361
  893TMC3    C813310   3.441   3.231  10.478
  893TMC3    O113311   3.407   3.734  10.359
  893TMC3    O213312   3.546   3.174  10.463
  894TMC3    C113313   3.019   4.497  14.564
  894TMC3    C213314   3.063   4.366  14.550
  894TMC3    C313315   3.044   4.315  14.428
  894TMC3    C413316   2.954   4.568  14.461
  894TMC3    C513317   2.942   4.507  14.339
  894TMC3    C613318   2.981   4.376  14.316
  894TMC3     C13319   2.991   4.547  14.696
  894TMC3     O13320   2.900   4.618  14.728
  894TMC3     H13321   3.074   4.303  14.637
  894TMC3    H113322   2.931   4.673  14.476
  894TMC3    H213323   2.937   4.322  14.233
  894TMC3    C713324   2.912   4.586  14.221
  894TMC3    C813325   3.057   4.170  14.422
  894TMC3    O113326   2.959   4.541  14.117
  894TMC3    O213327   2.972   4.118  14.348
  895TMC3    C113328   3.176   3.388  13.798
  895TMC3    C213329   3.145   3.283  13.874
  895TMC3    C313330   3.194   3.271  14.001
  895TMC3    C413331   3.287   3.469  13.830
  895TMC3    C513332   3.329   3.465  13.960
  895TMC3    C613333   3.279   3.368  14.052
  895TMC3     C13334   3.146   3.371  13.656
  895TMC3     O13335   3.139   3.253  13.622
  895TMC3     H13336   3.054   3.230  13.846
  895TMC3    H113337   3.303   3.555  13.765
  895TMC3    H213338   3.327   3.347  14.146
  895TMC3    C713339   3.346   3.590  14.023
  895TMC3    C813340   3.131   3.167  14.085
  895TMC3    O113341   3.356   3.582  14.144
  895TMC3    O213342   3.084   3.066  14.035
  896TMC3    C113343   2.024   2.336   8.780
  896TMC3    C213344   1.958   2.272   8.881
  896TMC3    C313345   1.868   2.342   8.956
  896TMC3    C413346   2.008   2.470   8.755
  896TMC3    C513347   1.911   2.542   8.824
  896TMC3    C613348   1.840   2.480   8.922
  896TMC3     C13349   2.088   2.262   8.675
  896TMC3     O13350   2.194   2.312   8.639
  896TMC3     H13351   1.960   2.164   8.887
  896TMC3    H113352   2.075   2.509   8.680
  896TMC3    H213353   1.759   2.534   8.969
  896TMC3    C713354   1.837   2.642   8.750
  896TMC3    C813355   1.777   2.259   9.032
  896TMC3    O113356   1.727   2.673   8.789
  896TMC3    O213357   1.730   2.154   8.984
  897TMC3    C113358   2.637   2.087  14.756
  897TMC3    C213359   2.607   2.203  14.692
  897TMC3    C313360   2.713   2.286  14.676
  897TMC3    C413361   2.752   2.073  14.830
  897TMC3    C513362   2.851   2.166  14.825
  897TMC3    C613363   2.827   2.280  14.754
  897TMC3     C13364   2.527   2.006  14.812
  897TMC3     O13365   2.541   1.929  14.902
  897TMC3     H13366   2.521   2.230  14.633
  897TMC3    H113367   2.777   1.971  14.855
  897TMC3    H213368   2.909   2.351  14.753
  897TMC3    C713369   2.978   2.133  14.770
  897TMC3    C813370   2.705   2.385  14.571
  897TMC3    O113371   3.015   2.185  14.666
  897TMC3    O213372   2.605   2.400  14.502
  898TMC3    C113373   2.756   0.212   9.706
  898TMC3    C213374   2.887   0.235   9.721
  898TMC3    C313375   2.958   0.153   9.798
  898TMC3    C413376   2.702   0.097   9.760
  898TMC3    C513377   2.777   0.017   9.836
  898TMC3    C613378   2.913   0.037   9.847
  898TMC3     C13379   2.676   0.327   9.743
  898TMC3     O13380   2.575   0.295   9.805
  898TMC3     H13381   2.931   0.312   9.659
  898TMC3    H113382   2.596   0.076   9.753
  898TMC3    H213383   2.975   4.758   9.907
  898TMC3    C713384   2.716   0.001   9.967
  898TMC3    C813385   3.107   0.150   9.784
  898TMC3    O113386   2.771   4.716  10.048
  898TMC3    O213387   3.172   0.120   9.886
  899TMC3    C113388   0.800   2.882   8.402
  899TMC3    C213389   0.677   2.846   8.353
  899TMC3    C313390   0.624   2.726   8.394
  899TMC3    C413391   0.878   2.811   8.482
  899TMC3    C513392   0.819   2.696   8.534
  899TMC3    C613393   0.700   2.645   8.486
  899TMC3     C13394   0.853   3.012   8.354
  899TMC3     O13395   0.801   3.112   8.401
  899TMC3     H13396   0.613   2.914   8.297
  899TMC3    H113397   0.969   2.854   8.522
  899TMC3    H213398   0.661   2.547   8.511
  899TMC3    C713399   0.840   2.691   8.675
  899TMC3    C813400   0.483   2.732   8.423
  899TMC3    O113401   0.914   2.767   8.734
  899TMC3    O213402   0.447   2.834   8.484
  900TMC3    C113403   3.387   1.496  12.030
  900TMC3    C213404   3.423   1.621  11.971
  900TMC3    C313405   3.434   1.625  11.835
  900TMC3    C413406   3.387   1.383  11.953
  900TMC3    C513407   3.405   1.403  11.819
  900TMC3    C613408   3.422   1.515  11.758
  900TMC3     C13409   3.381   1.477  12.175
  900TMC3     O13410   3.438   1.380  12.221
  900TMC3     H13411   3.417   1.713  12.028
  900TMC3    H113412   3.358   1.287  11.995
  900TMC3    H213413   3.432   1.522  11.650
  900TMC3    C713414   3.369   1.298  11.722
  900TMC3    C813415   3.419   1.751  11.774
  900TMC3    O113416   3.294   1.337  11.634
  900TMC3    O213417   3.338   1.753  11.680
  901TMC3    C113418   0.316   1.103  11.480
  901TMC3    C213419   0.185   1.110  11.447
  901TMC3    C313420   0.103   1.040  11.520
  901TMC3    C413421   0.370   1.016  11.576
  901TMC3    C513422   0.276   0.948  11.649
  901TMC3    C613423   0.144   0.961  11.623
  901TMC3     C13424   0.416   1.198  11.420
  901TMC3     O13425   0.517   1.130  11.391
  901TMC3     H13426   0.157   1.180  11.369
  901TMC3    H113427   0.468   1.049  11.609
  901TMC3    H213428   0.069   0.919  11.690
  901TMC3    C713429   0.310   0.954  11.785
  901TMC3    C813430   4.754   1.042  11.493
  901TMC3    O113431   0.225   1.018  11.846
  901TMC3    O213432   4.688   0.946  11.530
  902TMC3    C113433   3.723   0.171  13.938
  902TMC3    C213434   3.679   0.247  14.039
  902TMC3    C313435   3.556   0.308  14.008
  902TMC3    C413436   3.651   0.148  13.821
  902TMC3    C513437   3.538   0.218  13.794
  902TMC3    C613438   3.490   0.302  13.885
  902TMC3     C13439   3.856   0.113  13.964
  902TMC3     O13440   3.896   0.097  14.080
  902TMC3     H13441   3.720   0.238  14.138
  902TMC3    H113442   3.694   0.086  13.743
  902TMC3    H213443   3.395   0.349  13.866
  902TMC3    C713444   3.436   0.143  13.718
  902TMC3    C813445   3.492   0.387  14.123
  902TMC3    O113446   3.321   0.163  13.756
  902TMC3    O213447   3.511   0.344  14.237
  903TMC3    C113448   1.450   2.349  12.258
  903TMC3    C213449   1.378   2.339  12.142
  903TMC3    C313450   1.250   2.287  12.145
  903TMC3    C413451   1.392   2.324  12.381
  903TMC3    C513452   1.260   2.284  12.384
  903TMC3    C613453   1.192   2.255  12.268
  903TMC3     C13454   1.591   2.310  12.246
  903TMC3     O13455   1.642   2.320  12.353
  903TMC3     H13456   1.405   2.398  12.055
  903TMC3    H113457   1.442   2.315  12.477
  903TMC3    H213458   1.091   2.217  12.282
  903TMC3    C713459   1.239   2.207  12.506
  903TMC3    C813460   1.186   2.276  12.019
  903TMC3    O113461   1.270   2.253  12.614
  903TMC3    O213462   1.251   2.280  11.914
  904TMC3    C113463   2.765   3.275  12.105
  904TMC3    C213464   2.881   3.289  12.174
  904TMC3    C313465   2.943   3.178  12.215
  904TMC3    C413466   2.707   3.149  12.087
  904TMC3    C513467   2.782   3.038  12.117
  904TMC3    C613468   2.906   3.056  12.165
  904TMC3     C13469   2.669   3.382  12.133
  904TMC3     O13470   2.555   3.350  12.160
  904TMC3     H13471   2.920   3.389  12.193
  904TMC3    H113472   2.612   3.136  12.037
  904TMC3    H213473   2.958   2.968  12.201
  904TMC3    C713474   2.722   2.913  12.081
  904TMC3    C813475   3.078   3.188  12.259
  904TMC3    O113476   2.646   2.902  11.990
  904TMC3    O213477   3.158   3.105  12.215
  905TMC3    C113478   2.133   0.643   7.623
  905TMC3    C213479   2.007   0.649   7.671
  905TMC3    C313480   1.927   0.532   7.652
  905TMC3    C413481   2.174   0.540   7.543
  905TMC3    C513482   2.084   0.438   7.521
  905TMC3    C613483   1.960   0.427   7.575
  905TMC3     C13484   2.245   0.726   7.679
  905TMC3     O13485   2.356   0.682   7.654
  905TMC3     H13486   1.979   0.716   7.751
  905TMC3    H113487   2.277   0.539   7.509
  905TMC3    H213488   1.894   0.341   7.571
  905TMC3    C713489   2.136   0.324   7.440
  905TMC3    C813490   1.857   0.482   7.767
  905TMC3    O113491   2.254   0.300   7.467
  905TMC3    O213492   1.916   0.500   7.875
  906TMC3    C113493   2.748   3.129  10.516
  906TMC3    C213494   2.625   3.116  10.456
  906TMC3    C313495   2.527   3.210  10.468
  906TMC3    C413496   2.774   3.229  10.604
  906TMC3    C513497   2.672   3.313  10.627
  906TMC3    C613498   2.546   3.304  10.563
  906TMC3     C13499   2.817   3.001  10.540
  906TMC3     O13500   2.744   2.902  10.529
  906TMC3     H13501   2.603   3.034  10.388
  906TMC3    H113502   2.874   3.256  10.636
  906TMC3    H213503   2.466   3.369  10.596
  906TMC3    C713504   2.699   3.427  10.713
  906TMC3    C813505   2.514   3.285  10.337
  906TMC3    O113506   2.633   3.433  10.811
  906TMC3    O213507   2.609   3.255  10.269
  907TMC3    C113508   3.175   0.652  11.331
  907TMC3    C213509   3.234   0.749  11.249
  907TMC3    C313510   3.343   0.717  11.177
  907TMC3    C413511   3.242   0.528  11.342
  907TMC3    C513512   3.347   0.501  11.256
  907TMC3    C613513   3.402   0.594  11.181
  907TMC3     C13514   3.035   0.636  11.310
  907TMC3     O13515   2.979   0.708  11.231
  907TMC3     H13516   3.199   0.851  11.246
  907TMC3    H113517   3.204   0.454  11.412
  907TMC3    H213518   3.494   0.571  11.128
  907TMC3    C713519   3.376   0.357  11.242
  907TMC3    C813520   3.439   0.820  11.158
  907TMC3    O113521   3.441   0.306  11.333
  907TMC3    O213522   3.546   0.797  11.210
  908TMC3    C113523   3.029   3.443   9.774
  908TMC3    C213524   3.104   3.372   9.864
  908TMC3    C313525   3.030   3.324   9.965
  908TMC3    C413526   2.893   3.457   9.776
  908TMC3    C513527   2.827   3.404   9.883
  908TMC3    C613528   2.896   3.335   9.977
  908TMC3     C13529   3.089   3.477   9.653
  908TMC3     O13530   3.016   3.507   9.560
  908TMC3     H13531   3.209   3.348   9.874
  908TMC3    H113532   2.842   3.525   9.709
  908TMC3    H213533   2.850   3.286  10.062
  908TMC3    C713534   2.673   3.402   9.876
  908TMC3    C813535   3.088   3.226  10.058
  908TMC3    O113536   2.618   3.508   9.849
  908TMC3    O213537   3.047   3.222  10.174
  909TMC3    C113538   1.854   0.473  12.877
  909TMC3    C213539   1.969   0.417  12.845
  909TMC3    C313540   1.986   0.284  12.874
  909TMC3    C413541   1.749   0.416  12.945
  909TMC3    C513542   1.769   0.282  12.966
  909TMC3    C613543   1.886   0.215  12.943
  909TMC3     C13544   1.816   0.589  12.797
  909TMC3     O13545   1.700   0.608  12.778
  909TMC3     H13546   2.051   0.458  12.786
  909TMC3    H113547   1.652   0.464  12.957
  909TMC3    H213548   1.890   0.111  12.973
  909TMC3    C713549   1.664   0.223  13.052
  909TMC3    C813550   2.102   0.216  12.811
  909TMC3    O113551   1.593   0.131  13.015
  909TMC3    O213552   2.187   0.286  12.758
  910TMC3    C113553   2.259   4.681  11.446
  910TMC3    C213554   2.234   4.608  11.339
  910TMC3    C313555   2.154   4.658  11.249
  910TMC3    C413556   2.202   0.020  11.473
  910TMC3    C513557   2.107   0.054  11.386
  910TMC3    C613558   2.083   4.771  11.277
  910TMC3     C13559   2.352   4.631  11.544
  910TMC3     O13560   2.447   4.712  11.563
  910TMC3     H13561   2.278   4.508  11.335
  910TMC3    H113562   2.223   0.070  11.567
  910TMC3    H213563   2.008   0.015  11.206
  910TMC3    C713564   2.003   0.124  11.452
  910TMC3    C813565   2.095   4.566  11.151
  910TMC3    O113566   2.023   0.207  11.536
  910TMC3    O213567   2.069   4.607  11.037
  911TMC3    C113568   1.953   2.520   7.532
  911TMC3    C213569   1.972   2.524   7.668
  911TMC3    C313570   2.094   2.491   7.721
  911TMC3    C413571   2.058   2.492   7.452
  911TMC3    C513572   2.186   2.472   7.506
  911TMC3    C613573   2.205   2.461   7.642
  911TMC3     C13574   1.816   2.493   7.494
  911TMC3     O13575   1.723   2.544   7.557
  911TMC3     H13576   1.883   2.550   7.724
  911TMC3    H113577   2.046   2.506   7.346
  911TMC3    H213578   2.302   2.436   7.684
  911TMC3    C713579   2.300   2.519   7.432
  911TMC3    C813580   2.110   2.468   7.861
  911TMC3    O113581   2.279   2.604   7.349
  911TMC3    O213582   2.215   2.431   7.912
  912TMC3    C113583   4.660   4.256   9.350
  912TMC3    C213584   0.001   4.244   9.403
  912TMC3    C313585   0.022   4.257   9.538
  912TMC3    C413586   4.553   4.243   9.434
  912TMC3    C513587   4.577   4.237   9.565
  912TMC3    C613588   4.699   4.246   9.621
  912TMC3     C13589   4.645   4.366   9.265
  912TMC3     O13590   4.739   4.442   9.263
  912TMC3     H13591   0.084   4.240   9.334
  912TMC3    H113592   4.458   4.291   9.413
  912TMC3    H213593   4.703   4.236   9.728
  912TMC3    C713594   4.467   4.164   9.636
  912TMC3    C813595   0.153   4.271   9.608
  912TMC3    O113596   4.465   4.144   9.759
  912TMC3    O213597   0.134   4.299   9.724
  913TMC3    C113598   3.851   2.861  12.614
  913TMC3    C213599   3.970   2.793  12.590
  913TMC3    C313600   4.088   2.856  12.571
  913TMC3    C413601   3.848   2.999  12.609
  913TMC3    C513602   3.971   3.062  12.587
  913TMC3    C613603   4.089   2.996  12.572
  913TMC3     C13604   3.726   2.779  12.619
  913TMC3     O13605   3.746   2.664  12.586
  913TMC3     H13606   3.971   2.686  12.575
  913TMC3    H113607   3.761   3.062  12.620
  913TMC3    H213608   4.186   3.044  12.560
  913TMC3    C713609   3.977   3.208  12.601
  913TMC3    C813610   4.185   2.800  12.481
  913TMC3    O113611   3.892   3.263  12.666
  913TMC3    O213612   4.306   2.801  12.513
  914TMC3    C113613   0.323   1.723  13.927
  914TMC3    C213614   0.323   1.594  13.873
  914TMC3    C313615   0.204   1.528  13.873
  914TMC3    C413616   0.209   1.780  13.987
  914TMC3    C513617   0.098   1.705  14.005
  914TMC3    C613618   0.095   1.583  13.947
  914TMC3     C13619   0.454   1.773  13.963
  914TMC3     O13620   0.538   1.682  13.978
  914TMC3     H13621   0.406   1.544  13.823
  914TMC3    H113622   0.218   1.868  14.050
  914TMC3    H213623   0.008   1.520  13.958
  914TMC3    C713624   0.001   1.728  14.104
  914TMC3    C813625   0.191   1.393  13.825
  914TMC3    O113626   4.776   1.848  14.121
  914TMC3    O213627   0.129   1.312  13.897
  915TMC3    C113628   1.793   1.697  10.615
  915TMC3    C213629   1.785   1.732  10.480
  915TMC3    C313630   1.673   1.703  10.415
  915TMC3    C413631   1.677   1.651  10.679
  915TMC3    C513632   1.563   1.627  10.601
  915TMC3    C613633   1.559   1.653  10.473
  915TMC3     C13634   1.912   1.628  10.656
  915TMC3     O13635   2.011   1.649  10.588
  915TMC3     H13636   1.880   1.767  10.441
  915TMC3    H113637   1.670   1.620  10.782
  915TMC3    H213638   1.468   1.642  10.415
  915TMC3    C713639   1.495   1.507  10.639
  915TMC3    C813640   1.697   1.669  10.279
  915TMC3    O113641   1.562   1.440  10.719
  915TMC3    O213642   1.614   1.596  10.229
  916TMC3    C113643   2.318   2.795  13.923
  916TMC3    C213644   2.383   2.771  13.806
  916TMC3    C313645   2.519   2.754  13.804
  916TMC3    C413646   2.386   2.803  14.038
  916TMC3    C513647   2.517   2.789  14.043
  916TMC3    C613648   2.588   2.769  13.923
  916TMC3     C13649   2.185   2.860  13.915
  916TMC3     O13650   2.140   2.874  13.802
  916TMC3     H13651   2.327   2.758  13.714
  916TMC3    H113652   2.328   2.805  14.130
  916TMC3    H213653   2.691   2.736  13.926
  916TMC3    C713654   2.575   2.728  14.167
  916TMC3    C813655   2.587   2.704  13.685
  916TMC3    O113656   2.499   2.690  14.255
  916TMC3    O213657   2.709   2.726  13.683
  917TMC3    C113658   2.711   3.676  11.615
  917TMC3    C213659   2.793   3.673  11.724
  917TMC3    C313660   2.926   3.688  11.712
  917TMC3    C413661   2.766   3.693  11.492
  917TMC3    C513662   2.905   3.699  11.486
  917TMC3    C613663   2.986   3.717  11.593
  917TMC3     C13664   2.602   3.580  11.623
  917TMC3     O13665   2.515   3.578  11.533
  917TMC3     H13666   2.752   3.689  11.823
  917TMC3    H113667   2.698   3.689  11.408
  917TMC3    H213668   3.093   3.709  11.580
  917TMC3    C713669   2.955   3.723  11.360
  917TMC3    C813670   2.997   3.618  11.816
  917TMC3    O113671   3.050   3.798  11.356
  917TMC3    O213672   2.930   3.542  11.886
  918TMC3    C113673   4.056   0.448  10.037
  918TMC3    C213674   4.182   0.490  10.078
  918TMC3    C313675   4.237   0.582   9.999
  918TMC3    C413676   3.986   0.499   9.928
  918TMC3    C513677   4.056   0.589   9.848
  918TMC3    C613678   4.179   0.638   9.883
  918TMC3     C13679   4.013   0.317  10.084
  918TMC3     O13680   4.079   0.256  10.168
  918TMC3     H13681   4.236   0.425  10.147
  918TMC3    H113682   3.886   0.468   9.899
  918TMC3    H213683   4.233   0.701   9.812
  918TMC3    C713684   4.000   0.624   9.720
  918TMC3    C813685   4.368   0.634  10.028
  918TMC3    O113686   4.073   0.691   9.645
  918TMC3    O213687   4.425   0.695   9.935
  919TMC3    C113688   1.137   2.963  15.129
  919TMC3    C213689   1.222   3.003  15.029
  919TMC3    C313690   1.343   2.943  15.022
  919TMC3    C413691   1.167   2.852  15.208
  919TMC3    C513692   1.291   2.793  15.189
  919TMC3    C613693   1.382   2.841  15.103
  919TMC3     C13694   1.034   3.056  15.166
  919TMC3     O13695   0.997   3.039  15.284
  919TMC3     H13696   1.207   3.093  14.970
  919TMC3    H113697   1.091   2.799  15.265
  919TMC3    H213698   1.454   2.770  15.065
  919TMC3    C713699   1.328   2.645  15.183
  919TMC3    C813700   1.364   2.916  14.881
  919TMC3    O113701   1.442   2.603  15.209
  919TMC3    O213702   1.268   2.923  14.807
  920TMC3    C113703   0.980   1.966   6.424
  920TMC3    C213704   0.918   1.846   6.407
  920TMC3    C313705   0.898   1.772   6.518
  920TMC3    C413706   0.989   2.025   6.549
  920TMC3    C513707   0.956   1.961   6.659
  920TMC3    C613708   0.905   1.829   6.643
  920TMC3     C13709   1.088   2.001   6.332
  920TMC3     O13710   1.085   1.975   6.213
  920TMC3     H13711   0.931   1.797   6.311
  920TMC3    H113712   1.011   2.131   6.558
  920TMC3    H213713   0.898   1.769   6.733
  920TMC3    C713714   1.015   1.998   6.788
  920TMC3    C813715   0.854   1.635   6.504
  920TMC3    O113716   1.099   2.084   6.774
  920TMC3    O213717   0.878   1.562   6.597
  921TMC3    C113718   1.085   1.264   9.120
  921TMC3    C213719   1.027   1.386   9.087
  921TMC3    C313720   0.983   1.401   8.957
  921TMC3    C413721   1.104   1.166   9.026
  921TMC3    C513722   1.028   1.179   8.910
  921TMC3    C613723   0.963   1.294   8.874
  921TMC3     C13724   1.039   1.212   9.241
  921TMC3     O13725   0.919   1.203   9.263
  921TMC3     H13726   1.022   1.460   9.165
  921TMC3    H113727   1.149   1.069   9.044
  921TMC3    H213728   0.885   1.294   8.799
  921TMC3    C713729   0.981   1.052   8.856
  921TMC3    C813730   0.955   1.534   8.912
  921TMC3    O113731   0.862   1.028   8.879
  921TMC3    O213732   0.856   1.539   8.837
  922TMC3    C113733   4.400   1.901  10.909
  922TMC3    C213734   4.477   1.916  10.794
  922TMC3    C313735   4.607   1.883  10.803
  922TMC3    C413736   4.462   1.867  11.028
  922TMC3    C513737   4.595   1.840  11.034
  922TMC3    C613738   4.669   1.847  10.920
  922TMC3     C13739   4.265   1.937  10.907
  922TMC3     O13740   4.227   1.981  11.015
  922TMC3     H13741   4.440   1.949  10.698
  922TMC3    H113742   4.406   1.846  11.119
  922TMC3    H213743   4.777   1.831  10.923
  922TMC3    C713744   4.663   1.832  11.160
  922TMC3    C813745   4.681   1.875  10.678
  922TMC3    O113746   4.776   1.782  11.157
  922TMC3    O213747   4.642   1.934  10.580
  923TMC3    C113748   2.187   0.855   9.046
  923TMC3    C213749   2.084   0.893   9.117
  923TMC3    C313750   2.072   1.023   9.159
  923TMC3    C413751   2.279   0.946   9.011
  923TMC3    C513752   2.288   1.070   9.070
  923TMC3    C613753   2.174   1.113   9.136
  923TMC3     C13754   2.245   0.726   9.092
  923TMC3     O13755   2.169   0.641   9.125
  923TMC3     H13756   2.019   0.815   9.157
  923TMC3    H113757   2.356   0.913   8.941
  923TMC3    H213758   2.177   1.213   9.177
  923TMC3    C713759   2.405   1.059   9.162
  923TMC3    C813760   2.028   1.039   9.299
  923TMC3    O113761   2.496   0.989   9.120
  923TMC3    O213762   2.070   1.130   9.362
  924TMC3    C113763   2.986   4.316   6.334
  924TMC3    C213764   2.955   4.446   6.354
  924TMC3    C313765   2.984   4.504   6.471
  924TMC3    C413766   3.015   4.235   6.442
  924TMC3    C513767   3.031   4.297   6.563
  924TMC3    C613768   3.005   4.426   6.580
  924TMC3     C13769   2.939   4.258   6.211
  924TMC3     O13770   2.907   4.342   6.122
  924TMC3     H13771   2.932   4.511   6.271
  924TMC3    H113772   3.045   4.132   6.425
  924TMC3    H213773   3.004   4.461   6.682
  924TMC3    C713774   3.138   4.244   6.643
  924TMC3    C813775   3.063   4.628   6.455
  924TMC3    O113776   3.202   4.332   6.700
  924TMC3    O213777   3.034   4.696   6.362
  925TMC3    C113778   0.030   2.399   9.548
  925TMC3    C213779   0.007   2.440   9.421
  925TMC3    C313780   4.724   2.355   9.348
  925TMC3    C413781   4.779   2.276   9.596
  925TMC3    C513782   4.709   2.200   9.513
  925TMC3    C613783   4.672   2.236   9.387
  925TMC3     C13784   0.104   2.492   9.641
  925TMC3     O13785   0.146   2.592   9.582
  925TMC3     H13786   0.045   2.530   9.376
  925TMC3    H113787   0.040   2.238   9.686
  925TMC3    H213788   4.626   2.173   9.312
  925TMC3    C713789   4.678   2.057   9.541
  925TMC3    C813790   4.763   2.349   9.208
  925TMC3    O113791   4.650   1.990   9.447
  925TMC3    O213792   4.781   2.233   9.176
  926TMC3    C113793   2.804   3.818   7.143
  926TMC3    C213794   2.837   3.916   7.235
  926TMC3    C313795   2.868   4.040   7.185
  926TMC3    C413796   2.788   3.841   7.006
  926TMC3    C513797   2.824   3.966   6.965
  926TMC3    C613798   2.860   4.066   7.049
  926TMC3     C13799   2.750   3.699   7.204
  926TMC3     O13800   2.801   3.669   7.310
  926TMC3     H13801   2.854   3.892   7.339
  926TMC3    H113802   2.748   3.765   6.940
  926TMC3    H213803   2.883   4.167   7.017
  926TMC3    C713804   2.838   3.997   6.826
  926TMC3    C813805   2.855   4.151   7.281
  926TMC3    O113806   2.838   4.113   6.795
  926TMC3    O213807   2.856   4.267   7.238
  927TMC3    C113808   2.093   1.948  11.691
  927TMC3    C213809   2.211   1.977  11.641
  927TMC3    C313810   2.224   2.004  11.504
  927TMC3    C413811   1.981   1.952  11.614
  927TMC3    C513812   1.994   1.986  11.481
  927TMC3    C613813   2.109   2.016  11.428
  927TMC3     C13814   2.077   1.971  11.831
  927TMC3     O13815   2.169   1.943  11.901
  927TMC3     H13816   2.304   1.980  11.697
  927TMC3    H113817   1.884   1.928  11.655
  927TMC3    H213818   2.109   2.057  11.327
  927TMC3    C713819   1.879   2.059  11.418
  927TMC3    C813820   2.336   2.069  11.452
  927TMC3    O113821   1.767   2.015  11.412
  927TMC3    O213822   2.421   2.094  11.538
  928TMC3    C113823   4.417   3.411  12.790
  928TMC3    C213824   4.449   3.382  12.920
  928TMC3    C313825   4.369   3.415  13.024
  928TMC3    C413826   4.302   3.484  12.763
  928TMC3    C513827   4.218   3.501  12.866
  928TMC3    C613828   4.245   3.458  12.995
  928TMC3     C13829   4.533   3.410  12.702
  928TMC3     O13830   4.637   3.392  12.762
  928TMC3     H13831   4.536   3.328  12.954
  928TMC3    H113832   4.275   3.529  12.668
  928TMC3    H213833   4.175   3.485  13.074
  928TMC3    C713834   4.132   3.627  12.857
  928TMC3    C813835   4.442   3.478  13.132
  928TMC3    O113836   4.190   3.722  12.802
  928TMC3    O213837   4.559   3.450  13.145
  929TMC3    C113838   4.549   1.763   8.808
  929TMC3    C213839   4.649   1.842   8.850
  929TMC3    C313840   4.694   1.943   8.776
  929TMC3    C413841   4.496   1.795   8.689
  929TMC3    C513842   4.549   1.887   8.607
  929TMC3    C613843   4.654   1.968   8.648
  929TMC3     C13844   4.458   1.691   8.894
  929TMC3     O13845   4.377   1.618   8.837
  929TMC3     H13846   4.679   1.840   8.954
  929TMC3    H113847   4.417   1.731   8.651
  929TMC3    H213848   4.715   2.025   8.579
  929TMC3    C713849   4.472   1.943   8.499
  929TMC3    C813850   0.027   2.003   8.822
  929TMC3    O113851   4.519   1.948   8.385
  929TMC3    O213852   0.067   2.097   8.760
  930TMC3    C113853   0.679   0.374   9.401
  930TMC3    C213854   0.716   0.372   9.268
  930TMC3    C313855   0.799   0.473   9.225
  930TMC3    C413856   0.708   0.482   9.484
  930TMC3    C513857   0.780   0.582   9.437
  930TMC3    C613858   0.836   0.580   9.306
  930TMC3     C13859   0.565   0.294   9.443
  930TMC3     O13860   0.482   0.352   9.504
  930TMC3     H13861   0.681   0.290   9.207
  930TMC3    H113862   0.660   0.488   9.581
  930TMC3    H213863   0.939   0.612   9.299
  930TMC3    C713864   0.859   0.653   9.533
  930TMC3    C813865   0.886   0.462   9.111
  930TMC3    O113866   0.888   0.613   9.642
  930TMC3    O213867   0.905   0.356   9.055
  931TMC3    C113868   2.541   2.593   9.226
  931TMC3    C213869   2.515   2.480   9.151
  931TMC3    C313870   2.533   2.356   9.207
  931TMC3    C413871   2.563   2.588   9.363
  931TMC3    C513872   2.563   2.460   9.418
  931TMC3    C613873   2.565   2.349   9.338
  931TMC3     C13874   2.619   2.697   9.157
  931TMC3     O13875   2.638   2.676   9.039
  931TMC3     H13876   2.479   2.490   9.050
  931TMC3    H113877   2.590   2.672   9.426
  931TMC3    H213878   2.574   2.249   9.379
  931TMC3    C713879   2.528   2.449   9.561
  931TMC3    C813880   2.616   2.275   9.111
  931TMC3    O113881   2.427   2.507   9.592
  931TMC3    O213882   2.564   2.165   9.081
  932TMC3    C113883   3.115   2.410   9.200
  932TMC3    C213884   3.130   2.529   9.124
  932TMC3    C313885   3.139   2.526   8.986
  932TMC3    C413886   3.098   2.293   9.127
  932TMC3    C513887   3.108   2.290   8.991
  932TMC3    C613888   3.119   2.407   8.919
  932TMC3     C13889   3.024   2.422   9.308
  932TMC3     O13890   2.948   2.517   9.303
  932TMC3     H13891   3.158   2.617   9.180
  932TMC3    H113892   3.090   2.203   9.187
  932TMC3    H213893   3.115   2.402   8.811
  932TMC3    C713894   3.077   2.170   8.912
  932TMC3    C813895   3.183   2.644   8.909
  932TMC3    O113896   3.014   2.085   8.970
  932TMC3    O213897   3.135   2.750   8.945
  933TMC3    C113898   3.425   1.227  10.458
  933TMC3    C213899   3.421   1.153  10.347
  933TMC3    C313900   3.383   1.219  10.232
  933TMC3    C413901   3.432   1.362  10.456
  933TMC3    C513902   3.417   1.424  10.334
  933TMC3    C613903   3.394   1.352  10.226
  933TMC3     C13904   3.435   1.152  10.578
  933TMC3     O13905   3.393   1.039  10.578
  933TMC3     H13906   3.424   1.045  10.351
  933TMC3    H113907   3.428   1.421  10.547
  933TMC3    H213908   3.373   1.403  10.133
  933TMC3    C713909   3.448   1.562  10.316
  933TMC3    C813910   3.373   1.150  10.110
  933TMC3    O113911   3.447   1.606  10.202
  933TMC3    O213912   3.274   1.183  10.044
  934TMC3    C113913   3.753   2.525  10.926
  934TMC3    C213914   3.778   2.579  11.051
  934TMC3    C313915   3.908   2.617  11.076
  934TMC3    C413916   3.847   2.514  10.826
  934TMC3    C513917   3.972   2.538  10.862
  934TMC3    C613918   4.005   2.589  10.985
  934TMC3     C13919   3.617   2.495  10.877
  934TMC3     O13920   3.586   2.529  10.763
  934TMC3     H13921   3.702   2.586  11.128
  934TMC3    H113922   3.816   2.465  10.735
  934TMC3    H213923   4.109   2.608  11.009
  934TMC3    C713924   4.063   2.449  10.817
  934TMC3    C813925   3.954   2.601  11.217
  934TMC3    O113926   4.133   2.397  10.902
  934TMC3    O213927   3.903   2.666  11.306
  935TMC3    C113928   3.217   1.909  10.704
  935TMC3    C213929   3.115   1.817  10.689
  935TMC3    C313930   3.134   1.686  10.716
  935TMC3    C413931   3.338   1.870  10.756
  935TMC3    C513932   3.356   1.739  10.782
  935TMC3    C613933   3.260   1.640  10.760
  935TMC3     C13934   3.215   2.044  10.656
  935TMC3     O13935   3.306   2.114  10.694
  935TMC3     H13936   3.014   1.847  10.662
  935TMC3    H113937   3.423   1.936  10.757
  935TMC3    H213938   3.286   1.536  10.774
  935TMC3    C713939   3.485   1.696  10.835
  935TMC3    C813940   3.024   1.593  10.670
  935TMC3    O113941   3.521   1.582  10.807
  935TMC3    O213942   2.917   1.647  10.642
  936TMC3    C113943   3.306   4.708  11.681
  936TMC3    C213944   3.229   0.030  11.641
  936TMC3    C313945   3.250   0.078  11.511
  936TMC3    C413946   3.416   4.673  11.618
  936TMC3    C513947   3.440   4.736  11.495
  936TMC3    C613948   3.354   0.040  11.439
  936TMC3     C13949   3.265   4.641  11.799
  936TMC3     O13950   3.145   4.648  11.817
  936TMC3     H13951   3.153   0.074  11.705
  936TMC3    H113952   3.484   4.605  11.668
  936TMC3    H213953   3.367   0.075  11.337
  936TMC3    C713954   3.575   4.721  11.450
  936TMC3    C813955   3.170   0.186  11.459
  936TMC3    O113956   3.648   4.639  11.501
  936TMC3    O213957   3.159   0.277  11.542
  937TMC3    C113958   4.550   1.048  14.734
  937TMC3    C213959   4.561   0.928  14.667
  937TMC3    C313960   4.543   0.915  14.533
  937TMC3    C413961   4.510   1.157  14.659
  937TMC3    C513962   4.479   1.145  14.523
  937TMC3    C613963   4.496   1.025  14.460
  937TMC3     C13964   4.660   1.064  14.822
  937TMC3     O13965   4.751   0.980  14.817
  937TMC3     H13966   4.602   0.845  14.723
  937TMC3    H113967   4.517   1.254  14.705
  937TMC3    H213968   4.490   1.016  14.352
  937TMC3    C713969   4.515   1.258  14.437
  937TMC3    C813970   4.654   0.848  14.467
  937TMC3    O113971   4.567   1.227  14.331
  937TMC3    O213972   4.701   0.902  14.364
  938TMC3    C113973   3.782   4.429  10.074
  938TMC3    C213974   3.889   4.412   9.989
  938TMC3    C313975   3.875   4.334   9.876
  938TMC3    C413976   3.683   4.339  10.068
  938TMC3    C513977   3.683   4.254   9.965
  938TMC3    C613978   3.772   4.251   9.867
  938TMC3     C13979   3.807   4.490  10.202
  938TMC3     O13980   3.842   4.406  10.286
  938TMC3     H13981   3.973   4.478  10.009
  938TMC3    H113982   3.606   4.329  10.143
  938TMC3    H213983   3.756   4.176   9.790
  938TMC3    C713984   3.566   4.180   9.946
  938TMC3    C813985   3.978   4.328   9.775
  938TMC3    O113986   3.588   4.059   9.954
  938TMC3    O213987   3.949   4.270   9.674
  939TMC3    C113988   1.533   2.059   8.148
  939TMC3    C213989   1.562   2.082   8.017
  939TMC3    C313990   1.470   2.046   7.925
  939TMC3    C413991   1.405   2.037   8.186
  939TMC3    C513992   1.310   2.016   8.087
  939TMC3    C613993   1.338   2.024   7.953
  939TMC3     C13994   1.624   2.088   8.254
  939TMC3     O13995   1.571   2.104   8.362
  939TMC3     H13996   1.663   2.107   7.986
  939TMC3    H113997   1.376   2.024   8.290
  939TMC3    H213998   1.268   2.005   7.873
  939TMC3    C713999   1.175   2.028   8.135
  939TMC3    C814000   1.500   2.027   7.786
  939TMC3    O114001   1.154   1.985   8.244
  939TMC3    O214002   1.491   1.915   7.736
  940TMC3    C114003   3.756   1.811   8.198
  940TMC3    C214004   3.634   1.768   8.241
  940TMC3    C314005   3.591   1.830   8.360
  940TMC3    C414006   3.841   1.886   8.275
  940TMC3    C514007   3.792   1.948   8.393
  940TMC3    C614008   3.663   1.927   8.432
  940TMC3     C14009   3.798   1.804   8.063
  940TMC3     O14010   3.860   1.902   8.019
  940TMC3     H14011   3.565   1.709   8.182
  940TMC3    H114012   3.935   1.914   8.229
  940TMC3    H214013   3.621   1.967   8.523
  940TMC3    C714014   3.852   2.068   8.451
  940TMC3    C814015   3.459   1.815   8.400
  940TMC3    O114016   3.826   2.098   8.568
  940TMC3    O214017   3.412   1.702   8.396
  941TMC3    C114018   0.281   2.686  14.861
  941TMC3    C214019   0.284   2.554  14.894
  941TMC3    C314020   0.379   2.470  14.838
  941TMC3    C414021   0.380   2.735  14.781
  941TMC3    C514022   0.470   2.647  14.727
  941TMC3    C614023   0.462   2.508  14.740
  941TMC3     C14024   0.148   2.741  14.838
  941TMC3     O14025   0.138   2.857  14.831
  941TMC3     H14026   0.211   2.511  14.963
  941TMC3    H114027   0.377   2.837  14.746
  941TMC3    H214028   0.534   2.443  14.690
  941TMC3    C714029   0.562   2.715  14.642
  941TMC3    C814030   0.320   2.338  14.828
  941TMC3    O114031   0.612   2.819  14.689
  941TMC3    O214032   0.197   2.339  14.818
  942TMC3    C114033   1.369   3.601   8.097
  942TMC3    C214034   1.263   3.556   8.169
  942TMC3    C314035   1.226   3.425   8.147
  942TMC3    C414036   1.448   3.531   8.007
  942TMC3    C514037   1.406   3.403   8.001
  942TMC3    C614038   1.302   3.345   8.065
  942TMC3     C14039   1.444   3.714   8.158
  942TMC3     O14040   1.439   3.721   8.280
  942TMC3     H14041   1.218   3.621   8.243
  942TMC3    H114042   1.536   3.567   7.955
  942TMC3    H214043   1.274   3.243   8.043
  942TMC3    C714044   1.485   3.314   7.925
  942TMC3    C814045   1.178   3.335   8.256
  942TMC3    O114046   1.534   3.351   7.822
  942TMC3    O214047   1.107   3.238   8.230
  943TMC3    C114048   4.676   3.205  13.526
  943TMC3    C214049   4.711   3.074  13.528
  943TMC3    C314050   4.619   2.977  13.491
  943TMC3    C414051   4.556   3.247  13.479
  943TMC3    C514052   4.471   3.153  13.437
  943TMC3    C614053   4.498   3.027  13.437
  943TMC3     C14054   4.785   3.301  13.525
  943TMC3     O14055   0.082   3.282  13.609
  943TMC3     H14056   0.025   3.043  13.552
  943TMC3    H114057   4.541   3.355  13.479
  943TMC3    H214058   4.422   2.961  13.396
  943TMC3    C714059   4.347   3.194  13.375
  943TMC3    C814060   4.644   2.836  13.511
  943TMC3    O114061   4.310   3.125  13.282
  943TMC3    O214062   4.753   2.809  13.564
  944TMC3    C114063   2.209   4.517  10.268
  944TMC3    C214064   2.335   4.520  10.329
  944TMC3    C314065   2.422   4.419  10.315
  944TMC3    C414066   2.181   4.423  10.177
  944TMC3    C514067   2.277   4.332  10.146
  944TMC3    C614068   2.392   4.329  10.219
  944TMC3     C14069   2.112   4.622  10.298
  944TMC3     O14070   2.021   4.662  10.224
  944TMC3     H14071   2.360   4.606  10.390
  944TMC3    H114072   2.088   4.418  10.121
  944TMC3    H214073   2.455   4.241  10.219
  944TMC3    C714074   2.238   4.218  10.069
  944TMC3    C814075   2.557   4.437  10.354
  944TMC3    O114076   2.126   4.177  10.087
  944TMC3    O214077   2.637   4.418  10.264
    1TMC1    C114078   1.547   4.171  10.807
    1TMC1    C214079   1.623   4.171  10.691
    1TMC1    C314080   1.679   4.052  10.664
    1TMC1    C414081   1.521   4.053  10.878
    1TMC1    C514082   1.581   3.936  10.838
    1TMC1    C614083   1.662   3.934  10.727
    1TMC1     C14084   1.449   4.272  10.823
    1TMC1     O14085   1.339   4.247  10.874
    1TMC1     H14086   1.646   4.259  10.632
    1TMC1    H114087   1.464   4.062  10.970
    1TMC1    H214088   1.711   3.843  10.694
    1TMC1    C714089   1.621   3.848  10.943
    1TMC1    C814090   1.731   4.047  10.531
    1TMC1    O114091   1.567   3.861  11.053
    1TMC1    O214092   1.737   3.945  10.465
    1TMC1    O314093   1.753   3.831  10.929
    1TMC1    H314094   1.791   3.830  10.839
    1TMC1    O514095   1.823   4.149  10.528
    1TMC1    H514096   1.884   4.154  10.451
    2TMC2    C114097   1.656   0.238  10.659
    2TMC2    C214098   1.748   0.309  10.734
    2TMC2    C314099   1.791   0.434  10.677
    2TMC2    C414100   1.616   0.276  10.532
    2TMC2    C514101   1.658   0.397  10.488
    2TMC2    C614102   1.736   0.489  10.562
    2TMC2     C14103   1.609   0.106  10.705
    2TMC2     O14104   1.678   0.060  10.796
    2TMC2     H14105   1.770   0.271  10.833
    2TMC2    H114106   1.551   0.212  10.475
    2TMC2    H214107   1.789   0.572  10.516
    2TMC2    C714108   1.672   0.394  10.342
    2TMC2    C814109   1.842   0.537  10.769
    2TMC2    O114110   1.643   0.286  10.296
    2TMC2    O214111   1.917   0.511  10.861
    2TMC2    O514112   1.733   0.613  10.800
    2TMC2    H514113   1.675   0.614  10.721
    3TMC2    C114114   1.932   1.059  10.164
    3TMC2    C214115   2.046   1.104  10.219
    3TMC2    C314116   2.156   1.017  10.215
    3TMC2    C414117   1.919   0.936  10.102
    3TMC2    C514118   2.033   0.850  10.095
    3TMC2    C614119   2.151   0.892  10.151
    3TMC2     C14120   1.832   1.154  10.138
    3TMC2     O14121   1.868   1.260  10.102
    3TMC2     H14122   2.060   1.206  10.252
    3TMC2    H114123   1.833   0.897  10.049
    3TMC2    H214124   2.245   0.838  10.148
    3TMC2    C714125   2.044   0.772   9.966
    3TMC2    C814126   2.280   1.063  10.262
    3TMC2    O114127   2.160   0.771   9.920
    3TMC2    O214128   2.356   0.978  10.305
    3TMC2    O514129   2.315   1.135  10.158
    3TMC2    H514130   2.248   1.195  10.119
    4MPD1     C14131   0.795   1.764  10.205
    4MPD1    C114132   0.822   1.822  10.088
    4MPD1    C214133   0.711   1.837  10.004
    4MPD1    C314134   0.578   1.811  10.037
    4MPD1    C414135   0.557   1.759  10.166
    4MPD1    C514136   0.671   1.732  10.248
    4MPD1     H14137   0.736   1.871   9.905
    4MPD1    H114138   0.458   1.733  10.204
    4MPD1    H214139   0.882   1.739  10.266
    4MPD1    H314140   0.644   1.695  10.346
    4MPD1     N14141   0.470   1.862   9.959
    4MPD1    H514142   0.381   1.823   9.985
    4MPD1    N114143   0.949   1.840  10.039
    4MPD1    H614144   0.951   1.912   9.967
    4MPD1    H714145   1.021   1.853  10.109
    5MPD2     C14146   0.691   1.184   9.541
    5MPD2    C114147   0.805   1.187   9.612
    5MPD2    C214148   0.851   1.312   9.650
    5MPD2    C314149   0.793   1.431   9.612
    5MPD2    C414150   0.686   1.430   9.523
    5MPD2    C514151   0.639   1.302   9.497
    5MPD2     H14152   0.931   1.318   9.723
    5MPD2    H114153   0.636   1.514   9.474
    5MPD2    H214154   0.640   1.092   9.514
    5MPD2    H314155   0.558   1.290   9.426
    5MPD2     N14156   0.843   1.551   9.664
    5MPD2    H514157   0.940   1.545   9.695
    5MPD2    N114158   0.853   1.074   9.675
    5MPD2    H714159   0.796   0.990   9.665
    6MPD2     C14160   0.304   1.188   9.875
    6MPD2    C114161   0.419   1.239   9.925
    6MPD2    C214162   0.518   1.155   9.976
    6MPD2    C314163   0.496   1.017   9.964
    6MPD2    C414164   0.381   0.964   9.902
    6MPD2    C514165   0.284   1.052   9.863
    6MPD2     H14166   0.612   1.203  10.001
    6MPD2    H114167   0.362   0.858   9.901
    6MPD2    H214168   0.224   1.246   9.830
    6MPD2    H314169   0.197   1.010   9.815
    6MPD2     N14170   0.605   0.927   9.982
    6MPD2    H514171   0.604   0.831   9.949
    6MPD2    N114172   0.450   1.379   9.918
    6MPD2    H714173   0.543   1.403   9.951
    7MPD2     C14174   1.376   1.250   9.940
    7MPD2    C114175   1.362   1.141  10.017
    7MPD2    C214176   1.473   1.083  10.082
    7MPD2    C314177   1.599   1.146  10.069
    7MPD2    C414178   1.615   1.260   9.994
    7MPD2    C514179   1.505   1.306   9.928
    7MPD2     H14180   1.463   1.009  10.161
    7MPD2    H114181   1.711   1.286   9.951
    7MPD2    H214182   1.292   1.291   9.885
    7MPD2    H314183   1.513   1.384   9.854
    7MPD2     N14184   1.709   1.095  10.139
    7MPD2    H514185   1.695   1.005  10.183
    7MPD2    N114186   1.234   1.084  10.020
    7MPD2    H714187   1.168   1.111   9.949
    8MPD2     C14188   1.654   0.461  10.058
    8MPD2    C114189   1.741   0.521  10.146
    8MPD2    C214190   1.837   0.615  10.104
    8MPD2    C314191   1.828   0.656   9.972
    8MPD2    C414192   1.747   0.597   9.879
    8MPD2    C514193   1.664   0.499   9.924
    8MPD2     H14194   1.905   0.651  10.181
    8MPD2    H114195   1.745   0.628   9.775
    8MPD2    H214196   1.578   0.386  10.080
    8MPD2    H314197   1.585   0.452   9.866
    8MPD2     N14198   1.925   0.735   9.906
    8MPD2    H514199   1.921   0.761   9.808
    8MPD2    N114200   1.730   0.508  10.282
    8MPD2    H714201   1.773   0.581  10.338
    9MPD2     C14202   1.283   4.728  10.658
    9MPD2    C114203   1.416   4.741  10.678
    9MPD2    C214204   1.481   4.633  10.727
    9MPD2    C314205   1.422   4.516  10.757
    9MPD2    C414206   1.284   4.508  10.746
    9MPD2    C514207   1.223   4.611  10.687
    9MPD2     H14208   1.588   4.637  10.745
    9MPD2    H114209   1.217   4.427  10.770
    9MPD2    H214210   1.232   0.033  10.634
    9MPD2    H314211   1.115   4.604  10.688
    9MPD2     N14212   1.490   4.393  10.783
    9MPD2    H514213   1.590   4.406  10.788
    9MPD2    N114214   1.490   0.069  10.651
    9MPD2    H714215   1.458   0.137  10.584
   10TMC3    C114216   0.839   0.902  10.017
   10TMC3    C214217   0.944   0.925  10.101
   10TMC3    C314218   1.060   0.946  10.034
   10TMC3    C414219   0.851   0.918   9.879
   10TMC3    C514220   0.963   0.941   9.823
   10TMC3    C614221   1.070   0.942   9.900
   10TMC3     C14222   0.711   0.959  10.059
   10TMC3     O14223   0.717   1.045  10.143
   10TMC3     H14224   0.935   0.945  10.207
   10TMC3    H114225   0.769   0.888   9.814
   10TMC3    H214226   1.166   0.939   9.850
   10TMC3    C714227   0.959   1.070   9.759
   10TMC3    C814228   1.182   0.984  10.104
   10TMC3    O114229   1.059   1.139   9.765
   10TMC3    O214230   1.226   0.930  10.200
   11TMC3    C114231   0.452   1.810   9.741
   11TMC3    C214232   0.573   1.789   9.678
   11TMC3    C314233   0.630   1.665   9.696
   11TMC3    C414234   0.390   1.713   9.807
   11TMC3    C514235   0.453   1.593   9.825
   11TMC3    C614236   0.584   1.568   9.777
   11TMC3     C14237   0.478   1.918   9.829
   11TMC3     O14238   0.563   2.003   9.802
   11TMC3     H14239   0.615   1.869   9.617
   11TMC3    H114240   0.285   1.715   9.833
   11TMC3    H214241   0.639   1.475   9.786
   11TMC3    C714242   0.365   1.475   9.868
   11TMC3    C814243   0.776   1.674   9.669
   11TMC3    O114244   0.245   1.468   9.837
   11TMC3    O214245   0.817   1.791   9.661
    1MPD1     C14246   3.566   1.789  13.006
    1MPD1    C114247   3.615   1.812  13.130
    1MPD1    C214248   3.686   1.715  13.200
    1MPD1    C314249   3.687   1.587  13.157
    1MPD1    C414250   3.625   1.557  13.037
    1MPD1    C514251   3.573   1.658  12.959
    1MPD1     H14252   3.738   1.745  13.291
    1MPD1    H114253   3.612   1.455  13.005
    1MPD1    H214254   3.515   1.869  12.955
    1MPD1    H314255   3.515   1.637  12.869
    1MPD1     N14256   3.731   1.486  13.249
    1MPD1    H514257   3.758   1.529  13.337
    1MPD1    N114258   3.619   1.943  13.181
    1MPD1    H614259   3.548   2.009  13.150
    1MPD1    H714260   3.626   1.932  13.282
    2MPD1     C14261   4.669   1.242  13.424
    2MPD1    C114262   4.602   1.134  13.482
    2MPD1    C214263   4.461   1.136  13.478
    2MPD1    C314264   4.390   1.234  13.421
    2MPD1    C414265   4.456   1.332  13.353
    2MPD1    C514266   4.594   1.340  13.364
    2MPD1     H14267   4.410   1.057  13.533
    2MPD1    H114268   4.404   1.422  13.324
    2MPD1    H214269   4.774   1.266  13.434
    2MPD1    H314270   4.643   1.426  13.318
    2MPD1     N14271   4.255   1.239  13.449
    2MPD1    H514272   4.229   1.156  13.501
    2MPD1    N114273   4.671   1.039  13.555
    2MPD1    H614274   4.637   1.040  13.651
    2MPD1    H714275   4.770   1.062  13.544
    3MPD1     C14276   3.960   0.460  13.558
    3MPD1    C114277   3.844   0.521  13.527
    3MPD1    C214278   3.847   0.653  13.499
    3MPD1    C314279   3.972   0.721  13.495
    3MPD1    C414280   4.090   0.657  13.521
    3MPD1    C514281   4.083   0.525  13.566
    3MPD1     H14282   3.757   0.713  13.492
    3MPD1    H114283   4.188   0.703  13.514
    3MPD1    H214284   3.960   0.352  13.569
    3MPD1    H314285   4.170   0.467  13.595
    3MPD1     N14286   3.975   0.855  13.466
    3MPD1    H514287   4.070   0.883  13.443
    3MPD1    N114288   3.722   0.454  13.543
    3MPD1    H614289   3.642   0.494  13.493
    3MPD1    H714290   3.738   0.357  13.518
    4TMC3    C114291   4.028   1.272  13.418
    4TMC3    C214292   3.925   1.346  13.356
    4TMC3    C314293   3.808   1.277  13.326
    4TMC3    C414294   4.010   1.134  13.437
    4TMC3    C514295   3.897   1.071  13.387
    4TMC3    C614296   3.796   1.146  13.329
    4TMC3     C14297   4.161   1.321  13.393
    4TMC3     O14298   4.188   1.404  13.312
    4TMC3     H14299   3.941   1.451  13.334
    4TMC3    H114300   4.082   1.069  13.487
    4TMC3    H214301   3.704   1.103  13.291
    4TMC3    C714302   3.869   0.926  13.421
    4TMC3    C814303   3.737   1.349  13.223
    4TMC3    O114304   3.750   0.908  13.409
    4TMC3    O214305   3.703   1.292  13.124
    1TMC1    C114306   0.418   1.245   8.574
    1TMC1    C214307   0.349   1.305   8.468
    1TMC1    C314308   0.212   1.295   8.466
    1TMC1    C414309   0.343   1.165   8.660
    1TMC1    C514310   0.214   1.143   8.641
    1TMC1    C614311   0.143   1.210   8.546
    1TMC1     C14312   0.561   1.219   8.566
    1TMC1     O14313   0.600   1.148   8.658
    1TMC1     H14314   0.392   1.372   8.395
    1TMC1    H114315   0.390   1.113   8.743
    1TMC1    H214316   0.036   1.223   8.554
    1TMC1    C714317   0.146   1.037   8.701
    1TMC1    C814318   0.137   1.388   8.390
    1TMC1    O114319   0.026   1.028   8.704
    1TMC1    O214320   0.200   1.472   8.326
    1TMC1    O314321   0.223   0.932   8.669
    1TMC1    H314322   0.304   0.952   8.617
    1TMC1    O514323   0.015   1.339   8.363
    1TMC1    H514324   4.776   1.374   8.275
    2MPD1     C14325   1.009   1.150   8.329
    2MPD1    C114326   0.940   1.238   8.257
    2MPD1    C214327   0.812   1.264   8.295
    2MPD1    C314328   0.756   1.223   8.420
    2MPD1    C414329   0.835   1.131   8.485
    2MPD1    C514330   0.955   1.090   8.441
    2MPD1     H14331   0.751   1.324   8.228
    2MPD1    H114332   0.804   1.082   8.577
    2MPD1    H214333   1.108   1.114   8.305
    2MPD1    H314334   1.027   1.023   8.488
    2MPD1     N14335   0.629   1.271   8.455
    2MPD1    H514336   0.577   1.326   8.388
    2MPD1    N114337   0.991   1.265   8.124
    2MPD1    H614338   0.955   1.357   8.098
    2MPD1    H714339   1.093   1.276   8.125
    1TMC1    C114340   3.727   2.461  14.935
    1TMC1    C214341   3.662   2.462  14.818
    1TMC1    C314342   3.730   2.452  14.699
    1TMC1    C414343   3.861   2.441  14.935
    1TMC1    C514344   3.929   2.425  14.816
    1TMC1    C614345   3.861   2.426  14.702
    1TMC1     C14346   3.661   2.472  15.066
    1TMC1     O14347   3.731   2.516  15.156
    1TMC1     H14348   3.568   2.516  14.816
    1TMC1    H114349   3.907   2.439  15.033
    1TMC1    H214350   3.921   2.435  14.613
    1TMC1    C714351   4.060   2.362  14.823
    1TMC1    C814352   3.649   2.436  14.580
    1TMC1    O114353   4.104   2.286  14.908
    1TMC1    O214354   3.529   2.454  14.577
    1TMC1    O314355   4.142   2.398  14.716
    1TMC1    H314356   4.101   2.467  14.661
    1TMC1    O514357   3.732   2.407  14.480
    1TMC1    H514358   3.691   2.427  14.394
    2MPD1     C14359   3.242   2.496  15.361
    2MPD1    C114360   3.217   2.410  15.258
    2MPD1    C214361   3.320   2.391  15.156
    2MPD1    C314362   3.441   2.449  15.171
    2MPD1    C414363   3.466   2.523  15.287
    2MPD1    C514364   3.362   2.549  15.376
    2MPD1     H14365   3.294   2.344  15.062
    2MPD1    H114366   3.551   2.585  15.313
    2MPD1    H214367   3.181   2.515  15.448
    2MPD1    H314368   3.370   2.608  15.466
    2MPD1     N14369   3.533   2.431  15.060
    2MPD1    H514370   3.506   2.385  14.973
    2MPD1    N114371   3.086   2.366  15.229
    2MPD1    H614372   3.087   2.274  15.186
    2MPD1    H714373   3.024   2.365  15.310
    1MPD1     C14374   1.272   1.320   9.525
    1MPD1    C114375   1.272   1.437   9.454
    1MPD1    C214376   1.394   1.496   9.427
    1MPD1    C314377   1.512   1.442   9.469
    1MPD1    C414378   1.513   1.319   9.534
    1MPD1    C514379   1.389   1.264   9.558
    1MPD1     H14380   1.400   1.589   9.372
    1MPD1    H114381   1.602   1.265   9.565
    1MPD1    H214382   1.183   1.273   9.563
    1MPD1    H314383   1.389   1.165   9.602
    1MPD1     N14384   1.623   1.521   9.434
    1MPD1    H514385   1.598   1.606   9.383
    1MPD1    N114386   1.149   1.492   9.405
    1MPD1    H614387   1.166   1.592   9.399
    1MPD1    H714388   1.073   1.472   9.470
    2MPD1     C14389   1.601   1.894   8.826
    2MPD1    C114390   1.538   1.914   8.703
    2MPD1    C214391   1.599   1.850   8.596
    2MPD1    C314392   1.691   1.748   8.608
    2MPD1    C414393   1.745   1.726   8.730
    2MPD1    C514394   1.707   1.804   8.842
    2MPD1     H14395   1.554   1.863   8.498
    2MPD1    H114396   1.820   1.649   8.747
    2MPD1    H214397   1.576   1.963   8.905
    2MPD1    H314398   1.763   1.793   8.934
    2MPD1     N14399   1.746   1.676   8.504
    2MPD1    H514400   1.838   1.639   8.524
    2MPD1    N114401   1.458   2.029   8.683
    2MPD1    H614402   1.387   2.031   8.755
    2MPD1    H714403   1.405   2.019   8.597
    3MPD1     C14404   2.059   2.147   7.730
    3MPD1    C114405   2.152   2.096   7.822
    3MPD1    C214406   2.114   1.989   7.906
    3MPD1    C314407   2.004   1.917   7.879
    3MPD1    C414408   1.923   1.954   7.769
    3MPD1    C514409   1.942   2.077   7.707
    3MPD1     H14410   2.173   1.958   7.992
    3MPD1    H114411   1.835   1.896   7.746
    3MPD1    H214412   2.075   2.236   7.670
    3MPD1    H314413   1.865   2.113   7.640
    3MPD1     N14414   1.975   1.804   7.960
    3MPD1    H514415   2.045   1.781   8.030
    3MPD1    N114416   2.264   2.173   7.856
    3MPD1    H614417   2.236   2.268   7.879
    3MPD1    H714418   2.330   2.128   7.919
    4MPD2     C14419   2.047   2.076   9.149
    4MPD2    C114420   2.064   1.971   9.064
    4MPD2    C214421   2.157   1.980   8.960
    4MPD2    C314422   2.248   2.083   8.967
    4MPD2    C414423   2.240   2.187   9.057
    4MPD2    C514424   2.137   2.183   9.149
    4MPD2     H14425   2.153   1.896   8.892
    4MPD2    H114426   2.321   2.260   9.066
    4MPD2    H214427   1.990   2.077   9.241
    4MPD2    H314428   2.139   2.265   9.219
    4MPD2     N14429   2.366   2.083   8.895
    4MPD2    H514430   2.442   2.146   8.921
    4MPD2    N114431   1.986   1.854   9.071
    4MPD2    H714432   1.999   1.782   9.002
    5MPD2     C14433   2.618   1.645   9.323
    5MPD2    C114434   2.561   1.642   9.198
    5MPD2    C214435   2.433   1.595   9.186
    5MPD2    C314436   2.371   1.543   9.298
    5MPD2    C414437   2.443   1.541   9.417
    5MPD2    C514438   2.566   1.585   9.431
    5MPD2     H14439   2.385   1.596   9.089
    5MPD2    H114440   2.404   1.503   9.511
    5MPD2    H214441   2.708   1.703   9.340
    5MPD2    H314442   2.605   1.598   9.531
    5MPD2     N14443   2.238   1.493   9.296
    5MPD2    H514444   2.200   1.488   9.390
    5MPD2    N114445   2.623   1.709   9.088
    5MPD2    H714446   2.683   1.785   9.116
    6MPD2     C14447   2.405   1.394   8.686
    6MPD2    C114448   2.421   1.489   8.583
    6MPD2    C214449   2.324   1.486   8.474
    6MPD2    C314450   2.225   1.396   8.476
    6MPD2    C414451   2.203   1.316   8.584
    6MPD2    C514452   2.293   1.309   8.685
    6MPD2     H14453   2.335   1.559   8.395
    6MPD2    H114454   2.114   1.254   8.577
    6MPD2    H214455   2.473   1.390   8.770
    6MPD2    H314456   2.279   1.240   8.767
    6MPD2     N14457   2.121   1.403   8.380
    6MPD2    H514458   2.033   1.358   8.401
    6MPD2    N114459   2.513   1.590   8.609
    6MPD2    H714460   2.566   1.588   8.696
    7TMC3    C114461   1.863   1.679   9.177
    7TMC3    C214462   1.954   1.592   9.125
    7TMC3    C314463   2.010   1.509   9.222
    7TMC3    C414464   1.799   1.650   9.296
    7TMC3    C514465   1.848   1.556   9.380
    7TMC3    C614466   1.966   1.494   9.354
    7TMC3     C14467   1.901   1.818   9.178
    7TMC3     O14468   1.852   1.892   9.262
    7TMC3     H14469   2.005   1.603   9.030
    7TMC3    H114470   1.716   1.715   9.322
    7TMC3    H214471   2.014   1.414   9.408
    7TMC3    C714472   1.753   1.487   9.465
    7TMC3    C814473   2.147   1.480   9.188
    7TMC3    O114474   1.793   1.387   9.524
    7TMC3    O214475   2.179   1.468   9.072
    8TMC3    C114476   1.786   1.613   8.286
    8TMC3    C214477   1.754   1.657   8.158
    8TMC3    C314478   1.860   1.635   8.065
    8TMC3    C414479   1.889   1.529   8.325
    8TMC3    C514480   1.982   1.516   8.224
    8TMC3    C614481   1.976   1.560   8.098
    8TMC3     C14482   1.689   1.664   8.383
    8TMC3     O14483   1.582   1.691   8.341
    8TMC3     H14484   1.674   1.729   8.143
    8TMC3    H114485   1.890   1.498   8.429
    8TMC3    H214486   2.058   1.553   8.027
    8TMC3    C714487   2.116   1.474   8.264
    8TMC3    C814488   1.862   1.732   7.957
    8TMC3    O114489   2.209   1.509   8.192
    8TMC3    O214490   1.752   1.760   7.908
    9TMC3    C114491   2.641   1.792   8.863
    9TMC3    C214492   2.666   1.726   8.742
    9TMC3    C314493   2.618   1.793   8.627
    9TMC3    C414494   2.594   1.917   8.868
    9TMC3    C514495   2.527   1.974   8.761
    9TMC3    C614496   2.547   1.914   8.640
    9TMC3     C14497   2.595   1.690   8.953
    9TMC3     O14498   2.550   1.591   8.897
    9TMC3     H14499   2.713   1.629   8.747
    9TMC3    H114500   2.572   1.945   8.970
    9TMC3    H214501   2.498   1.964   8.557
    9TMC3    C714502   2.386   2.003   8.781
    9TMC3    C814503   2.531   1.709   8.542
    9TMC3    O114504   2.307   1.948   8.709
    9TMC3    O214505   2.479   1.762   8.445
    1TMC2    C114506   2.319   0.449  12.463
    1TMC2    C214507   2.276   0.566  12.440
    1TMC2    C314508   2.336   0.671  12.508
    1TMC2    C414509   2.427   0.426  12.545
    1TMC2    C514510   2.491   0.531  12.606
    1TMC2    C614511   2.439   0.655  12.597
    1TMC2     C14512   2.274   0.342  12.382
    1TMC2     O14513   2.294   0.226  12.420
    1TMC2     H14514   2.183   0.590  12.389
    1TMC2    H114515   2.474   0.329  12.531
    1TMC2    H214516   2.489   0.744  12.633
    1TMC2    C714517   2.624   0.541  12.556
    1TMC2    C814518   2.336   0.801  12.440
    1TMC2    O114519   2.652   0.654  12.510
    1TMC2    O214520   2.244   0.841  12.366
    1TMC2    O514521   2.464   0.834  12.415
    1TMC2    H514522   2.531   0.777  12.459
    2MPD1     C14523   2.270   0.143  11.906
    2MPD1    C114524   2.292   0.279  11.905
    2MPD1    C214525   2.284   0.352  12.023
    2MPD1    C314526   2.265   0.293  12.145
    2MPD1    C414527   2.261   0.154  12.146
    2MPD1    C514528   2.268   0.080  12.027
    2MPD1     H14529   2.299   0.459  12.024
    2MPD1    H114530   2.248   0.094  12.235
    2MPD1    H214531   2.270   0.084  11.815
    2MPD1    H314532   2.255   4.760  12.034
    2MPD1     N14533   2.260   0.379  12.252
    2MPD1    H514534   2.279   0.473  12.219
    2MPD1    N114535   2.297   0.352  11.790
    2MPD1    H614536   2.347   0.301  11.717
    2MPD1    H714537   2.336   0.445  11.798
    3MPD1     C14538   3.038   0.301  12.377
    3MPD1    C114539   2.999   0.435  12.360
    3MPD1    C214540   2.872   0.462  12.406
    3MPD1    C314541   2.807   0.386  12.494
    3MPD1    C414542   2.860   0.259  12.520
    3MPD1    C514543   2.975   0.222  12.467
    3MPD1     H14544   2.833   0.559  12.377
    3MPD1    H114545   2.818   0.189  12.591
    3MPD1    H214546   3.117   0.253  12.320
    3MPD1    H314547   3.011   0.122  12.492
    3MPD1     N14548   2.691   0.419  12.560
    3MPD1    H514549   2.648   0.348  12.619
    3MPD1    N114550   3.072   0.523  12.273
    3MPD1    H614551   3.044   0.620  12.284
    3MPD1    H714552   3.171   0.517  12.295
    1TMC1    C114553   0.342   4.130   9.920
    1TMC1    C214554   0.256   4.221   9.994
    1TMC1    C314555   0.121   4.187  10.009
    1TMC1    C414556   0.287   4.023   9.852
    1TMC1    C514557   0.154   3.990   9.877
    1TMC1    C614558   0.071   4.072   9.950
    1TMC1     C14559   0.473   4.177   9.888
    1TMC1     O14560   0.486   4.208   9.769
    1TMC1     H14561   0.288   4.308  10.049
    1TMC1    H114562   0.352   3.960   9.793
    1TMC1    H214563   4.752   4.048   9.944
    1TMC1    C714564   0.105   3.861   9.848
    1TMC1    C814565   0.034   4.289  10.065
    1TMC1    O114566   4.769   3.833   9.838
    1TMC1    O214567   0.082   4.399  10.096
    1TMC1    O314568   0.212   3.782   9.808
    1TMC1    H314569   0.296   3.795   9.857
    1TMC1    O514570   4.725   4.230  10.137
    1TMC1    H514571   4.719   4.134  10.117
    2TMC1    C114572   1.044   4.284  10.456
    2TMC1    C214573   1.138   4.198  10.500
    2TMC1    C314574   1.141   4.161  10.633
    2TMC1    C414575   0.965   4.349  10.551
    2TMC1    C514576   0.959   4.297  10.673
    2TMC1    C614577   1.046   4.202  10.721
    2TMC1     C14578   1.033   4.294  10.311
    2TMC1     O14579   1.135   4.270  10.242
    2TMC1     H14580   1.199   4.146  10.427
    2TMC1    H114581   0.896   4.430  10.530
    2TMC1    H214582   1.060   4.171  10.824
    2TMC1    C714583   0.877   4.377  10.759
    2TMC1    C814584   1.218   4.043  10.670
    2TMC1    O114585   0.857   4.496  10.736
    2TMC1    O214586   1.192   3.967  10.758
    2TMC1    O314587   0.894   4.320  10.882
    2TMC1    H314588   0.855   4.231  10.874
    2TMC1    O514589   1.339   4.048  10.602
    2TMC1    H514590   1.348   4.136  10.558
    3MPD2     C14591   0.733   4.314   9.901
    3MPD2    C114592   0.660   4.283  10.013
    3MPD2    C214593   0.721   4.286  10.133
    3MPD2    C314594   0.850   4.330  10.149
    3MPD2    C414595   0.923   4.367  10.037
    3MPD2    C514596   0.865   4.359   9.911
    3MPD2     H14597   0.665   4.272  10.225
    3MPD2    H114598   1.029   4.389  10.046
    3MPD2    H214599   0.691   4.303   9.802
    3MPD2    H314600   0.922   4.380   9.821
    3MPD2     N14601   0.900   4.314  10.280
    3MPD2    H514602   0.831   4.307  10.354
    3MPD2    N114603   0.531   4.226  10.005
    3MPD2    H714604   0.490   4.183  10.087
    1TMC1    C114605   4.508   0.787  10.791
    1TMC1    C214606   4.490   0.860  10.900
    1TMC1    C314607   4.596   0.887  10.982
    1TMC1    C414608   4.628   0.733  10.765
    1TMC1    C514609   4.738   0.767  10.839
    1TMC1    C614610   4.725   0.843  10.957
    1TMC1     C14611   4.442   0.819  10.669
    1TMC1     O14612   4.503   0.879  10.583
    1TMC1     H14613   4.391   0.894  10.930
    1TMC1    H114614   4.646   0.687  10.668
    1TMC1    H214615   0.020   0.865  11.024
    1TMC1    C714616   0.073   0.712  10.794
    1TMC1    C814617   4.558   0.933  11.116
    1TMC1    O114618   0.105   0.704  10.674
    1TMC1    O214619   4.444   0.917  11.158
    1TMC1    O314620   0.154   0.757  10.895
    1TMC1    H314621   0.141   0.711  10.981
    1TMC1    O514622   4.664   0.899  11.193
    1TMC1    H514623   4.750   0.943  11.176
    2TMC2    C114624   4.357   0.283  10.881
    2TMC2    C214625   4.362   0.206  10.990
    2TMC2    C314626   4.354   0.262  11.110
    2TMC2    C414627   4.384   0.415  10.897
    2TMC2    C514628   4.361   0.476  11.014
    2TMC2    C614629   4.349   0.398  11.126
    2TMC2     C14630   4.234   0.282  10.798
    2TMC2     O14631   4.238   0.351  10.694
    2TMC2     H14632   4.346   0.100  10.979
    2TMC2    H114633   4.408   0.472  10.808
    2TMC2    H214634   4.320   0.427  11.226
    2TMC2    C714635   4.267   0.584  11.001
    2TMC2    C814636   4.407   0.186  11.221
    2TMC2    O114637   4.227   0.612  10.890
    2TMC2    O214638   4.374   0.208  11.338
    2TMC2    O514639   4.526   0.140  11.180
    2TMC2    H514640   4.544   0.134  11.084
    3MPD2     C14641   4.247   0.842  10.447
    3MPD2    C114642   4.214   0.807  10.578
    3MPD2    C214643   4.085   0.798  10.615
    3MPD2    C314644   3.983   0.815  10.521
    3MPD2    C414645   4.014   0.833  10.391
    3MPD2    C514646   4.146   0.842  10.352
    3MPD2     H14647   4.063   0.769  10.717
    3MPD2    H114648   3.940   0.835  10.312
    3MPD2    H214649   4.347   0.839  10.405
    3MPD2    H314650   4.172   0.855  10.247
    3MPD2     N14651   3.853   0.791  10.570
    3MPD2    H514652   3.853   0.751  10.663
    3MPD2    N114653   4.308   0.791  10.680
    3MPD2    H714654   4.274   0.753  10.768
    4MPD2     C14655   3.872   0.830  11.208
    4MPD2    C114656   3.885   0.780  11.081
    4MPD2    C214657   4.006   0.719  11.047
    4MPD2    C314658   4.107   0.707  11.142
    4MPD2    C414659   4.093   0.761  11.268
    4MPD2    C514660   3.972   0.818  11.300
    4MPD2     H14661   4.025   0.663  10.956
    4MPD2    H114662   4.173   0.751  11.341
    4MPD2    H214663   3.778   0.871  11.242
    4MPD2    H314664   3.945   0.845  11.401
    4MPD2     N14665   4.233   0.641  11.119
    4MPD2    H514666   4.293   0.634  11.200
    4MPD2    N114667   3.769   0.785  10.995
    4MPD2    H714668   3.685   0.830  11.032
    5MPD2     C14669   3.944   0.068  10.827
    5MPD2    C114670   4.009   0.185  10.799
    5MPD2    C214671   3.944   0.294  10.752
    5MPD2    C314672   3.806   0.288  10.737
    5MPD2    C414673   3.747   0.161  10.749
    5MPD2    C514674   3.812   0.054  10.805
    5MPD2     H14675   4.000   0.386  10.739
    5MPD2    H114676   3.639   0.153  10.735
    5MPD2    H214677   3.998   4.770  10.868
    5MPD2    H314678   3.770   4.742  10.814
    5MPD2     N14679   3.732   0.406  10.722
    5MPD2    H514680   3.782   0.494  10.733
    5MPD2    N114681   4.142   0.190  10.843
    5MPD2    H714682   4.164   0.122  10.915
    6TMC3    C114683   3.627   0.725  10.821
    6TMC3    C214684   3.587   0.597  10.806
    6TMC3    C314685   3.561   0.543  10.685
    6TMC3    C414686   3.638   0.807  10.715
    6TMC3    C514687   3.623   0.753  10.591
    6TMC3    C614688   3.586   0.621  10.579
    6TMC3     C14689   3.755   0.716  10.882
    6TMC3     O14690   3.837   0.664  10.808
    6TMC3     H14691   3.589   0.536  10.896
    6TMC3    H114692   3.661   0.912  10.733
    6TMC3    H214693   3.582   0.577  10.480
    6TMC3    C714694   3.733   0.784  10.501
    6TMC3    C814695   3.610   0.409  10.659
    6TMC3    O114696   3.707   0.778  10.379
    6TMC3    O214697   3.528   0.322  10.641
  958TMC0    C114698   2.943   1.964  15.299
  958TMC0    C214699   2.940   1.828  15.313
  958TMC0    C314700   2.918   1.776  15.432
  958TMC0    C414701   2.946   2.056  15.402
  958TMC0    C514702   2.904   1.998  15.518
  958TMC0    C614703   2.903   1.860  15.539
  958TMC0     C14704   2.951   2.024  15.166
  958TMC0     O14705   3.013   2.128  15.145
  958TMC0     H14706   2.971   1.763  15.232
  958TMC0    H114707   2.959   2.160  15.377
  958TMC0    H214708   2.879   1.810  15.632
  958TMC0    C714709   2.942   2.060  15.640
  958TMC0    C814710   2.925   1.632  15.440
  958TMC0    O114711   2.899   2.029  15.749
  958TMC0    O214712   2.993   1.554  15.368
  958TMC0    O314713   3.074   2.087  15.606
  958TMC0    H314714   3.095   2.090  15.511
  958TMC0    O414715   2.874   1.952  15.080
  958TMC0    H414716   2.823   1.881  15.125
  958TMC0    O514717   2.822   1.592  15.511
  958TMC0    H514718   2.773   1.663  15.558
  959TMC0    C114719   3.322   0.946   6.464
  959TMC0    C214720   3.324   0.900   6.333
  959TMC0    C314721   3.233   0.934   6.239
  959TMC0    C414722   3.218   1.013   6.508
  959TMC0    C514723   3.124   1.055   6.413
  959TMC0    C614724   3.134   1.014   6.281
  959TMC0     C14725   3.428   0.907   6.562
  959TMC0     O14726   3.535   0.860   6.520
  959TMC0     H14727   3.405   0.833   6.303
  959TMC0    H114728   3.217   1.049   6.610
  959TMC0    H214729   3.046   1.036   6.221
  959TMC0    C714730   2.996   1.095   6.464
  959TMC0    C814731   3.270   0.915   6.100
  959TMC0    O114732   2.894   1.042   6.420
  959TMC0    O214733   3.383   0.876   6.070
  959TMC0    O314734   3.005   1.130   6.590
  959TMC0    H314735   3.078   1.195   6.600
  959TMC0    O414736   3.358   0.846   6.661
  959TMC0    H414737   3.271   0.888   6.680
  959TMC0    O514738   3.166   0.884   6.021
  959TMC0    H514739   3.077   0.903   6.059
  960TMC0    C114740   3.566   0.021   9.103
  960TMC0    C214741   3.578   0.052   8.972
  960TMC0    C314742   3.477   0.046   8.887
  960TMC0    C414743   3.433   0.016   9.152
  960TMC0    C514744   3.330   0.013   9.064
  960TMC0    C614745   3.351   0.016   8.935
  960TMC0     C14746   3.676   0.008   9.202
  960TMC0     O14747   3.790   0.042   9.170
  960TMC0     H14748   3.682   0.062   8.943
  960TMC0    H114749   3.407   4.770   9.252
  960TMC0    H214750   3.283   4.780   8.854
  960TMC0    C714751   3.207   4.734   9.100
  960TMC0    C814752   3.460   0.149   8.787
  960TMC0    O114753   3.193   4.614   9.066
  960TMC0    O214754   3.351   0.207   8.788
  960TMC0    O314755   3.176   4.785   9.222
  960TMC0    H314756   3.171   0.096   9.215
  960TMC0    O414757   3.657   4.686   9.282
  960TMC0    H414758   3.565   4.652   9.290
  960TMC0    O514759   3.576   0.207   8.788
  960TMC0    H514760   3.634   0.133   8.759
  961SOL     OW14761   1.258   2.097   3.521
  961SOL    HW114762   1.261   2.007   3.554
  961SOL    HW214763   1.307   2.148   3.586
  962SOL     OW14764   3.741   1.020  20.802
  962SOL    HW114765   3.654   1.060  20.807
  962SOL    HW214766   3.801   1.090  20.826
  963SOL     OW14767   2.636   1.340   3.900
  963SOL    HW114768   2.659   1.386   3.820
  963SOL    HW214769   2.630   1.248   3.875
  964SOL     OW14770   1.204   2.380   5.045
  964SOL    HW114771   1.278   2.346   4.994
  964SOL    HW214772   1.244   2.439   5.109
  965SOL     OW14773   1.671   2.336  16.007
  965SOL    HW114774   1.600   2.343  15.942
  965SOL    HW214775   1.705   2.425  16.014
  966SOL     OW14776   4.723   2.505  16.191
  966SOL    HW114777   0.029   2.484  16.203
  966SOL    HW214778   4.719   2.600  16.193
  967SOL     OW14779   1.113   4.401   3.683
  967SOL    HW114780   1.202   4.407   3.647
  967SOL    HW214781   1.056   4.427   3.610
  968SOL     OW14782   2.556   3.991  12.545
  968SOL    HW114783   2.648   4.018  12.547
  968SOL    HW214784   2.513   4.048  12.609
  969SOL     OW14785   1.958   3.520   6.531
  969SOL    HW114786   2.038   3.468   6.524
  969SOL    HW214787   1.904   3.474   6.594
  970SOL     OW14788   1.507   1.328  13.507
  970SOL    HW114789   1.457   1.287  13.436
  970SOL    HW214790   1.507   1.263  13.577
  971SOL     OW14791   2.190   1.872  20.495
  971SOL    HW114792   2.208   1.846  20.404
  971SOL    HW214793   2.129   1.945  20.488
  972SOL     OW14794   3.089   2.366   7.324
  972SOL    HW114795   3.150   2.396   7.257
  972SOL    HW214796   3.060   2.280   7.292
  973SOL     OW14797   4.368   0.514   3.062
  973SOL    HW114798   4.360   0.555   2.976
  973SOL    HW214799   4.278   0.501   3.092
  974SOL     OW14800   0.401   4.330   5.606
  974SOL    HW114801   0.388   4.254   5.663
  974SOL    HW214802   0.464   4.384   5.652
  975SOL     OW14803   1.466   3.373   3.672
  975SOL    HW114804   1.393   3.429   3.646
  975SOL    HW214805   1.510   3.421   3.742
  976SOL     OW14806   1.925   2.264   3.537
  976SOL    HW114807   1.836   2.241   3.562
  976SOL    HW214808   1.958   2.187   3.491
  977SOL     OW14809   2.424   4.739   4.061
  977SOL    HW114810   2.449   0.044   4.050
  977SOL    HW214811   2.407   4.729   4.154
  978SOL     OW14812   1.471   3.340  15.602
  978SOL    HW114813   1.376   3.329  15.606
  978SOL    HW214814   1.499   3.337  15.693
  979SOL     OW14815   4.510   0.118   2.049
  979SOL    HW114816   4.566   0.091   1.976
  979SOL    HW214817   4.566   0.111   2.126
  980SOL     OW14818   0.991   0.377  17.532
  980SOL    HW114819   1.012   0.468  17.553
  980SOL    HW214820   0.984   0.375  17.437
  981SOL     OW14821   4.058   3.827  16.137
  981SOL    HW114822   4.151   3.821  16.112
  981SOL    HW214823   4.057   3.814  16.231
  982SOL     OW14824   3.666   4.557  19.766
  982SOL    HW114825   3.643   4.484  19.824
  982SOL    HW214826   3.712   4.619  19.824
  983SOL     OW14827   1.917   1.513   0.350
  983SOL    HW114828   1.946   1.451   0.416
  983SOL    HW214829   1.931   1.599   0.390
  984SOL     OW14830   0.870   4.012  20.351
  984SOL    HW114831   0.951   3.964  20.369
  984SOL    HW214832   0.898   4.104  20.342
  985SOL     OW14833   3.608   1.732   2.539
  985SOL    HW114834   3.690   1.687   2.519
  985SOL    HW214835   3.606   1.807   2.480
  986SOL     OW14836   1.217   4.074  20.732
  986SOL    HW114837   1.234   4.145  20.670
  986SOL    HW214838   1.297   4.071  20.786
  987SOL     OW14839   2.396   3.579  17.763
  987SOL    HW114840   2.315   3.627  17.785
  987SOL    HW214841   2.438   3.633  17.697
  988SOL     OW14842   1.222   4.745  18.403
  988SOL    HW114843   1.302   0.010  18.394
  988SOL    HW214844   1.237   4.668  18.349
  989SOL     OW14845   0.551   3.195  15.548
  989SOL    HW114846   0.511   3.279  15.525
  989SOL    HW214847   0.531   3.138  15.474
  990SOL     OW14848   0.160   4.404  20.312
  990SOL    HW114849   0.210   4.437  20.237
  990SOL    HW214850   0.126   4.483  20.353
  991SOL     OW14851   2.703   1.606   3.277
  991SOL    HW114852   2.792   1.621   3.245
  991SOL    HW214853   2.670   1.534   3.224
  992SOL     OW14854   4.479   3.794  18.979
  992SOL    HW114855   4.483   3.702  18.954
  992SOL    HW214856   4.484   3.793  19.075
  993SOL     OW14857   3.679   4.071   0.466
  993SOL    HW114858   3.744   4.082   0.397
  993SOL    HW214859   3.713   4.122   0.540
  994SOL     OW14860   0.971   3.365  20.298
  994SOL    HW114861   0.908   3.382  20.228
  994SOL    HW214862   0.918   3.360  20.377
  995SOL     OW14863   2.385   4.305   1.779
  995SOL    HW114864   2.435   4.241   1.829
  995SOL    HW214865   2.327   4.252   1.724
  996SOL     OW14866   3.722   2.149  17.308
  996SOL    HW114867   3.666   2.216  17.346
  996SOL    HW214868   3.746   2.093  17.381
  997SOL     OW14869   1.952   0.168  19.257
  997SOL    HW114870   1.870   0.135  19.221
  997SOL    HW214871   2.020   0.127  19.202
  998SOL     OW14872   2.831   1.890  19.920
  998SOL    HW114873   2.842   1.901  19.825
  998SOL    HW214874   2.755   1.833  19.929
  999SOL     OW14875   2.016   2.471  15.513
  999SOL    HW114876   2.019   2.375  15.510
  999SOL    HW214877   1.982   2.491  15.600
 1000SOL     OW14878   0.599   0.784  18.448
 1000SOL    HW114879   0.671   0.793  18.386
 1000SOL    HW214880   0.523   0.820  18.403
 1001SOL     OW14881   4.393   1.327  15.342
 1001SOL    HW114882   4.399   1.250  15.286
 1001SOL    HW214883   4.304   1.325  15.378
 1002SOL     OW14884   2.774   2.367  17.557
 1002SOL    HW114885   2.687   2.340  17.527
 1002SOL    HW214886   2.824   2.285  17.559
 1003SOL     OW14887   1.548   0.511  19.693
 1003SOL    HW114888   1.517   0.601  19.694
 1003SOL    HW214889   1.472   0.459  19.721
 1004SOL     OW14890   4.410   2.055  18.892
 1004SOL    HW114891   4.494   2.020  18.921
 1004SOL    HW214892   4.369   2.089  18.972
 1005SOL     OW14893   3.789   3.478   4.535
 1005SOL    HW114894   3.715   3.428   4.501
 1005SOL    HW214895   3.865   3.423   4.518
 1006SOL     OW14896   1.870   4.712  20.816
 1006SOL    HW114897   1.885   4.777  20.885
 1006SOL    HW214898   1.849   4.764  20.738
 1007SOL     OW14899   4.547   3.277  19.594
 1007SOL    HW114900   4.562   3.346  19.658
 1007SOL    HW214901   4.603   3.205  19.623
 1008SOL     OW14902   2.521   1.030   3.613
 1008SOL    HW114903   2.453   1.027   3.545
 1008SOL    HW214904   2.518   1.121   3.645
 1009SOL     OW14905   0.068   2.920  20.931
 1009SOL    HW114906   0.148   2.876  20.902
 1009SOL    HW214907   0.001   2.852  20.929
 1010SOL     OW14908   1.622   1.176   1.498
 1010SOL    HW114909   1.694   1.113   1.506
 1010SOL    HW214910   1.578   1.152   1.417
 1011SOL     OW14911   0.759   1.788   2.656
 1011SOL    HW114912   0.767   1.758   2.565
 1011SOL    HW214913   0.814   1.867   2.660
 1012SOL     OW14914   2.445   3.384   5.389
 1012SOL    HW114915   2.377   3.438   5.429
 1012SOL    HW214916   2.448   3.413   5.298
 1013SOL     OW14917   2.479   0.436   0.928
 1013SOL    HW114918   2.566   0.476   0.919
 1013SOL    HW214919   2.491   0.366   0.992
 1014SOL     OW14920   1.164   1.529   0.697
 1014SOL    HW114921   1.224   1.479   0.642
 1014SOL    HW214922   1.108   1.463   0.738
 1015SOL     OW14923   1.608   4.214   1.422
 1015SOL    HW114924   1.583   4.142   1.363
 1015SOL    HW214925   1.558   4.289   1.390
 1016SOL     OW14926   0.503   0.010   3.919
 1016SOL    HW114927   0.598   0.002   3.929
 1016SOL    HW214928   0.472   0.048   4.001
 1017SOL     OW14929   2.233   3.205  17.389
 1017SOL    HW114930   2.323   3.174  17.382
 1017SOL    HW214931   2.196   3.156  17.462
 1018SOL     OW14932   3.888   1.739  17.287
 1018SOL    HW114933   3.820   1.771  17.347
 1018SOL    HW214934   3.953   1.809  17.285
 1019SOL     OW14935   0.774   3.599  16.732
 1019SOL    HW114936   0.737   3.661  16.669
 1019SOL    HW214937   0.826   3.539  16.680
 1020SOL     OW14938   3.045   4.289   4.877
 1020SOL    HW114939   3.109   4.221   4.902
 1020SOL    HW214940   3.051   4.354   4.946
 1021SOL     OW14941   4.620   2.552  21.140
 1021SOL    HW114942   4.617   2.597  21.225
 1021SOL    HW214943   4.543   2.494  21.141
 1022SOL     OW14944   2.744   2.305   4.809
 1022SOL    HW114945   2.723   2.291   4.717
 1022SOL    HW214946   2.661   2.327   4.850
 1023SOL     OW14947   1.134   0.757  18.073
 1023SOL    HW114948   1.133   0.837  18.022
 1023SOL    HW214949   1.049   0.716  18.056
 1024SOL     OW14950   1.973   0.313  15.927
 1024SOL    HW114951   1.885   0.344  15.907
 1024SOL    HW214952   1.964   0.218  15.934
 1025SOL     OW14953   0.032   1.332   0.151
 1025SOL    HW114954   0.058   1.277   0.077
 1025SOL    HW214955   0.011   1.417   0.111
 1026SOL     OW14956   3.704   4.129  18.938
 1026SOL    HW114957   3.628   4.179  18.968
 1026SOL    HW214958   3.774   4.193  18.930
 1027SOL     OW14959   1.600   1.326   6.091
 1027SOL    HW114960   1.634   1.413   6.113
 1027SOL    HW214961   1.632   1.269   6.161
 1028SOL     OW14962   4.489   3.149   2.155
 1028SOL    HW114963   4.540   3.197   2.090
 1028SOL    HW214964   4.403   3.138   2.115
 1029SOL     OW14965   3.467   3.996   6.239
 1029SOL    HW114966   3.488   3.932   6.307
 1029SOL    HW214967   3.471   4.081   6.284
 1030SOL     OW14968   2.080   3.158  20.264
 1030SOL    HW114969   2.043   3.151  20.352
 1030SOL    HW214970   2.161   3.208  20.276
 1031SOL     OW14971   1.852   3.223   0.206
 1031SOL    HW114972   1.907   3.217   0.128
 1031SOL    HW214973   1.770   3.260   0.175
 1032SOL     OW14974   1.182   1.334  15.654
 1032SOL    HW114975   1.201   1.394  15.726
 1032SOL    HW214976   1.181   1.248  15.694
 1033SOL     OW14977   1.171   4.718   0.902
 1033SOL    HW114978   1.199   4.770   0.827
 1033SOL    HW214979   1.204   4.630   0.884
 1034SOL     OW14980   4.009   4.726   3.848
 1034SOL    HW114981   3.998   4.646   3.796
 1034SOL    HW214982   4.076   4.776   3.800
 1035SOL     OW14983   2.573   4.454   1.095
 1035SOL    HW114984   2.557   4.506   1.174
 1035SOL    HW214985   2.575   4.363   1.126
 1036SOL     OW14986   4.540   0.978   3.872
 1036SOL    HW114987   4.503   0.900   3.831
 1036SOL    HW214988   4.540   0.959   3.965
 1037SOL     OW14989   4.116   4.419   8.229
 1037SOL    HW114990   4.093   4.501   8.272
 1037SOL    HW214991   4.212   4.420   8.226
 1038SOL     OW14992   3.373   3.661  20.267
 1038SOL    HW114993   3.373   3.604  20.344
 1038SOL    HW214994   3.362   3.602  20.193
 1039SOL     OW14995   0.688   3.584  19.308
 1039SOL    HW114996   0.694   3.669  19.266
 1039SOL    HW214997   0.765   3.579  19.365
 1040SOL     OW14998   1.058   1.187  20.271
 1040SOL    HW114999   1.096   1.198  20.184
 1040SOL    HW215000   0.977   1.139  20.256
 1041SOL     OW15001   4.659   1.952   7.419
 1041SOL    HW115002   4.704   1.951   7.503
 1041SOL    HW215003   4.567   1.939   7.441
 1042SOL     OW15004   0.249   0.174  19.058
 1042SOL    HW115005   0.331   0.126  19.048
 1042SOL    HW215006   0.181   0.107  19.057
 1043SOL     OW15007   3.930   3.946  15.357
 1043SOL    HW115008   3.951   3.857  15.382
 1043SOL    HW215009   4.015   3.989  15.347
 1044SOL     OW15010   2.180   1.805  15.754
 1044SOL    HW115011   2.155   1.759  15.673
 1044SOL    HW215012   2.178   1.737  15.821
 1045SOL     OW15013   1.076   2.896  16.345
 1045SOL    HW115014   1.096   2.821  16.400
 1045SOL    HW215015   1.001   2.938  16.388
 1046SOL     OW15016   3.522   3.450   1.176
 1046SOL    HW115017   3.595   3.425   1.232
 1046SOL    HW215018   3.541   3.540   1.150
 1047SOL     OW15019   4.188   3.988  18.906
 1047SOL    HW115020   4.274   4.028  18.892
 1047SOL    HW215021   4.130   4.062  18.925
 1048SOL     OW15022   2.464   4.730  19.582
 1048SOL    HW115023   2.515   4.712  19.661
 1048SOL    HW215024   2.521   4.705  19.510
 1049SOL     OW15025   2.370   2.956  16.574
 1049SOL    HW115026   2.396   2.893  16.507
 1049SOL    HW215027   2.452   2.988  16.611
 1050SOL     OW15028   0.824   1.765   5.198
 1050SOL    HW115029   0.872   1.844   5.220
 1050SOL    HW215030   0.811   1.771   5.103
 1051SOL     OW15031   4.715   0.273   0.599
 1051SOL    HW115032   4.768   0.238   0.671
 1051SOL    HW215033   4.710   0.367   0.617
 1052SOL     OW15034   4.383   4.293  16.071
 1052SOL    HW115035   4.478   4.287  16.078
 1052SOL    HW215036   4.365   4.387  16.072
 1053SOL     OW15037   3.710   4.492  18.329
 1053SOL    HW115038   3.706   4.587  18.315
 1053SOL    HW215039   3.622   4.469  18.360
 1054SOL     OW15040   2.778   3.455   0.909
 1054SOL    HW115041   2.791   3.547   0.887
 1054SOL    HW215042   2.866   3.424   0.933
 1055SOL     OW15043   0.732   1.675  17.242
 1055SOL    HW115044   0.735   1.583  17.270
 1055SOL    HW215045   0.792   1.679  17.167
 1056SOL     OW15046   2.040   0.720   0.858
 1056SOL    HW115047   2.133   0.711   0.837
 1056SOL    HW215048   2.023   0.814   0.851
 1057SOL     OW15049   1.615   4.019   6.390
 1057SOL    HW115050   1.665   3.938   6.406
 1057SOL    HW215051   1.663   4.087   6.437
 1058SOL     OW15052   1.400   2.192   6.855
 1058SOL    HW115053   1.308   2.216   6.857
 1058SOL    HW215054   1.438   2.250   6.789
 1059SOL     OW15055   1.618   0.835  17.367
 1059SOL    HW115056   1.639   0.895  17.439
 1059SOL    HW215057   1.654   0.878  17.290
 1060SOL     OW15058   3.991   0.139  19.683
 1060SOL    HW115059   3.983   0.144  19.778
 1060SOL    HW215060   4.078   0.172  19.664
 1061SOL     OW15061   3.719   0.696  16.246
 1061SOL    HW115062   3.723   0.618  16.191
 1061SOL    HW215063   3.669   0.760  16.194
 1062SOL     OW15064   2.828   3.621   2.300
 1062SOL    HW115065   2.872   3.542   2.269
 1062SOL    HW215066   2.749   3.590   2.345
 1063SOL     OW15067   0.212   3.521  15.543
 1063SOL    HW115068   0.132   3.469  15.540
 1063SOL    HW215069   0.228   3.533  15.637
 1064SOL     OW15070   1.418   3.922   3.931
 1064SOL    HW115071   1.481   3.850   3.932
 1064SOL    HW215072   1.408   3.946   4.023
 1065SOL     OW15073   1.065   4.136  18.526
 1065SOL    HW115074   1.123   4.111  18.597
 1065SOL    HW215075   1.111   4.208  18.482
 1066SOL     OW15076   3.715   3.386   0.323
 1066SOL    HW115077   3.788   3.324   0.321
 1066SOL    HW215078   3.675   3.374   0.409
 1067SOL     OW15079   1.093   1.775  16.075
 1067SOL    HW115080   1.083   1.699  16.132
 1067SOL    HW215081   1.186   1.775  16.050
 1068SOL     OW15082   4.564   2.976  16.077
 1068SOL    HW115083   4.547   3.059  16.121
 1068SOL    HW215084   4.477   2.943  16.053
 1069SOL     OW15085   4.143   3.259   3.325
 1069SOL    HW115086   4.054   3.228   3.307
 1069SOL    HW215087   4.149   3.342   3.279
 1070SOL     OW15088   1.016   2.938  18.726
 1070SOL    HW115089   1.095   2.915  18.676
 1070SOL    HW215090   1.007   2.869  18.791
 1071SOL     OW15091   2.008   2.108  16.687
 1071SOL    HW115092   2.020   2.013  16.690
 1071SOL    HW215093   2.077   2.143  16.743
 1072SOL     OW15094   3.854   0.586   3.051
 1072SOL    HW115095   3.897   0.545   2.976
 1072SOL    HW215096   3.920   0.644   3.088
 1073SOL     OW15097   2.754   1.613   2.290
 1073SOL    HW115098   2.683   1.577   2.343
 1073SOL    HW215099   2.818   1.645   2.353
 1074SOL     OW15100   1.842   4.526   5.140
 1074SOL    HW115101   1.860   4.562   5.228
 1074SOL    HW215102   1.926   4.492   5.111
 1075SOL     OW15103   2.472   1.570  21.135
 1075SOL    HW115104   2.447   1.483  21.168
 1075SOL    HW215105   2.537   1.551  21.067
 1076SOL     OW15106   1.048   4.761  20.898
 1076SOL    HW115107   0.990   0.022  20.957
 1076SOL    HW215108   0.994   4.688  20.866
 1077SOL     OW15109   0.474   0.059   7.831
 1077SOL    HW115110   0.455   0.036   7.922
 1077SOL    HW215111   0.474   4.763   7.784
 1078SOL     OW15112   0.266   0.450   2.771
 1078SOL    HW115113   0.217   0.516   2.722
 1078SOL    HW215114   0.347   0.496   2.798
 1079SOL     OW15115   2.257   1.265  14.877
 1079SOL    HW115116   2.335   1.226  14.918
 1079SOL    HW215117   2.187   1.250  14.941
 1080SOL     OW15118   4.408   2.908  16.795
 1080SOL    HW115119   4.488   2.930  16.748
 1080SOL    HW215120   4.414   2.957  16.878
 1081SOL     OW15121   2.080   1.962   2.033
 1081SOL    HW115122   2.043   2.050   2.026
 1081SOL    HW215123   2.145   1.957   1.963
 1082SOL     OW15124   4.510   4.687  19.747
 1082SOL    HW115125   4.557   4.747  19.805
 1082SOL    HW215126   4.470   4.744  19.681
 1083SOL     OW15127   1.387   2.353   2.407
 1083SOL    HW115128   1.437   2.417   2.458
 1083SOL    HW215129   1.448   2.282   2.392
 1084SOL     OW15130   0.718   3.611   5.323
 1084SOL    HW115131   0.776   3.687   5.328
 1084SOL    HW215132   0.777   3.536   5.318
 1085SOL     OW15133   3.802   3.106  12.324
 1085SOL    HW115134   3.793   3.182  12.267
 1085SOL    HW215135   3.714   3.068  12.328
 1086SOL     OW15136   2.614   4.242   5.333
 1086SOL    HW115137   2.595   4.150   5.316
 1086SOL    HW215138   2.709   4.248   5.333
 1087SOL     OW15139   0.294   0.749  20.626
 1087SOL    HW115140   0.371   0.693  20.617
 1087SOL    HW215141   0.223   0.688  20.649
 1088SOL     OW15142   1.290   1.175  19.741
 1088SOL    HW115143   1.341   1.110  19.790
 1088SOL    HW215144   1.355   1.233  19.703
 1089SOL     OW15145   4.134   0.500  21.074
 1089SOL    HW115146   4.177   0.416  21.084
 1089SOL    HW215147   4.064   0.484  21.011
 1090SOL     OW15148   1.277   0.051  16.513
 1090SOL    HW115149   1.216   0.116  16.479
 1090SOL    HW215150   1.318   0.093  16.588
 1091SOL     OW15151   1.718   2.819  19.984
 1091SOL    HW115152   1.760   2.825  20.069
 1091SOL    HW215153   1.790   2.821  19.921
 1092SOL     OW15154   3.005   1.362   3.515
 1092SOL    HW115155   3.098   1.381   3.503
 1092SOL    HW215156   2.973   1.429   3.575
 1093SOL     OW15157   0.441   0.687  19.975
 1093SOL    HW115158   0.447   0.760  20.037
 1093SOL    HW215159   0.408   0.726  19.894
 1094SOL     OW15160   0.935   2.275   1.975
 1094SOL    HW115161   0.982   2.354   1.947
 1094SOL    HW215162   1.003   2.209   1.984
 1095SOL     OW15163   4.550   4.396  18.210
 1095SOL    HW115164   4.508   4.336  18.271
 1095SOL    HW215165   4.521   4.366  18.123
 1096SOL     OW15166   1.515   1.566  20.802
 1096SOL    HW115167   1.556   1.628  20.863
 1096SOL    HW215168   1.581   1.552  20.734
 1097SOL     OW15169   1.685   4.629   4.339
 1097SOL    HW115170   1.758   4.611   4.279
 1097SOL    HW215171   1.692   4.723   4.357
 1098SOL     OW15172   4.696   1.418   5.542
 1098SOL    HW115173   4.720   1.330   5.513
 1098SOL    HW215174   4.748   1.476   5.487
 1099SOL     OW15175   3.877   4.203   4.323
 1099SOL    HW115176   3.869   4.149   4.402
 1099SOL    HW215177   3.789   4.237   4.308
 1100SOL     OW15178   0.446   4.361  17.937
 1100SOL    HW115179   0.374   4.350  17.999
 1100SOL    HW215180   0.440   4.284  17.880
 1101SOL     OW15181   2.415   2.142   6.933
 1101SOL    HW115182   2.510   2.131   6.929
 1101SOL    HW215183   2.381   2.083   6.865
 1102SOL     OW15184   2.237   2.765  17.821
 1102SOL    HW115185   2.267   2.817  17.746
 1102SOL    HW215186   2.151   2.731  17.794
 1103SOL     OW15187   0.403   4.198   5.172
 1103SOL    HW115188   0.463   4.211   5.099
 1103SOL    HW215189   0.436   4.255   5.241
 1104SOL     OW15190   3.207   1.412   4.144
 1104SOL    HW115191   3.230   1.486   4.200
 1104SOL    HW215192   3.119   1.387   4.171
 1105SOL     OW15193   1.053   1.268  16.084
 1105SOL    HW115194   1.127   1.290  16.141
 1105SOL    HW215195   1.093   1.218  16.013
 1106SOL     OW15196   0.990   3.346  17.644
 1106SOL    HW115197   0.932   3.363  17.718
 1106SOL    HW215198   1.072   3.390  17.666
 1107SOL     OW15199   3.367   0.403   5.062
 1107SOL    HW115200   3.437   0.397   4.997
 1107SOL    HW215201   3.314   0.478   5.033
 1108SOL     OW15202   0.128   3.284   3.569
 1108SOL    HW115203   0.187   3.257   3.499
 1108SOL    HW215204   0.092   3.368   3.540
 1109SOL     OW15205   0.505   2.512  17.485
 1109SOL    HW115206   0.442   2.451  17.524
 1109SOL    HW215207   0.570   2.455  17.443
 1110SOL     OW15208   3.475   4.757  18.259
 1110SOL    HW115209   3.467   0.065  18.274
 1110SOL    HW215210   3.390   4.732  18.222
 1111SOL     OW15211   2.092   0.848  19.609
 1111SOL    HW115212   2.092   0.845  19.513
 1111SOL    HW215213   2.027   0.783  19.635
 1112SOL     OW15214   1.904   3.913  19.358
 1112SOL    HW115215   1.983   3.864  19.337
 1112SOL    HW215216   1.878   3.954  19.276
 1113SOL     OW15217   2.882   0.043  15.691
 1113SOL    HW115218   2.892   4.744  15.649
 1113SOL    HW215219   2.854   0.023  15.780
 1114SOL     OW15220   2.712   4.132  20.750
 1114SOL    HW115221   2.784   4.124  20.688
 1114SOL    HW215222   2.650   4.065  20.724
 1115SOL     OW15223   2.317   0.960   1.351
 1115SOL    HW115224   2.381   1.028   1.370
 1115SOL    HW215225   2.267   0.951   1.432
 1116SOL     OW15226   1.412   1.364   3.776
 1116SOL    HW115227   1.321   1.394   3.769
 1116SOL    HW215228   1.441   1.354   3.685
 1117SOL     OW15229   0.097   1.743  16.559
 1117SOL    HW115230   0.076   1.670  16.501
 1117SOL    HW215231   0.086   1.821  16.504
 1118SOL     OW15232   1.125   0.982  21.097
 1118SOL    HW115233   1.184   1.057  21.094
 1118SOL    HW215234   1.041   1.016  21.065
 1119SOL     OW15235   2.325   3.795   4.839
 1119SOL    HW115236   2.293   3.771   4.752
 1119SOL    HW215237   2.407   3.840   4.823
 1120SOL     OW15238   0.094   2.478   2.634
 1120SOL    HW115239   0.081   2.485   2.539
 1120SOL    HW215240   0.161   2.543   2.653
 1121SOL     OW15241   1.024   1.335   3.735
 1121SOL    HW115242   1.084   1.299   3.801
 1121SOL    HW215243   1.021   1.267   3.667
 1122SOL     OW15244   1.472   2.177   1.231
 1122SOL    HW115245   1.419   2.138   1.161
 1122SOL    HW215246   1.485   2.268   1.203
 1123SOL     OW15247   4.152   2.383  16.565
 1123SOL    HW115248   4.130   2.301  16.610
 1123SOL    HW215249   4.159   2.448  16.635
 1124SOL     OW15250   1.358   2.284   3.803
 1124SOL    HW115251   1.306   2.203   3.807
 1124SOL    HW215252   1.423   2.273   3.873
 1125SOL     OW15253   0.757   1.075   4.259
 1125SOL    HW115254   0.744   1.166   4.232
 1125SOL    HW215255   0.754   1.077   4.355
 1126SOL     OW15256   1.845   1.058   2.350
 1126SOL    HW115257   1.786   1.028   2.419
 1126SOL    HW215258   1.900   1.124   2.392
 1127SOL     OW15259   0.732   3.732  17.346
 1127SOL    HW115260   0.685   3.650  17.333
 1127SOL    HW215261   0.769   3.753  17.261
 1128SOL     OW15262   4.158   2.981  18.320
 1128SOL    HW115263   4.164   3.076  18.321
 1128SOL    HW215264   4.249   2.951  18.327
 1129SOL     OW15265   3.718   2.137   8.830
 1129SOL    HW115266   3.784   2.100   8.772
 1129SOL    HW215267   3.655   2.066   8.842
 1130SOL     OW15268   4.009   0.505   4.583
 1130SOL    HW115269   4.019   0.555   4.502
 1130SOL    HW215270   4.050   0.420   4.564
 1131SOL     OW15271   4.136   4.454   1.065
 1131SOL    HW115272   4.077   4.398   1.115
 1131SOL    HW215273   4.153   4.529   1.122
 1132SOL     OW15274   2.347   2.445   2.103
 1132SOL    HW115275   2.410   2.373   2.112
 1132SOL    HW215276   2.384   2.515   2.158
 1133SOL     OW15277   4.599   0.274   7.540
 1133SOL    HW115278   4.679   0.311   7.579
 1133SOL    HW215279   4.584   0.193   7.588
 1134SOL     OW15280   3.727   4.186  12.485
 1134SOL    HW115281   3.760   4.100  12.510
 1134SOL    HW215282   3.651   4.200  12.542
 1135SOL     OW15283   0.914   2.863   0.263
 1135SOL    HW115284   0.888   2.798   0.198
 1135SOL    HW215285   0.983   2.913   0.220
 1136SOL     OW15286   4.654   0.640   1.986
 1136SOL    HW115287   4.656   0.580   2.061
 1136SOL    HW215288   4.571   0.687   1.996
 1137SOL     OW15289   0.800   1.589   0.002
 1137SOL    HW115290   0.890   1.557   0.004
 1137SOL    HW215291   0.783   1.618   0.091
 1138SOL     OW15292   1.312   0.246  17.045
 1138SOL    HW115293   1.374   0.198  17.099
 1138SOL    HW215294   1.313   0.335  17.080
 1139SOL     OW15295   2.731   2.285   4.526
 1139SOL    HW115296   2.672   2.359   4.509
 1139SOL    HW215297   2.715   2.224   4.453
 1140SOL     OW15298   4.329   1.251   2.911
 1140SOL    HW115299   4.298   1.341   2.896
 1140SOL    HW215300   4.401   1.240   2.849
 1141SOL     OW15301   0.250   1.234   5.640
 1141SOL    HW115302   0.210   1.298   5.700
 1141SOL    HW215303   0.175   1.188   5.602
 1142SOL     OW15304   2.705   2.723  20.059
 1142SOL    HW115305   2.792   2.738  20.094
 1142SOL    HW215306   2.680   2.636  20.092
 1143SOL     OW15307   0.612   2.646   5.519
 1143SOL    HW115308   0.630   2.686   5.604
 1143SOL    HW215309   0.572   2.561   5.540
 1144SOL     OW15310   2.770   4.320   4.934
 1144SOL    HW115311   2.799   4.239   4.976
 1144SOL    HW215312   2.842   4.344   4.876
 1145SOL     OW15313   4.201   0.779  17.814
 1145SOL    HW115314   4.259   0.708  17.841
 1145SOL    HW215315   4.194   0.835  17.892
 1146SOL     OW15316   2.037   3.247  18.513
 1146SOL    HW115317   2.100   3.261  18.583
 1146SOL    HW215318   1.976   3.320  18.519
 1147SOL     OW15319   1.826   1.785   3.684
 1147SOL    HW115320   1.763   1.777   3.613
 1147SOL    HW215321   1.777   1.825   3.756
 1148SOL     OW15322   1.978   3.903   0.957
 1148SOL    HW115323   1.910   3.902   1.025
 1148SOL    HW215324   1.935   3.942   0.881
 1149SOL     OW15325   4.286   3.047   0.497
 1149SOL    HW115326   4.376   3.059   0.525
 1149SOL    HW215327   4.276   3.106   0.422
 1150SOL     OW15328   3.303   1.728   4.299
 1150SOL    HW115329   3.252   1.737   4.379
 1150SOL    HW215330   3.238   1.729   4.228
 1151SOL     OW15331   4.176   3.849  17.875
 1151SOL    HW115332   4.165   3.881  17.785
 1151SOL    HW215333   4.087   3.842  17.909
 1152SOL     OW15334   2.739   0.968  15.911
 1152SOL    HW115335   2.723   0.928  15.997
 1152SOL    HW215336   2.679   0.922  15.852
 1153SOL     OW15337   0.193   1.488  19.664
 1153SOL    HW115338   0.132   1.466  19.734
 1153SOL    HW215339   0.241   1.407  19.646
 1154SOL     OW15340   3.826   3.773   4.562
 1154SOL    HW115341   3.814   3.681   4.540
 1154SOL    HW215342   3.901   3.774   4.622
 1155SOL     OW15343   2.443   1.067   5.558
 1155SOL    HW115344   2.418   1.009   5.485
 1155SOL    HW215345   2.478   1.008   5.624
 1156SOL     OW15346   4.308   4.628   5.798
 1156SOL    HW115347   4.272   4.576   5.870
 1156SOL    HW215348   4.241   4.693   5.779
 1157SOL     OW15349   0.851   0.177  13.776
 1157SOL    HW115350   0.901   0.200  13.697
 1157SOL    HW215351   0.776   0.127  13.743
 1158SOL     OW15352   4.626   3.432  15.586
 1158SOL    HW115353   4.538   3.426  15.622
 1158SOL    HW215354   4.623   3.378  15.507
 1159SOL     OW15355   0.748   0.672  16.062
 1159SOL    HW115356   0.830   0.695  16.018
 1159SOL    HW215357   0.720   0.591  16.020
 1160SOL     OW15358   1.091   1.483  20.534
 1160SOL    HW115359   1.155   1.418  20.504
 1160SOL    HW215360   1.138   1.533  20.601
 1161SOL     OW15361   0.790   0.843   5.532
 1161SOL    HW115362   0.759   0.834   5.622
 1161SOL    HW215363   0.804   0.753   5.502
 1162SOL     OW15364   4.471   3.748   2.144
 1162SOL    HW115365   4.477   3.657   2.173
 1162SOL    HW215366   4.383   3.776   2.169
 1163SOL     OW15367   1.548   2.106  18.799
 1163SOL    HW115368   1.557   2.184  18.854
 1163SOL    HW215369   1.637   2.070  18.795
 1164SOL     OW15370   0.913   4.265  16.613
 1164SOL    HW115371   0.916   4.311  16.529
 1164SOL    HW215372   0.847   4.312  16.664
 1165SOL     OW15373   3.316   3.050   6.888
 1165SOL    HW115374   3.356   3.125   6.844
 1165SOL    HW215375   3.223   3.056   6.865
 1166SOL     OW15376   1.279   4.771  13.406
 1166SOL    HW115377   1.274   0.071  13.367
 1166SOL    HW215378   1.373   4.755  13.416
 1167SOL     OW15379   2.782   2.811  17.067
 1167SOL    HW115380   2.832   2.873  17.119
 1167SOL    HW215381   2.690   2.831  17.086
 1168SOL     OW15382   1.326   4.561   1.790
 1168SOL    HW115383   1.294   4.644   1.754
 1168SOL    HW215384   1.381   4.588   1.864
 1169SOL     OW15385   4.103   0.656  16.555
 1169SOL    HW115386   4.180   0.631  16.504
 1169SOL    HW215387   4.092   0.584  16.617
 1170SOL     OW15388   1.749   4.269   6.486
 1170SOL    HW115389   1.669   4.320   6.477
 1170SOL    HW215390   1.813   4.314   6.430
 1171SOL     OW15391   0.956   3.619  14.497
 1171SOL    HW115392   0.931   3.671  14.421
 1171SOL    HW215393   0.933   3.674  14.572
 1172SOL     OW15394   1.094   1.949   1.398
 1172SOL    HW115395   1.039   2.005   1.343
 1172SOL    HW215396   1.176   1.997   1.406
 1173SOL     OW15397   4.091   4.155   0.536
 1173SOL    HW115398   4.006   4.196   0.551
 1173SOL    HW215399   4.130   4.205   0.464
 1174SOL     OW15400   4.512   3.935   7.999
 1174SOL    HW115401   4.592   3.887   8.020
 1174SOL    HW215402   4.480   3.895   7.919
 1175SOL     OW15403   0.734   2.138  20.821
 1175SOL    HW115404   0.655   2.190  20.802
 1175SOL    HW215405   0.717   2.099  20.907
 1176SOL     OW15406   0.470   4.643  19.435
 1176SOL    HW115407   0.375   4.657  19.442
 1176SOL    HW215408   0.479   4.565  19.381
 1177SOL     OW15409   3.839   1.747   5.918
 1177SOL    HW115410   3.927   1.785   5.912
 1177SOL    HW215411   3.848   1.673   5.978
 1178SOL     OW15412   0.860   0.090  16.311
 1178SOL    HW115413   0.780   0.129  16.346
 1178SOL    HW215414   0.931   0.133  16.360
 1179SOL     OW15415   0.650   1.386  19.692
 1179SOL    HW115416   0.674   1.464  19.642
 1179SOL    HW215417   0.673   1.313  19.635
 1180SOL     OW15418   4.511   4.380   1.937
 1180SOL    HW115419   4.548   4.411   1.854
 1180SOL    HW215420   4.434   4.435   1.951
 1181SOL     OW15421   3.250   0.464  20.435
 1181SOL    HW115422   3.328   0.409  20.446
 1181SOL    HW215423   3.186   0.407  20.392
 1182SOL     OW15424   2.287   2.992   3.051
 1182SOL    HW115425   2.383   2.999   3.052
 1182SOL    HW215426   2.262   2.994   3.143
 1183SOL     OW15427   1.415   2.879  15.658
 1183SOL    HW115428   1.398   2.950  15.721
 1183SOL    HW215429   1.388   2.915  15.574
 1184SOL     OW15430   0.420   2.157  17.913
 1184SOL    HW115431   0.502   2.207  17.913
 1184SOL    HW215432   0.447   2.067  17.933
 1185SOL     OW15433   2.161   4.490  14.177
 1185SOL    HW115434   2.132   4.504  14.087
 1185SOL    HW215435   2.256   4.500  14.173
 1186SOL     OW15436   3.811   3.636   0.016
 1186SOL    HW115437   3.898   3.601   0.032
 1186SOL    HW215438   3.823   3.701  21.191
 1187SOL     OW15439   3.349   4.710  17.992
 1187SOL    HW115440   3.313   4.785  17.944
 1187SOL    HW215441   3.440   4.733  18.007
 1188SOL     OW15442   3.750   4.172   1.881
 1188SOL    HW115443   3.814   4.219   1.828
 1188SOL    HW215444   3.741   4.087   1.837
 1189SOL     OW15445   0.395   1.077  16.611
 1189SOL    HW115446   0.470   1.117  16.654
 1189SOL    HW215447   0.422   1.069  16.519
 1190SOL     OW15448   1.417   4.476  18.526
 1190SOL    HW115449   1.463   4.420  18.588
 1190SOL    HW215450   1.466   4.467  18.444
 1191SOL     OW15451   1.887   3.373  16.429
 1191SOL    HW115452   1.982   3.379  16.442
 1191SOL    HW215453   1.877   3.366  16.334
 1192SOL     OW15454   2.883   0.562   2.926
 1192SOL    HW115455   2.877   0.543   3.020
 1192SOL    HW215456   2.964   0.611   2.917
 1193SOL     OW15457   1.604   3.833   1.658
 1193SOL    HW115458   1.661   3.832   1.581
 1193SOL    HW215459   1.566   3.745   1.660
 1194SOL     OW15460   3.686   0.032   2.628
 1194SOL    HW115461   3.597   0.023   2.663
 1194SOL    HW215462   3.743   0.022   2.703
 1195SOL     OW15463   0.941   3.173   4.391
 1195SOL    HW115464   0.975   3.130   4.469
 1195SOL    HW215465   0.926   3.264   4.418
 1196SOL     OW15466   1.136   2.996  16.772
 1196SOL    HW115467   1.071   3.052  16.729
 1196SOL    HW215468   1.132   2.913  16.723
 1197SOL     OW15469   3.332   3.865  19.784
 1197SOL    HW115470   3.366   3.853  19.695
 1197SOL    HW215471   3.248   3.820  19.784
 1198SOL     OW15472   2.788   1.082   1.638
 1198SOL    HW115473   2.853   1.029   1.684
 1198SOL    HW215474   2.821   1.087   1.548
 1199SOL     OW15475   3.514   1.778   4.130
 1199SOL    HW115476   3.479   1.860   4.096
 1199SOL    HW215477   3.449   1.749   4.194
 1200SOL     OW15478   1.487   1.192  15.554
 1200SOL    HW115479   1.521   1.126  15.494
 1200SOL    HW215480   1.523   1.170  15.639
 1201SOL     OW15481   0.149   1.166  17.680
 1201SOL    HW115482   0.169   1.115  17.759
 1201SOL    HW215483   0.064   1.206  17.698
 1202SOL     OW15484   4.662   3.682  14.514
 1202SOL    HW115485   4.642   3.747  14.582
 1202SOL    HW215486   4.643   3.726  14.432
 1203SOL     OW15487   0.232   2.293  18.710
 1203SOL    HW115488   0.164   2.307  18.644
 1203SOL    HW215489   0.245   2.198  18.711
 1204SOL     OW15490   4.213   1.076   3.999
 1204SOL    HW115491   4.281   1.139   3.977
 1204SOL    HW215492   4.196   1.028   3.918
 1205SOL     OW15493   0.703   3.376  17.308
 1205SOL    HW115494   0.775   3.436  17.326
 1205SOL    HW215495   0.746   3.298  17.271
 1206SOL     OW15496   2.942   2.407   4.671
 1206SOL    HW115497   2.900   2.408   4.585
 1206SOL    HW215498   2.879   2.366   4.729
 1207SOL     OW15499   3.959   1.179   6.400
 1207SOL    HW115500   4.031   1.212   6.346
 1207SOL    HW215501   3.899   1.137   6.338
 1208SOL     OW15502   0.196   4.693  19.383
 1208SOL    HW115503   0.211   4.656  19.296
 1208SOL    HW215504   0.119   4.748  19.373
 1209SOL     OW15505   1.460   2.306  15.857
 1209SOL    HW115506   1.388   2.366  15.873
 1209SOL    HW215507   1.427   2.221  15.885
 1210SOL     OW15508   0.169   3.367  14.587
 1210SOL    HW115509   0.082   3.387  14.553
 1210SOL    HW215510   0.205   3.452  14.611
 1211SOL     OW15511   2.994   3.012   5.302
 1211SOL    HW115512   2.908   2.972   5.286
 1211SOL    HW215513   3.042   2.946   5.352
 1212SOL     OW15514   1.408   2.383  13.403
 1212SOL    HW115515   1.493   2.341  13.413
 1212SOL    HW215516   1.354   2.317  13.358
 1213SOL     OW15517   4.301   0.295  18.989
 1213SOL    HW115518   4.259   0.376  18.964
 1213SOL    HW215519   4.299   0.241  18.910
 1214SOL     OW15520   4.345   1.332  17.717
 1214SOL    HW115521   4.362   1.249  17.761
 1214SOL    HW215522   4.317   1.307  17.629
 1215SOL     OW15523   4.319   2.245   4.344
 1215SOL    HW115524   4.232   2.212   4.365
 1215SOL    HW215525   4.345   2.296   4.422
 1216SOL     OW15526   1.676   3.878   3.437
 1216SOL    HW115527   1.750   3.898   3.379
 1216SOL    HW215528   1.708   3.901   3.524
 1217SOL     OW15529   1.485   4.621   3.420
 1217SOL    HW115530   1.513   4.566   3.493
 1217SOL    HW215531   1.549   4.603   3.351
 1218SOL     OW15532   2.336   0.288  17.286
 1218SOL    HW115533   2.339   0.215  17.224
 1218SOL    HW215534   2.245   0.317  17.285
 1219SOL     OW15535   3.043   0.811   4.292
 1219SOL    HW115536   3.086   0.727   4.305
 1219SOL    HW215537   3.085   0.869   4.356
 1220SOL     OW15538   2.500   0.229   1.449
 1220SOL    HW115539   2.560   0.225   1.523
 1220SOL    HW215540   2.555   0.256   1.375
 1221SOL     OW15541   2.462   0.858  16.382
 1221SOL    HW115542   2.525   0.929  16.371
 1221SOL    HW215543   2.516   0.781  16.398
 1222SOL     OW15544   3.929   1.693   8.543
 1222SOL    HW115545   3.892   1.648   8.467
 1222SOL    HW215546   3.973   1.625   8.593
 1223SOL     OW15547   3.022   0.868   3.118
 1223SOL    HW115548   3.001   0.793   3.174
 1223SOL    HW215549   3.113   0.890   3.140
 1224SOL     OW15550   1.764   4.692   2.063
 1224SOL    HW115551   1.718   4.651   1.989
 1224SOL    HW215552   1.765   4.625   2.131
 1225SOL     OW15553   2.076   4.779   1.201
 1225SOL    HW115554   2.152   4.773   1.258
 1225SOL    HW215555   2.091   0.071   1.148
 1226SOL     OW15556   0.551   1.533   8.845
 1226SOL    HW115557   0.590   1.448   8.822
 1226SOL    HW215558   0.465   1.511   8.880
 1227SOL     OW15559   2.568   2.967   3.135
 1227SOL    HW115560   2.568   3.062   3.148
 1227SOL    HW215561   2.658   2.940   3.152
 1228SOL     OW15562   0.097   3.762  18.323
 1228SOL    HW115563   0.053   3.839  18.358
 1228SOL    HW215564   0.089   3.696  18.391
 1229SOL     OW15565   3.408   4.385  17.886
 1229SOL    HW115566   3.329   4.348  17.924
 1229SOL    HW215567   3.456   4.421  17.961
 1230SOL     OW15568   0.057   0.055   7.307
 1230SOL    HW115569   0.016   0.142   7.310
 1230SOL    HW215570   0.100   0.046   7.391
 1231SOL     OW15571   3.914   3.545  14.180
 1231SOL    HW115572   4.009   3.537  14.172
 1231SOL    HW215573   3.879   3.486  14.113
 1232SOL     OW15574   1.178   1.189   6.040
 1232SOL    HW115575   1.116   1.223   6.104
 1232SOL    HW215576   1.184   1.096   6.058
 1233SOL     OW15577   1.666   0.862   5.012
 1233SOL    HW115578   1.667   0.885   5.105
 1233SOL    HW215579   1.697   0.772   5.009
 1234SOL     OW15580   3.378   2.252   0.738
 1234SOL    HW115581   3.464   2.220   0.712
 1234SOL    HW215582   3.396   2.324   0.799
 1235SOL     OW15583   3.784   1.089  20.197
 1235SOL    HW115584   3.857   1.041  20.160
 1235SOL    HW215585   3.797   1.085  20.292
 1236SOL     OW15586   2.363   3.482   3.575
 1236SOL    HW115587   2.439   3.540   3.570
 1236SOL    HW215588   2.295   3.528   3.526
 1237SOL     OW15589   4.170   1.427   5.806
 1237SOL    HW115590   4.247   1.372   5.821
 1237SOL    HW215591   4.191   1.511   5.847
 1238SOL     OW15592   1.814   2.298  20.461
 1238SOL    HW115593   1.731   2.324  20.503
 1238SOL    HW215594   1.798   2.312  20.368
 1239SOL     OW15595   3.111   1.846  15.802
 1239SOL    HW115596   3.186   1.892  15.839
 1239SOL    HW215597   3.039   1.908  15.808
 1240SOL     OW15598   2.496   3.232   6.232
 1240SOL    HW115599   2.402   3.221   6.228
 1240SOL    HW215600   2.510   3.286   6.310
 1241SOL     OW15601   1.080   0.935  19.939
 1241SOL    HW115602   1.117   0.943  19.851
 1241SOL    HW215603   0.990   0.966  19.930
 1242SOL     OW15604   3.678   2.352  17.127
 1242SOL    HW115605   3.727   2.344  17.046
 1242SOL    HW215606   3.694   2.271  17.174
 1243SOL     OW15607   0.370   1.539  20.886
 1243SOL    HW115608   0.418   1.619  20.864
 1243SOL    HW215609   0.297   1.537  20.825
 1244SOL     OW15610   3.641   4.217  15.711
 1244SOL    HW115611   3.710   4.163  15.673
 1244SOL    HW215612   3.687   4.293  15.746
 1245SOL     OW15613   2.353   1.736   4.349
 1245SOL    HW115614   2.294   1.678   4.302
 1245SOL    HW215615   2.440   1.699   4.335
 1246SOL     OW15616   1.107   1.139   2.287
 1246SOL    HW115617   1.110   1.149   2.192
 1246SOL    HW215618   1.199   1.138   2.314
 1247SOL     OW15619   0.821   2.982   2.533
 1247SOL    HW115620   0.852   3.072   2.547
 1247SOL    HW215621   0.730   2.991   2.507
 1248SOL     OW15622   2.172   0.988  17.757
 1248SOL    HW115623   2.240   1.033  17.707
 1248SOL    HW215624   2.220   0.931  17.817
 1249SOL     OW15625   4.686   1.246   3.843
 1249SOL    HW115626   4.648   1.158   3.835
 1249SOL    HW215627   4.778   1.235   3.821
 1250SOL     OW15628   0.627   1.253   2.992
 1250SOL    HW115629   0.602   1.167   3.027
 1250SOL    HW215630   0.642   1.239   2.899
 1251SOL     OW15631   4.205   1.748  20.185
 1251SOL    HW115632   4.155   1.666  20.176
 1251SOL    HW215633   4.155   1.799  20.250
 1252SOL     OW15634   0.661   1.003   3.095
 1252SOL    HW115635   0.617   0.921   3.116
 1252SOL    HW215636   0.754   0.984   3.106
 1253SOL     OW15637   3.688   3.213   4.182
 1253SOL    HW115638   3.614   3.237   4.237
 1253SOL    HW215639   3.744   3.291   4.181
 1254SOL     OW15640   3.265   3.337   1.125
 1254SOL    HW115641   3.345   3.391   1.119
 1254SOL    HW215642   3.296   3.253   1.158
 1255SOL     OW15643   0.048   3.745   3.433
 1255SOL    HW115644   0.054   3.802   3.510
 1255SOL    HW215645   0.004   3.667   3.465
 1256SOL     OW15646   2.825   2.644   6.314
 1256SOL    HW115647   2.774   2.691   6.249
 1256SOL    HW215648   2.769   2.639   6.391
 1257SOL     OW15649   0.900   3.236   2.657
 1257SOL    HW115650   0.939   3.211   2.741
 1257SOL    HW215651   0.962   3.300   2.621
 1258SOL     OW15652   0.096   2.939  17.025
 1258SOL    HW115653   0.166   2.933  17.090
 1258SOL    HW215654   0.033   2.872  17.051
 1259SOL     OW15655   1.385   3.419   5.870
 1259SOL    HW115656   1.357   3.338   5.827
 1259SOL    HW215657   1.365   3.488   5.807
 1260SOL     OW15658   1.917   4.547  16.070
 1260SOL    HW115659   1.880   4.571  16.155
 1260SOL    HW215660   2.009   4.528  16.088
 1261SOL     OW15661   2.548   2.250  17.125
 1261SOL    HW115662   2.477   2.313  17.139
 1261SOL    HW215663   2.585   2.274  17.040
 1262SOL     OW15664   3.193   0.759  18.008
 1262SOL    HW115665   3.171   0.852  18.001
 1262SOL    HW215666   3.232   0.737  17.923
 1263SOL     OW15667   3.258   0.410   0.698
 1263SOL    HW115668   3.176   0.388   0.654
 1263SOL    HW215669   3.290   0.487   0.651
 1264SOL     OW15670   1.636   2.990   0.033
 1264SOL    HW115671   1.644   2.904   0.074
 1264SOL    HW215672   1.553   2.987  21.231
 1265SOL     OW15673   0.311   0.910  18.976
 1265SOL    HW115674   0.396   0.932  18.940
 1265SOL    HW215675   0.285   0.830  18.931
 1266SOL     OW15676   3.678   2.412  16.706
 1266SOL    HW115677   3.648   2.486  16.759
 1266SOL    HW215678   3.620   2.413  16.630
 1267SOL     OW15679   2.333   3.414   1.077
 1267SOL    HW115680   2.316   3.442   0.987
 1267SOL    HW215681   2.303   3.323   1.079
 1268SOL     OW15682   1.576   1.064   5.984
 1268SOL    HW115683   1.667   1.070   5.956
 1268SOL    HW215684   1.555   1.151   6.017
 1269SOL     OW15685   4.369   3.507  20.531
 1269SOL    HW115686   4.406   3.541  20.450
 1269SOL    HW215687   4.424   3.543  20.601
 1270SOL     OW15688   1.921   3.471   3.715
 1270SOL    HW115689   1.935   3.563   3.737
 1270SOL    HW215690   1.872   3.436   3.790
 1271SOL     OW15691   1.331   0.206   4.824
 1271SOL    HW115692   1.300   0.291   4.795
 1271SOL    HW215693   1.252   0.160   4.853
 1272SOL     OW15694   4.448   2.888   6.563
 1272SOL    HW115695   4.394   2.824   6.609
 1272SOL    HW215696   4.386   2.938   6.509
 1273SOL     OW15697   0.145   3.163  18.609
 1273SOL    HW115698   0.064   3.114  18.601
 1273SOL    HW215699   0.126   3.248  18.569
 1274SOL     OW15700   2.228   0.050   8.355
 1274SOL    HW115701   2.164   4.778   8.395
 1274SOL    HW215702   2.298   0.055   8.420
 1275SOL     OW15703   3.155   3.420   4.501
 1275SOL    HW115704   3.206   3.346   4.471
 1275SOL    HW215705   3.217   3.493   4.504
 1276SOL     OW15706   2.399   1.203   2.189
 1276SOL    HW115707   2.399   1.290   2.228
 1276SOL    HW215708   2.326   1.204   2.128
 1277SOL     OW15709   4.303   0.300  21.101
 1277SOL    HW115710   4.344   0.347  21.173
 1277SOL    HW215711   4.375   0.283  21.039
 1278SOL     OW15712   3.180   0.085   4.305
 1278SOL    HW115713   3.188   0.176   4.333
 1278SOL    HW215714   3.105   0.085   4.246
 1279SOL     OW15715   2.722   2.359  18.336
 1279SOL    HW115716   2.745   2.415  18.261
 1279SOL    HW215717   2.628   2.344  18.326
 1280SOL     OW15718   4.503   3.250   6.617
 1280SOL    HW115719   4.464   3.163   6.622
 1280SOL    HW215720   4.452   3.296   6.550
 1281SOL     OW15721   1.315   2.259  20.229
 1281SOL    HW115722   1.388   2.284  20.172
 1281SOL    HW215723   1.237   2.278  20.177
 1282SOL     OW15724   0.737   1.777   0.949
 1282SOL    HW115725   0.718   1.854   0.895
 1282SOL    HW215726   0.652   1.733   0.958
 1283SOL     OW15727   1.660   4.602  18.228
 1283SOL    HW115728   1.578   4.645  18.202
 1283SOL    HW215729   1.635   4.510  18.242
 1284SOL     OW15730   2.838   3.193   2.751
 1284SOL    HW115731   2.801   3.209   2.664
 1284SOL    HW215732   2.931   3.210   2.740
 1285SOL     OW15733   2.148   1.948   2.377
 1285SOL    HW115734   2.189   1.910   2.299
 1285SOL    HW215735   2.059   1.969   2.350
 1286SOL     OW15736   3.183   3.478  20.834
 1286SOL    HW115737   3.258   3.419  20.829
 1286SOL    HW215738   3.122   3.434  20.893
 1287SOL     OW15739   3.311   0.868  20.190
 1287SOL    HW115740   3.326   0.792  20.245
 1287SOL    HW215741   3.396   0.910  20.182
 1288SOL     OW15742   4.585   4.739   5.338
 1288SOL    HW115743   4.646   4.739   5.412
 1288SOL    HW215744   4.504   4.703   5.373
 1289SOL     OW15745   1.343   1.719   7.038
 1289SOL    HW115746   1.277   1.785   7.018
 1289SOL    HW215747   1.303   1.664   7.105
 1290SOL     OW15748   0.012   2.509   6.083
 1290SOL    HW115749   0.002   2.426   6.129
 1290SOL    HW215750   4.731   2.565   6.120
 1291SOL     OW15751   3.814   0.906  17.934
 1291SOL    HW115752   3.869   0.900  18.013
 1291SOL    HW215753   3.773   0.992  17.941
 1292SOL     OW15754   4.701   4.182  18.825
 1292SOL    HW115755   4.657   4.112  18.873
 1292SOL    HW215756   4.638   4.254  18.823
 1293SOL     OW15757   3.555   2.021  18.964
 1293SOL    HW115758   3.589   1.948  19.015
 1293SOL    HW215759   3.575   1.999  18.873
 1294SOL     OW15760   3.547   2.638  15.764
 1294SOL    HW115761   3.453   2.624  15.751
 1294SOL    HW215762   3.588   2.587  15.694
 1295SOL     OW15763   4.655   2.256  13.120
 1295SOL    HW115764   4.585   2.315  13.149
 1295SOL    HW215765   4.726   2.271  13.183
 1296SOL     OW15766   1.858   4.484   3.528
 1296SOL    HW115767   1.855   4.575   3.557
 1296SOL    HW215768   1.892   4.489   3.438
 1297SOL     OW15769   4.098   2.885   5.417
 1297SOL    HW115770   4.037   2.932   5.474
 1297SOL    HW215771   4.043   2.829   5.363
 1298SOL     OW15772   1.735   0.385   6.357
 1298SOL    HW115773   1.814   0.434   6.380
 1298SOL    HW215774   1.736   0.309   6.414
 1299SOL     OW15775   2.337   1.851   2.131
 1299SOL    HW115776   2.347   1.878   2.040
 1299SOL    HW215777   2.261   1.794   2.132
 1300SOL     OW15778   1.861   4.567  19.658
 1300SOL    HW115779   1.943   4.535  19.696
 1300SOL    HW215780   1.863   4.537  19.567
 1301SOL     OW15781   0.402   4.399  17.359
 1301SOL    HW115782   0.459   4.469  17.391
 1301SOL    HW215783   0.396   4.337  17.432
 1302SOL     OW15784   3.807   0.477   3.598
 1302SOL    HW115785   3.768   0.421   3.665
 1302SOL    HW215786   3.739   0.486   3.532
 1303SOL     OW15787   4.708   0.712   3.022
 1303SOL    HW115788   4.702   0.617   3.030
 1303SOL    HW215789   0.015   0.731   3.033
 1304SOL     OW15790   0.206   0.835   2.553
 1304SOL    HW115791   0.269   0.764   2.544
 1304SOL    HW215792   0.173   0.828   2.642
 1305SOL     OW15793   0.683   2.314  20.528
 1305SOL    HW115794   0.663   2.256  20.601
 1305SOL    HW215795   0.607   2.305  20.470
 1306SOL     OW15796   2.341   3.367  18.586
 1306SOL    HW115797   2.411   3.359  18.521
 1306SOL    HW215798   2.363   3.301  18.652
 1307SOL     OW15799   2.745   4.213   2.953
 1307SOL    HW115800   2.688   4.146   2.916
 1307SOL    HW215801   2.821   4.216   2.895
 1308SOL     OW15802   3.469   4.529   2.919
 1308SOL    HW115803   3.554   4.515   2.876
 1308SOL    HW215804   3.471   4.620   2.947
 1309SOL     OW15805   2.984   1.056  16.391
 1309SOL    HW115806   3.051   0.989  16.405
 1309SOL    HW215807   3.021   1.136  16.428
 1310SOL     OW15808   1.858   3.532  21.101
 1310SOL    HW115809   1.803   3.468  21.055
 1310SOL    HW215810   1.905   3.578  21.031
 1311SOL     OW15811   2.486   3.907  20.061
 1311SOL    HW115812   2.551   3.852  20.018
 1311SOL    HW215813   2.538   3.966  20.117
 1312SOL     OW15814   0.936   4.254   3.154
 1312SOL    HW115815   0.934   4.182   3.091
 1312SOL    HW215816   1.005   4.231   3.216
 1313SOL     OW15817   2.151   4.492   0.506
 1313SOL    HW115818   2.245   4.476   0.495
 1313SOL    HW215819   2.131   4.565   0.448
 1314SOL     OW15820   2.764   3.910   9.606
 1314SOL    HW115821   2.799   3.839   9.553
 1314SOL    HW215822   2.815   3.987   9.580
 1315SOL     OW15823   2.218   4.161   4.836
 1315SOL    HW115824   2.290   4.192   4.891
 1315SOL    HW215825   2.155   4.232   4.836
 1316SOL     OW15826   4.571   0.993  21.030
 1316SOL    HW115827   4.532   1.013  21.115
 1316SOL    HW215828   4.664   0.977  21.049
 1317SOL     OW15829   0.704   1.604   7.154
 1317SOL    HW115830   0.635   1.577   7.213
 1317SOL    HW215831   0.676   1.573   7.068
 1318SOL     OW15832   3.345   2.825  19.875
 1318SOL    HW115833   3.256   2.859  19.872
 1318SOL    HW215834   3.388   2.875  19.946
 1319SOL     OW15835   2.155   3.759   1.152
 1319SOL    HW115836   2.127   3.683   1.101
 1319SOL    HW215837   2.115   3.834   1.109
 1320SOL     OW15838   3.165   2.722  13.841
 1320SOL    HW115839   3.081   2.678  13.853
 1320SOL    HW215840   3.209   2.672  13.773
 1321SOL     OW15841   0.627   1.596  13.160
 1321SOL    HW115842   0.644   1.596  13.066
 1321SOL    HW215843   0.615   1.688  13.182
 1322SOL     OW15844   4.187   1.707  18.487
 1322SOL    HW115845   4.116   1.767  18.468
 1322SOL    HW215846   4.194   1.707  18.583
 1323SOL     OW15847   0.802   2.300   8.276
 1323SOL    HW115848   0.743   2.290   8.351
 1323SOL    HW215849   0.877   2.243   8.297
 1324SOL     OW15850   4.725   1.343   6.385
 1324SOL    HW115851   0.034   1.342   6.385
 1324SOL    HW215852   4.702   1.418   6.440
 1325SOL     OW15853   1.822   3.155   9.799
 1325SOL    HW115854   1.853   3.179   9.887
 1325SOL    HW215855   1.780   3.234   9.765
 1326SOL     OW15856   2.328   2.083  20.637
 1326SOL    HW115857   2.306   2.000  20.596
 1326SOL    HW215858   2.422   2.078  20.653
 1327SOL     OW15859   3.790   0.667  20.722
 1327SOL    HW115860   3.859   0.710  20.670
 1327SOL    HW215861   3.773   0.585  20.675
 1328SOL     OW15862   3.180   0.343  15.637
 1328SOL    HW115863   3.246   0.388  15.584
 1328SOL    HW215864   3.183   0.387  15.722
 1329SOL     OW15865   3.821   0.040   0.625
 1329SOL    HW115866   3.900   0.080   0.661
 1329SOL    HW215867   3.837   4.732   0.634
 1330SOL     OW15868   3.022   0.612   0.326
 1330SOL    HW115869   3.046   0.647   0.412
 1330SOL    HW215870   3.072   0.531   0.319
 1331SOL     OW15871   0.544   1.421   5.150
 1331SOL    HW115872   0.502   1.448   5.232
 1331SOL    HW215873   0.635   1.447   5.161
 1332SOL     OW15874   1.049   1.688  14.117
 1332SOL    HW115875   0.977   1.670  14.056
 1332SOL    HW215876   1.127   1.685  14.062
 1333SOL     OW15877   1.848   2.323  19.712
 1333SOL    HW115878   1.790   2.298  19.785
 1333SOL    HW215879   1.831   2.416  19.697
 1334SOL     OW15880   4.430   4.633  17.898
 1334SOL    HW115881   4.342   4.662  17.875
 1334SOL    HW215882   4.452   4.569  17.831
 1335SOL     OW15883   4.378   4.259   0.090
 1335SOL    HW115884   4.449   4.197   0.074
 1335SOL    HW215885   4.416   4.344   0.066
 1336SOL     OW15886   3.898   2.474  17.618
 1336SOL    HW115887   3.850   2.478  17.535
 1336SOL    HW215888   3.885   2.560  17.658
 1337SOL     OW15889   4.256   2.023   1.224
 1337SOL    HW115890   4.227   2.090   1.286
 1337SOL    HW215891   4.285   2.072   1.148
 1338SOL     OW15892   2.705   1.481  20.942
 1338SOL    HW115893   2.759   1.409  20.910
 1338SOL    HW215894   2.633   1.486  20.878
 1339SOL     OW15895   1.377   2.876  19.874
 1339SOL    HW115896   1.412   2.870  19.784
 1339SOL    HW215897   1.364   2.785  19.900
 1340SOL     OW15898   1.204   4.343   4.107
 1340SOL    HW115899   1.141   4.276   4.134
 1340SOL    HW215900   1.210   4.334   4.012
 1341SOL     OW15901   0.486   4.397  18.764
 1341SOL    HW115902   0.448   4.458  18.701
 1341SOL    HW215903   0.495   4.315  18.715
 1342SOL     OW15904   3.501   4.671   3.344
 1342SOL    HW115905   3.558   4.623   3.403
 1342SOL    HW215906   3.511   4.763   3.371
 1343SOL     OW15907   0.527   2.836   5.037
 1343SOL    HW115908   0.561   2.764   4.985
 1343SOL    HW215909   0.490   2.795   5.115
 1344SOL     OW15910   0.317   2.175   2.010
 1344SOL    HW115911   0.370   2.203   2.085
 1344SOL    HW215912   0.311   2.080   2.019
 1345SOL     OW15913   4.511   3.920  16.390
 1345SOL    HW115914   4.461   3.839  16.390
 1345SOL    HW215915   4.496   3.958  16.477
 1346SOL     OW15916   3.167   2.328   0.100
 1346SOL    HW115917   3.214   2.265   0.046
 1346SOL    HW215918   3.140   2.279   0.177
 1347SOL     OW15919   1.502   2.245   3.002
 1347SOL    HW115920   1.474   2.184   3.070
 1347SOL    HW215921   1.573   2.200   2.956
 1348SOL     OW15922   4.730   3.428   5.617
 1348SOL    HW115923   4.646   3.470   5.601
 1348SOL    HW215924   4.751   3.450   5.708
 1349SOL     OW15925   2.842   3.870   1.213
 1349SOL    HW115926   2.856   3.777   1.196
 1349SOL    HW215927   2.853   3.912   1.128
 1350SOL     OW15928   3.320   2.891   5.151
 1350SOL    HW115929   3.331   2.830   5.078
 1350SOL    HW215930   3.265   2.844   5.213
 1351SOL     OW15931   3.499   4.573  20.654
 1351SOL    HW115932   3.476   4.586  20.746
 1351SOL    HW215933   3.589   4.539  20.657
 1352SOL     OW15934   3.035   1.026   1.334
 1352SOL    HW115935   3.081   1.038   1.417
 1352SOL    HW215936   2.997   1.112   1.315
 1353SOL     OW15937   2.454   1.426   0.689
 1353SOL    HW115938   2.454   1.355   0.753
 1353SOL    HW215939   2.527   1.407   0.631
 1354SOL     OW15940   1.125   0.619  18.818
 1354SOL    HW115941   1.097   0.557  18.885
 1354SOL    HW215942   1.133   0.703  18.864
 1355SOL     OW15943   3.697   4.399   2.059
 1355SOL    HW115944   3.696   4.309   2.026
 1355SOL    HW215945   3.789   4.425   2.059
 1356SOL     OW15946   1.292   3.191   0.701
 1356SOL    HW115947   1.356   3.261   0.716
 1356SOL    HW215948   1.212   3.222   0.743
 1357SOL     OW15949   3.046   3.317   1.672
 1357SOL    HW115950   3.129   3.285   1.709
 1357SOL    HW215951   3.011   3.375   1.740
 1358SOL     OW15952   0.965   1.499  10.950
 1358SOL    HW115953   0.974   1.580  10.900
 1358SOL    HW215954   1.042   1.497  11.007
 1359SOL     OW15955   3.892   2.264  19.566
 1359SOL    HW115956   3.875   2.228  19.479
 1359SOL    HW215957   3.959   2.206  19.603
 1360SOL     OW15958   4.163   4.708  17.314
 1360SOL    HW115959   4.090   4.681  17.258
 1360SOL    HW215960   4.182   4.630  17.367
 1361SOL     OW15961   1.780   2.028  15.795
 1361SOL    HW115962   1.709   1.987  15.844
 1361SOL    HW215963   1.736   2.092  15.739
 1362SOL     OW15964   2.108   0.105   6.297
 1362SOL    HW115965   2.027   0.123   6.250
 1362SOL    HW215966   2.132   0.016   6.270
 1363SOL     OW15967   3.097   3.345   6.881
 1363SOL    HW115968   3.017   3.351   6.933
 1363SOL    HW215969   3.101   3.428   6.834
 1364SOL     OW15970   2.108   1.833   1.667
 1364SOL    HW115971   2.041   1.767   1.688
 1364SOL    HW215972   2.156   1.796   1.593
 1365SOL     OW15973   2.302   3.853  20.354
 1365SOL    HW115974   2.250   3.861  20.274
 1365SOL    HW215975   2.386   3.893  20.332
 1366SOL     OW15976   0.195   4.735   3.403
 1366SOL    HW115977   0.127   4.766   3.343
 1366SOL    HW215978   0.253   4.682   3.349
 1367SOL     OW15979   3.694   4.176   5.213
 1367SOL    HW115980   3.735   4.097   5.249
 1367SOL    HW215981   3.732   4.248   5.263
 1368SOL     OW15982   2.602   4.410  17.093
 1368SOL    HW115983   2.606   4.315  17.109
 1368SOL    HW215984   2.688   4.431  17.055
 1369SOL     OW15985   2.652   3.615   6.022
 1369SOL    HW115986   2.688   3.534   6.059
 1369SOL    HW215987   2.688   3.619   5.933
 1370SOL     OW15988   4.670   2.708  20.921
 1370SOL    HW115989   4.668   2.643  20.851
 1370SOL    HW215990   4.671   2.657  21.002
 1371SOL     OW15991   4.465   3.749   0.535
 1371SOL    HW115992   4.379   3.790   0.537
 1371SOL    HW215993   4.507   3.777   0.617
 1372SOL     OW15994   2.672   2.861   6.069
 1372SOL    HW115995   2.751   2.915   6.067
 1372SOL    HW215996   2.628   2.884   6.151
 1373SOL     OW15997   2.552   0.537  18.615
 1373SOL    HW115998   2.545   0.498  18.703
 1373SOL    HW215999   2.620   0.603  18.623
 1374SOL     OW16000   3.622   2.476  21.134
 1374SOL    HW116001   3.711   2.480  21.098
 1374SOL    HW216002   3.570   2.529  21.074
 1375SOL     OW16003   4.231   3.546  16.070
 1375SOL    HW116004   4.192   3.580  16.151
 1375SOL    HW216005   4.311   3.597  16.059
 1376SOL     OW16006   0.590   3.789  11.960
 1376SOL    HW116007   0.608   3.879  11.987
 1376SOL    HW216008   0.676   3.751  11.945
 1377SOL     OW16009   2.207   3.379   2.472
 1377SOL    HW116010   2.264   3.351   2.401
 1377SOL    HW216011   2.226   3.318   2.543
 1378SOL     OW16012   0.323   3.475   0.359
 1378SOL    HW116013   0.411   3.452   0.329
 1378SOL    HW216014   0.265   3.445   0.289
 1379SOL     OW16015   2.035   0.178  20.969
 1379SOL    HW116016   2.125   0.180  20.938
 1379SOL    HW216017   2.010   0.270  20.976
 1380SOL     OW16018   3.971   3.369   1.604
 1380SOL    HW116019   3.937   3.448   1.563
 1380SOL    HW216020   3.946   3.298   1.546
 1381SOL     OW16021   1.572   2.862   4.858
 1381SOL    HW116022   1.569   2.949   4.820
 1381SOL    HW216023   1.489   2.853   4.904
 1382SOL     OW16024   3.024   2.358   5.157
 1382SOL    HW116025   3.050   2.448   5.136
 1382SOL    HW216026   3.067   2.304   5.090
 1383SOL     OW16027   0.430   0.614  17.094
 1383SOL    HW116028   0.441   0.519  17.086
 1383SOL    HW216029   0.339   0.626  17.121
 1384SOL     OW16030   0.063   0.778  20.934
 1384SOL    HW116031   0.037   0.773  21.026
 1384SOL    HW216032   4.771   0.755  20.886
 1385SOL     OW16033   1.843   0.903  17.977
 1385SOL    HW116034   1.797   0.950  18.047
 1385SOL    HW216035   1.836   0.811  18.001
 1386SOL     OW16036   1.947   0.517   1.729
 1386SOL    HW116037   1.937   0.534   1.823
 1386SOL    HW216038   2.042   0.514   1.716
 1387SOL     OW16039   4.460   0.647  11.292
 1387SOL    HW116040   4.484   0.727  11.245
 1387SOL    HW216041   4.539   0.593  11.291
 1388SOL     OW16042   2.494   2.699   1.082
 1388SOL    HW116043   2.516   2.788   1.053
 1388SOL    HW216044   2.557   2.643   1.038
 1389SOL     OW16045   2.589   1.238  19.923
 1389SOL    HW116046   2.679   1.222  19.895
 1389SOL    HW216047   2.585   1.202  20.012
 1390SOL     OW16048   3.390   2.827  20.402
 1390SOL    HW116049   3.354   2.879  20.474
 1390SOL    HW216050   3.336   2.851  20.326
 1391SOL     OW16051   3.501   1.102  20.303
 1391SOL    HW116052   3.594   1.098  20.280
 1391SOL    HW216053   3.458   1.130  20.222
 1392SOL     OW16054   3.480   0.781  17.543
 1392SOL    HW116055   3.387   0.770  17.523
 1392SOL    HW216056   3.515   0.692  17.545
 1393SOL     OW16057   4.563   0.235  15.621
 1393SOL    HW116058   4.595   0.278  15.542
 1393SOL    HW216059   4.546   0.145  15.594
 1394SOL     OW16060   4.188   3.557  20.063
 1394SOL    HW116061   4.235   3.540  19.981
 1394SOL    HW216062   4.125   3.485  20.069
 1395SOL     OW16063   0.056   0.484   5.645
 1395SOL    HW116064   4.780   0.516   5.710
 1395SOL    HW216065   0.141   0.495   5.687
 1396SOL     OW16066   0.836   1.088   4.974
 1396SOL    HW116067   0.839   1.054   5.063
 1396SOL    HW216068   0.777   1.163   4.979
 1397SOL     OW16069   1.122   1.154  17.724
 1397SOL    HW116070   1.201   1.164  17.670
 1397SOL    HW216071   1.086   1.242  17.730
 1398SOL     OW16072   4.783   4.543  17.436
 1398SOL    HW116073   4.694   4.558  17.469
 1398SOL    HW216074   0.051   4.540  17.515
 1399SOL     OW16075   2.660   0.905   4.682
 1399SOL    HW116076   2.695   0.969   4.620
 1399SOL    HW216077   2.670   0.821   4.638
 1400SOL     OW16078   4.679   0.667   5.746
 1400SOL    HW116079   4.615   0.600   5.722
 1400SOL    HW216080   4.724   0.687   5.663
 1401SOL     OW16081   1.153   4.103   1.459
 1401SOL    HW116082   1.207   4.180   1.472
 1401SOL    HW216083   1.089   4.106   1.530
 1402SOL     OW16084   3.924   0.637   1.706
 1402SOL    HW116085   3.960   0.726   1.716
 1402SOL    HW216086   3.953   0.590   1.784
 1403SOL     OW16087   3.350   0.970  20.538
 1403SOL    HW116088   3.265   0.937  20.508
 1403SOL    HW216089   3.378   1.031  20.469
 1404SOL     OW16090   0.418   3.236  15.983
 1404SOL    HW116091   0.418   3.149  16.023
 1404SOL    HW216092   0.327   3.252  15.960
 1405SOL     OW16093   1.279   3.178  20.642
 1405SOL    HW116094   1.335   3.101  20.630
 1405SOL    HW216095   1.337   3.252  20.629
 1406SOL     OW16096   2.070   0.650   4.352
 1406SOL    HW116097   1.993   0.678   4.303
 1406SOL    HW216098   2.074   0.710   4.427
 1407SOL     OW16099   3.345   2.166   5.337
 1407SOL    HW116100   3.384   2.216   5.265
 1407SOL    HW216101   3.414   2.105   5.364
 1408SOL     OW16102   2.806   2.018   3.241
 1408SOL    HW116103   2.841   1.945   3.292
 1408SOL    HW216104   2.721   1.987   3.209
 1409SOL     OW16105   3.811   3.683   5.411
 1409SOL    HW116106   3.874   3.650   5.475
 1409SOL    HW216107   3.758   3.606   5.388
 1410SOL     OW16108   3.397   2.677   4.959
 1410SOL    HW116109   3.435   2.667   4.872
 1410SOL    HW216110   3.313   2.630   4.954
 1411SOL     OW16111   4.302   4.079  20.949
 1411SOL    HW116112   4.339   4.031  20.875
 1411SOL    HW216113   4.253   4.151  20.909
 1412SOL     OW16114   1.014   0.242   4.138
 1412SOL    HW116115   0.997   0.168   4.197
 1412SOL    HW216116   1.044   0.202   4.057
 1413SOL     OW16117   1.841   1.318   2.492
 1413SOL    HW116118   1.813   1.341   2.403
 1413SOL    HW216119   1.759   1.311   2.542
 1414SOL     OW16120   2.008   0.743  20.950
 1414SOL    HW116121   2.085   0.781  20.992
 1414SOL    HW216122   1.935   0.769  21.005
 1415SOL     OW16123   2.210   1.880  17.467
 1415SOL    HW116124   2.223   1.786  17.458
 1415SOL    HW216125   2.173   1.891  17.555
 1416SOL     OW16126   3.541   2.484  19.478
 1416SOL    HW116127   3.471   2.522  19.531
 1416SOL    HW216128   3.582   2.420  19.535
 1417SOL     OW16129   1.327   3.719   6.918
 1417SOL    HW116130   1.396   3.710   6.983
 1417SOL    HW216131   1.373   3.728   6.835
 1418SOL     OW16132   1.136   3.753  21.185
 1418SOL    HW116133   1.042   3.753  21.203
 1418SOL    HW216134   1.167   3.671  21.223
 1419SOL     OW16135   2.519   0.128  18.793
 1419SOL    HW116136   2.560   0.089  18.870
 1419SOL    HW216137   2.557   0.216  18.788
 1420SOL     OW16138   2.558   2.236   5.439
 1420SOL    HW116139   2.618   2.229   5.513
 1420SOL    HW216140   2.589   2.171   5.376
 1421SOL     OW16141   3.559   3.686   5.942
 1421SOL    HW116142   3.594   3.742   5.873
 1421SOL    HW216143   3.491   3.737   5.983
 1422SOL     OW16144   2.462   1.935   0.986
 1422SOL    HW116145   2.435   2.024   0.964
 1422SOL    HW216146   2.543   1.922   0.938
 1423SOL     OW16147   4.785   2.154   3.546
 1423SOL    HW116148   0.044   2.198   3.618
 1423SOL    HW216149   0.064   2.148   3.477
 1424SOL     OW16150   2.421   3.851   4.132
 1424SOL    HW116151   2.439   3.863   4.225
 1424SOL    HW216152   2.501   3.878   4.087
 1425SOL     OW16153   4.250   3.501   1.045
 1425SOL    HW116154   4.247   3.590   1.011
 1425SOL    HW216155   4.166   3.489   1.091
 1426SOL     OW16156   1.432   2.285   0.367
 1426SOL    HW116157   1.363   2.291   0.301
 1426SOL    HW216158   1.387   2.260   0.447
 1427SOL     OW16159   1.698   2.709  15.822
 1427SOL    HW116160   1.670   2.648  15.754
 1427SOL    HW216161   1.721   2.789  15.775
 1428SOL     OW16162   1.975   1.236   2.736
 1428SOL    HW116163   1.997   1.323   2.770
 1428SOL    HW216164   1.932   1.254   2.652
 1429SOL     OW16165   2.177   0.014  14.048
 1429SOL    HW116166   2.194   0.104  14.019
 1429SOL    HW216167   2.209   4.746  13.976
 1430SOL     OW16168   2.915   0.043   5.262
 1430SOL    HW116169   2.931   0.123   5.312
 1430SOL    HW216170   2.867   0.072   5.185
 1431SOL     OW16171   2.921   1.406   0.571
 1431SOL    HW116172   2.911   1.436   0.661
 1431SOL    HW216173   3.013   1.421   0.551
 1432SOL     OW16174   1.659   1.379  19.544
 1432SOL    HW116175   1.664   1.291  19.505
 1432SOL    HW216176   1.567   1.390  19.567
 1433SOL     OW16177   2.725   4.778  12.775
 1433SOL    HW116178   2.736   0.008  12.868
 1433SOL    HW216179   2.674   0.065  12.742
 1434SOL     OW16180   3.105   3.770   0.330
 1434SOL    HW116181   3.029   3.733   0.286
 1434SOL    HW216182   3.136   3.699   0.387
 1435SOL     OW16183   2.464   4.238   4.301
 1435SOL    HW116184   2.420   4.219   4.384
 1435SOL    HW216185   2.393   4.250   4.238
 1436SOL     OW16186   2.529   2.541  17.543
 1436SOL    HW116187   2.542   2.452  17.575
 1436SOL    HW216188   2.435   2.547  17.527
 1437SOL     OW16189   2.274   3.593   4.124
 1437SOL    HW116190   2.331   3.670   4.119
 1437SOL    HW216191   2.333   3.520   4.143
 1438SOL     OW16192   1.195   0.544  20.312
 1438SOL    HW116193   1.166   0.473  20.369
 1438SOL    HW216194   1.115   0.571  20.266
 1439SOL     OW16195   0.378   2.677  19.152
 1439SOL    HW116196   0.358   2.758  19.105
 1439SOL    HW216197   0.412   2.619  19.084
 1440SOL     OW16198   2.427   1.313  21.205
 1440SOL    HW116199   2.362   1.287   0.027
 1440SOL    HW216200   2.505   1.262  21.227
 1441SOL     OW16201   2.388   4.010   3.081
 1441SOL    HW116202   2.429   4.000   3.167
 1441SOL    HW216203   2.346   4.096   3.084
 1442SOL     OW16204   4.546   0.613   4.059
 1442SOL    HW116205   4.473   0.608   3.999
 1442SOL    HW216206   4.545   0.703   4.091
 1443SOL     OW16207   0.219   1.650  16.158
 1443SOL    HW116208   0.199   1.558  16.173
 1443SOL    HW216209   0.136   1.696  16.173
 1444SOL     OW16210   1.326   3.664   1.447
 1444SOL    HW116211   1.332   3.638   1.355
 1444SOL    HW216212   1.363   3.752   1.450
 1445SOL     OW16213   0.030   2.829  19.017
 1445SOL    HW116214   0.016   2.735  19.021
 1445SOL    HW216215   0.054   2.846  18.926
 1446SOL     OW16216   3.076   0.990  17.149
 1446SOL    HW116217   3.063   1.052  17.077
 1446SOL    HW216218   3.142   1.032  17.204
 1447SOL     OW16219   3.364   3.992   2.862
 1447SOL    HW116220   3.339   3.954   2.946
 1447SOL    HW216221   3.458   4.008   2.870
 1448SOL     OW16222   2.068   2.416   0.459
 1448SOL    HW116223   2.075   2.340   0.516
 1448SOL    HW216224   2.123   2.395   0.384
 1449SOL     OW16225   4.060   4.089  18.603
 1449SOL    HW116226   4.032   4.034  18.530
 1449SOL    HW216227   4.025   4.045  18.681
 1450SOL     OW16228   3.123   1.296   1.737
 1450SOL    HW116229   3.153   1.338   1.817
 1450SOL    HW216230   3.110   1.204   1.762
 1451SOL     OW16231   2.446   4.611  14.261
 1451SOL    HW116232   2.502   4.651  14.327
 1451SOL    HW216233   2.452   4.517  14.279
 1452SOL     OW16234   1.277   2.358  17.774
 1452SOL    HW116235   1.351   2.413  17.749
 1452SOL    HW216236   1.289   2.278  17.723
 1453SOL     OW16237   1.098   1.366  15.143
 1453SOL    HW116238   1.008   1.362  15.176
 1453SOL    HW216239   1.151   1.385  15.220
 1454SOL     OW16240   3.159   2.086   1.982
 1454SOL    HW116241   3.146   2.143   1.906
 1454SOL    HW216242   3.239   2.036   1.961
 1455SOL     OW16243   0.404   0.945  16.314
 1455SOL    HW116244   0.414   0.999  16.236
 1455SOL    HW216245   0.472   0.878  16.306
 1456SOL     OW16246   0.188   2.322   5.917
 1456SOL    HW116247   0.117   2.380   5.944
 1456SOL    HW216248   0.160   2.285   5.834
 1457SOL     OW16249   1.533   1.237   0.270
 1457SOL    HW116250   1.468   1.226   0.201
 1457SOL    HW216251   1.597   1.297   0.233
 1458SOL     OW16252   2.567   3.564   1.161
 1458SOL    HW116253   2.520   3.645   1.139
 1458SOL    HW216254   2.513   3.494   1.122
 1459SOL     OW16255   3.511   0.182  19.585
 1459SOL    HW116256   3.465   0.150  19.508
 1459SOL    HW216257   3.539   0.271  19.562
 1460SOL     OW16258   0.337   4.652  18.815
 1460SOL    HW116259   0.269   4.697  18.765
 1460SOL    HW216260   0.416   4.663  18.763
 1461SOL     OW16261   2.516   3.459   3.828
 1461SOL    HW116262   2.563   3.453   3.911
 1461SOL    HW216263   2.585   3.460   3.762
 1462SOL     OW16264   4.110   1.373  19.148
 1462SOL    HW116265   4.200   1.388  19.178
 1462SOL    HW216266   4.097   1.437  19.079
 1463SOL     OW16267   1.761   0.397   4.769
 1463SOL    HW116268   1.799   0.416   4.683
 1463SOL    HW216269   1.749   0.302   4.769
 1464SOL     OW16270   2.594   2.346  16.053
 1464SOL    HW116271   2.539   2.305  15.986
 1464SOL    HW216272   2.558   2.314  16.136
 1465SOL     OW16273   3.674   2.129   0.299
 1465SOL    HW116274   3.760   2.170   0.290
 1465SOL    HW216275   3.644   2.155   0.387
 1466SOL     OW16276   2.762   0.287  15.328
 1466SOL    HW116277   2.760   0.379  15.298
 1466SOL    HW216278   2.779   0.293  15.422
 1467SOL     OW16279   2.253   2.943  14.323
 1467SOL    HW116280   2.183   3.005  14.342
 1467SOL    HW216281   2.329   2.978  14.370
 1468SOL     OW16282   2.660   4.780  14.501
 1468SOL    HW116283   2.673   4.752  14.592
 1468SOL    HW216284   2.578   0.042  14.502
 1469SOL     OW16285   0.029   4.635  19.849
 1469SOL    HW116286   4.777   4.619  19.762
 1469SOL    HW216287   0.098   4.698  19.833
 1470SOL     OW16288   4.355   4.696  14.592
 1470SOL    HW116289   4.360   4.763  14.524
 1470SOL    HW216290   4.270   4.654  14.578
 1471SOL     OW16291   3.123   1.878   4.513
 1471SOL    HW116292   3.111   1.917   4.426
 1471SOL    HW216293   3.034   1.862   4.544
 1472SOL     OW16294   3.129   0.198   5.055
 1472SOL    HW116295   3.179   0.135   5.003
 1472SOL    HW216296   3.191   0.230   5.120
 1473SOL     OW16297   3.388   3.478   2.312
 1473SOL    HW116298   3.461   3.486   2.374
 1473SOL    HW216299   3.310   3.479   2.367
 1474SOL     OW16300   2.737   3.759   1.781
 1474SOL    HW116301   2.745   3.708   1.700
 1474SOL    HW216302   2.732   3.850   1.753
 1475SOL     OW16303   3.769   1.867  15.396
 1475SOL    HW116304   3.842   1.922  15.364
 1475SOL    HW216305   3.710   1.928  15.438
 1476SOL     OW16306   0.403   3.559   0.036
 1476SOL    HW116307   0.321   3.518   0.067
 1476SOL    HW216308   0.469   3.491   0.048
 1477SOL     OW16309   1.520   3.014  18.951
 1477SOL    HW116310   1.477   2.998  18.867
 1477SOL    HW216311   1.523   2.928  18.993
 1478SOL     OW16312   2.734   2.081  17.266
 1478SOL    HW116313   2.689   1.997  17.279
 1478SOL    HW216314   2.668   2.137  17.225
 1479SOL     OW16315   3.537   2.301  18.672
 1479SOL    HW116316   3.459   2.356  18.666
 1479SOL    HW216317   3.605   2.351  18.627
 1480SOL     OW16318   4.298   3.361   1.569
 1480SOL    HW116319   4.206   3.366   1.593
 1480SOL    HW216320   4.299   3.331   1.479
 1481SOL     OW16321   2.474   0.707  15.732
 1481SOL    HW116322   2.454   0.798  15.712
 1481SOL    HW216323   2.496   0.668  15.647
 1482SOL     OW16324   1.503   2.502  17.388
 1482SOL    HW116325   1.500   2.589  17.347
 1482SOL    HW216326   1.511   2.520  17.482
 1483SOL     OW16327   4.703   2.013  16.052
 1483SOL    HW116328   4.726   1.961  16.129
 1483SOL    HW216329   4.665   2.093  16.088
 1484SOL     OW16330   0.286   4.295  13.659
 1484SOL    HW116331   0.199   4.304  13.620
 1484SOL    HW216332   0.282   4.213  13.707
 1485SOL     OW16333   1.354   3.664  17.572
 1485SOL    HW116334   1.383   3.754  17.589
 1485SOL    HW216335   1.261   3.664  17.596
 1486SOL     OW16336   3.936   2.329   2.736
 1486SOL    HW116337   3.931   2.293   2.825
 1486SOL    HW216338   3.950   2.423   2.750
 1487SOL     OW16339   0.346   4.752   6.245
 1487SOL    HW116340   0.346   4.763   6.340
 1487SOL    HW216341   0.258   4.719   6.224
 1488SOL     OW16342   0.494   2.007  16.601
 1488SOL    HW116343   0.540   2.085  16.632
 1488SOL    HW216344   0.509   2.005  16.507
 1489SOL     OW16345   1.672   1.627   5.711
 1489SOL    HW116346   1.645   1.687   5.641
 1489SOL    HW216347   1.722   1.559   5.665
 1490SOL     OW16348   4.062   0.506  19.567
 1490SOL    HW116349   4.086   0.597  19.551
 1490SOL    HW216350   3.968   0.509  19.588
 1491SOL     OW16351   0.738   0.233   0.977
 1491SOL    HW116352   0.721   0.249   1.070
 1491SOL    HW216353   0.760   0.140   0.972
 1492SOL     OW16354   1.767   0.687   3.800
 1492SOL    HW116355   1.770   0.715   3.709
 1492SOL    HW216356   1.776   0.768   3.851
 1493SOL     OW16357   2.520   4.516   5.394
 1493SOL    HW116358   2.579   4.456   5.348
 1493SOL    HW216359   2.577   4.564   5.454
 1494SOL     OW16360   4.457   0.380   6.957
 1494SOL    HW116361   4.403   0.302   6.952
 1494SOL    HW216362   4.426   0.436   6.886
 1495SOL     OW16363   0.675   3.592   0.975
 1495SOL    HW116364   0.660   3.640   1.057
 1495SOL    HW216365   0.594   3.602   0.926
 1496SOL     OW16366   3.698   2.236  12.423
 1496SOL    HW116367   3.752   2.181  12.366
 1496SOL    HW216368   3.656   2.174  12.482
 1497SOL     OW16369   0.551   4.734  14.591
 1497SOL    HW116370   0.605   4.676  14.538
 1497SOL    HW216371   0.571   4.710  14.681
 1498SOL     OW16372   1.735   3.264  17.956
 1498SOL    HW116373   1.828   3.250  17.972
 1498SOL    HW216374   1.732   3.342  17.900
 1499SOL     OW16375   3.113   0.287   2.825
 1499SOL    HW116376   3.146   0.331   2.904
 1499SOL    HW216377   3.070   0.356   2.775
 1500SOL     OW16378   3.799   3.011  20.761
 1500SOL    HW116379   3.825   3.086  20.707
 1500SOL    HW216380   3.764   3.051  20.841
 1501SOL     OW16381   0.513   1.279  17.704
 1501SOL    HW116382   0.522   1.185  17.687
 1501SOL    HW216383   0.465   1.285  17.786
 1502SOL     OW16384   4.243   4.702  19.238
 1502SOL    HW116385   4.164   4.691  19.291
 1502SOL    HW216386   4.235   0.003  19.201
 1503SOL     OW16387   3.413   1.836   0.814
 1503SOL    HW116388   3.352   1.886   0.761
 1503SOL    HW216389   3.377   1.839   0.902
 1504SOL     OW16390   0.934   4.440  16.072
 1504SOL    HW116391   0.939   4.532  16.099
 1504SOL    HW216392   0.898   4.444  15.983
 1505SOL     OW16393   4.687   0.003  17.166
 1505SOL    HW116394   4.675   4.708  17.117
 1505SOL    HW216395   4.598   0.032  17.186
 1506SOL     OW16396   0.341   0.198   4.098
 1506SOL    HW116397   0.334   0.235   4.186
 1506SOL    HW216398   0.420   0.238   4.061
 1507SOL     OW16399   2.449   1.798   6.280
 1507SOL    HW116400   2.497   1.817   6.361
 1507SOL    HW216401   2.427   1.705   6.287
 1508SOL     OW16402   3.141   4.287  17.958
 1508SOL    HW116403   3.103   4.371  17.931
 1508SOL    HW216404   3.118   4.279  18.051
 1509SOL     OW16405   4.190   0.167  14.565
 1509SOL    HW116406   4.224   0.251  14.534
 1509SOL    HW216407   4.113   0.151  14.510
 1510SOL     OW16408   0.815   0.148  15.952
 1510SOL    HW116409   0.732   0.156  15.904
 1510SOL    HW216410   0.874   0.208  15.907
 1511SOL     OW16411   2.752   2.937   2.723
 1511SOL    HW116412   2.778   3.029   2.732
 1511SOL    HW216413   2.832   2.888   2.740
 1512SOL     OW16414   4.457   4.541   8.099
 1512SOL    HW116415   4.541   4.558   8.058
 1512SOL    HW216416   4.442   4.617   8.157
 1513SOL     OW16417   1.551   2.615  16.281
 1513SOL    HW116418   1.532   2.663  16.200
 1513SOL    HW216419   1.556   2.683  16.348
 1514SOL     OW16420   2.225   2.689   8.707
 1514SOL    HW116421   2.196   2.776   8.733
 1514SOL    HW216422   2.263   2.701   8.620
 1515SOL     OW16423   2.773   2.836   5.320
 1515SOL    HW116424   2.705   2.881   5.270
 1515SOL    HW216425   2.771   2.746   5.288
 1516SOL     OW16426   1.529   4.706   5.533
 1516SOL    HW116427   1.464   4.668   5.593
 1516SOL    HW216428   1.480   4.771   5.484
 1517SOL     OW16429   1.532   0.225   3.318
 1517SOL    HW116430   1.501   0.299   3.267
 1517SOL    HW216431   1.517   0.149   3.261
 1518SOL     OW16432   4.610   3.859   5.431
 1518SOL    HW116433   4.554   3.937   5.441
 1518SOL    HW216434   4.581   3.800   5.501
 1519SOL     OW16435   4.705   4.045  20.603
 1519SOL    HW116436   4.763   3.975  20.634
 1519SOL    HW216437   4.737   4.066  20.516
 1520SOL     OW16438   3.894   3.343   3.050
 1520SOL    HW116439   3.867   3.305   3.134
 1520SOL    HW216440   3.955   3.413   3.074
 1521SOL     OW16441   3.615   2.669   8.660
 1521SOL    HW116442   3.590   2.700   8.747
 1521SOL    HW216443   3.531   2.656   8.615
 1522SOL     OW16444   1.891   3.990  17.933
 1522SOL    HW116445   1.835   3.951  17.866
 1522SOL    HW216446   1.948   4.050  17.885
 1523SOL     OW16447   1.243   4.387  16.449
 1523SOL    HW116448   1.220   4.328  16.520
 1523SOL    HW216449   1.306   4.448  16.487
 1524SOL     OW16450   3.784   3.432  16.461
 1524SOL    HW116451   3.814   3.522  16.450
 1524SOL    HW216452   3.812   3.408  16.549
 1525SOL     OW16453   1.274   0.303   1.609
 1525SOL    HW116454   1.257   0.325   1.701
 1525SOL    HW216455   1.199   0.339   1.561
 1526SOL     OW16456   2.721   3.270  19.833
 1526SOL    HW116457   2.784   3.203  19.808
 1526SOL    HW216458   2.769   3.328  19.891
 1527SOL     OW16459   2.331   0.234   5.165
 1527SOL    HW116460   2.386   0.302   5.127
 1527SOL    HW216461   2.243   0.252   5.131
 1528SOL     OW16462   3.795   0.272   1.617
 1528SOL    HW116463   3.746   0.233   1.689
 1528SOL    HW216464   3.762   0.362   1.612
 1529SOL     OW16465   0.584   2.762   4.253
 1529SOL    HW116466   0.572   2.796   4.341
 1529SOL    HW216467   0.650   2.693   4.262
 1530SOL     OW16468   2.442   2.151   2.684
 1530SOL    HW116469   2.476   2.210   2.617
 1530SOL    HW216470   2.356   2.188   2.707
 1531SOL     OW16471   0.003   4.562  13.985
 1531SOL    HW116472   0.034   4.473  13.966
 1531SOL    HW216473   0.083   4.615  13.987
 1532SOL     OW16474   2.706   4.595  19.428
 1532SOL    HW116475   2.781   4.582  19.486
 1532SOL    HW216476   2.669   4.508  19.417
 1533SOL     OW16477   3.841   4.680  20.000
 1533SOL    HW116478   3.810   4.771  19.997
 1533SOL    HW216479   3.867   4.667  20.091
 1534SOL     OW16480   3.071   3.552   7.102
 1534SOL    HW116481   3.063   3.593   7.188
 1534SOL    HW216482   3.032   3.465   7.113
 1535SOL     OW16483   2.119   0.837  16.058
 1535SOL    HW116484   2.168   0.755  16.061
 1535SOL    HW216485   2.079   0.838  15.971
 1536SOL     OW16486   1.917   3.354   1.311
 1536SOL    HW116487   1.873   3.391   1.235
 1536SOL    HW216488   2.010   3.374   1.297
 1537SOL     OW16489   0.111   2.927   6.799
 1537SOL    HW116490   0.051   2.926   6.725
 1537SOL    HW216491   0.100   3.014   6.838
 1538SOL     OW16492   3.107   4.036  15.245
 1538SOL    HW116493   3.166   3.992  15.183
 1538SOL    HW216494   3.034   4.067  15.192
 1539SOL     OW16495   3.232   4.427  21.208
 1539SOL    HW116496   3.306   4.488  21.205
 1539SOL    HW216497   3.270   4.342  21.185
 1540SOL     OW16498   2.822   2.299   6.760
 1540SOL    HW116499   2.898   2.274   6.708
 1540SOL    HW216500   2.788   2.216   6.794
 1541SOL     OW16501   0.074   1.423   1.867
 1541SOL    HW116502   0.018   1.421   1.788
 1541SOL    HW216503   0.047   1.503   1.913
 1542SOL     OW16504   0.397   4.084   5.706
 1542SOL    HW116505   0.487   4.064   5.734
 1542SOL    HW216506   0.365   4.003   5.667
 1543SOL     OW16507   1.432   1.945  17.595
 1543SOL    HW116508   1.337   1.938  17.598
 1543SOL    HW216509   1.459   1.880  17.530
 1544SOL     OW16510   2.289   2.346   4.337
 1544SOL    HW116511   2.256   2.264   4.374
 1544SOL    HW216512   2.237   2.360   4.258
 1545SOL     OW16513   0.043   2.214  14.978
 1545SOL    HW116514   0.083   2.279  14.921
 1545SOL    HW216515   4.737   2.238  14.981
 1546SOL     OW16516   3.587   3.115  19.346
 1546SOL    HW116517   3.657   3.089  19.405
 1546SOL    HW216518   3.518   3.049  19.358
 1547SOL     OW16519   3.921   0.907  14.447
 1547SOL    HW116520   3.862   0.835  14.472
 1547SOL    HW216521   3.863   0.979  14.424
 1548SOL     OW16522   1.389   3.507  16.980
 1548SOL    HW116523   1.332   3.465  16.916
 1548SOL    HW216524   1.343   3.588  17.004
 1549SOL     OW16525   1.852   4.570  13.708
 1549SOL    HW116526   1.795   4.498  13.733
 1549SOL    HW216527   1.939   4.544  13.740
 1550SOL     OW16528   4.573   0.633   4.949
 1550SOL    HW116529   4.565   0.542   4.919
 1550SOL    HW216530   4.494   0.649   5.000
 1551SOL     OW16531   3.071   2.477  18.015
 1551SOL    HW116532   3.081   2.573  18.011
 1551SOL    HW216533   2.996   2.459  17.959
 1552SOL     OW16534   1.957   0.565   5.440
 1552SOL    HW116535   2.003   0.490   5.478
 1552SOL    HW216536   1.865   0.541   5.444
 1553SOL     OW16537   1.105   1.529   4.898
 1553SOL    HW116538   1.073   1.542   4.809
 1553SOL    HW216539   1.081   1.439   4.920
 1554SOL     OW16540   0.087   0.425  16.455
 1554SOL    HW116541   0.032   0.502  16.469
 1554SOL    HW216542   0.168   0.445  16.502
 1555SOL     OW16543   4.439   4.468  21.201
 1555SOL    HW116544   4.384   4.465  21.123
 1555SOL    HW216545   4.528   4.483  21.168
 1556SOL     OW16546   0.419   0.319  17.126
 1556SOL    HW116547   0.513   0.299  17.136
 1556SOL    HW216548   0.377   0.268  17.195
 1557SOL     OW16549   0.669   4.466  17.770
 1557SOL    HW116550   0.759   4.469  17.803
 1557SOL    HW216551   0.648   4.373  17.765
 1558SOL     OW16552   4.108   2.363   5.880
 1558SOL    HW116553   4.173   2.293   5.871
 1558SOL    HW216554   4.063   2.364   5.796
 1559SOL     OW16555   2.811   3.591   1.571
 1559SOL    HW116556   2.773   3.604   1.484
 1559SOL    HW216557   2.751   3.530   1.614
 1560SOL     OW16558   4.332   0.294  15.769
 1560SOL    HW116559   4.333   0.206  15.805
 1560SOL    HW216560   4.388   0.289  15.691
 1561SOL     OW16561   4.236   3.374  15.334
 1561SOL    HW116562   4.239   3.390  15.240
 1561SOL    HW216563   4.147   3.398  15.360
 1562SOL     OW16564   2.963   3.542  20.077
 1562SOL    HW116565   2.875   3.525  20.110
 1562SOL    HW216566   3.015   3.469  20.108
 1563SOL     OW16567   0.939   1.630   5.781
 1563SOL    HW116568   1.015   1.631   5.839
 1563SOL    HW216569   0.965   1.683   5.705
 1564SOL     OW16570   1.120   0.644  14.026
 1564SOL    HW116571   1.174   0.568  14.009
 1564SOL    HW216572   1.139   0.668  14.117
 1565SOL     OW16573   3.170   0.114  15.485
 1565SOL    HW116574   3.200   0.159  15.406
 1565SOL    HW216575   3.160   0.183  15.550
 1566SOL     OW16576   0.180   0.650  13.265
 1566SOL    HW116577   0.099   0.623  13.310
 1566SOL    HW216578   0.153   0.723  13.209
 1567SOL     OW16579   1.065   2.658  20.219
 1567SOL    HW116580   1.109   2.727  20.267
 1567SOL    HW216581   0.990   2.635  20.274
 1568SOL     OW16582   0.312   4.317   2.597
 1568SOL    HW116583   0.247   4.284   2.535
 1568SOL    HW216584   0.396   4.296   2.558
 1569SOL     OW16585   4.031   1.329   6.167
 1569SOL    HW116586   3.977   1.291   6.098
 1569SOL    HW216587   4.121   1.315   6.138
 1570SOL     OW16588   3.666   1.579   4.491
 1570SOL    HW116589   3.679   1.484   4.491
 1570SOL    HW216590   3.712   1.609   4.412
 1571SOL     OW16591   0.697   3.304   2.379
 1571SOL    HW116592   0.603   3.288   2.375
 1571SOL    HW216593   0.734   3.249   2.310
 1572SOL     OW16594   1.340   1.603  19.395
 1572SOL    HW116595   1.372   1.519  19.427
 1572SOL    HW216596   1.396   1.623  19.320
 1573SOL     OW16597   2.803   4.622   3.724
 1573SOL    HW116598   2.731   4.572   3.684
 1573SOL    HW216599   2.783   4.621   3.818
 1574SOL     OW16600   0.593   0.211   5.003
 1574SOL    HW116601   0.548   0.284   4.961
 1574SOL    HW216602   0.525   0.144   5.013
 1575SOL     OW16603   2.149   2.361  17.938
 1575SOL    HW116604   2.134   2.413  18.017
 1575SOL    HW216605   2.071   2.374  17.885
 1576SOL     OW16606   1.934   1.524   0.745
 1576SOL    HW116607   1.976   1.535   0.660
 1576SOL    HW216608   1.840   1.533   0.727
 1577SOL     OW16609   4.061   4.321  19.164
 1577SOL    HW116610   4.146   4.333  19.205
 1577SOL    HW216611   4.027   4.241  19.204
 1578SOL     OW16612   4.120   1.516  15.267
 1578SOL    HW116613   4.139   1.453  15.336
 1578SOL    HW216614   4.029   1.542  15.283
 1579SOL     OW16615   2.343   1.943   3.759
 1579SOL    HW116616   2.325   1.879   3.827
 1579SOL    HW216617   2.257   1.977   3.734
 1580SOL     OW16618   0.277   3.166   5.863
 1580SOL    HW116619   0.299   3.254   5.833
 1580SOL    HW216620   0.185   3.173   5.890
 1581SOL     OW16621   4.048   2.963  15.327
 1581SOL    HW116622   3.974   2.902  15.320
 1581SOL    HW216623   4.067   2.988  15.236
 1582SOL     OW16624   4.079   0.621   2.140
 1582SOL    HW116625   4.020   0.680   2.186
 1582SOL    HW216626   4.025   0.544   2.120
 1583SOL     OW16627   0.561   0.335   3.291
 1583SOL    HW116628   0.516   0.269   3.343
 1583SOL    HW216629   0.514   0.416   3.309
 1584SOL     OW16630   4.193   1.149  18.042
 1584SOL    HW116631   4.221   1.125  17.953
 1584SOL    HW216632   4.194   1.066  18.090
 1585SOL     OW16633   3.870   2.689   3.956
 1585SOL    HW116634   3.829   2.606   3.978
 1585SOL    HW216635   3.915   2.716   4.037
 1586SOL     OW16636   2.764   4.737  21.054
 1586SOL    HW116637   2.680   4.767  21.020
 1586SOL    HW216638   2.751   4.644  21.072
 1587SOL     OW16639   2.629   2.463  12.701
 1587SOL    HW116640   2.621   2.558  12.698
 1587SOL    HW216641   2.638   2.436  12.610
 1588SOL     OW16642   1.742   3.727   2.562
 1588SOL    HW116643   1.755   3.723   2.657
 1588SOL    HW216644   1.655   3.689   2.548
 1589SOL     OW16645   2.974   4.697  20.896
 1589SOL    HW116646   2.993   4.626  20.957
 1589SOL    HW216647   2.908   4.750  20.940
 1590SOL     OW16648   3.922   1.736  16.953
 1590SOL    HW116649   3.989   1.767  17.014
 1590SOL    HW216650   3.971   1.702  16.878
 1591SOL     OW16651   3.695   3.296  15.313
 1591SOL    HW116652   3.771   3.262  15.361
 1591SOL    HW216653   3.724   3.380  15.278
 1592SOL     OW16654   0.040   4.440   6.657
 1592SOL    HW116655   0.065   4.389   6.579
 1592SOL    HW216656   4.736   4.467   6.640
 1593SOL     OW16657   4.528   4.236  20.109
 1593SOL    HW116658   4.520   4.313  20.052
 1593SOL    HW216659   4.600   4.186  20.070
 1594SOL     OW16660   0.881   1.889  13.104
 1594SOL    HW116661   0.961   1.861  13.148
 1594SOL    HW216662   0.895   1.982  13.085
 1595SOL     OW16663   4.642   4.653  20.148
 1595SOL    HW116664   4.662   4.726  20.089
 1595SOL    HW216665   4.616   4.582  20.090
 1596SOL     OW16666   2.118   0.706   0.518
 1596SOL    HW116667   2.073   0.651   0.583
 1596SOL    HW216668   2.196   0.655   0.495
 1597SOL     OW16669   4.779   3.075   0.929
 1597SOL    HW116670   4.770   3.123   0.847
 1597SOL    HW216671   4.695   3.089   0.974
 1598SOL     OW16672   1.238   1.457  15.911
 1598SOL    HW116673   1.160   1.413  15.945
 1598SOL    HW216674   1.310   1.425  15.965
 1599SOL     OW16675   0.685   1.683   3.200
 1599SOL    HW116676   0.699   1.645   3.286
 1599SOL    HW216677   0.646   1.613   3.148
 1600SOL     OW16678   3.101   0.231   3.838
 1600SOL    HW116679   3.092   0.203   3.746
 1600SOL    HW216680   3.013   0.261   3.863
 1601SOL     OW16681   4.194   3.971  20.267
 1601SOL    HW116682   4.237   4.051  20.234
 1601SOL    HW216683   4.219   3.967  20.360
 1602SOL     OW16684   2.371   2.194   5.126
 1602SOL    HW116685   2.342   2.211   5.215
 1602SOL    HW216686   2.404   2.104   5.128
 1603SOL     OW16687   2.651   3.250   4.380
 1603SOL    HW116688   2.644   3.342   4.354
 1603SOL    HW216689   2.723   3.248   4.442
 1604SOL     OW16690   0.929   0.330  15.771
 1604SOL    HW116691   0.856   0.377  15.730
 1604SOL    HW216692   0.956   0.386  15.844
 1605SOL     OW16693   0.562   3.997  15.279
 1605SOL    HW116694   0.467   3.986  15.278
 1605SOL    HW216695   0.578   4.071  15.220
 1606SOL     OW16696   3.482   2.646   4.725
 1606SOL    HW116697   3.508   2.670   4.636
 1606SOL    HW216698   3.395   2.607   4.714
 1607SOL     OW16699   2.119   0.048  20.656
 1607SOL    HW116700   2.167   0.080  20.732
 1607SOL    HW216701   2.064   4.764  20.689
 1608SOL     OW16702   3.345   1.964   7.075
 1608SOL    HW116703   3.430   2.008   7.077
 1608SOL    HW216704   3.292   2.011   7.140
 1609SOL     OW16705   3.775   3.040   1.613
 1609SOL    HW116706   3.734   3.124   1.593
 1609SOL    HW216707   3.832   3.057   1.688
 1610SOL     OW16708   3.000   3.117   6.283
 1610SOL    HW116709   3.094   3.119   6.265
 1610SOL    HW216710   2.993   3.111   6.378
 1611SOL     OW16711   1.537   1.150   5.193
 1611SOL    HW116712   1.456   1.109   5.165
 1611SOL    HW216713   1.521   1.175   5.284
 1612SOL     OW16714   1.995   1.902  19.031
 1612SOL    HW116715   2.052   1.978  19.044
 1612SOL    HW216716   1.910   1.929  19.064
 1613SOL     OW16717   4.491   1.056   3.368
 1613SOL    HW116718   4.429   1.122   3.401
 1613SOL    HW216719   4.576   1.101   3.368
 1614SOL     OW16720   3.275   1.130   4.302
 1614SOL    HW116721   3.362   1.169   4.316
 1614SOL    HW216722   3.249   1.160   4.215
 1615SOL     OW16723   3.518   1.953  16.366
 1615SOL    HW116724   3.576   1.953  16.443
 1615SOL    HW216725   3.453   1.886  16.385
 1616SOL     OW16726   0.742   1.765   4.637
 1616SOL    HW116727   0.779   1.849   4.608
 1616SOL    HW216728   0.698   1.787   4.719
 1617SOL     OW16729   2.117   3.696   3.777
 1617SOL    HW116730   2.035   3.694   3.824
 1617SOL    HW216731   2.140   3.604   3.765
 1618SOL     OW16732   3.591   4.506   3.854
 1618SOL    HW116733   3.499   4.485   3.866
 1618SOL    HW216734   3.621   4.534   3.940
 1619SOL     OW16735   4.417   3.506   5.035
 1619SOL    HW116736   4.447   3.525   5.124
 1619SOL    HW216737   4.435   3.413   5.023
 1620SOL     OW16738   4.084   1.676  14.951
 1620SOL    HW116739   4.016   1.704  14.890
 1620SOL    HW216740   4.089   1.747  15.015
 1621SOL     OW16741   3.359   3.653   0.004
 1621SOL    HW116742   3.362   3.614  21.161
 1621SOL    HW216743   3.283   3.710   0.002
 1622SOL     OW16744   2.944   4.174  20.066
 1622SOL    HW116745   2.952   4.093  20.015
 1622SOL    HW216746   3.020   4.173  20.125
 1623SOL     OW16747   2.138   0.510  18.549
 1623SOL    HW116748   2.168   0.427  18.511
 1623SOL    HW216749   2.106   0.560  18.474
 1624SOL     OW16750   2.075   2.696   0.397
 1624SOL    HW116751   2.165   2.702   0.367
 1624SOL    HW216752   2.066   2.607   0.429
 1625SOL     OW16753   1.761   4.297   3.761
 1625SOL    HW116754   1.844   4.286   3.808
 1625SOL    HW216755   1.777   4.369   3.701
 1626SOL     OW16756   3.113   3.831   3.787
 1626SOL    HW116757   3.141   3.756   3.734
 1626SOL    HW216758   3.067   3.888   3.726
 1627SOL     OW16759   4.018   0.816   1.908
 1627SOL    HW116760   4.039   0.894   1.960
 1627SOL    HW216761   4.082   0.751   1.935
 1628SOL     OW16762   1.790   4.286  13.663
 1628SOL    HW116763   1.754   4.224  13.727
 1628SOL    HW216764   1.752   4.259  13.580
 1629SOL     OW16765   2.781   1.642   1.509
 1629SOL    HW116766   2.872   1.632   1.482
 1629SOL    HW216767   2.780   1.615   1.600
 1630SOL     OW16768   2.906   0.273  20.895
 1630SOL    HW116769   2.843   0.212  20.857
 1630SOL    HW216770   2.985   0.219  20.910
 1631SOL     OW16771   2.862   3.043   6.073
 1631SOL    HW116772   2.906   3.071   6.154
 1631SOL    HW216773   2.902   3.096   6.004
 1632SOL     OW16774   3.753   4.089  19.752
 1632SOL    HW116775   3.844   4.112  19.739
 1632SOL    HW216776   3.709   4.116  19.671
 1633SOL     OW16777   3.933   4.375  18.192
 1633SOL    HW116778   3.864   4.391  18.257
 1633SOL    HW216779   3.969   4.462  18.174
 1634SOL     OW16780   1.516   0.725   5.276
 1634SOL    HW116781   1.473   0.719   5.362
 1634SOL    HW216782   1.589   0.785   5.291
 1635SOL     OW16783   2.638   3.487   2.422
 1635SOL    HW116784   2.571   3.501   2.489
 1635SOL    HW216785   2.591   3.445   2.350
 1636SOL     OW16786   0.415   0.870  15.824
 1636SOL    HW116787   0.510   0.883  15.829
 1636SOL    HW216788   0.386   0.869  15.915
 1637SOL     OW16789   1.292   1.532   3.953
 1637SOL    HW116790   1.281   1.488   4.037
 1637SOL    HW216791   1.367   1.487   3.913
 1638SOL     OW16792   4.440   4.716  14.878
 1638SOL    HW116793   4.532   4.697  14.894
 1638SOL    HW216794   4.423   4.679  14.791
 1639SOL     OW16795   4.710   4.270  17.967
 1639SOL    HW116796   4.724   4.309  18.054
 1639SOL    HW216797   4.768   4.320  17.910
 1640SOL     OW16798   4.194   1.817  15.999
 1640SOL    HW116799   4.106   1.853  15.987
 1640SOL    HW216800   4.212   1.829  16.092
 1641SOL     OW16801   0.549   2.400   5.619
 1641SOL    HW116802   0.620   2.340   5.596
 1641SOL    HW216803   0.536   2.386   5.713
 1642SOL     OW16804   3.633   4.487   5.278
 1642SOL    HW116805   3.603   4.563   5.229
 1642SOL    HW216806   3.727   4.500   5.287
 1643SOL     OW16807   4.450   0.199   6.022
 1643SOL    HW116808   4.471   0.289   6.046
 1643SOL    HW216809   4.364   0.204   5.981
 1644SOL     OW16810   4.466   1.549  18.461
 1644SOL    HW116811   4.374   1.574  18.458
 1644SOL    HW216812   4.514   1.632  18.459
 1645SOL     OW16813   4.770   1.787   5.813
 1645SOL    HW116814   0.014   1.865   5.861
 1645SOL    HW216815   0.043   1.780   5.739
 1646SOL     OW16816   0.483   2.489  15.812
 1646SOL    HW116817   0.531   2.511  15.733
 1646SOL    HW216818   0.482   2.393  15.815
 1647SOL     OW16819   1.782   4.083   7.549
 1647SOL    HW116820   1.874   4.108   7.550
 1647SOL    HW216821   1.738   4.152   7.600
 1648SOL     OW16822   3.936   2.592   5.981
 1648SOL    HW116823   3.842   2.595   5.967
 1648SOL    HW216824   3.964   2.509   5.942
 1649SOL     OW16825   2.771   0.878  16.159
 1649SOL    HW116826   2.856   0.834  16.161
 1649SOL    HW216827   2.764   0.920  16.245
 1650SOL     OW16828   1.689   2.325  13.502
 1650SOL    HW116829   1.661   2.407  13.543
 1650SOL    HW216830   1.782   2.319  13.522
 1651SOL     OW16831   1.445   3.866   2.173
 1651SOL    HW116832   1.529   3.820   2.170
 1651SOL    HW216833   1.436   3.892   2.265
 1652SOL     OW16834   2.701   3.231  17.115
 1652SOL    HW116835   2.723   3.282  17.037
 1652SOL    HW216836   2.612   3.200  17.099
 1653SOL     OW16837   0.308   2.964  17.201
 1653SOL    HW116838   0.371   3.027  17.237
 1653SOL    HW216839   0.313   2.889  17.260
 1654SOL     OW16840   3.583   4.690  20.370
 1654SOL    HW116841   3.561   4.632  20.443
 1654SOL    HW216842   3.547   4.646  20.293
 1655SOL     OW16843   3.324   2.537   6.880
 1655SOL    HW116844   3.399   2.589   6.911
 1655SOL    HW216845   3.357   2.493   6.801
 1656SOL     OW16846   0.787   0.372  17.809
 1656SOL    HW116847   0.876   0.347  17.834
 1656SOL    HW216848   0.735   0.364  17.889
 1657SOL     OW16849   0.887   0.470   2.483
 1657SOL    HW116850   0.919   0.539   2.424
 1657SOL    HW216851   0.963   0.416   2.502
 1658SOL     OW16852   3.714   0.545   2.266
 1658SOL    HW116853   3.776   0.603   2.310
 1658SOL    HW216854   3.688   0.482   2.333
 1659SOL     OW16855   2.929   1.665  14.404
 1659SOL    HW116856   3.016   1.625  14.402
 1659SOL    HW216857   2.943   1.749  14.447
 1660SOL     OW16858   3.596   1.514  15.828
 1660SOL    HW116859   3.628   1.570  15.758
 1660SOL    HW216860   3.544   1.572  15.884
 1661SOL     OW16861   4.516   1.738   7.895
 1661SOL    HW116862   4.488   1.799   7.963
 1661SOL    HW216863   4.471   1.656   7.918
 1662SOL     OW16864   2.261   4.263   2.202
 1662SOL    HW116865   2.298   4.179   2.174
 1662SOL    HW216866   2.283   4.324   2.131
 1663SOL     OW16867   0.243   1.750  20.494
 1663SOL    HW116868   0.333   1.731  20.469
 1663SOL    HW216869   0.226   1.692  20.568
 1664SOL     OW16870   1.785   0.862  15.260
 1664SOL    HW116871   1.825   0.792  15.310
 1664SOL    HW216872   1.853   0.892  15.201
 1665SOL     OW16873   3.513   0.405  16.562
 1665SOL    HW116874   3.602   0.379  16.537
 1665SOL    HW216875   3.508   0.385  16.656
 1666SOL     OW16876   0.435   4.407  16.310
 1666SOL    HW116877   0.509   4.416  16.250
 1666SOL    HW216878   0.362   4.381  16.255
 1667SOL     OW16879   3.190   3.516  15.657
 1667SOL    HW116880   3.120   3.525  15.592
 1667SOL    HW216881   3.224   3.605  15.667
 1668SOL     OW16882   0.789   4.581   5.527
 1668SOL    HW116883   0.787   4.620   5.439
 1668SOL    HW216884   0.829   4.648   5.582
 1669SOL     OW16885   4.300   4.521   2.036
 1669SOL    HW116886   4.323   4.547   2.125
 1669SOL    HW216887   4.258   4.599   1.999
 1670SOL     OW16888   1.419   3.714   5.760
 1670SOL    HW116889   1.467   3.754   5.687
 1670SOL    HW216890   1.461   3.750   5.838
 1671SOL     OW16891   1.611   0.771   2.012
 1671SOL    HW116892   1.630   0.753   1.920
 1671SOL    HW216893   1.541   0.710   2.035
 1672SOL     OW16894   2.714   0.504   5.735
 1672SOL    HW116895   2.691   0.526   5.825
 1672SOL    HW216896   2.636   0.525   5.684
 1673SOL     OW16897   3.347   0.868   4.345
 1673SOL    HW116898   3.326   0.960   4.329
 1673SOL    HW216899   3.440   0.861   4.326
 1674SOL     OW16900   1.355   0.167  17.486
 1674SOL    HW116901   1.427   0.105  17.500
 1674SOL    HW216902   1.397   0.246  17.453
 1675SOL     OW16903   0.568   0.720  16.277
 1675SOL    HW116904   0.633   0.708  16.208
 1675SOL    HW216905   0.547   0.631  16.306
 1676SOL     OW16906   2.374   1.635  18.182
 1676SOL    HW116907   2.331   1.636  18.267
 1676SOL    HW216908   2.335   1.561  18.136
 1677SOL     OW16909   4.170   0.903   3.783
 1677SOL    HW116910   4.247   0.851   3.760
 1677SOL    HW216911   4.154   0.958   3.705
 1678SOL     OW16912   3.646   1.952  16.042
 1678SOL    HW116913   3.642   1.957  15.947
 1678SOL    HW216914   3.579   2.013  16.072
 1679SOL     OW16915   1.187   0.405   9.271
 1679SOL    HW116916   1.271   0.365   9.247
 1679SOL    HW216917   1.206   0.499   9.276
 1680SOL     OW16918   3.006   0.867  15.904
 1680SOL    HW116919   3.006   0.802  15.975
 1680SOL    HW216920   2.917   0.901  15.903
 1681SOL     OW16921   3.611   4.135   2.923
 1681SOL    HW116922   3.584   4.227   2.920
 1681SOL    HW216923   3.679   4.127   2.856
 1682SOL     OW16924   2.394   2.543  19.485
 1682SOL    HW116925   2.357   2.470  19.436
 1682SOL    HW216926   2.447   2.591  19.421
 1683SOL     OW16927   3.607   0.555  18.086
 1683SOL    HW116928   3.673   0.537  18.019
 1683SOL    HW216929   3.563   0.472  18.100
 1684SOL     OW16930   1.494   3.204   8.286
 1684SOL    HW116931   1.502   3.270   8.354
 1684SOL    HW216932   1.477   3.123   8.333
 1685SOL     OW16933   3.899   3.328  13.972
 1685SOL    HW116934   3.910   3.288  13.886
 1685SOL    HW216935   3.923   3.259  14.034
 1686SOL     OW16936   4.236   3.268  16.365
 1686SOL    HW116937   4.277   3.250  16.450
 1686SOL    HW216938   4.207   3.359  16.371
 1687SOL     OW16939   2.518   2.766   0.746
 1687SOL    HW116940   2.570   2.767   0.826
 1687SOL    HW216941   2.459   2.841   0.755
 1688SOL     OW16942   2.322   0.627  16.297
 1688SOL    HW116943   2.335   0.662  16.209
 1688SOL    HW216944   2.354   0.697  16.355
 1689SOL     OW16945   4.105   2.617  14.569
 1689SOL    HW116946   4.096   2.707  14.601
 1689SOL    HW216947   4.154   2.626  14.487
 1690SOL     OW16948   1.934   3.409   0.398
 1690SOL    HW116949   2.030   3.406   0.389
 1690SOL    HW216950   1.902   3.343   0.337
 1691SOL     OW16951   4.267   2.566   4.418
 1691SOL    HW116952   4.271   2.622   4.495
 1691SOL    HW216953   4.351   2.578   4.374
 1692SOL     OW16954   3.344   0.833   1.403
 1692SOL    HW116955   3.333   0.927   1.388
 1692SOL    HW216956   3.406   0.805   1.335
 1693SOL     OW16957   1.638   3.134   5.060
 1693SOL    HW116958   1.580   3.210   5.066
 1693SOL    HW216959   1.715   3.159   5.111
 1694SOL     OW16960   4.732   0.690  19.050
 1694SOL    HW116961   4.648   0.658  19.083
 1694SOL    HW216962   4.744   0.776  19.090
 1695SOL     OW16963   1.135   0.826   3.500
 1695SOL    HW116964   1.130   0.922   3.490
 1695SOL    HW216965   1.211   0.812   3.556
 1696SOL     OW16966   0.618   3.089  14.684
 1696SOL    HW116967   0.547   3.090  14.748
 1696SOL    HW216968   0.608   3.006  14.638
 1697SOL     OW16969   2.947   2.214   2.542
 1697SOL    HW116970   3.025   2.176   2.582
 1697SOL    HW216971   2.955   2.192   2.449
 1698SOL     OW16972   0.734   2.191  19.462
 1698SOL    HW116973   0.721   2.204  19.368
 1698SOL    HW216974   0.829   2.180  19.472
 1699SOL     OW16975   3.740   4.536   3.190
 1699SOL    HW116976   3.738   4.627   3.220
 1699SOL    HW216977   3.828   4.506   3.212
 1700SOL     OW16978   2.349   2.184   1.876
 1700SOL    HW116979   2.399   2.168   1.956
 1700SOL    HW216980   2.382   2.268   1.845
 1701SOL     OW16981   2.496   4.075  15.956
 1701SOL    HW116982   2.502   4.026  16.037
 1701SOL    HW216983   2.495   4.008  15.887
 1702SOL     OW16984   4.353   0.255   1.112
 1702SOL    HW116985   4.417   0.313   1.070
 1702SOL    HW216986   4.306   0.311   1.173
 1703SOL     OW16987   2.807   1.143   3.541
 1703SOL    HW116988   2.812   1.049   3.559
 1703SOL    HW216989   2.896   1.175   3.555
 1704SOL     OW16990   0.922   3.527  17.374
 1704SOL    HW116991   0.960   3.614  17.376
 1704SOL    HW216992   0.926   3.497  17.465
 1705SOL     OW16993   3.960   3.319   7.441
 1705SOL    HW116994   3.941   3.234   7.483
 1705SOL    HW216995   3.917   3.383   7.497
 1706SOL     OW16996   1.551   0.292   0.699
 1706SOL    HW116997   1.587   0.259   0.781
 1706SOL    HW216998   1.627   0.303   0.642
 1707SOL     OW16999   0.332   0.579   5.753
 1707SOL    HW117000   0.332   0.605   5.845
 1707SOL    HW217001   0.414   0.615   5.718
 1708SOL     OW17002   3.103   4.487  17.275
 1708SOL    HW117003   3.031   4.450  17.222
 1708SOL    HW217004   3.066   4.494  17.363
 1709SOL     OW17005   1.265   2.959   2.970
 1709SOL    HW117006   1.314   2.878   2.985
 1709SOL    HW217007   1.229   2.982   3.055
 1710SOL     OW17008   2.156   0.687   4.882
 1710SOL    HW117009   2.228   0.638   4.923
 1710SOL    HW217010   2.124   0.744   4.952
 1711SOL     OW17011   4.350   0.646   5.060
 1711SOL    HW117012   4.345   0.709   5.132
 1711SOL    HW217013   4.260   0.613   5.052
 1712SOL     OW17014   0.100   4.404   0.402
 1712SOL    HW117015   0.068   4.390   0.313
 1712SOL    HW217016   0.084   4.497   0.419
 1713SOL     OW17017   2.346   1.163   3.870
 1713SOL    HW117018   2.266   1.129   3.831
 1713SOL    HW217019   2.378   1.227   3.807
 1714SOL     OW17020   0.530   1.437   8.198
 1714SOL    HW117021   0.490   1.522   8.216
 1714SOL    HW217022   0.582   1.451   8.119
 1715SOL     OW17023   3.537   2.442  16.015
 1715SOL    HW117024   3.530   2.530  15.979
 1715SOL    HW217025   3.523   2.452  16.109
 1716SOL     OW17026   1.077   1.502   2.237
 1716SOL    HW117027   1.173   1.503   2.246
 1716SOL    HW217028   1.062   1.517   2.144
 1717SOL     OW17029   4.361   3.385   2.921
 1717SOL    HW117030   4.405   3.392   2.836
 1717SOL    HW217031   4.309   3.465   2.928
 1718SOL     OW17032   2.611   0.123  17.966
 1718SOL    HW117033   2.651   0.041  17.996
 1718SOL    HW217034   2.565   0.156  18.043
 1719SOL     OW17035   0.375   3.579   4.849
 1719SOL    HW117036   0.409   3.592   4.761
 1719SOL    HW217037   0.307   3.645   4.858
 1720SOL     OW17038   0.886   0.630  16.826
 1720SOL    HW117039   0.811   0.641  16.767
 1720SOL    HW217040   0.936   0.711  16.818
 1721SOL     OW17041   2.672   0.887  17.573
 1721SOL    HW117042   2.639   0.853  17.490
 1721SOL    HW217043   2.767   0.887  17.563
 1722SOL     OW17044   1.994   4.005  20.477
 1722SOL    HW117045   2.068   4.066  20.477
 1722SOL    HW217046   1.935   4.039  20.410
 1723SOL     OW17047   2.629   1.135  17.699
 1723SOL    HW117048   2.584   1.092  17.772
 1723SOL    HW217049   2.643   1.066  17.635
 1724SOL     OW17050   2.833   0.314   3.489
 1724SOL    HW117051   2.851   0.308   3.395
 1724SOL    HW217052   2.869   0.234   3.526
 1725SOL     OW17053   0.526   3.876  19.521
 1725SOL    HW117054   0.614   3.850  19.493
 1725SOL    HW217055   0.530   3.971  19.528
 1726SOL     OW17056   4.411   3.903  18.190
 1726SOL    HW117057   4.438   3.817  18.221
 1726SOL    HW217058   4.478   3.963  18.223
 1727SOL     OW17059   1.571   1.019   0.737
 1727SOL    HW117060   1.565   0.925   0.751
 1727SOL    HW217061   1.565   1.057   0.825
 1728SOL     OW17062   0.361   4.039   1.668
 1728SOL    HW117063   0.393   4.104   1.605
 1728SOL    HW217064   0.266   4.038   1.655
 1729SOL     OW17065   4.161   0.120   3.717
 1729SOL    HW117066   4.114   0.201   3.696
 1729SOL    HW217067   4.208   0.098   3.637
 1730SOL     OW17068   0.234   1.183  15.897
 1730SOL    HW117069   0.165   1.123  15.868
 1730SOL    HW217070   0.259   1.150  15.983
 1731SOL     OW17071   2.199   1.815  20.982
 1731SOL    HW117072   2.145   1.882  20.941
 1731SOL    HW217073   2.279   1.814  20.931
 1732SOL     OW17074   2.640   3.572  16.258
 1732SOL    HW117075   2.625   3.619  16.176
 1732SOL    HW217076   2.555   3.575  16.303
 1733SOL     OW17077   4.099   3.814   1.885
 1733SOL    HW117078   4.177   3.847   1.841
 1733SOL    HW217079   4.069   3.742   1.828
 1734SOL     OW17080   4.585   4.406  14.735
 1734SOL    HW117081   4.620   4.488  14.700
 1734SOL    HW217082   4.645   4.382  14.805
 1735SOL     OW17083   0.607   4.593  13.837
 1735SOL    HW117084   0.573   4.671  13.792
 1735SOL    HW217085   0.691   4.576  13.793
 1736SOL     OW17086   0.979   2.419  19.643
 1736SOL    HW117087   0.956   2.357  19.713
 1736SOL    HW217088   0.971   2.368  19.562
 1737SOL     OW17089   1.450   4.769   2.741
 1737SOL    HW117090   1.369   4.725   2.717
 1737SOL    HW217091   1.498   4.705   2.793
 1738SOL     OW17092   1.798   2.069   0.081
 1738SOL    HW117093   1.756   2.118   0.152
 1738SOL    HW217094   1.886   2.107   0.075
 1739SOL     OW17095   4.312   0.116   6.972
 1739SOL    HW117096   4.304   0.032   7.019
 1739SOL    HW217097   4.222   0.142   6.955
 1740SOL     OW17098   4.005   4.000  20.646
 1740SOL    HW117099   3.963   4.014  20.561
 1740SOL    HW217100   4.025   4.088  20.678
 1741SOL     OW17101   3.289   1.847   5.339
 1741SOL    HW117102   3.250   1.884   5.260
 1741SOL    HW217103   3.215   1.811   5.388
 1742SOL     OW17104   1.703   1.359  12.990
 1742SOL    HW117105   1.711   1.424  13.059
 1742SOL    HW217106   1.610   1.357  12.968
 1743SOL     OW17107   1.425   0.261   2.461
 1743SOL    HW117108   1.390   0.251   2.549
 1743SOL    HW217109   1.349   0.260   2.404
 1744SOL     OW17110   2.846   3.352  16.648
 1744SOL    HW117111   2.851   3.270  16.599
 1744SOL    HW217112   2.934   3.390  16.640
 1745SOL     OW17113   0.415   3.431  15.362
 1745SOL    HW117114   0.355   3.429  15.436
 1745SOL    HW217115   0.374   3.490  15.299
 1746SOL     OW17116   2.091   2.407  14.168
 1746SOL    HW117117   2.183   2.433  14.162
 1746SOL    HW217118   2.081   2.374  14.257
 1747SOL     OW17119   3.373   2.844  14.304
 1747SOL    HW117120   3.394   2.925  14.350
 1747SOL    HW217121   3.337   2.874  14.220
 1748SOL     OW17122   3.198   0.013   4.601
 1748SOL    HW117123   3.153   0.061   4.531
 1748SOL    HW217124   3.290   0.013   4.575
 1749SOL     OW17125   3.779   2.799  17.481
 1749SOL    HW117126   3.804   2.721  17.433
 1749SOL    HW217127   3.734   2.766  17.559
 1750SOL     OW17128   3.875   2.085  17.557
 1750SOL    HW117129   3.916   1.999  17.549
 1750SOL    HW217130   3.948   2.146  17.568
 1751SOL     OW17131   2.535   3.183   5.564
 1751SOL    HW117132   2.507   3.262   5.518
 1751SOL    HW217133   2.619   3.161   5.524
 1752SOL     OW17134   2.343   2.859   7.092
 1752SOL    HW117135   2.359   2.765   7.106
 1752SOL    HW217136   2.422   2.902   7.124
 1753SOL     OW17137   3.272   4.176  20.714
 1753SOL    HW117138   3.258   4.083  20.699
 1753SOL    HW217139   3.331   4.180  20.789
 1754SOL     OW17140   3.723   3.669   5.705
 1754SOL    HW117141   3.759   3.581   5.694
 1754SOL    HW217142   3.631   3.661   5.679
 1755SOL     OW17143   4.148   1.367   3.970
 1755SOL    HW117144   4.143   1.355   3.875
 1755SOL    HW217145   4.184   1.455   3.981
 1756SOL     OW17146   2.029   0.781   1.127
 1756SOL    HW117147   1.992   0.766   1.040
 1756SOL    HW217148   1.957   0.821   1.177
 1757SOL     OW17149   3.122   0.313  19.978
 1757SOL    HW117150   3.088   0.350  19.896
 1757SOL    HW217151   3.047   0.266  20.016
 1758SOL     OW17152   1.786   3.064  20.301
 1758SOL    HW117153   1.816   3.124  20.232
 1758SOL    HW217154   1.767   3.121  20.375
 1759SOL     OW17155   2.386   3.644  14.549
 1759SOL    HW117156   2.351   3.691  14.473
 1759SOL    HW217157   2.435   3.571  14.512
 1760SOL     OW17158   4.519   0.636  19.191
 1760SOL    HW117159   4.520   0.655  19.284
 1760SOL    HW217160   4.437   0.675  19.159
 1761SOL     OW17161   1.868   0.620   0.666
 1761SOL    HW117162   1.856   0.687   0.599
 1761SOL    HW217163   1.918   0.665   0.735
 1762SOL     OW17164   3.649   2.498  19.836
 1762SOL    HW117165   3.744   2.500  19.821
 1762SOL    HW217166   3.619   2.421  19.788
 1763SOL     OW17167   1.410   2.472   8.689
 1763SOL    HW117168   1.408   2.404   8.757
 1763SOL    HW217169   1.465   2.434   8.620
 1764SOL     OW17170   2.094   0.003   8.123
 1764SOL    HW117171   2.097   0.059   8.045
 1764SOL    HW217172   2.141   0.052   8.190
 1765SOL     OW17173   0.457   1.202  17.296
 1765SOL    HW117174   0.380   1.181  17.350
 1765SOL    HW217175   0.527   1.150  17.334
 1766SOL     OW17176   2.149   1.035  16.460
 1766SOL    HW117177   2.234   1.077  16.476
 1766SOL    HW217178   2.135   1.044  16.366
 1767SOL     OW17179   0.597   4.032  17.249
 1767SOL    HW117180   0.514   4.042  17.295
 1767SOL    HW217181   0.583   3.959  17.189
 1768SOL     OW17182   0.340   3.465  16.168
 1768SOL    HW117183   0.388   3.533  16.120
 1768SOL    HW217184   0.352   3.386  16.115
 1769SOL     OW17185   1.383   0.779  17.210
 1769SOL    HW117186   1.438   0.786  17.288
 1769SOL    HW217187   1.346   0.866  17.198
 1770SOL     OW17188   1.064   0.105  18.143
 1770SOL    HW117189   1.088   0.017  18.115
 1770SOL    HW217190   0.981   0.093  18.191
 1771SOL     OW17191   0.328   2.879  19.981
 1771SOL    HW117192   0.353   2.937  19.910
 1771SOL    HW217193   0.408   2.867  20.032
 1772SOL     OW17194   3.345   0.946   3.713
 1772SOL    HW117195   3.337   1.035   3.746
 1772SOL    HW217196   3.406   0.952   3.640
 1773SOL     OW17197   3.299   3.006  15.019
 1773SOL    HW117198   3.284   2.996  15.113
 1773SOL    HW217199   3.372   2.948  14.999
 1774SOL     OW17200   3.998   0.792   3.144
 1774SOL    HW117201   4.084   0.834   3.153
 1774SOL    HW217202   3.936   0.866   3.141
 1775SOL     OW17203   1.276   0.573  16.161
 1775SOL    HW117204   1.283   0.483  16.195
 1775SOL    HW217205   1.352   0.583  16.105
 1776SOL     OW17206   2.924   0.211   3.113
 1776SOL    HW117207   3.008   0.167   3.104
 1776SOL    HW217208   2.945   0.298   3.148
 1777SOL     OW17209   4.273   4.212   3.656
 1777SOL    HW117210   4.285   4.251   3.742
 1777SOL    HW217211   4.361   4.211   3.618
 1778SOL     OW17212   2.531   4.759  16.852
 1778SOL    HW117213   2.516   0.053  16.802
 1778SOL    HW217214   2.487   4.691  16.800
 1779SOL     OW17215   0.873   0.265   1.532
 1779SOL    HW117216   0.779   0.264   1.545
 1779SOL    HW217217   0.885   0.312   1.449
 1780SOL     OW17218   4.661   0.204   0.044
 1780SOL    HW117219   4.718   0.258   0.098
 1780SOL    HW217220   4.603   0.267   0.000
 1781SOL     OW17221   2.507   3.225  18.925
 1781SOL    HW117222   2.464   3.308  18.944
 1781SOL    HW217223   2.439   3.159  18.935
 1782SOL     OW17224   1.600   0.524   1.435
 1782SOL    HW117225   1.518   0.566   1.408
 1782SOL    HW217226   1.583   0.494   1.524
 1783SOL     OW17227   0.447   0.642   4.263
 1783SOL    HW117228   0.505   0.571   4.288
 1783SOL    HW217229   0.489   0.721   4.298
 1784SOL     OW17230   3.075   2.230   0.334
 1784SOL    HW117231   3.001   2.278   0.371
 1784SOL    HW217232   3.051   2.138   0.346
 1785SOL     OW17233   1.739   0.828  15.679
 1785SOL    HW117234   1.664   0.824  15.739
 1785SOL    HW217235   1.725   0.756  15.617
 1786SOL     OW17236   0.672   2.503   8.184
 1786SOL    HW117237   0.711   2.429   8.232
 1786SOL    HW217238   0.599   2.464   8.135
 1787SOL     OW17239   4.204   1.476  18.896
 1787SOL    HW117240   4.205   1.556  18.844
 1787SOL    HW217241   4.192   1.405  18.832
 1788SOL     OW17242   3.856   1.766   9.436
 1788SOL    HW117243   3.872   1.767   9.531
 1788SOL    HW217244   3.874   1.676   9.410
 1789SOL     OW17245   1.426   0.701   7.357
 1789SOL    HW117246   1.355   0.689   7.294
 1789SOL    HW217247   1.403   0.643   7.430
 1790SOL     OW17248   0.402   0.187  14.282
 1790SOL    HW117249   0.347   0.209  14.207
 1790SOL    HW217250   0.347   0.128  14.335
 1791SOL     OW17251   0.249   2.504   6.956
 1791SOL    HW117252   0.296   2.422   6.938
 1791SOL    HW217253   0.213   2.492   7.044
 1792SOL     OW17254   4.674   1.966   9.155
 1792SOL    HW117255   4.687   2.059   9.139
 1792SOL    HW217256   4.684   1.956   9.250
 1793SOL     OW17257   0.885   3.161   5.463
 1793SOL    HW117258   0.812   3.198   5.412
 1793SOL    HW217259   0.890   3.070   5.434
 1794SOL     OW17260   2.403   0.512   4.457
 1794SOL    HW117261   2.371   0.547   4.540
 1794SOL    HW217262   2.456   0.582   4.420
 1795SOL     OW17263   2.954   0.384   7.982
 1795SOL    HW117264   2.929   0.475   8.001
 1795SOL    HW217265   3.047   0.389   7.961
 1796SOL     OW17266   0.457   2.380  10.523
 1796SOL    HW117267   0.457   2.475  10.531
 1796SOL    HW217268   0.510   2.349  10.596
 1797SOL     OW17269   3.069   2.275   8.451
 1797SOL    HW117270   3.161   2.281   8.425
 1797SOL    HW217271   3.040   2.366   8.457
 1798SOL     OW17272   4.370   4.312  16.936
 1798SOL    HW117273   4.391   4.256  16.861
 1798SOL    HW217274   4.346   4.251  17.006
 1799SOL     OW17275   0.340   1.062   9.079
 1799SOL    HW117276   0.409   1.086   9.018
 1799SOL    HW217277   0.259   1.080   9.032
 1800SOL     OW17278   4.706   3.393   9.064
 1800SOL    HW117279   4.776   3.393   8.999
 1800SOL    HW217280   4.741   3.444   9.137
 1801SOL     OW17281   0.763   2.166   9.713
 1801SOL    HW117282   0.684   2.114   9.731
 1801SOL    HW217283   0.731   2.255   9.703
 1802SOL     OW17284   0.269   2.538   7.547
 1802SOL    HW117285   0.242   2.447   7.557
 1802SOL    HW217286   0.340   2.535   7.484
 1803SOL     OW17287   0.341   2.679   9.385
 1803SOL    HW117288   0.268   2.666   9.447
 1803SOL    HW217289   0.299   2.714   9.306
 1804SOL     OW17290   2.505   2.541   8.341
 1804SOL    HW117291   2.491   2.480   8.269
 1804SOL    HW217292   2.594   2.575   8.328
 1805SOL     OW17293   3.655   0.161  15.432
 1805SOL    HW117294   3.741   0.121  15.420
 1805SOL    HW217295   3.627   0.131  15.518
 1806SOL     OW17296   0.266   4.715   8.775
 1806SOL    HW117297   0.343   4.747   8.824
 1806SOL    HW217298   0.290   4.727   8.683
 1807SOL     OW17299   2.760   1.074   8.987
 1807SOL    HW117300   2.782   1.167   8.993
 1807SOL    HW217301   2.667   1.070   9.011
 1808SOL     OW17302   3.217   1.692   6.300
 1808SOL    HW117303   3.123   1.698   6.283
 1808SOL    HW217304   3.242   1.607   6.265
 1809SOL     OW17305   4.500   3.648  14.023
 1809SOL    HW117306   4.554   3.719  14.060
 1809SOL    HW217307   4.434   3.693  13.971
 1810SOL     OW17308   4.426   3.193   9.934
 1810SOL    HW117309   4.412   3.235   9.849
 1810SOL    HW217310   4.445   3.102   9.913
 1811SOL     OW17311   4.509   0.939   9.499
 1811SOL    HW117312   4.518   0.852   9.538
 1811SOL    HW217313   4.414   0.953   9.493
 1812SOL     OW17314   3.855   1.689   1.950
 1812SOL    HW117315   3.928   1.692   1.889
 1812SOL    HW217316   3.888   1.641   2.026
 1813SOL     OW17317   2.804   3.943   9.943
 1813SOL    HW117318   2.868   3.963   9.874
 1813SOL    HW217319   2.741   3.885   9.900
 1814SOL     OW17320   3.385   3.559   8.879
 1814SOL    HW117321   3.429   3.604   8.951
 1814SOL    HW217322   3.438   3.581   8.802
 1815SOL     OW17323   0.450   4.734   5.759
 1815SOL    HW117324   0.486   0.034   5.742
 1815SOL    HW217325   0.363   4.735   5.718
 1816SOL     OW17326   0.686   2.395  10.313
 1816SOL    HW117327   0.596   2.398  10.346
 1816SOL    HW217328   0.732   2.338  10.375
 1817SOL     OW17329   3.525   2.389  10.493
 1817SOL    HW117330   3.617   2.369  10.472
 1817SOL    HW217331   3.525   2.484  10.509
 1818SOL     OW17332   4.194   2.022  10.253
 1818SOL    HW117333   4.208   1.939  10.207
 1818SOL    HW217334   4.273   2.073  10.235
 1819SOL     OW17335   2.144   4.004  11.232
 1819SOL    HW117336   2.112   4.090  11.260
 1819SOL    HW217337   2.234   4.001  11.264
 1820SOL     OW17338   3.779   2.456   9.828
 1820SOL    HW117339   3.696   2.493   9.800
 1820SOL    HW217340   3.822   2.429   9.747
 1821SOL     OW17341   4.300   0.976  11.810
 1821SOL    HW117342   4.359   0.962  11.736
 1821SOL    HW217343   4.232   0.910  11.799
 1822SOL     OW17344   3.525   2.238  10.778
 1822SOL    HW117345   3.554   2.313  10.727
 1822SOL    HW217346   3.442   2.212  10.736
 1823SOL     OW17347   3.192   1.715  11.471
 1823SOL    HW117348   3.154   1.628  11.465
 1823SOL    HW217349   3.240   1.715  11.554
 1824SOL     OW17350   3.695   2.185   9.863
 1824SOL    HW117351   3.636   2.179   9.939
 1824SOL    HW217352   3.736   2.272   9.872
 1825SOL     OW17353   4.687   2.152  10.128
 1825SOL    HW117354   4.593   2.145  10.144
 1825SOL    HW217355   4.726   2.159  10.216
 1826SOL     OW17356   3.958   0.476   9.090
 1826SOL    HW117357   4.009   0.557   9.082
 1826SOL    HW217358   3.868   0.502   9.068
 1827SOL     OW17359   4.091   1.696  10.448
 1827SOL    HW117360   4.013   1.750  10.441
 1827SOL    HW217361   4.145   1.722  10.373
 1828SOL     OW17362   4.372   3.974  11.330
 1828SOL    HW117363   4.289   3.927  11.333
 1828SOL    HW217364   4.356   4.056  11.377
 1829SOL     OW17365   2.971   2.025   9.992
 1829SOL    HW117366   2.999   1.993  10.078
 1829SOL    HW217367   3.012   1.965   9.930
 1830SOL     OW17368   3.239   1.309  10.856
 1830SOL    HW117369   3.249   1.365  10.933
 1830SOL    HW217370   3.254   1.220  10.889
 1831SOL     OW17371   0.134   1.595  13.306
 1831SOL    HW117372   0.209   1.610  13.364
 1831SOL    HW217373   0.140   1.503  13.282
 1832SOL     OW17374   3.328   1.080  12.975
 1832SOL    HW117375   3.313   1.043  13.062
 1832SOL    HW217376   3.272   1.158  12.971
 1833SOL     OW17377   2.067   0.977  11.703
 1833SOL    HW117378   2.050   1.066  11.736
 1833SOL    HW217379   1.989   0.927  11.727
 1834SOL     OW17380   3.510   2.528   9.783
 1834SOL    HW117381   3.484   2.591   9.716
 1834SOL    HW217382   3.452   2.453   9.771
 1835SOL     OW17383   2.933   1.949  10.958
 1835SOL    HW117384   2.885   1.999  11.024
 1835SOL    HW217385   2.888   1.968  10.876
 1836SOL     OW17386   0.459   1.331  12.079
 1836SOL    HW117387   0.536   1.365  12.034
 1836SOL    HW217388   0.388   1.388  12.051
 1837SOL     OW17389   0.031   1.154  12.373
 1837SOL    HW117390   0.076   1.188  12.296
 1837SOL    HW217391   4.747   1.215  12.389
 1838SOL     OW17392   0.295   1.545  12.094
 1838SOL    HW117393   0.293   1.530  12.189
 1838SOL    HW217394   0.240   1.622  12.081
 1839SOL     OW17395   2.952   1.923  11.541
 1839SOL    HW117396   2.999   1.943  11.460
 1839SOL    HW217397   2.970   1.830  11.556
 1840SOL     OW17398   4.684   2.666  11.944
 1840SOL    HW117399   4.694   2.736  12.007
 1840SOL    HW217400   4.683   2.586  11.997
 1841SOL     OW17401   3.480   2.046  12.738
 1841SOL    HW117402   3.456   2.114  12.676
 1841SOL    HW217403   3.490   1.967  12.685
 1842SOL     OW17404   3.851   1.028  10.043
 1842SOL    HW117405   3.800   1.005   9.966
 1842SOL    HW217406   3.785   1.045  10.111
 1843SOL     OW17407   4.154   0.426  11.996
 1843SOL    HW117408   4.061   0.403  12.004
 1843SOL    HW217409   4.198   0.365  12.054
 1844SOL     OW17410   3.753   1.879  10.076
 1844SOL    HW117411   3.664   1.887  10.109
 1844SOL    HW217412   3.771   1.785  10.076
 1845SOL     OW17413   2.989   1.516  12.296
 1845SOL    HW117414   3.029   1.543  12.213
 1845SOL    HW217415   3.056   1.462  12.338
 1846SOL     OW17416   2.744   1.510  12.436
 1846SOL    HW117417   2.835   1.509  12.406
 1846SOL    HW217418   2.701   1.575  12.380
 1847SOL     OW17419   3.882   3.360  11.635
 1847SOL    HW117420   3.911   3.346  11.545
 1847SOL    HW217421   3.916   3.285  11.684
 1848SOL     OW17422   4.627   1.993  13.096
 1848SOL    HW117423   4.635   1.969  13.188
 1848SOL    HW217424   4.640   2.088  13.094
 1849SOL     OW17425   3.591   2.305  11.215
 1849SOL    HW117426   3.655   2.300  11.285
 1849SOL    HW217427   3.523   2.242  11.240
 1850SOL     OW17428   3.818   1.117  10.465
 1850SOL    HW117429   3.883   1.160  10.409
 1850SOL    HW217430   3.867   1.088  10.542
 1851SOL     OW17431   4.387   2.082  11.215
 1851SOL    HW117432   4.395   2.177  11.207
 1851SOL    HW217433   4.325   2.057  11.146
 1852SOL     OW17434   4.085   1.514  11.681
 1852SOL    HW117435   4.171   1.492  11.715
 1852SOL    HW217436   4.025   1.453  11.726
 1853SOL     OW17437   3.128   2.997  16.981
 1853SOL    HW117438   3.119   3.053  17.058
 1853SOL    HW217439   3.195   2.934  17.005
 1854SOL     OW17440   0.198   4.376   2.836
 1854SOL    HW117441   0.235   4.299   2.879
 1854SOL    HW217442   0.231   4.373   2.747
 1855SOL     OW17443   4.216   1.929  12.059
 1855SOL    HW117444   4.219   1.927  12.154
 1855SOL    HW217445   4.258   1.848  12.031
 1856SOL     OW17446   3.940   3.908   0.710
 1856SOL    HW117447   3.855   3.889   0.751
 1856SOL    HW217448   3.936   3.863   0.626
 1857SOL     OW17449   0.616   2.391  17.040
 1857SOL    HW117450   0.528   2.394  17.079
 1857SOL    HW217451   0.675   2.415  17.111
 1858SOL     OW17452   2.502   1.251   1.200
 1858SOL    HW117453   2.407   1.252   1.214
 1858SOL    HW217454   2.537   1.315   1.261
 1859SOL     OW17455   1.464   3.190   6.080
 1859SOL    HW117456   1.400   3.135   6.034
 1859SOL    HW217457   1.444   3.279   6.052
 1860SOL     OW17458   2.572   2.471   3.216
 1860SOL    HW117459   2.533   2.462   3.303
 1860SOL    HW217460   2.664   2.493   3.232
 1861SOL     OW17461   0.811   4.279  19.498
 1861SOL    HW117462   0.857   4.238  19.572
 1861SOL    HW217463   0.722   4.247  19.506
 1862SOL     OW17464   4.536   0.711  18.216
 1862SOL    HW117465   4.607   0.721  18.280
 1862SOL    HW217466   4.515   0.800  18.188
 1863SOL     OW17467   1.472   2.158  16.322
 1863SOL    HW117468   1.532   2.146  16.396
 1863SOL    HW217469   1.530   2.172  16.246
 1864SOL     OW17470   0.225   3.984   6.095
 1864SOL    HW117471   0.291   4.049   6.070
 1864SOL    HW217472   0.269   3.929   6.159
 1865SOL     OW17473   3.145   3.313   4.828
 1865SOL    HW117474   3.081   3.250   4.861
 1865SOL    HW217475   3.139   3.308   4.733
 1866SOL     OW17476   4.286   0.135   5.430
 1866SOL    HW117477   4.196   0.166   5.422
 1866SOL    HW217478   4.336   0.211   5.459
 1867SOL     OW17479   2.597   3.626  18.440
 1867SOL    HW117480   2.610   3.624  18.534
 1867SOL    HW217481   2.508   3.595  18.426
 1868SOL     OW17482   3.788   2.000  12.698
 1868SOL    HW117483   3.695   1.995  12.722
 1868SOL    HW217484   3.816   2.086  12.728
 1869SOL     OW17485   3.538   3.957  15.578
 1869SOL    HW117486   3.507   3.945  15.488
 1869SOL    HW217487   3.466   4.002  15.622
 1870SOL     OW17488   1.144   4.215   4.525
 1870SOL    HW117489   1.204   4.255   4.462
 1870SOL    HW217490   1.174   4.124   4.533
 1871SOL     OW17491   0.168   2.066   2.493
 1871SOL    HW117492   0.123   1.995   2.539
 1871SOL    HW217493   0.120   2.145   2.519
 1872SOL     OW17494   1.228   0.729  12.524
 1872SOL    HW117495   1.155   0.769  12.572
 1872SOL    HW217496   1.259   0.659  12.582
 1873SOL     OW17497   1.658   4.292  17.925
 1873SOL    HW117498   1.574   4.334  17.945
 1873SOL    HW217499   1.654   4.208  17.971
 1874SOL     OW17500   1.165   1.764  18.391
 1874SOL    HW117501   1.164   1.783  18.297
 1874SOL    HW217502   1.168   1.668  18.396
 1875SOL     OW17503   4.642   1.805  13.317
 1875SOL    HW117504   4.696   1.732  13.290
 1875SOL    HW217505   4.571   1.764  13.368
 1876SOL     OW17506   1.728   0.976  19.141
 1876SOL    HW117507   1.724   0.883  19.164
 1876SOL    HW217508   1.783   1.015  19.209
 1877SOL     OW17509   0.513   0.646   4.620
 1877SOL    HW117510   0.429   0.601   4.627
 1877SOL    HW217511   0.540   0.631   4.529
 1878SOL     OW17512   1.487   3.700   4.320
 1878SOL    HW117513   1.396   3.709   4.347
 1878SOL    HW217514   1.525   3.787   4.334
 1879SOL     OW17515   2.188   0.660   3.218
 1879SOL    HW117516   2.103   0.618   3.202
 1879SOL    HW217517   2.252   0.600   3.180
 1880SOL     OW17518   4.711   2.661  13.801
 1880SOL    HW117519   4.703   2.703  13.715
 1880SOL    HW217520   0.015   2.633  13.806
 1881SOL     OW17521   0.346   1.594  11.821
 1881SOL    HW117522   0.272   1.653  11.808
 1881SOL    HW217523   0.325   1.546  11.901
 1882SOL     OW17524   4.596   1.583   5.774
 1882SOL    HW117525   4.634   1.667   5.800
 1882SOL    HW217526   4.650   1.554   5.701
 1883SOL     OW17527   2.603   1.938   3.705
 1883SOL    HW117528   2.640   2.018   3.742
 1883SOL    HW217529   2.518   1.929   3.747
 1884SOL     OW17530   4.564   0.947   5.572
 1884SOL    HW117531   4.656   0.931   5.551
 1884SOL    HW217532   4.527   0.979   5.489
 1885SOL     OW17533   4.418   3.445  19.122
 1885SOL    HW117534   4.388   3.370  19.072
 1885SOL    HW217535   4.449   3.408  19.205
 1886SOL     OW17536   1.974   3.334   3.113
 1886SOL    HW117537   1.958   3.248   3.074
 1886SOL    HW217538   2.051   3.367   3.067
 1887SOL     OW17539   0.511   3.922   4.085
 1887SOL    HW117540   0.598   3.925   4.045
 1887SOL    HW217541   0.519   3.856   4.154
 1888SOL     OW17542   2.290   0.788  17.933
 1888SOL    HW117543   2.284   0.779  18.028
 1888SOL    HW217544   2.377   0.822  17.917
 1889SOL     OW17545   0.707   0.781   4.454
 1889SOL    HW117546   0.747   0.852   4.405
 1889SOL    HW217547   0.755   0.703   4.427
 1890SOL     OW17548   3.091   2.902  15.980
 1890SOL    HW117549   3.033   2.880  15.907
 1890SOL    HW217550   3.061   2.847  16.052
 1891SOL     OW17551   4.412   2.107  14.123
 1891SOL    HW117552   4.437   2.017  14.145
 1891SOL    HW217553   4.438   2.118  14.031
 1892SOL     OW17554   4.730   4.676   7.139
 1892SOL    HW117555   0.016   4.711   7.190
 1892SOL    HW217556   4.770   4.643   7.059
 1893SOL     OW17557   2.863   4.092  15.110
 1893SOL    HW117558   2.841   4.185  15.106
 1893SOL    HW217559   2.831   4.056  15.026
 1894SOL     OW17560   2.823   1.159  19.579
 1894SOL    HW117561   2.766   1.083  19.595
 1894SOL    HW217562   2.763   1.228  19.551
 1895SOL     OW17563   4.184   1.165  18.999
 1895SOL    HW117564   4.134   1.161  18.918
 1895SOL    HW217565   4.153   1.243  19.043
 1896SOL     OW17566   2.657   3.847  20.952
 1896SOL    HW117567   2.708   3.765  20.952
 1896SOL    HW217568   2.632   3.859  20.860
 1897SOL     OW17569   4.455   3.206   4.439
 1897SOL    HW117570   4.407   3.131   4.402
 1897SOL    HW217571   4.475   3.179   4.529
 1898SOL     OW17572   0.816   4.721   1.170
 1898SOL    HW117573   0.786   4.715   1.079
 1898SOL    HW217574   0.736   4.732   1.220
 1899SOL     OW17575   0.738   4.705  14.982
 1899SOL    HW117576   0.717   0.009  14.959
 1899SOL    HW217577   0.819   4.711  15.033
 1900SOL     OW17578   1.026   0.001   4.875
 1900SOL    HW117579   0.939   0.029   4.904
 1900SOL    HW217580   1.010   4.737   4.796
 1901SOL     OW17581   0.556   3.858   0.017
 1901SOL    HW117582   0.624   3.796   0.044
 1901SOL    HW217583   0.523   3.823  21.179
 1902SOL     OW17584   3.627   1.820  19.990
 1902SOL    HW117585   3.685   1.889  20.023
 1902SOL    HW217586   3.569   1.801  20.064
 1903SOL     OW17587   4.525   0.514   7.188
 1903SOL    HW117588   4.477   0.462   7.122
 1903SOL    HW217589   4.520   0.604   7.156
 1904SOL     OW17590   0.973   4.414  15.560
 1904SOL    HW117591   0.949   4.370  15.478
 1904SOL    HW217592   1.063   4.441  15.547
 1905SOL     OW17593   2.936   3.954  19.941
 1905SOL    HW117594   2.872   3.882  19.947
 1905SOL    HW217595   2.938   3.977  19.848
 1906SOL     OW17596   0.946   4.046  19.605
 1906SOL    HW117597   1.007   4.072  19.536
 1906SOL    HW217598   1.001   4.004  19.671
 1907SOL     OW17599   4.668   2.615   5.689
 1907SOL    HW117600   4.712   2.700   5.696
 1907SOL    HW217601   4.737   2.551   5.706
 1908SOL     OW17602   1.728   2.366  16.321
 1908SOL    HW117603   1.703   2.457  16.336
 1908SOL    HW217604   1.740   2.361  16.226
 1909SOL     OW17605   0.559   2.893  20.132
 1909SOL    HW117606   0.628   2.929  20.189
 1909SOL    HW217607   0.603   2.824  20.082
 1910SOL     OW17608   3.119   2.623  17.706
 1910SOL    HW117609   3.073   2.681  17.646
 1910SOL    HW217610   3.057   2.552  17.724
 1911SOL     OW17611   4.743   4.103  13.366
 1911SOL    HW117612   0.017   4.037  13.334
 1911SOL    HW217613   0.012   4.172  13.402
 1912SOL     OW17614   2.206   4.198   1.616
 1912SOL    HW117615   2.137   4.153   1.666
 1912SOL    HW217616   2.173   4.202   1.527
 1913SOL     OW17617   0.671   4.562  15.316
 1913SOL    HW117618   0.728   4.630  15.353
 1913SOL    HW217619   0.587   4.575  15.359
 1914SOL     OW17620   4.306   4.208  20.255
 1914SOL    HW117621   4.390   4.223  20.210
 1914SOL    HW217622   4.265   4.295  20.259
 1915SOL     OW17623   3.189   2.616  16.420
 1915SOL    HW117624   3.096   2.637  16.409
 1915SOL    HW217625   3.211   2.647  16.508
 1916SOL     OW17626   1.187   3.699  19.612
 1916SOL    HW117627   1.190   3.639  19.537
 1916SOL    HW217628   1.267   3.750  19.605
 1917SOL     OW17629   2.200   3.239   3.506
 1917SOL    HW117630   2.242   3.323   3.526
 1917SOL    HW217631   2.108   3.253   3.527
 1918SOL     OW17632   2.433   2.161  20.034
 1918SOL    HW117633   2.503   2.194  19.977
 1918SOL    HW217634   2.353   2.200  19.999
 1919SOL     OW17635   0.419   0.430  16.315
 1919SOL    HW117636   0.374   0.438  16.400
 1919SOL    HW217637   0.358   0.380  16.261
 1920SOL     OW17638   4.234   4.501   7.109
 1920SOL    HW117639   4.199   4.555   7.038
 1920SOL    HW217640   4.329   4.503   7.097
 1921SOL     OW17641   1.865   3.510   1.798
 1921SOL    HW117642   1.849   3.522   1.704
 1921SOL    HW217643   1.915   3.588   1.824
 1922SOL     OW17644   2.289   3.136   7.022
 1922SOL    HW117645   2.275   3.050   7.063
 1922SOL    HW217646   2.362   3.174   7.070
 1923SOL     OW17647   2.872   4.491  18.099
 1923SOL    HW117648   2.881   4.399  18.124
 1923SOL    HW217649   2.942   4.507  18.036
 1924SOL     OW17650   3.431   4.137  15.938
 1924SOL    HW117651   3.344   4.127  15.899
 1924SOL    HW217652   3.490   4.150  15.864
 1925SOL     OW17653   4.029   1.126   5.980
 1925SOL    HW117654   4.090   1.052   5.975
 1925SOL    HW217655   4.007   1.144   5.888
 1926SOL     OW17656   2.481   3.824  12.864
 1926SOL    HW117657   2.480   3.905  12.813
 1926SOL    HW217658   2.569   3.788  12.850
 1927SOL     OW17659   1.705   2.109   1.767
 1927SOL    HW117660   1.721   2.192   1.722
 1927SOL    HW217661   1.773   2.105   1.835
 1928SOL     OW17662   2.103   4.635  15.125
 1928SOL    HW117663   2.065   4.716  15.092
 1928SOL    HW217664   2.187   4.628  15.081
 1929SOL     OW17665   0.002   4.671   0.460
 1929SOL    HW117666   4.771   4.736   0.392
 1929SOL    HW217667   4.743   4.704   0.537
 1930SOL     OW17668   3.479   4.772  17.374
 1930SOL    HW117669   3.527   4.718  17.436
 1930SOL    HW217670   3.420   0.038  17.428
 1931SOL     OW17671   3.466   0.672  16.095
 1931SOL    HW117672   3.455   0.731  16.169
 1931SOL    HW217673   3.504   0.593  16.134
 1932SOL     OW17674   2.981   4.308   2.141
 1932SOL    HW117675   2.972   4.221   2.101
 1932SOL    HW217676   3.047   4.352   2.087
 1933SOL     OW17677   2.439   2.930  15.937
 1933SOL    HW117678   2.501   2.922  16.010
 1933SOL    HW217679   2.447   2.848  15.890
 1934SOL     OW17680   4.502   0.140   0.514
 1934SOL    HW117681   4.560   0.214   0.532
 1934SOL    HW217682   4.532   0.071   0.573
 1935SOL     OW17683   4.064   1.711   1.030
 1935SOL    HW117684   4.058   1.804   1.009
 1935SOL    HW217685   4.012   1.667   0.963
 1936SOL     OW17686   4.648   2.049   2.725
 1936SOL    HW117687   4.632   2.042   2.819
 1936SOL    HW217688   4.708   1.978   2.706
 1937SOL     OW17689   3.230   2.391  20.707
 1937SOL    HW117690   3.189   2.476  20.689
 1937SOL    HW217691   3.269   2.401  20.794
 1938SOL     OW17692   0.407   1.653  15.508
 1938SOL    HW117693   0.347   1.601  15.562
 1938SOL    HW217694   0.458   1.588  15.460
 1939SOL     OW17695   4.420   2.655   5.571
 1939SOL    HW117696   4.412   2.690   5.482
 1939SOL    HW217697   4.514   2.645   5.584
 1940SOL     OW17698   4.268   3.401  18.824
 1940SOL    HW117699   4.208   3.427  18.894
 1940SOL    HW217700   4.316   3.481  18.802
 1941SOL     OW17701   3.839   4.427   0.372
 1941SOL    HW117702   3.893   4.359   0.332
 1941SOL    HW217703   3.829   4.493   0.303
 1942SOL     OW17704   4.697   1.159   1.511
 1942SOL    HW117705   4.640   1.182   1.438
 1942SOL    HW217706   4.784   1.151   1.472
 1943SOL     OW17707   0.274   3.688   1.450
 1943SOL    HW117708   0.260   3.726   1.536
 1943SOL    HW217709   0.369   3.675   1.445
 1944SOL     OW17710   3.248   3.445   2.958
 1944SOL    HW117711   3.251   3.382   3.030
 1944SOL    HW217712   3.338   3.449   2.925
 1945SOL     OW17713   3.202   4.519   4.061
 1945SOL    HW117714   3.202   4.589   3.996
 1945SOL    HW217715   3.115   4.523   4.100
 1946SOL     OW17716   3.193   0.298   3.388
 1946SOL    HW117717   3.229   0.327   3.472
 1946SOL    HW217718   3.133   0.368   3.362
 1947SOL     OW17719   3.194   2.519   2.597
 1947SOL    HW117720   3.212   2.601   2.551
 1947SOL    HW217721   3.152   2.463   2.531
 1948SOL     OW17722   1.769   4.390   8.630
 1948SOL    HW117723   1.763   4.352   8.542
 1948SOL    HW217724   1.804   4.319   8.684
 1949SOL     OW17725   1.363   4.405   0.231
 1949SOL    HW117726   1.310   4.482   0.211
 1949SOL    HW217727   1.350   4.391   0.325
 1950SOL     OW17728   2.713   3.514  14.878
 1950SOL    HW117729   2.789   3.566  14.853
 1950SOL    HW217730   2.689   3.468  14.797
 1951SOL     OW17731   3.792   3.524  15.120
 1951SOL    HW117732   3.861   3.577  15.159
 1951SOL    HW217733   3.723   3.586  15.097
 1952SOL     OW17734   4.321   3.861   2.884
 1952SOL    HW117735   4.393   3.816   2.838
 1952SOL    HW217736   4.362   3.896   2.963
 1953SOL     OW17737   0.213   2.171  16.573
 1953SOL    HW117738   0.301   2.209  16.587
 1953SOL    HW217739   0.225   2.078  16.589
 1954SOL     OW17740   0.079   4.729  19.076
 1954SOL    HW117741   0.030   4.731  18.994
 1954SOL    HW217742   0.022   4.681  19.136
 1955SOL     OW17743   3.749   3.653   0.290
 1955SOL    HW117744   3.748   3.660   0.195
 1955SOL    HW217745   3.734   3.561   0.308
 1956SOL     OW17746   0.201   0.756   6.198
 1956SOL    HW117747   0.166   0.791   6.280
 1956SOL    HW217748   0.124   0.743   6.142
 1957SOL     OW17749   2.182   4.587  17.134
 1957SOL    HW117750   2.258   4.639  17.162
 1957SOL    HW217751   2.124   4.587  17.210
 1958SOL     OW17752   3.435   4.176   1.146
 1958SOL    HW117753   3.371   4.120   1.190
 1958SOL    HW217754   3.406   4.265   1.166
 1959SOL     OW17755   3.616   1.044   4.079
 1959SOL    HW117756   3.575   1.130   4.070
 1959SOL    HW217757   3.709   1.060   4.065
 1960SOL     OW17758   3.367   4.272   2.225
 1960SOL    HW117759   3.415   4.209   2.171
 1960SOL    HW217760   3.433   4.307   2.285
 1961SOL     OW17761   3.506   4.598  14.718
 1961SOL    HW117762   3.510   4.669  14.782
 1961SOL    HW217763   3.499   4.642  14.633
 1962SOL     OW17764   4.645   1.592   6.150
 1962SOL    HW117765   4.598   1.580   6.233
 1962SOL    HW217766   4.589   1.650   6.099
 1963SOL     OW17767   3.947   0.372   2.878
 1963SOL    HW117768   3.949   0.279   2.902
 1963SOL    HW217769   3.855   0.391   2.860
 1964SOL     OW17770   2.364   3.307  18.192
 1964SOL    HW117771   2.408   3.335  18.273
 1964SOL    HW217772   2.423   3.241  18.155
 1965SOL     OW17773   0.533   1.484   0.428
 1965SOL    HW117774   0.538   1.551   0.360
 1965SOL    HW217775   0.590   1.516   0.497
 1966SOL     OW17776   4.708   4.673  14.914
 1966SOL    HW117777   0.007   4.710  14.895
 1966SOL    HW217778   4.725   4.593  14.963
 1967SOL     OW17779   3.744   2.461   1.876
 1967SOL    HW117780   3.665   2.508   1.901
 1967SOL    HW217781   3.776   2.506   1.798
 1968SOL     OW17782   1.136   1.925  16.568
 1968SOL    HW117783   1.075   1.893  16.635
 1968SOL    HW217784   1.166   2.010  16.602
 1969SOL     OW17785   2.332   3.688   0.315
 1969SOL    HW117786   2.309   3.706   0.405
 1969SOL    HW217787   2.248   3.673   0.271
 1970SOL     OW17788   4.150   3.088  19.035
 1970SOL    HW117789   4.211   3.100  18.961
 1970SOL    HW217790   4.161   2.997  19.061
 1971SOL     OW17791   1.067   2.663  19.679
 1971SOL    HW117792   1.045   2.670  19.772
 1971SOL    HW217793   1.054   2.571  19.657
 1972SOL     OW17794   0.022   1.727   4.149
 1972SOL    HW117795   0.014   1.636   4.180
 1972SOL    HW217796   0.041   1.777   4.228
 1973SOL     OW17797   1.912   0.039  15.998
 1973SOL    HW117798   1.998   0.045  16.039
 1973SOL    HW217799   1.896   4.732  15.989
 1974SOL     OW17800   4.438   2.796  15.528
 1974SOL    HW117801   4.480   2.745  15.459
 1974SOL    HW217802   4.378   2.735  15.571
 1975SOL     OW17803   2.409   3.751   5.842
 1975SOL    HW117804   2.358   3.692   5.896
 1975SOL    HW217805   2.475   3.787   5.901
 1976SOL     OW17806   4.701   1.544  18.662
 1976SOL    HW117807   4.639   1.493  18.715
 1976SOL    HW217808   4.647   1.596  18.604
 1977SOL     OW17809   3.695   0.592  18.704
 1977SOL    HW117810   3.652   0.520  18.657
 1977SOL    HW217811   3.645   0.670  18.680
 1978SOL     OW17812   4.241   1.576   4.328
 1978SOL    HW117813   4.333   1.600   4.316
 1978SOL    HW217814   4.194   1.659   4.329
 1979SOL     OW17815   2.329   1.409   0.298
 1979SOL    HW117816   2.297   1.432   0.385
 1979SOL    HW217817   2.276   1.335   0.271
 1980SOL     OW17818   4.052   1.643  16.236
 1980SOL    HW117819   4.090   1.675  16.154
 1980SOL    HW217820   3.960   1.667  16.231
 1981SOL     OW17821   4.570   0.077  19.984
 1981SOL    HW117822   4.531   0.145  19.929
 1981SOL    HW217823   4.496   0.027  20.017
 1982SOL     OW17824   2.117   2.953   0.511
 1982SOL    HW117825   2.114   2.859   0.496
 1982SOL    HW217826   2.095   2.992   0.426
 1983SOL     OW17827   3.793   3.018   2.302
 1983SOL    HW117828   3.739   3.025   2.381
 1983SOL    HW217829   3.841   2.936   2.312
 1984SOL     OW17830   0.137   1.340  19.328
 1984SOL    HW117831   0.165   1.363  19.240
 1984SOL    HW217832   0.176   1.408  19.384
 1985SOL     OW17833   1.157   3.320   2.652
 1985SOL    HW117834   1.218   3.282   2.589
 1985SOL    HW217835   1.183   3.282   2.736
 1986SOL     OW17836   0.220   3.265  18.059
 1986SOL    HW117837   0.246   3.342  18.110
 1986SOL    HW217838   0.302   3.233  18.021
 1987SOL     OW17839   3.658   2.702  13.275
 1987SOL    HW117840   3.727   2.731  13.216
 1987SOL    HW217841   3.580   2.748  13.244
 1988SOL     OW17842   2.778   2.041   6.168
 1988SOL    HW117843   2.722   2.082   6.102
 1988SOL    HW217844   2.867   2.054   6.133
 1989SOL     OW17845   3.049   1.362  14.523
 1989SOL    HW117846   3.109   1.394  14.455
 1989SOL    HW217847   3.107   1.327  14.591
 1990SOL     OW17848   1.408   2.154  19.316
 1990SOL    HW117849   1.368   2.070  19.296
 1990SOL    HW217850   1.396   2.206  19.236
 1991SOL     OW17851   2.917   4.517  17.501
 1991SOL    HW117852   2.913   4.562  17.586
 1991SOL    HW217853   2.846   4.556  17.450
 1992SOL     OW17854   0.661   3.333   4.319
 1992SOL    HW117855   0.570   3.317   4.294
 1992SOL    HW217856   0.687   3.254   4.367
 1993SOL     OW17857   1.625   4.785   4.727
 1993SOL    HW117858   1.698   4.781   4.789
 1993SOL    HW217859   1.632   4.704   4.676
 1994SOL     OW17860   0.676   4.728   6.450
 1994SOL    HW117861   0.657   4.677   6.372
 1994SOL    HW217862   0.622   4.689   6.518
 1995SOL     OW17863   4.784   0.750   2.387
 1995SOL    HW117864   4.701   0.791   2.412
 1995SOL    HW217865   0.064   0.798   2.436
 1996SOL     OW17866   4.695   0.194  12.585
 1996SOL    HW117867   4.638   0.120  12.564
 1996SOL    HW217868   4.783   0.162  12.568
 1997SOL     OW17869   2.099   2.959  20.038
 1997SOL    HW117870   2.097   3.043  20.085
 1997SOL    HW217871   2.040   2.903  20.088
 1998SOL     OW17872   0.469   0.942   1.252
 1998SOL    HW117873   0.406   0.874   1.274
 1998SOL    HW217874   0.424   0.996   1.187
 1999SOL     OW17875   1.786   0.580  15.838
 1999SOL    HW117876   1.863   0.637  15.842
 1999SOL    HW217877   1.742   0.594  15.922
 2000SOL     OW17878   3.404   2.677  17.829
 2000SOL    HW117879   3.336   2.743  17.819
 2000SOL    HW217880   3.447   2.699  17.912
 2001SOL     OW17881   2.498   2.654  19.882
 2001SOL    HW117882   2.579   2.681  19.925
 2001SOL    HW217883   2.525   2.585  19.822
 2002SOL     OW17884   1.774   1.752   7.227
 2002SOL    HW117885   1.703   1.734   7.290
 2002SOL    HW217886   1.846   1.782   7.282
 2003SOL     OW17887   3.083   0.372  17.688
 2003SOL    HW117888   3.056   0.411  17.772
 2003SOL    HW217889   3.013   0.310  17.667
 2004SOL     OW17890   4.550   0.799   3.484
 2004SOL    HW117891   4.537   0.893   3.467
 2004SOL    HW217892   4.523   0.756   3.403
 2005SOL     OW17893   1.783   1.905   4.736
 2005SOL    HW117894   1.712   1.938   4.681
 2005SOL    HW217895   1.862   1.942   4.698
 2006SOL     OW17896   3.312   3.878   4.001
 2006SOL    HW117897   3.255   3.864   4.077
 2006SOL    HW217898   3.251   3.894   3.929
 2007SOL     OW17899   4.170   2.878  17.779
 2007SOL    HW117900   4.230   2.805  17.792
 2007SOL    HW217901   4.178   2.930  17.859
 2008SOL     OW17902   3.289   1.656   3.844
 2008SOL    HW117903   3.362   1.623   3.898
 2008SOL    HW217904   3.224   1.586   3.847
 2009SOL     OW17905   0.141   4.557  14.580
 2009SOL    HW117906   0.155   4.470  14.618
 2009SOL    HW217907   0.052   4.554  14.544
 2010SOL     OW17908   3.489   1.123  20.794
 2010SOL    HW117909   3.473   1.156  20.706
 2010SOL    HW217910   3.405   1.132  20.839
 2011SOL     OW17911   1.831   4.573   2.296
 2011SOL    HW117912   1.772   4.509   2.337
 2011SOL    HW217913   1.870   4.620   2.370
 2012SOL     OW17914   3.618   3.800   0.489
 2012SOL    HW117915   3.639   3.756   0.407
 2012SOL    HW217916   3.651   3.889   0.478
 2013SOL     OW17917   3.357   3.027  15.770
 2013SOL    HW117918   3.328   2.984  15.851
 2013SOL    HW217919   3.298   3.102  15.761
 2014SOL     OW17920   4.443   3.855  19.797
 2014SOL    HW117921   4.420   3.826  19.709
 2014SOL    HW217922   4.444   3.950  19.791
 2015SOL     OW17923   2.127   3.828   3.533
 2015SOL    HW117924   2.114   3.814   3.626
 2015SOL    HW217925   2.134   3.740   3.496
 2016SOL     OW17926   4.588   4.527  15.960
 2016SOL    HW117927   4.643   4.454  15.988
 2016SOL    HW217928   4.632   4.604  15.996
 2017SOL     OW17929   3.547   4.067   2.126
 2017SOL    HW117930   3.556   4.050   2.220
 2017SOL    HW217931   3.631   4.040   2.088
 2018SOL     OW17932   2.430   3.416   4.250
 2018SOL    HW117933   2.466   3.336   4.212
 2018SOL    HW217934   2.507   3.465   4.279
 2019SOL     OW17935   4.509   2.444  13.224
 2019SOL    HW117936   4.510   2.433  13.319
 2019SOL    HW217937   4.455   2.522  13.209
 2020SOL     OW17938   4.404   2.574  12.565
 2020SOL    HW117939   4.325   2.520  12.559
 2020SOL    HW217940   4.375   2.662  12.544
 2021SOL     OW17941   3.584   4.003  19.267
 2021SOL    HW117942   3.571   4.089  19.307
 2021SOL    HW217943   3.611   3.946  19.339
 2022SOL     OW17944   4.549   2.455   4.545
 2022SOL    HW117945   4.518   2.498   4.465
 2022SOL    HW217946   4.606   2.385   4.514
 2023SOL     OW17947   1.586   0.323   1.244
 2023SOL    HW117948   1.600   0.387   1.315
 2023SOL    HW217949   1.491   0.320   1.233
 2024SOL     OW17950   1.417   2.775  17.610
 2024SOL    HW117951   1.363   2.842  17.651
 2024SOL    HW217952   1.373   2.757  17.526
 2025SOL     OW17953   3.618   1.225   6.424
 2025SOL    HW117954   3.656   1.197   6.507
 2025SOL    HW217955   3.585   1.144   6.385
 2026SOL     OW17956   3.315   4.358   2.581
 2026SOL    HW117957   3.289   4.449   2.598
 2026SOL    HW217958   3.284   4.310   2.658
 2027SOL     OW17959   1.868   4.480  20.594
 2027SOL    HW117960   1.821   4.517  20.520
 2027SOL    HW217961   1.844   4.534  20.669
 2028SOL     OW17962   1.198   1.345   0.280
 2028SOL    HW117963   1.117   1.372   0.236
 2028SOL    HW217964   1.268   1.390   0.232
 2029SOL     OW17965   0.943   1.622   1.306
 2029SOL    HW117966   0.853   1.591   1.317
 2029SOL    HW217967   0.933   1.711   1.271
 2030SOL     OW17968   0.686   0.738   5.796
 2030SOL    HW117969   0.674   0.717   5.889
 2030SOL    HW217970   0.781   0.732   5.783
 2031SOL     OW17971   1.145   1.179  20.010
 2031SOL    HW117972   1.138   1.084  20.004
 2031SOL    HW217973   1.199   1.204  19.935
 2032SOL     OW17974   3.701   1.404   8.517
 2032SOL    HW117975   3.770   1.380   8.455
 2032SOL    HW217976   3.632   1.441   8.462
 2033SOL     OW17977   4.243   3.458   1.941
 2033SOL    HW117978   4.154   3.487   1.919
 2033SOL    HW217979   4.236   3.364   1.952
 2034SOL     OW17980   3.252   1.483  19.995
 2034SOL    HW117981   3.233   1.407  20.049
 2034SOL    HW217982   3.244   1.558  20.054
 2035SOL     OW17983   1.723   2.791   2.503
 2035SOL    HW117984   1.790   2.860   2.506
 2035SOL    HW217985   1.747   2.737   2.428
 2036SOL     OW17986   2.641   3.256  16.118
 2036SOL    HW117987   2.674   3.345  16.109
 2036SOL    HW217988   2.553   3.267  16.155
 2037SOL     OW17989   0.192   0.485  20.731
 2037SOL    HW117990   0.182   0.418  20.663
 2037SOL    HW217991   0.122   0.467  20.794
 2038SOL     OW17992   0.004   3.814   6.991
 2038SOL    HW117993   0.016   3.832   7.084
 2038SOL    HW217994   0.087   3.841   6.951
 2039SOL     OW17995   0.600   2.522  15.212
 2039SOL    HW117996   0.584   2.431  15.186
 2039SOL    HW217997   0.695   2.531  15.208
 2040SOL     OW17998   0.729   2.064  20.226
 2040SOL    HW117999   0.634   2.066  20.238
 2040SOL    HW218000   0.755   1.975  20.251
 2041SOL     OW18001   1.071   1.932  20.651
 2041SOL    HW118002   1.118   1.856  20.617
 2041SOL    HW218003   1.140   1.993  20.676
 2042SOL     OW18004   0.232   4.374  18.113
 2042SOL    HW118005   0.179   4.337  18.183
 2042SOL    HW218006   0.212   4.467  18.113
 2043SOL     OW18007   2.456   1.681   5.001
 2043SOL    HW118008   2.472   1.615   5.069
 2043SOL    HW218009   2.494   1.642   4.921
 2044SOL     OW18010   0.660   1.204   0.497
 2044SOL    HW118011   0.697   1.292   0.493
 2044SOL    HW218012   0.577   1.211   0.450
 2045SOL     OW18013   1.959   1.032  16.656
 2045SOL    HW118014   1.971   0.980  16.735
 2045SOL    HW218015   2.037   1.014  16.603
 2046SOL     OW18016   0.992   4.083   6.141
 2046SOL    HW118017   1.022   4.019   6.077
 2046SOL    HW218018   0.953   4.031   6.211
 2047SOL     OW18019   4.391   4.743  15.765
 2047SOL    HW118020   4.366   4.657  15.798
 2047SOL    HW218021   4.427   0.002  15.840
 2048SOL     OW18022   2.905   4.023  18.613
 2048SOL    HW118023   2.848   4.099  18.627
 2048SOL    HW218024   2.908   3.980  18.698
 2049SOL     OW18025   0.122   4.783   4.166
 2049SOL    HW118026   0.138   4.712   4.103
 2049SOL    HW218027   0.175   0.069   4.134
 2050SOL     OW18028   0.957   4.456  19.775
 2050SOL    HW118029   1.022   4.398  19.735
 2050SOL    HW218030   1.007   4.528  19.812
 2051SOL     OW18031   4.478   3.994   3.082
 2051SOL    HW118032   4.532   3.929   3.128
 2051SOL    HW218033   4.528   4.076   3.091
 2052SOL     OW18034   4.232   0.887   4.178
 2052SOL    HW118035   4.201   0.832   4.106
 2052SOL    HW218036   4.222   0.977   4.147
 2053SOL     OW18037   2.323   0.453   6.282
 2053SOL    HW118038   2.279   0.443   6.197
 2053SOL    HW218039   2.321   0.547   6.298
 2054SOL     OW18040   0.227   2.414   0.550
 2054SOL    HW118041   0.247   2.483   0.487
 2054SOL    HW218042   0.305   2.409   0.605
 2055SOL     OW18043   4.578   0.622  15.847
 2055SOL    HW118044   4.529   0.541  15.863
 2055SOL    HW218045   4.639   0.599  15.777
 2056SOL     OW18046   3.683   0.561  13.822
 2056SOL    HW118047   3.689   0.532  13.732
 2056SOL    HW218048   3.773   0.582  13.847
 2057SOL     OW18049   0.096   1.672   5.546
 2057SOL    HW118050   0.083   1.679   5.451
 2057SOL    HW218051   0.190   1.655   5.556
 2058SOL     OW18052   4.774   1.113  18.522
 2058SOL    HW118053   4.706   1.053  18.554
 2058SOL    HW218054   4.758   1.195  18.569
 2059SOL     OW18055   4.598   0.296   6.636
 2059SOL    HW118056   4.598   0.352   6.558
 2059SOL    HW218057   4.545   0.220   6.611
 2060SOL     OW18058   0.309   0.773   5.003
 2060SOL    HW118059   0.367   0.845   4.977
 2060SOL    HW218060   0.232   0.783   4.948
 2061SOL     OW18061   1.643   4.303  13.980
 2061SOL    HW118062   1.631   4.387  13.936
 2061SOL    HW218063   1.660   4.241  13.908
 2062SOL     OW18064   0.281   1.177   0.715
 2062SOL    HW118065   0.220   1.151   0.646
 2062SOL    HW218066   0.248   1.135   0.794
 2063SOL     OW18067   1.475   1.664  16.778
 2063SOL    HW118068   1.433   1.699  16.699
 2063SOL    HW218069   1.529   1.592  16.746
 2064SOL     OW18070   4.040   3.552   4.203
 2064SOL    HW118071   4.119   3.500   4.221
 2064SOL    HW218072   4.042   3.568   4.109
 2065SOL     OW18073   0.582   1.555  15.029
 2065SOL    HW118074   0.493   1.581  15.004
 2065SOL    HW218075   0.577   1.539  15.123
 2066SOL     OW18076   2.220   1.862   0.288
 2066SOL    HW118077   2.302   1.911   0.285
 2066SOL    HW218078   2.225   1.801   0.215
 2067SOL     OW18079   1.453   0.195   7.286
 2067SOL    HW118080   1.449   0.117   7.230
 2067SOL    HW218081   1.403   0.261   7.238
 2068SOL     OW18082   4.152   0.253  18.068
 2068SOL    HW118083   4.246   0.260  18.085
 2068SOL    HW218084   4.143   0.179  18.008
 2069SOL     OW18085   2.031   3.538  19.485
 2069SOL    HW118086   2.093   3.568  19.419
 2069SOL    HW218087   2.065   3.572  19.568
 2070SOL     OW18088   2.039   2.675   6.494
 2070SOL    HW118089   1.989   2.747   6.532
 2070SOL    HW218090   2.084   2.714   6.418
 2071SOL     OW18091   1.476   1.173   0.002
 2071SOL    HW118092   1.567   1.145   0.010
 2071SOL    HW218093   1.444   1.128  21.168
 2072SOL     OW18094   3.461   0.279  17.557
 2072SOL    HW118095   3.408   0.206  17.525
 2072SOL    HW218096   3.532   0.237  17.606
 2073SOL     OW18097   0.866   0.768   3.213
 2073SOL    HW118098   0.896   0.839   3.157
 2073SOL    HW218099   0.870   0.690   3.157
 2074SOL     OW18100   3.005   4.118  19.227
 2074SOL    HW118101   3.022   4.113  19.322
 2074SOL    HW218102   3.001   4.026  19.199
 2075SOL     OW18103   2.886   2.865  18.567
 2075SOL    HW118104   2.831   2.814  18.626
 2075SOL    HW218105   2.971   2.821  18.568
 2076SOL     OW18106   0.479   1.168   5.050
 2076SOL    HW118107   0.412   1.127   5.105
 2076SOL    HW218108   0.509   1.244   5.100
 2077SOL     OW18109   0.721   4.739  12.087
 2077SOL    HW118110   0.735   4.655  12.042
 2077SOL    HW218111   0.806   4.782  12.085
 2078SOL     OW18112   2.489   2.724   5.025
 2078SOL    HW118113   2.424   2.755   4.962
 2078SOL    HW218114   2.444   2.656   5.075
 2079SOL     OW18115   1.567   0.357  17.411
 2079SOL    HW118116   1.627   0.415  17.364
 2079SOL    HW218117   1.590   0.368  17.503
 2080SOL     OW18118   3.379   3.230   6.387
 2080SOL    HW118119   3.326   3.223   6.466
 2080SOL    HW218120   3.359   3.152   6.337
 2081SOL     OW18121   1.313   1.254   8.191
 2081SOL    HW118122   1.319   1.158   8.197
 2081SOL    HW218123   1.337   1.284   8.279
 2082SOL     OW18124   1.078   4.056  17.196
 2082SOL    HW118125   1.051   4.093  17.112
 2082SOL    HW218126   0.996   4.046  17.245
 2083SOL     OW18127   3.757   0.960  16.754
 2083SOL    HW118128   3.685   0.906  16.722
 2083SOL    HW218129   3.782   1.015  16.680
 2084SOL     OW18130   4.689   1.497  18.295
 2084SOL    HW118131   4.612   1.510  18.350
 2084SOL    HW218132   4.658   1.441  18.223
 2085SOL     OW18133   0.440   2.164  18.519
 2085SOL    HW118134   0.371   2.133  18.578
 2085SOL    HW218135   0.511   2.100  18.528
 2086SOL     OW18136   1.251   1.480   1.326
 2086SOL    HW118137   1.178   1.523   1.283
 2086SOL    HW218138   1.214   1.443   1.406
 2087SOL     OW18139   2.679   3.614   3.274
 2087SOL    HW118140   2.728   3.683   3.228
 2087SOL    HW218141   2.745   3.548   3.296
 2088SOL     OW18142   1.594   1.921   4.507
 2088SOL    HW118143   1.647   1.859   4.457
 2088SOL    HW218144   1.516   1.935   4.454
 2089SOL     OW18145   3.919   1.253  15.171
 2089SOL    HW118146   3.896   1.184  15.233
 2089SOL    HW218147   3.909   1.334  15.222
 2090SOL     OW18148   1.553   3.470   1.312
 2090SOL    HW118149   1.613   3.472   1.238
 2090SOL    HW218150   1.466   3.470   1.272
 2091SOL     OW18151   3.386   3.798  13.260
 2091SOL    HW118152   3.294   3.815  13.242
 2091SOL    HW218153   3.404   3.843  13.342
 2092SOL     OW18154   1.452   0.904   2.686
 2092SOL    HW118155   1.509   0.851   2.742
 2092SOL    HW218156   1.409   0.965   2.746
 2093SOL     OW18157   1.584   2.066  20.767
 2093SOL    HW118158   1.516   2.009  20.802
 2093SOL    HW218159   1.647   2.006  20.726
 2094SOL     OW18160   3.628   2.140   6.219
 2094SOL    HW118161   3.688   2.214   6.215
 2094SOL    HW218162   3.599   2.127   6.129
 2095SOL     OW18163   1.811   4.185   5.773
 2095SOL    HW118164   1.797   4.092   5.792
 2095SOL    HW218165   1.890   4.208   5.823
 2096SOL     OW18166   4.256   0.940  15.824
 2096SOL    HW118167   4.196   1.011  15.802
 2096SOL    HW218168   4.234   0.916  15.914
 2097SOL     OW18169   1.445   1.040   0.448
 2097SOL    HW118170   1.465   1.118   0.398
 2097SOL    HW218171   1.529   0.997   0.462
 2098SOL     OW18172   0.569   0.182   2.682
 2098SOL    HW118173   0.500   0.157   2.742
 2098SOL    HW218174   0.614   0.100   2.661
 2099SOL     OW18175   3.745   1.684  20.455
 2099SOL    HW118176   3.719   1.625  20.525
 2099SOL    HW218177   3.816   1.639  20.410
 2100SOL     OW18178   2.005   0.105  19.742
 2100SOL    HW118179   1.969   0.191  19.722
 2100SOL    HW218180   2.085   0.099  19.689
 2101SOL     OW18181   4.463   3.940  17.542
 2101SOL    HW118182   4.532   4.004  17.527
 2101SOL    HW218183   4.510   3.860  17.566
 2102SOL     OW18184   1.659   4.495  19.021
 2102SOL    HW118185   1.604   4.417  19.018
 2102SOL    HW218186   1.646   4.530  19.109
 2103SOL     OW18187   2.404   2.042  19.152
 2103SOL    HW118188   2.416   1.949  19.137
 2103SOL    HW218189   2.464   2.063  19.224
 2104SOL     OW18190   4.635   1.680  20.807
 2104SOL    HW118191   4.666   1.681  20.717
 2104SOL    HW218192   4.629   1.773  20.831
 2105SOL     OW18193   1.131   3.100  20.891
 2105SOL    HW118194   1.138   3.150  20.809
 2105SOL    HW218195   1.180   3.019  20.874
 2106SOL     OW18196   0.055   1.581  14.950
 2106SOL    HW118197   4.768   1.540  14.994
 2106SOL    HW218198   0.019   1.614  14.868
 2107SOL     OW18199   2.355   4.769   0.318
 2107SOL    HW118200   2.351   0.009   0.410
 2107SOL    HW218201   2.437   4.720   0.311
 2108SOL     OW18202   4.338   4.336  18.391
 2108SOL    HW118203   4.304   4.298  18.472
 2108SOL    HW218204   4.286   4.295  18.322
 2109SOL     OW18205   2.717   1.151   0.886
 2109SOL    HW118206   2.666   1.100   0.948
 2109SOL    HW218207   2.715   1.240   0.921
 2110SOL     OW18208   4.500   4.453  15.132
 2110SOL    HW118209   4.553   4.488  15.204
 2110SOL    HW218210   4.424   4.510  15.128
 2111SOL     OW18211   4.645   0.780  16.853
 2111SOL    HW118212   4.716   0.734  16.808
 2111SOL    HW218213   4.590   0.711  16.889
 2112SOL     OW18214   4.493   0.869  17.744
 2112SOL    HW118215   4.478   0.848  17.837
 2112SOL    HW218216   4.578   0.911  17.742
 2113SOL     OW18217   4.490   1.215  20.636
 2113SOL    HW118218   4.535   1.300  20.637
 2113SOL    HW218219   4.431   1.219  20.712
 2114SOL     OW18220   1.948   4.217   5.005
 2114SOL    HW118221   1.984   4.252   4.924
 2114SOL    HW218222   2.000   4.257   5.074
 2115SOL     OW18223   3.859   2.148  16.358
 2115SOL    HW118224   3.831   2.190  16.276
 2115SOL    HW218225   3.793   2.175  16.422
 2116SOL     OW18226   1.380   1.488   0.133
 2116SOL    HW118227   1.327   1.554   0.086
 2116SOL    HW218228   1.466   1.493   0.091
 2117SOL     OW18229   1.556   0.624  17.875
 2117SOL    HW118230   1.520   0.539  17.849
 2117SOL    HW218231   1.545   0.627  17.970
 2118SOL     OW18232   2.887   1.823  17.733
 2118SOL    HW118233   2.919   1.739  17.700
 2118SOL    HW218234   2.963   1.880  17.733
 2119SOL     OW18235   4.029   0.736  12.097
 2119SOL    HW118236   3.964   0.802  12.071
 2119SOL    HW218237   4.071   0.710  12.016
 2120SOL     OW18238   3.020   1.121  20.757
 2120SOL    HW118239   3.058   1.096  20.841
 2120SOL    HW218240   3.086   1.177  20.716
 2121SOL     OW18241   0.188   4.129  16.069
 2121SOL    HW118242   0.148   4.099  16.151
 2121SOL    HW218243   0.265   4.075  16.058
 2122SOL     OW18244   2.047   1.651  11.667
 2122SOL    HW118245   1.999   1.569  11.675
 2122SOL    HW218246   2.063   1.661  11.573
 2123SOL     OW18247   1.113   3.300   0.164
 2123SOL    HW118248   1.196   3.283   0.209
 2123SOL    HW218249   1.129   3.379   0.112
 2124SOL     OW18250   4.382   2.099  19.176
 2124SOL    HW118251   4.469   2.061  19.164
 2124SOL    HW218252   4.322   2.027  19.158
 2125SOL     OW18253   3.760   2.793   0.054
 2125SOL    HW118254   3.728   2.703   0.060
 2125SOL    HW218255   3.831   2.798   0.118
 2126SOL     OW18256   0.930   2.905  19.605
 2126SOL    HW118257   0.856   2.874  19.552
 2126SOL    HW218258   0.981   2.826  19.622
 2127SOL     OW18259   0.192   2.474   0.886
 2127SOL    HW118260   0.217   2.408   0.822
 2127SOL    HW218261   0.133   2.429   0.947
 2128SOL     OW18262   3.005   2.864  19.334
 2128SOL    HW118263   3.063   2.810  19.279
 2128SOL    HW218264   2.966   2.926  19.273
 2129SOL     OW18265   1.729   3.652  15.037
 2129SOL    HW118266   1.696   3.562  15.040
 2129SOL    HW218267   1.663   3.700  14.986
 2130SOL     OW18268   4.547   2.761  20.260
 2130SOL    HW118269   4.532   2.791  20.350
 2130SOL    HW218270   4.498   2.822  20.206
 2131SOL     OW18271   0.846   1.594  11.817
 2131SOL    HW118272   0.932   1.554  11.817
 2131SOL    HW218273   0.862   1.688  11.816
 2132SOL     OW18274   2.260   3.036  15.748
 2132SOL    HW118275   2.331   3.035  15.813
 2132SOL    HW218276   2.207   2.960  15.769
 2133SOL     OW18277   3.735   4.645   2.382
 2133SOL    HW118278   3.801   4.577   2.370
 2133SOL    HW218279   3.734   4.661   2.476
 2134SOL     OW18280   3.252   4.467  16.069
 2134SOL    HW118281   3.314   4.462  15.997
 2134SOL    HW218282   3.168   4.489  16.028
 2135SOL     OW18283   2.050   4.551   2.519
 2135SOL    HW118284   1.988   4.605   2.569
 2135SOL    HW218285   2.112   4.614   2.483
 2136SOL     OW18286   4.614   3.848  14.309
 2136SOL    HW118287   4.531   3.891  14.330
 2136SOL    HW218288   4.671   3.920  14.281
 2137SOL     OW18289   3.014   1.149  16.118
 2137SOL    HW118290   2.991   1.091  16.191
 2137SOL    HW218291   2.988   1.099  16.040
 2138SOL     OW18292   0.279   4.311   4.809
 2138SOL    HW118293   0.235   4.318   4.894
 2138SOL    HW218294   0.324   4.226   4.813
 2139SOL     OW18295   0.808   3.149   2.143
 2139SOL    HW118296   0.876   3.191   2.090
 2139SOL    HW218297   0.734   3.137   2.082
 2140SOL     OW18298   1.979   2.559  20.014
 2140SOL    HW118299   1.948   2.641  19.974
 2140SOL    HW218300   2.071   2.553  19.987
 2141SOL     OW18301   0.025   4.167   4.442
 2141SOL    HW118302   4.762   4.147   4.363
 2141SOL    HW218303   0.059   4.255   4.427
 2142SOL     OW18304   1.340   1.925   4.330
 2142SOL    HW118305   1.260   1.946   4.283
 2142SOL    HW218306   1.343   1.829   4.332
 2143SOL     OW18307   2.495   3.792   2.131
 2143SOL    HW118308   2.442   3.755   2.202
 2143SOL    HW218309   2.536   3.715   2.090
 2144SOL     OW18310   0.424   3.077  16.647
 2144SOL    HW118311   0.479   3.000  16.663
 2144SOL    HW218312   0.337   3.049  16.674
 2145SOL     OW18313   0.962   0.186   0.268
 2145SOL    HW118314   0.870   0.177   0.241
 2145SOL    HW218315   1.011   0.187   0.186
 2146SOL     OW18316   4.547   0.920   5.055
 2146SOL    HW118317   4.466   0.967   5.034
 2146SOL    HW218318   4.518   0.839   5.097
 2147SOL     OW18319   4.256   1.751   6.658
 2147SOL    HW118320   4.198   1.694   6.608
 2147SOL    HW218321   4.268   1.706   6.742
 2148SOL     OW18322   0.601   2.986   3.043
 2148SOL    HW118323   0.606   3.082   3.048
 2148SOL    HW218324   0.665   2.963   2.976
 2149SOL     OW18325   1.071   2.987  14.071
 2149SOL    HW118326   1.102   2.947  14.152
 2149SOL    HW218327   1.150   3.024  14.031
 2150SOL     OW18328   3.238   1.040   2.496
 2150SOL    HW118329   3.143   1.028   2.499
 2150SOL    HW218330   3.251   1.133   2.511
 2151SOL     OW18331   1.851   4.307  14.208
 2151SOL    HW118332   1.837   4.389  14.160
 2151SOL    HW218333   1.764   4.284  14.241
 2152SOL     OW18334   2.322   0.933   0.761
 2152SOL    HW118335   2.237   0.952   0.799
 2152SOL    HW218336   2.335   0.839   0.776
 2153SOL     OW18337   0.876   2.274  17.957
 2153SOL    HW118338   0.926   2.305  17.881
 2153SOL    HW218339   0.837   2.192  17.928
 2154SOL     OW18340   2.305   2.081   3.272
 2154SOL    HW118341   2.369   2.110   3.207
 2154SOL    HW218342   2.359   2.047   3.344
 2155SOL     OW18343   4.478   4.613   7.057
 2155SOL    HW118344   4.555   4.641   7.106
 2155SOL    HW218345   4.504   4.624   6.965
 2156SOL     OW18346   2.741   0.068  18.305
 2156SOL    HW118347   2.738   0.133  18.376
 2156SOL    HW218348   2.827   0.027  18.314
 2157SOL     OW18349   4.022   0.559   0.406
 2157SOL    HW118350   4.068   0.502   0.468
 2157SOL    HW218351   4.081   0.634   0.395
 2158SOL     OW18352   3.304   2.549  19.630
 2158SOL    HW118353   3.262   2.476  19.677
 2158SOL    HW218354   3.235   2.615  19.625
 2159SOL     OW18355   0.091   3.206   3.868
 2159SOL    HW118356   0.128   3.119   3.887
 2159SOL    HW218357   0.107   3.218   3.775
 2160SOL     OW18358   2.544   3.322  18.412
 2160SOL    HW118359   2.594   3.403  18.399
 2160SOL    HW218360   2.602   3.267  18.464
 2161SOL     OW18361   1.903   0.480   5.739
 2161SOL    HW118362   1.831   0.463   5.678
 2161SOL    HW218363   1.962   0.406   5.727
 2162SOL     OW18364   0.818   3.158  13.033
 2162SOL    HW118365   0.861   3.120  12.956
 2162SOL    HW218366   0.754   3.092  13.060
 2163SOL     OW18367   2.353   4.710  13.862
 2163SOL    HW118368   2.402   4.683  13.940
 2163SOL    HW218369   2.374   4.643  13.797
 2164SOL     OW18370   0.301   3.926  15.224
 2164SOL    HW118371   0.214   3.946  15.191
 2164SOL    HW218372   0.288   3.856  15.287
 2165SOL     OW18373   0.801   3.400   1.513
 2165SOL    HW118374   0.766   3.482   1.548
 2165SOL    HW218375   0.730   3.365   1.458
 2166SOL     OW18376   4.323   3.901   1.732
 2166SOL    HW118377   4.388   3.862   1.791
 2166SOL    HW218378   4.370   3.911   1.649
 2167SOL     OW18379   1.487   2.825  16.462
 2167SOL    HW118380   1.426   2.896  16.441
 2167SOL    HW218381   1.451   2.786  16.542
 2168SOL     OW18382   4.631   3.237  20.586
 2168SOL    HW118383   4.701   3.212  20.525
 2168SOL    HW218384   4.551   3.228  20.534
 2169SOL     OW18385   0.684   0.831   4.124
 2169SOL    HW118386   0.681   0.927   4.134
 2169SOL    HW218387   0.765   0.806   4.169
 2170SOL     OW18388   1.516   1.449   4.125
 2170SOL    HW118389   1.484   1.377   4.179
 2170SOL    HW218390   1.567   1.407   4.056
 2171SOL     OW18391   0.793   0.916  15.744
 2171SOL    HW118392   0.871   0.964  15.715
 2171SOL    HW218393   0.720   0.963  15.702
 2172SOL     OW18394   0.342   2.636  18.276
 2172SOL    HW118395   0.337   2.599  18.364
 2172SOL    HW218396   0.298   2.721  18.283
 2173SOL     OW18397   0.474   0.690   2.059
 2173SOL    HW118398   0.554   0.740   2.072
 2173SOL    HW218399   0.450   0.706   1.968
 2174SOL     OW18400   2.585   4.508   4.172
 2174SOL    HW118401   2.514   4.546   4.224
 2174SOL    HW218402   2.630   4.450   4.232
 2175SOL     OW18403   4.715   3.913   2.250
 2175SOL    HW118404   4.648   3.861   2.205
 2175SOL    HW218405   4.688   3.914   2.341
 2176SOL     OW18406   3.120   3.393  21.120
 2176SOL    HW118407   3.169   3.322  21.077
 2176SOL    HW218408   3.135   3.378  21.214
 2177SOL     OW18409   4.250   2.645   0.493
 2177SOL    HW118410   4.275   2.738   0.491
 2177SOL    HW218411   4.207   2.634   0.578
 2178SOL     OW18412   4.241   0.131   7.721
 2178SOL    HW118413   4.304   0.098   7.657
 2178SOL    HW218414   4.172   0.065   7.722
 2179SOL     OW18415   0.872   1.052   3.552
 2179SOL    HW118416   0.877   0.960   3.526
 2179SOL    HW218417   0.801   1.054   3.616
 2180SOL     OW18418   3.084   3.083   3.889
 2180SOL    HW118419   3.042   2.997   3.878
 2180SOL    HW218420   3.177   3.063   3.893
 2181SOL     OW18421   1.121   0.489  13.718
 2181SOL    HW118422   1.167   0.573  13.725
 2181SOL    HW218423   1.044   0.509  13.664
 2182SOL     OW18424   4.593   2.573  18.857
 2182SOL    HW118425   4.588   2.480  18.834
 2182SOL    HW218426   4.634   2.573  18.944
 2183SOL     OW18427   1.762   4.606   6.459
 2183SOL    HW118428   1.801   4.554   6.388
 2183SOL    HW218429   1.836   4.625   6.517
 2184SOL     OW18430   4.383   0.837   5.762
 2184SOL    HW118431   4.467   0.860   5.721
 2184SOL    HW218432   4.386   0.742   5.770
 2185SOL     OW18433   0.175   0.295  17.584
 2185SOL    HW118434   0.215   0.269  17.668
 2185SOL    HW218435   0.221   0.375  17.560
 2186SOL     OW18436   2.261   3.804   9.053
 2186SOL    HW118437   2.295   3.746   9.121
 2186SOL    HW218438   2.337   3.854   9.024
 2187SOL     OW18439   4.158   1.879   0.255
 2187SOL    HW118440   4.181   1.965   0.219
 2187SOL    HW218441   4.120   1.832   0.181
 2188SOL     OW18442   4.691   3.101   5.622
 2188SOL    HW118443   4.783   3.083   5.603
 2188SOL    HW218444   4.687   3.196   5.631
 2189SOL     OW18445   2.712   0.070  20.776
 2189SOL    HW118446   2.775   0.029  20.716
 2189SOL    HW218447   2.627   0.041  20.743
 2190SOL     OW18448   3.469   4.227  16.450
 2190SOL    HW118449   3.500   4.259  16.365
 2190SOL    HW218450   3.519   4.279  16.514
 2191SOL     OW18451   1.595   4.575   2.918
 2191SOL    HW118452   1.528   4.583   2.986
 2191SOL    HW218453   1.627   4.485   2.925
 2192SOL     OW18454   2.613   0.716  18.121
 2192SOL    HW118455   2.616   0.622  18.142
 2192SOL    HW218456   2.601   0.718  18.026
 2193SOL     OW18457   2.873   0.151  21.241
 2193SOL    HW118458   2.963   0.184  21.228
 2193SOL    HW218459   2.848   0.115  21.157
 2194SOL     OW18460   4.657   4.615   6.296
 2194SOL    HW118461   4.563   4.618   6.284
 2194SOL    HW218462   4.679   4.701   6.333
 2195SOL     OW18463   3.488   0.497  18.531
 2195SOL    HW118464   3.494   0.413  18.486
 2195SOL    HW218465   3.395   0.517  18.531
 2196SOL     OW18466   0.738   4.703   3.391
 2196SOL    HW118467   0.772   4.624   3.349
 2196SOL    HW218468   0.796   4.717   3.466
 2197SOL     OW18469   2.763   4.707   2.375
 2197SOL    HW118470   2.839   4.764   2.371
 2197SOL    HW218471   2.723   4.726   2.460
 2198SOL     OW18472   2.345   0.933   2.287
 2198SOL    HW118473   2.297   0.942   2.369
 2198SOL    HW218474   2.361   1.023   2.259
 2199SOL     OW18475   0.314   4.166   2.959
 2199SOL    HW118476   0.399   4.141   2.997
 2199SOL    HW218477   0.282   4.085   2.919
 2200SOL     OW18478   1.967   3.815   0.595
 2200SOL    HW118479   1.911   3.881   0.636
 2200SOL    HW218480   1.963   3.834   0.502
 2201SOL     OW18481   2.965   0.948  16.716
 2201SOL    HW118482   2.991   1.003  16.789
 2201SOL    HW218483   2.955   0.860  16.754
 2202SOL     OW18484   2.389   2.828   4.567
 2202SOL    HW118485   2.294   2.830   4.577
 2202SOL    HW218486   2.410   2.905   4.515
 2203SOL     OW18487   4.672   2.645  19.897
 2203SOL    HW118488   4.733   2.571  19.903
 2203SOL    HW218489   4.592   2.614  19.938
 2204SOL     OW18490   4.696   3.582   0.871
 2204SOL    HW118491   4.611   3.538   0.864
 2204SOL    HW218492   4.735   3.572   0.785
 2205SOL     OW18493   0.125   4.267   5.938
 2205SOL    HW118494   0.166   4.180   5.938
 2205SOL    HW218495   0.189   4.324   5.896
 2206SOL     OW18496   3.059   1.013  19.450
 2206SOL    HW118497   2.978   0.983  19.492
 2206SOL    HW218498   3.031   1.085  19.393
 2207SOL     OW18499   3.542   2.048   5.978
 2207SOL    HW118500   3.536   1.970   5.923
 2207SOL    HW218501   3.459   2.050   6.026
 2208SOL     OW18502   4.394   2.572   9.421
 2208SOL    HW118503   4.306   2.586   9.455
 2208SOL    HW218504   4.427   2.497   9.472
 2209SOL     OW18505   3.630   4.502  18.039
 2209SOL    HW118506   3.642   4.407  18.038
 2209SOL    HW218507   3.620   4.524  18.132
 2210SOL     OW18508   4.763   2.962  15.051
 2210SOL    HW118509   0.044   2.944  14.986
 2210SOL    HW218510   4.759   2.882  15.103
 2211SOL     OW18511   2.481   3.633   6.233
 2211SOL    HW118512   2.454   3.723   6.216
 2211SOL    HW218513   2.545   3.613   6.164
 2212SOL     OW18514   0.600   3.450  20.786
 2212SOL    HW118515   0.529   3.419  20.730
 2212SOL    HW218516   0.577   3.541  20.806
 2213SOL     OW18517   3.649   0.928  18.758
 2213SOL    HW118518   3.675   0.902  18.670
 2213SOL    HW218519   3.703   1.005  18.777
 2214SOL     OW18520   0.781   0.511  11.864
 2214SOL    HW118521   0.689   0.486  11.856
 2214SOL    HW218522   0.808   0.533  11.774
 2215SOL     OW18523   0.931   4.335   5.869
 2215SOL    HW118524   0.907   4.391   5.943
 2215SOL    HW218525   0.871   4.361   5.799
 2216SOL     OW18526   2.619   1.936  20.397
 2216SOL    HW118527   2.713   1.922  20.393
 2216SOL    HW218528   2.606   1.998  20.469
 2217SOL     OW18529   0.036   3.315  21.149
 2217SOL    HW118530   4.738   3.303  21.105
 2217SOL    HW218531   0.081   3.232  21.139
 2218SOL     OW18532   2.645   1.339   8.975
 2218SOL    HW118533   2.626   1.430   8.950
 2218SOL    HW218534   2.643   1.340   9.071
 2219SOL     OW18535   0.967   0.306   3.480
 2219SOL    HW118536   0.969   0.290   3.385
 2219SOL    HW218537   1.032   0.245   3.515
 2220SOL     OW18538   1.601   3.989  16.731
 2220SOL    HW118539   1.610   3.894  16.744
 2220SOL    HW218540   1.614   4.001  16.637
 2221SOL     OW18541   2.483   2.784  15.539
 2221SOL    HW118542   2.501   2.692  15.520
 2221SOL    HW218543   2.390   2.795  15.521
 2222SOL     OW18544   3.742   4.102  20.766
 2222SOL    HW118545   3.670   4.039  20.761
 2222SOL    HW218546   3.755   4.131  20.675
 2223SOL     OW18547   0.534   3.174  20.112
 2223SOL    HW118548   0.504   3.083  20.112
 2223SOL    HW218549   0.534   3.199  20.020
 2224SOL     OW18550   2.130   2.911   4.566
 2224SOL    HW118551   2.084   2.945   4.489
 2224SOL    HW218552   2.073   2.935   4.639
 2225SOL     OW18553   4.550   0.307   2.442
 2225SOL    HW118554   4.541   0.397   2.410
 2225SOL    HW218555   4.461   0.280   2.463
 2226SOL     OW18556   2.812   2.038   5.811
 2226SOL    HW118557   2.894   1.990   5.806
 2226SOL    HW218558   2.749   1.974   5.845
 2227SOL     OW18559   3.339   3.158  17.158
 2227SOL    HW118560   3.421   3.112  17.138
 2227SOL    HW218561   3.321   3.211  17.081
 2228SOL     OW18562   0.978   1.109  13.626
 2228SOL    HW118563   1.056   1.074  13.669
 2228SOL    HW218564   0.963   1.194  13.668
 2229SOL     OW18565   2.182   2.537   5.341
 2229SOL    HW118566   2.213   2.461   5.390
 2229SOL    HW218567   2.165   2.604   5.408
 2230SOL     OW18568   2.742   2.516  18.100
 2230SOL    HW118569   2.691   2.510  18.019
 2230SOL    HW218570   2.745   2.609  18.120
 2231SOL     OW18571   0.569   4.185   2.609
 2231SOL    HW118572   0.507   4.152   2.673
 2231SOL    HW218573   0.614   4.257   2.654
 2232SOL     OW18574   4.679   4.124   4.222
 2232SOL    HW118575   4.593   4.110   4.182
 2232SOL    HW218576   4.739   4.129   4.148
 2233SOL     OW18577   1.070   0.343   5.585
 2233SOL    HW118578   0.995   0.346   5.525
 2233SOL    HW218579   1.124   0.418   5.559
 2234SOL     OW18580   3.380   0.072  16.164
 2234SOL    HW118581   3.434   0.042  16.091
 2234SOL    HW218582   3.441   0.112  16.225
 2235SOL     OW18583   3.649   2.215  17.932
 2235SOL    HW118584   3.736   2.239  17.964
 2235SOL    HW218585   3.663   2.133  17.885
 2236SOL     OW18586   3.840   4.759  15.581
 2236SOL    HW118587   3.788   4.680  15.573
 2236SOL    HW218588   3.922   4.739  15.536
 2237SOL     OW18589   4.282   1.240   3.392
 2237SOL    HW118590   4.308   1.329   3.419
 2237SOL    HW218591   4.229   1.254   3.314
 2238SOL     OW18592   4.442   4.134   2.796
 2238SOL    HW118593   4.459   4.058   2.852
 2238SOL    HW218594   4.529   4.166   2.773
 2239SOL     OW18595   2.117   0.656  13.003
 2239SOL    HW118596   2.140   0.577  13.052
 2239SOL    HW218597   2.027   0.675  13.030
 2240SOL     OW18598   1.393   0.091   3.530
 2240SOL    HW118599   1.417   0.003   3.503
 2240SOL    HW218600   1.451   0.148   3.480
 2241SOL     OW18601   2.312   0.742  19.257
 2241SOL    HW118602   2.318   0.679  19.329
 2241SOL    HW218603   2.236   0.714  19.207
 2242SOL     OW18604   1.830   0.210   2.667
 2242SOL    HW118605   1.842   0.295   2.708
 2242SOL    HW218606   1.887   0.212   2.590
 2243SOL     OW18607   0.223   2.226   0.804
 2243SOL    HW118608   0.267   2.211   0.720
 2243SOL    HW218609   0.233   2.144   0.852
 2244SOL     OW18610   3.967   1.041  16.030
 2244SOL    HW118611   3.949   0.971  15.967
 2244SOL    HW218612   4.008   0.995  16.104
 2245SOL     OW18613   4.579   1.817  18.547
 2245SOL    HW118614   4.579   1.876  18.472
 2245SOL    HW218615   4.664   1.830  18.588
 2246SOL     OW18616   0.376   4.781   4.963
 2246SOL    HW118617   0.361   4.728   4.885
 2246SOL    HW218618   0.303   4.759   5.021
 2247SOL     OW18619   3.359   3.250   2.136
 2247SOL    HW118620   3.450   3.236   2.161
 2247SOL    HW218621   3.350   3.345   2.132
 2248SOL     OW18622   2.323   3.638  18.391
 2248SOL    HW118623   2.242   3.587  18.393
 2248SOL    HW218624   2.297   3.722  18.352
 2249SOL     OW18625   0.466   3.670  16.049
 2249SOL    HW118626   0.450   3.748  15.996
 2249SOL    HW218627   0.561   3.665  16.056
 2250SOL     OW18628   0.217   4.737   8.159
 2250SOL    HW118629   0.298   4.751   8.110
 2250SOL    HW218630   0.230   4.784   8.241
 2251SOL     OW18631   3.194   3.765   4.517
 2251SOL    HW118632   3.261   3.724   4.572
 2251SOL    HW218633   3.178   3.850   4.558
 2252SOL     OW18634   4.326   2.566  20.567
 2252SOL    HW118635   4.404   2.559  20.621
 2252SOL    HW218636   4.332   2.492  20.506
 2253SOL     OW18637   0.512   4.072   4.417
 2253SOL    HW118638   0.587   4.057   4.359
 2253SOL    HW218639   0.543   4.139   4.479
 2254SOL     OW18640   3.963   2.870   9.490
 2254SOL    HW118641   3.960   2.933   9.562
 2254SOL    HW218642   3.993   2.921   9.415
 2255SOL     OW18643   0.989   0.334  15.198
 2255SOL    HW118644   0.909   0.341  15.251
 2255SOL    HW218645   1.035   0.417  15.213
 2256SOL     OW18646   0.887   1.571  15.213
 2256SOL    HW118647   0.962   1.629  15.198
 2256SOL    HW218648   0.811   1.629  15.216
 2257SOL     OW18649   0.836   3.542   2.396
 2257SOL    HW118650   0.796   3.456   2.383
 2257SOL    HW218651   0.802   3.571   2.481
 2258SOL     OW18652   2.699   0.219   0.182
 2258SOL    HW118653   2.693   0.127   0.209
 2258SOL    HW218654   2.756   0.219   0.105
 2259SOL     OW18655   1.804   1.641  18.977
 2259SOL    HW118656   1.834   1.552  18.956
 2259SOL    HW218657   1.855   1.697  18.919
 2260SOL     OW18658   4.658   3.486  19.762
 2260SOL    HW118659   4.691   3.473  19.851
 2260SOL    HW218660   4.649   3.580  19.753
 2261SOL     OW18661   2.186   4.185  20.504
 2261SOL    HW118662   2.282   4.192  20.509
 2261SOL    HW218663   2.156   4.275  20.488
 2262SOL     OW18664   3.276   1.899   6.481
 2262SOL    HW118665   3.342   1.882   6.548
 2262SOL    HW218666   3.246   1.813   6.453
 2263SOL     OW18667   3.653   3.672   0.728
 2263SOL    HW118668   3.596   3.595   0.729
 2263SOL    HW218669   3.630   3.719   0.648
 2264SOL     OW18670   1.177   0.511  21.242
 2264SOL    HW118671   1.084   0.509   0.020
 2264SOL    HW218672   1.197   0.603  21.230
 2265SOL     OW18673   3.354   2.872  15.540
 2265SOL    HW118674   3.266   2.836  15.539
 2265SOL    HW218675   3.355   2.931  15.615
 2266SOL     OW18676   3.555   3.428  14.272
 2266SOL    HW118677   3.476   3.473  14.242
 2266SOL    HW218678   3.581   3.372  14.199
 2267SOL     OW18679   2.100   3.976   4.215
 2267SOL    HW118680   2.144   3.895   4.239
 2267SOL    HW218681   2.150   4.009   4.140
 2268SOL     OW18682   4.168   2.808   3.425
 2268SOL    HW118683   4.102   2.860   3.472
 2268SOL    HW218684   4.202   2.867   3.358
 2269SOL     OW18685   2.587   1.502  16.115
 2269SOL    HW118686   2.673   1.461  16.118
 2269SOL    HW218687   2.526   1.428  16.106
 2270SOL     OW18688   1.983   1.823  19.899
 2270SOL    HW118689   2.037   1.748  19.877
 2270SOL    HW218690   1.941   1.800  19.981
 2271SOL     OW18691   2.225   1.617  20.711
 2271SOL    HW118692   2.139   1.646  20.740
 2271SOL    HW218693   2.247   1.675  20.638
 2272SOL     OW18694   1.715   4.105   4.958
 2272SOL    HW118695   1.801   4.133   4.988
 2272SOL    HW218696   1.657   4.119   5.033
 2273SOL     OW18697   0.714   1.986   4.133
 2273SOL    HW118698   0.683   1.990   4.042
 2273SOL    HW218699   0.679   2.065   4.174
 2274SOL     OW18700   1.913   1.183   4.129
 2274SOL    HW118701   1.893   1.155   4.040
 2274SOL    HW218702   2.001   1.149   4.146
 2275SOL     OW18703   0.366   2.928   5.949
 2275SOL    HW118704   0.347   3.020   5.931
 2275SOL    HW218705   0.281   2.889   5.967
 2276SOL     OW18706   1.126   3.629  15.943
 2276SOL    HW118707   1.191   3.634  15.872
 2276SOL    HW218708   1.052   3.679  15.911
 2277SOL     OW18709   2.674   4.605   8.530
 2277SOL    HW118710   2.656   4.569   8.443
 2277SOL    HW218711   2.751   4.662   8.516
 2278SOL     OW18712   3.604   3.598   5.075
 2278SOL    HW118713   3.646   3.557   5.151
 2278SOL    HW218714   3.596   3.690   5.098
 2279SOL     OW18715   3.591   4.256  17.714
 2279SOL    HW118716   3.667   4.285  17.764
 2279SOL    HW218717   3.516   4.281  17.769
 2280SOL     OW18718   0.220   2.391  15.772
 2280SOL    HW118719   0.289   2.397  15.838
 2280SOL    HW218720   0.174   2.475  15.777
 2281SOL     OW18721   2.386   3.004   0.852
 2281SOL    HW118722   2.407   3.096   0.869
 2281SOL    HW218723   2.292   2.998   0.870
 2282SOL     OW18724   0.204   3.921  18.985
 2282SOL    HW118725   0.245   3.869  19.055
 2282SOL    HW218726   0.195   4.008  19.022
 2283SOL     OW18727   2.665   3.740   2.826
 2283SOL    HW118728   2.659   3.795   2.904
 2283SOL    HW218729   2.576   3.737   2.791
 2284SOL     OW18730   3.395   3.505   7.751
 2284SOL    HW118731   3.478   3.495   7.798
 2284SOL    HW218732   3.388   3.598   7.733
 2285SOL     OW18733   3.740   0.465  16.923
 2285SOL    HW118734   3.782   0.468  16.837
 2285SOL    HW218735   3.794   0.404  16.973
 2286SOL     OW18736   2.650   1.385   3.129
 2286SOL    HW118737   2.686   1.378   3.041
 2286SOL    HW218738   2.671   1.302   3.172
 2287SOL     OW18739   3.928   0.468  20.886
 2287SOL    HW118740   3.849   0.521  20.897
 2287SOL    HW218741   3.896   0.384  20.852
 2288SOL     OW18742   4.773   0.195   2.168
 2288SOL    HW118743   0.064   0.150   2.200
 2288SOL    HW218744   0.009   0.225   2.081
 2289SOL     OW18745   1.535   1.650  20.096
 2289SOL    HW118746   1.483   1.579  20.133
 2289SOL    HW218747   1.475   1.724  20.091
 2290SOL     OW18748   3.050   2.117  19.859
 2290SOL    HW118749   3.064   2.056  19.931
 2290SOL    HW218750   3.039   2.061  19.782
 2291SOL     OW18751   0.953   0.264   3.833
 2291SOL    HW118752   0.868   0.299   3.807
 2291SOL    HW218753   0.944   0.169   3.822
 2292SOL     OW18754   0.220   2.668  16.396
 2292SOL    HW118755   0.315   2.682  16.399
 2292SOL    HW218756   0.207   2.587  16.445
 2293SOL     OW18757   2.493   1.348  17.160
 2293SOL    HW118758   2.406   1.389  17.160
 2293SOL    HW218759   2.535   1.381  17.080
 2294SOL     OW18760   3.789   0.935   5.726
 2294SOL    HW118761   3.749   0.867   5.672
 2294SOL    HW218762   3.881   0.910   5.731
 2295SOL     OW18763   3.841   2.728   3.165
 2295SOL    HW118764   3.924   2.772   3.148
 2295SOL    HW218765   3.862   2.661   3.231
 2296SOL     OW18766   3.593   1.561   5.994
 2296SOL    HW118767   3.594   1.656   5.984
 2296SOL    HW218768   3.611   1.547   6.087
 2297SOL     OW18769   4.506   2.220   7.647
 2297SOL    HW118770   4.552   2.247   7.567
 2297SOL    HW218771   4.575   2.204   7.711
 2298SOL     OW18772   0.523   1.310   2.148
 2298SOL    HW118773   0.539   1.366   2.072
 2298SOL    HW218774   0.490   1.370   2.215
 2299SOL     OW18775   3.169   1.022   1.580
 2299SOL    HW118776   3.174   1.002   1.674
 2299SOL    HW218777   3.242   0.973   1.541
 2300SOL     OW18778   1.252   2.060   0.044
 2300SOL    HW118779   1.216   2.070  21.200
 2300SOL    HW218780   1.266   1.966   0.054
 2301SOL     OW18781   3.568   0.077  16.892
 2301SOL    HW118782   3.532   0.063  16.980
 2301SOL    HW218783   3.545   0.167  16.871
 2302SOL     OW18784   2.804   0.889  19.032
 2302SOL    HW118785   2.726   0.887  18.976
 2302SOL    HW218786   2.852   0.966  19.002
 2303SOL     OW18787   4.079   0.138  19.137
 2303SOL    HW118788   4.142   0.143  19.065
 2303SOL    HW218789   4.010   0.080  19.104
 2304SOL     OW18790   4.323   1.537  17.344
 2304SOL    HW118791   4.387   1.465  17.342
 2304SOL    HW218792   4.313   1.562  17.252
 2305SOL     OW18793   1.064   2.239  16.179
 2305SOL    HW118794   1.039   2.250  16.087
 2305SOL    HW218795   1.082   2.146  16.189
 2306SOL     OW18796   3.798   3.112  20.402
 2306SOL    HW118797   3.714   3.097  20.357
 2306SOL    HW218798   3.863   3.070  20.346
 2307SOL     OW18799   2.927   4.223  18.154
 2307SOL    HW118800   2.956   4.209  18.244
 2307SOL    HW218801   2.840   4.184  18.152
 2308SOL     OW18802   1.800   1.170   7.498
 2308SOL    HW118803   1.734   1.153   7.564
 2308SOL    HW218804   1.786   1.261   7.472
 2309SOL     OW18805   1.929   3.912   3.276
 2309SOL    HW118806   2.020   3.933   3.295
 2309SOL    HW218807   1.931   3.821   3.245
 2310SOL     OW18808   0.047   3.658  20.854
 2310SOL    HW118809   0.043   3.639  20.948
 2310SOL    HW218810   0.013   3.579  20.811
 2311SOL     OW18811   1.325   3.770   5.089
 2311SOL    HW118812   1.343   3.691   5.038
 2311SOL    HW218813   1.401   3.779   5.147
 2312SOL     OW18814   3.136   1.908   0.075
 2312SOL    HW118815   3.056   1.879   0.030
 2312SOL    HW218816   3.192   1.831   0.076
 2313SOL     OW18817   0.075   4.516   5.643
 2313SOL    HW118818   4.779   4.470   5.628
 2313SOL    HW218819   0.123   4.459   5.703
 2314SOL     OW18820   0.149   1.746  15.882
 2314SOL    HW118821   0.132   1.704  15.797
 2314SOL    HW218822   0.150   1.674  15.945
 2315SOL     OW18823   4.552   3.662   5.625
 2315SOL    HW118824   4.550   3.706   5.710
 2315SOL    HW218825   4.463   3.670   5.591
 2316SOL     OW18826   0.606   1.265  20.761
 2316SOL    HW118827   0.545   1.214  20.815
 2316SOL    HW218828   0.635   1.205  20.693
 2317SOL     OW18829   1.256   3.888   3.262
 2317SOL    HW118830   1.216   3.811   3.220
 2317SOL    HW218831   1.350   3.872   3.255
 2318SOL     OW18832   3.817   2.354  16.189
 2318SOL    HW118833   3.860   2.439  16.196
 2318SOL    HW218834   3.739   2.362  16.243
 2319SOL     OW18835   3.216   2.021   3.875
 2319SOL    HW118836   3.136   2.000   3.924
 2319SOL    HW218837   3.191   2.011   3.783
 2320SOL     OW18838   1.655   3.698  15.846
 2320SOL    HW118839   1.588   3.694  15.778
 2320SOL    HW218840   1.611   3.740  15.920
 2321SOL     OW18841   0.891   3.412   3.422
 2321SOL    HW118842   0.808   3.455   3.399
 2321SOL    HW218843   0.885   3.398   3.516
 2322SOL     OW18844   2.464   1.938   5.095
 2322SOL    HW118845   2.479   1.866   5.035
 2322SOL    HW218846   2.547   1.948   5.142
 2323SOL     OW18847   3.033   2.568   1.719
 2323SOL    HW118848   3.082   2.598   1.642
 2323SOL    HW218849   2.954   2.621   1.719
 2324SOL     OW18850   0.915   4.001  20.735
 2324SOL    HW118851   0.893   3.920  20.781
 2324SOL    HW218852   1.010   4.008  20.743
 2325SOL     OW18853   4.308   2.347  20.395
 2325SOL    HW118854   4.266   2.278  20.446
 2325SOL    HW218855   4.286   2.327  20.304
 2326SOL     OW18856   3.729   4.417   2.662
 2326SOL    HW118857   3.721   4.454   2.750
 2326SOL    HW218858   3.773   4.333   2.675
 2327SOL     OW18859   3.126   3.570   6.686
 2327SOL    HW118860   3.100   3.519   6.610
 2327SOL    HW218861   3.213   3.604   6.664
 2328SOL     OW18862   1.840   1.968   4.272
 2328SOL    HW118863   1.813   1.908   4.203
 2328SOL    HW218864   1.905   1.919   4.322
 2329SOL     OW18865   2.661   1.140   2.946
 2329SOL    HW118866   2.738   1.120   2.999
 2329SOL    HW218867   2.696   1.158   2.858
 2330SOL     OW18868   4.543   4.224  13.205
 2330SOL    HW118869   4.498   4.166  13.267
 2330SOL    HW218870   4.635   4.198  13.211
 2331SOL     OW18871   0.756   4.226  16.198
 2331SOL    HW118872   0.831   4.216  16.257
 2331SOL    HW218873   0.682   4.241  16.256
 2332SOL     OW18874   3.927   4.285  17.929
 2332SOL    HW118875   3.988   4.354  17.903
 2332SOL    HW218876   3.915   4.299  18.023
 2333SOL     OW18877   4.628   3.476   2.599
 2333SOL    HW118878   4.647   3.469   2.506
 2333SOL    HW218879   4.539   3.443   2.608
 2334SOL     OW18880   3.571   3.437  18.855
 2334SOL    HW118881   3.665   3.422  18.863
 2334SOL    HW218882   3.539   3.440  18.945
 2335SOL     OW18883   1.998   0.213   5.725
 2335SOL    HW118884   1.905   0.209   5.744
 2335SOL    HW218885   2.041   0.203   5.811
 2336SOL     OW18886   0.705   4.377  17.397
 2336SOL    HW118887   0.644   4.311  17.430
 2336SOL    HW218888   0.701   4.368  17.302
 2337SOL     OW18889   3.610   2.957   5.980
 2337SOL    HW118890   3.637   3.049   5.981
 2337SOL    HW218891   3.686   2.909   6.014
 2338SOL     OW18892   4.077   0.668  15.151
 2338SOL    HW118893   4.024   0.680  15.072
 2338SOL    HW218894   4.133   0.746  15.154
 2339SOL     OW18895   2.497   1.009  13.282
 2339SOL    HW118896   2.490   1.042  13.372
 2339SOL    HW218897   2.518   1.086  13.229
 2340SOL     OW18898   2.312   0.463   8.942
 2340SOL    HW118899   2.283   0.524   9.010
 2340SOL    HW218900   2.269   0.380   8.963
 2341SOL     OW18901   4.359   0.358   1.915
 2341SOL    HW118902   4.449   0.334   1.939
 2341SOL    HW218903   4.342   0.438   1.963
 2342SOL     OW18904   1.941   2.930   2.564
 2342SOL    HW118905   1.947   3.004   2.504
 2342SOL    HW218906   2.018   2.937   2.620
 2343SOL     OW18907   3.115   2.336  20.434
 2343SOL    HW118908   3.173   2.344  20.509
 2343SOL    HW218909   3.122   2.244  20.407
 2344SOL     OW18910   4.744   2.017  21.111
 2344SOL    HW118911   4.726   2.091  21.052
 2344SOL    HW218912   0.050   1.996  21.095
 2345SOL     OW18913   0.583   3.816  17.602
 2345SOL    HW118914   0.594   3.834  17.508
 2345SOL    HW218915   0.508   3.870  17.628
 2346SOL     OW18916   4.595   3.594  16.144
 2346SOL    HW118917   4.689   3.597  16.125
 2346SOL    HW218918   4.565   3.514  16.101
 2347SOL     OW18919   1.902   2.854  20.196
 2347SOL    HW118920   1.930   2.786  20.257
 2347SOL    HW218921   1.861   2.920  20.252
 2348SOL     OW18922   2.771   1.242  20.525
 2348SOL    HW118923   2.746   1.155  20.555
 2348SOL    HW218924   2.691   1.294  20.531
 2349SOL     OW18925   1.784   3.650  13.553
 2349SOL    HW118926   1.689   3.660  13.567
 2349SOL    HW218927   1.824   3.687  13.632
 2350SOL     OW18928   4.716   4.626   4.366
 2350SOL    HW118929   4.704   4.683   4.290
 2350SOL    HW218930   4.655   4.661   4.431
 2351SOL     OW18931   3.425   0.872   6.944
 2351SOL    HW118932   3.380   0.881   6.860
 2351SOL    HW218933   3.411   0.956   6.988
 2352SOL     OW18934   2.268   3.959  17.943
 2352SOL    HW118935   2.190   3.920  17.982
 2352SOL    HW218936   2.237   4.041  17.904
 2353SOL     OW18937   4.550   0.934   6.115
 2353SOL    HW118938   4.545   0.984   6.033
 2353SOL    HW218939   4.620   0.977   6.164
 2354SOL     OW18940   2.209   1.594  15.087
 2354SOL    HW118941   2.118   1.596  15.060
 2354SOL    HW218942   2.205   1.586  15.183
 2355SOL     OW18943   4.591   2.917   2.643
 2355SOL    HW118944   4.599   2.830   2.605
 2355SOL    HW218945   4.559   2.972   2.571
 2356SOL     OW18946   0.317   0.760  16.540
 2356SOL    HW118947   0.402   0.797  16.566
 2356SOL    HW218948   0.311   0.778  16.446
 2357SOL     OW18949   2.372   2.134  14.473
 2357SOL    HW118950   2.317   2.213  14.477
 2357SOL    HW218951   2.391   2.124  14.379
 2358SOL     OW18952   4.064   1.050   5.232
 2358SOL    HW118953   3.987   1.075   5.283
 2358SOL    HW218954   4.030   1.034   5.144
 2359SOL     OW18955   0.702   1.131   2.314
 2359SOL    HW118956   0.793   1.156   2.301
 2359SOL    HW218957   0.652   1.194   2.262
 2360SOL     OW18958   3.330   1.774   2.917
 2360SOL    HW118959   3.403   1.726   2.955
 2360SOL    HW218960   3.358   1.865   2.915
 2361SOL     OW18961   1.814   3.895   1.505
 2361SOL    HW118962   1.837   3.958   1.573
 2361SOL    HW218963   1.897   3.855   1.479
 2362SOL     OW18964   1.061   1.581  16.688
 2362SOL    HW118965   1.089   1.490  16.684
 2362SOL    HW218966   1.116   1.626  16.624
 2363SOL     OW18967   0.987   2.769  16.934
 2363SOL    HW118968   1.041   2.775  16.856
 2363SOL    HW218969   0.956   2.678  16.936
 2364SOL     OW18970   2.334   4.235  12.961
 2364SOL    HW118971   2.251   4.188  12.965
 2364SOL    HW218972   2.340   4.281  13.045
 2365SOL     OW18973   4.564   3.984  13.782
 2365SOL    HW118974   4.541   4.043  13.710
 2365SOL    HW218975   4.496   3.917  13.781
 2366SOL     OW18976   1.198   3.175  19.780
 2366SOL    HW118977   1.207   3.104  19.717
 2366SOL    HW218978   1.110   3.209  19.768
 2367SOL     OW18979   2.221   4.737   3.611
 2367SOL    HW118980   2.129   4.716   3.630
 2367SOL    HW218981   2.219   0.038   3.572
 2368SOL     OW18982   4.135   0.734   2.561
 2368SOL    HW118983   4.043   0.751   2.541
 2368SOL    HW218984   4.134   0.656   2.615
 2369SOL     OW18985   1.492   2.576   5.461
 2369SOL    HW118986   1.426   2.520   5.422
 2369SOL    HW218987   1.478   2.568   5.555
 2370SOL     OW18988   0.567   1.759   2.220
 2370SOL    HW118989   0.622   1.826   2.181
 2370SOL    HW218990   0.483   1.767   2.174
 2371SOL     OW18991   0.956   0.962   2.497
 2371SOL    HW118992   1.043   0.931   2.520
 2371SOL    HW218993   0.970   1.022   2.424
 2372SOL     OW18994   4.393   2.971  16.429
 2372SOL    HW118995   4.311   2.961  16.381
 2372SOL    HW218996   4.381   3.051  16.481
 2373SOL     OW18997   2.057   2.118   3.046
 2373SOL    HW118998   2.096   2.168   3.118
 2373SOL    HW218999   2.083   2.028   3.062
 2374SOL     OW19000   2.164   3.473   4.617
 2374SOL    HW119001   2.078   3.440   4.641
 2374SOL    HW219002   2.212   3.395   4.588
 2375SOL     OW19003   0.110   0.897  18.373
 2375SOL    HW119004   0.052   0.966  18.406
 2375SOL    HW219005   0.055   0.818  18.374
 2376SOL     OW19006   1.634   1.093  19.458
 2376SOL    HW119007   1.543   1.081  19.431
 2376SOL    HW219008   1.669   1.004  19.468
 2377SOL     OW19009   3.550   3.052  20.604
 2377SOL    HW119010   3.642   3.064  20.581
 2377SOL    HW219011   3.552   2.990  20.676
 2378SOL     OW19012   4.784   3.505   0.588
 2378SOL    HW119013   4.764   3.432   0.530
 2378SOL    HW219014   4.776   3.583   0.533
 2379SOL     OW19015   3.566   1.970   2.139
 2379SOL    HW119016   3.645   1.972   2.086
 2379SOL    HW219017   3.498   1.937   2.080
 2380SOL     OW19018   2.497   3.190   7.232
 2380SOL    HW119019   2.558   3.219   7.300
 2380SOL    HW219020   2.434   3.134   7.278
 2381SOL     OW19021   3.517   2.745   0.320
 2381SOL    HW119022   3.435   2.700   0.338
 2381SOL    HW219023   3.568   2.684   0.268
 2382SOL     OW19024   0.233   3.988  15.595
 2382SOL    HW119025   0.314   3.989  15.646
 2382SOL    HW219026   0.232   4.072  15.550
 2383SOL     OW19027   4.144   4.172   4.171
 2383SOL    HW119028   4.074   4.203   4.229
 2383SOL    HW219029   4.225   4.189   4.220
 2384SOL     OW19030   3.897   1.373  14.924
 2384SOL    HW119031   3.897   1.340  15.014
 2384SOL    HW219032   3.881   1.467  14.933
 2385SOL     OW19033   2.358   1.139  20.103
 2385SOL    HW119034   2.377   1.129  20.009
 2385SOL    HW219035   2.391   1.225  20.125
 2386SOL     OW19036   0.383   2.806   4.782
 2386SOL    HW119037   0.360   2.750   4.857
 2386SOL    HW219038   0.375   2.895   4.816
 2387SOL     OW19039   0.442   3.905  14.912
 2387SOL    HW119040   0.496   3.845  14.964
 2387SOL    HW219041   0.354   3.867  14.916
 2388SOL     OW19042   2.331   4.284   4.578
 2388SOL    HW119043   2.249   4.234   4.575
 2388SOL    HW219044   2.366   4.268   4.665
 2389SOL     OW19045   2.347   0.135  17.795
 2389SOL    HW119046   2.424   0.087  17.763
 2389SOL    HW219047   2.355   0.221  17.755
 2390SOL     OW19048   1.917   3.199  19.832
 2390SOL    HW119049   1.995   3.213  19.886
 2390SOL    HW219050   1.941   3.126  19.774
 2391SOL     OW19051   0.049   0.791   1.599
 2391SOL    HW119052   4.755   0.840   1.617
 2391SOL    HW219053   0.096   0.792   1.682
 2392SOL     OW19054   3.578   1.566   5.444
 2392SOL    HW119055   3.668   1.600   5.436
 2392SOL    HW219056   3.575   1.529   5.532
 2393SOL     OW19057   0.041   2.727  15.208
 2393SOL    HW119058   0.067   2.637  15.188
 2393SOL    HW219059   0.090   2.749  15.287
 2394SOL     OW19060   3.087   1.239  16.594
 2394SOL    HW119061   3.104   1.190  16.674
 2394SOL    HW219062   3.101   1.330  16.618
 2395SOL     OW19063   3.755   1.545  20.672
 2395SOL    HW119064   3.835   1.497  20.693
 2395SOL    HW219065   3.774   1.635  20.696
 2396SOL     OW19066   4.239   1.885  19.959
 2396SOL    HW119067   4.226   1.848  20.046
 2396SOL    HW219068   4.165   1.854  19.907
 2397SOL     OW19069   2.712   0.922   4.262
 2397SOL    HW119070   2.690   1.003   4.217
 2397SOL    HW219071   2.768   0.875   4.200
 2398SOL     OW19072   3.239   3.395  18.036
 2398SOL    HW119073   3.214   3.387  18.128
 2398SOL    HW219074   3.263   3.306  18.010
 2399SOL     OW19075   3.014   0.485   2.636
 2399SOL    HW119076   2.959   0.552   2.677
 2399SOL    HW219077   3.024   0.514   2.545
 2400SOL     OW19078   0.620   2.847  16.765
 2400SOL    HW119079   0.575   2.859  16.848
 2400SOL    HW219080   0.632   2.752  16.757
 2401SOL     OW19081   2.354   2.454  14.157
 2401SOL    HW119082   2.430   2.399  14.177
 2401SOL    HW219083   2.382   2.543  14.178
 2402SOL     OW19084   4.469   3.653   1.574
 2402SOL    HW119085   4.449   3.640   1.667
 2402SOL    HW219086   4.421   3.583   1.529
 2403SOL     OW19087   4.271   3.387  16.893
 2403SOL    HW119088   4.293   3.478  16.913
 2403SOL    HW219089   4.179   3.379  16.916
 2404SOL     OW19090   4.372   0.803   2.899
 2404SOL    HW119091   4.429   0.759   2.836
 2404SOL    HW219092   4.430   0.862   2.947
 2405SOL     OW19093   3.997   0.547   5.755
 2405SOL    HW119094   4.012   0.620   5.814
 2405SOL    HW219095   4.063   0.483   5.779
 2406SOL     OW19096   0.160   3.565  17.131
 2406SOL    HW119097   0.221   3.500  17.164
 2406SOL    HW219098   0.078   3.548  17.178
 2407SOL     OW19099   3.279   0.392  20.777
 2407SOL    HW119100   3.235   0.321  20.731
 2407SOL    HW219101   3.352   0.350  20.822
 2408SOL     OW19102   4.120   2.194   1.420
 2408SOL    HW119103   4.066   2.126   1.380
 2408SOL    HW219104   4.060   2.245   1.473
 2409SOL     OW19105   3.512   1.901   7.359
 2409SOL    HW119106   3.567   1.969   7.319
 2409SOL    HW219107   3.570   1.826   7.370
 2410SOL     OW19108   4.449   4.662  20.652
 2410SOL    HW119109   4.480   4.608  20.579
 2410SOL    HW219110   4.501   4.631  20.727
 2411SOL     OW19111   3.301   3.623   0.507
 2411SOL    HW119112   3.329   3.603   0.418
 2411SOL    HW219113   3.338   3.709   0.525
 2412SOL     OW19114   0.141   2.981   1.491
 2412SOL    HW119115   0.073   3.016   1.434
 2412SOL    HW219116   0.098   2.967   1.576
 2413SOL     OW19117   3.486   0.818  19.618
 2413SOL    HW119118   3.559   0.807  19.557
 2413SOL    HW219119   3.485   0.912  19.637
 2414SOL     OW19120   3.699   0.184  19.923
 2414SOL    HW119121   3.606   0.184  19.901
 2414SOL    HW219122   3.744   0.180  19.839
 2415SOL     OW19123   4.355   1.000   1.554
 2415SOL    HW119124   4.295   0.950   1.498
 2415SOL    HW219125   4.424   0.938   1.576
 2416SOL     OW19126   2.936   1.469   2.001
 2416SOL    HW119127   2.964   1.425   2.082
 2416SOL    HW219128   2.882   1.403   1.956
 2417SOL     OW19129   4.250   2.984   3.257
 2417SOL    HW119130   4.342   2.997   3.232
 2417SOL    HW219131   4.214   3.072   3.261
 2418SOL     OW19132   3.552   2.118  20.942
 2418SOL    HW119133   3.515   2.113  21.030
 2418SOL    HW219134   3.512   2.196  20.903
 2419SOL     OW19135   0.181   0.467  16.183
 2419SOL    HW119136   0.152   0.472  16.274
 2419SOL    HW219137   0.163   0.554  16.147
 2420SOL     OW19138   0.584   3.042   5.525
 2420SOL    HW119139   0.577   3.016   5.616
 2420SOL    HW219140   0.532   3.122   5.518
 2421SOL     OW19141   2.071   1.263  15.082
 2421SOL    HW119142   2.102   1.308  15.160
 2421SOL    HW219143   1.994   1.314  15.055
 2422SOL     OW19144   0.245   2.255  21.024
 2422SOL    HW119145   0.318   2.315  21.041
 2422SOL    HW219146   0.182   2.272  21.094
 2423SOL     OW19147   3.459   2.338   3.562
 2423SOL    HW119148   3.552   2.360   3.575
 2423SOL    HW219149   3.423   2.334   3.650
 2424SOL     OW19150   4.034   4.183   2.450
 2424SOL    HW119151   4.111   4.168   2.395
 2424SOL    HW219152   3.961   4.155   2.395
 2425SOL     OW19153   3.491   0.366   8.073
 2425SOL    HW119154   3.573   0.340   8.031
 2425SOL    HW219155   3.430   0.296   8.052
 2426SOL     OW19156   3.630   3.718  14.086
 2426SOL    HW119157   3.557   3.692  14.142
 2426SOL    HW219158   3.592   3.776  14.021
 2427SOL     OW19159   4.348   4.083   4.906
 2427SOL    HW119160   4.407   4.039   4.845
 2427SOL    HW219161   4.404   4.145   4.953
 2428SOL     OW19162   3.879   0.130   3.482
 2428SOL    HW119163   3.913   0.219   3.495
 2428SOL    HW219164   3.857   0.100   3.571
 2429SOL     OW19165   1.371   3.290  19.453
 2429SOL    HW119166   1.440   3.308  19.517
 2429SOL    HW219167   1.416   3.247  19.380
 2430SOL     OW19168   2.418   0.837   2.040
 2430SOL    HW119169   2.348   0.877   2.092
 2430SOL    HW219170   2.428   0.750   2.078
 2431SOL     OW19171   2.651   1.702   6.645
 2431SOL    HW119172   2.566   1.680   6.682
 2431SOL    HW219173   2.666   1.793   6.671
 2432SOL     OW19174   4.721   1.553   0.018
 2432SOL    HW119175   0.013   1.600  21.237
 2432SOL    HW219176   4.649   1.611  21.238
 2433SOL     OW19177   2.325   2.427   6.087
 2433SOL    HW119178   2.358   2.417   5.998
 2433SOL    HW219179   2.385   2.376   6.141
 2434SOL     OW19180   1.877   1.347   6.314
 2434SOL    HW119181   1.939   1.353   6.387
 2434SOL    HW219182   1.809   1.288   6.345
 2435SOL     OW19183   1.678   1.479   0.614
 2435SOL    HW119184   1.709   1.400   0.570
 2435SOL    HW219185   1.624   1.447   0.687
 2436SOL     OW19186   1.314   0.758   1.885
 2436SOL    HW119187   1.221   0.737   1.885
 2436SOL    HW219188   1.349   0.713   1.808
 2437SOL     OW19189   2.466   3.167   4.054
 2437SOL    HW119190   2.399   3.101   4.077
 2437SOL    HW219191   2.440   3.198   3.967
 2438SOL     OW19192   2.374   1.499   7.415
 2438SOL    HW119193   2.399   1.407   7.422
 2438SOL    HW219194   2.405   1.539   7.496
 2439SOL     OW19195   1.995   1.211  19.165
 2439SOL    HW119196   1.941   1.199  19.244
 2439SOL    HW219197   2.067   1.268  19.194
 2440SOL     OW19198   2.686   4.343  17.615
 2440SOL    HW119199   2.670   4.363  17.707
 2440SOL    HW219200   2.779   4.359  17.603
 2441SOL     OW19201   3.421   3.328  20.687
 2441SOL    HW119202   3.493   3.373  20.731
 2441SOL    HW219203   3.458   3.244  20.660
 2442SOL     OW19204   0.820   3.942   4.734
 2442SOL    HW119205   0.886   3.873   4.731
 2442SOL    HW219206   0.859   4.015   4.686
 2443SOL     OW19207   0.836   3.774  20.895
 2443SOL    HW119208   0.756   3.722  20.884
 2443SOL    HW219209   0.829   3.809  20.984
 2444SOL     OW19210   4.081   1.147  17.657
 2444SOL    HW119211   4.119   1.229  17.626
 2444SOL    HW219212   3.988   1.155  17.637
 2445SOL     OW19213   0.400   2.538  14.346
 2445SOL    HW119214   0.325   2.593  14.371
 2445SOL    HW219215   0.360   2.458  14.313
 2446SOL     OW19216   2.085   0.488  16.944
 2446SOL    HW119217   2.005   0.436  16.954
 2446SOL    HW219218   2.067   0.545  16.869
 2447SOL     OW19219   1.186   3.962  14.699
 2447SOL    HW119220   1.188   3.925  14.611
 2447SOL    HW219221   1.277   3.983  14.718
 2448SOL     OW19222   2.333   3.742  18.698
 2448SOL    HW119223   2.342   3.720  18.605
 2448SOL    HW219224   2.278   3.673  18.733
 2449SOL     OW19225   2.525   4.637   1.280
 2449SOL    HW119226   2.434   4.668   1.284
 2449SOL    HW219227   2.538   4.589   1.362
 2450SOL     OW19228   3.538   3.266  18.076
 2450SOL    HW119229   3.460   3.257  18.022
 2450SOL    HW219230   3.611   3.257  18.015
 2451SOL     OW19231   0.348   0.995   6.236
 2451SOL    HW119232   0.308   1.077   6.266
 2451SOL    HW219233   0.275   0.939   6.212
 2452SOL     OW19234   0.059   4.466  16.288
 2452SOL    HW119235   4.783   4.406  16.327
 2452SOL    HW219236   0.046   4.549  16.334
 2453SOL     OW19237   0.796   0.752  19.279
 2453SOL    HW119238   0.794   0.661  19.247
 2453SOL    HW219239   0.724   0.756  19.342
 2454SOL     OW19240   0.534   0.796   7.165
 2454SOL    HW119241   0.486   0.767   7.087
 2454SOL    HW219242   0.609   0.844   7.130
 2455SOL     OW19243   4.437   0.764   1.159
 2455SOL    HW119244   4.486   0.766   1.241
 2455SOL    HW219245   4.401   0.853   1.151
 2456SOL     OW19246   1.515   3.949   2.480
 2456SOL    HW119247   1.479   4.021   2.531
 2456SOL    HW219248   1.490   3.870   2.529
 2457SOL     OW19249   2.608   2.082  20.717
 2457SOL    HW119250   2.694   2.093  20.676
 2457SOL    HW219251   2.627   2.063  20.809
 2458SOL     OW19252   4.703   0.583  12.674
 2458SOL    HW119253   4.690   0.545  12.761
 2458SOL    HW219254   4.712   0.677  12.691
 2459SOL     OW19255   1.108   2.547  18.156
 2459SOL    HW119256   1.068   2.551  18.069
 2459SOL    HW219257   1.199   2.522  18.140
 2460SOL     OW19258   2.587   4.607   7.565
 2460SOL    HW119259   2.595   4.664   7.641
 2460SOL    HW219260   2.660   4.631   7.508
 2461SOL     OW19261   1.642   4.385   5.021
 2461SOL    HW119262   1.717   4.327   5.018
 2461SOL    HW219263   1.673   4.464   5.066
 2462SOL     OW19264   3.866   4.054   0.239
 2462SOL    HW119265   3.812   4.107   0.180
 2462SOL    HW219266   3.956   4.078   0.217
 2463SOL     OW19267   1.044   2.567  19.935
 2463SOL    HW119268   0.967   2.509  19.929
 2463SOL    HW219269   1.052   2.586  20.028
 2464SOL     OW19270   3.002   1.954  19.641
 2464SOL    HW119271   3.070   1.887  19.637
 2464SOL    HW219272   2.976   1.968  19.550
 2465SOL     OW19273   1.453   4.658   0.790
 2465SOL    HW119274   1.428   4.728   0.729
 2465SOL    HW219275   1.538   4.686   0.824
 2466SOL     OW19276   3.930   1.075   3.336
 2466SOL    HW119277   3.921   1.162   3.375
 2466SOL    HW219278   4.015   1.043   3.368
 2467SOL     OW19279   1.688   1.007   2.579
 2467SOL    HW119280   1.599   0.980   2.558
 2467SOL    HW219281   1.681   1.048   2.665
 2468SOL     OW19282   1.607   4.488   6.681
 2468SOL    HW119283   1.549   4.462   6.609
 2468SOL    HW219284   1.603   4.584   6.682
 2469SOL     OW19285   3.070   0.536   5.306
 2469SOL    HW119286   3.009   0.606   5.330
 2469SOL    HW219287   3.123   0.574   5.235
 2470SOL     OW19288   2.004   0.191  18.319
 2470SOL    HW119289   2.070   0.199  18.250
 2470SOL    HW219290   2.039   0.124  18.378
 2471SOL     OW19291   1.523   1.141  18.245
 2471SOL    HW119292   1.547   1.188  18.324
 2471SOL    HW219293   1.432   1.168  18.228
 2472SOL     OW19294   4.731   4.692  18.468
 2472SOL    HW119295   4.659   4.632  18.487
 2472SOL    HW219296   4.718   4.765  18.529
 2473SOL     OW19297   3.580   1.093   1.569
 2473SOL    HW119298   3.518   1.128   1.505
 2473SOL    HW219299   3.561   1.141   1.649
 2474SOL     OW19300   4.532   1.039  16.268
 2474SOL    HW119301   4.531   1.016  16.361
 2474SOL    HW219302   4.452   1.090  16.255
 2475SOL     OW19303   1.274   4.224  20.453
 2475SOL    HW119304   1.246   4.313  20.473
 2475SOL    HW219305   1.368   4.224  20.473
 2476SOL     OW19306   2.906   2.587   5.311
 2476SOL    HW119307   2.888   2.602   5.404
 2476SOL    HW219308   2.916   2.492   5.303
 2477SOL     OW19309   2.271   4.205   0.798
 2477SOL    HW119310   2.191   4.213   0.747
 2477SOL    HW219311   2.337   4.252   0.747
 2478SOL     OW19312   3.960   2.815  15.050
 2478SOL    HW119313   3.917   2.792  15.133
 2478SOL    HW219314   3.888   2.831  14.989
 2479SOL     OW19315   2.182   2.131  17.037
 2479SOL    HW119316   2.089   2.151  17.031
 2479SOL    HW219317   2.187   2.036  17.027
 2480SOL     OW19318   0.578   2.470   5.022
 2480SOL    HW119319   0.635   2.395   5.009
 2480SOL    HW219320   0.501   2.434   5.067
 2481SOL     OW19321   2.600   4.283  16.333
 2481SOL    HW119322   2.541   4.355  16.358
 2481SOL    HW219323   2.623   4.241  16.415
 2482SOL     OW19324   3.618   4.053  21.120
 2482SOL    HW119325   3.595   4.004  21.199
 2482SOL    HW219326   3.712   4.071  21.131
 2483SOL     OW19327   1.129   0.900  16.059
 2483SOL    HW119328   1.188   0.975  16.065
 2483SOL    HW219329   1.171   0.842  15.996
 2484SOL     OW19330   0.349   4.660  16.288
 2484SOL    HW119331   0.386   4.674  16.201
 2484SOL    HW219332   0.388   4.579  16.319
 2485SOL     OW19333   2.778   1.916  14.521
 2485SOL    HW119334   2.807   1.883  14.606
 2485SOL    HW219335   2.718   1.850  14.488
 2486SOL     OW19336   2.344   1.169  17.614
 2486SOL    HW119337   2.429   1.168  17.658
 2486SOL    HW219338   2.365   1.149  17.522
 2487SOL     OW19339   0.233   2.627   4.308
 2487SOL    HW119340   0.219   2.699   4.370
 2487SOL    HW219341   0.263   2.554   4.363
 2488SOL     OW19342   3.792   3.098  18.553
 2488SOL    HW119343   3.809   3.033  18.620
 2488SOL    HW219344   3.852   3.170  18.573
 2489SOL     OW19345   0.986   0.960  16.949
 2489SOL    HW119346   1.052   0.980  16.883
 2489SOL    HW219347   0.940   1.042  16.964
 2490SOL     OW19348   1.323   4.562  19.575
 2490SOL    HW119349   1.404   4.606  19.601
 2490SOL    HW219350   1.290   4.525  19.657
 2491SOL     OW19351   4.597   2.941   0.713
 2491SOL    HW119352   4.668   2.963   0.774
 2491SOL    HW219353   4.633   2.872   0.658
 2492SOL     OW19354   1.183   3.636   5.699
 2492SOL    HW119355   1.115   3.698   5.726
 2492SOL    HW219356   1.264   3.671   5.735
 2493SOL     OW19357   3.079   1.267   6.078
 2493SOL    HW119358   2.986   1.286   6.092
 2493SOL    HW219359   3.082   1.223   5.993
 2494SOL     OW19360   2.087   1.715   2.129
 2494SOL    HW119361   2.070   1.808   2.113
 2494SOL    HW219362   2.020   1.690   2.193
 2495SOL     OW19363   0.226   3.346   0.084
 2495SOL    HW119364   0.215   3.256   0.113
 2495SOL    HW219365   0.195   3.347  21.238
 2496SOL     OW19366   1.049   3.686  17.618
 2496SOL    HW119367   1.075   3.745  17.547
 2496SOL    HW219368   0.971   3.727  17.656
 2497SOL     OW19369   1.157   1.036   6.408
 2497SOL    HW119370   1.147   0.996   6.321
 2497SOL    HW219371   1.174   0.963   6.466
 2498SOL     OW19372   1.933   4.480   1.819
 2498SOL    HW119373   1.839   4.498   1.823
 2498SOL    HW219374   1.955   4.443   1.905
 2499SOL     OW19375   2.114   3.164  15.539
 2499SOL    HW119376   2.158   3.116  15.609
 2499SOL    HW219377   2.053   3.223  15.585
 2500SOL     OW19378   1.226   1.120   7.140
 2500SOL    HW119379   1.313   1.154   7.160
 2500SOL    HW219380   1.188   1.184   7.080
 2501SOL     OW19381   3.450   2.734  14.541
 2501SOL    HW119382   3.452   2.639  14.552
 2501SOL    HW219383   3.442   2.746  14.446
 2502SOL     OW19384   1.118   4.451  18.457
 2502SOL    HW119385   1.074   4.520  18.507
 2502SOL    HW219386   1.211   4.464  18.475
 2503SOL     OW19387   0.717   0.929  20.774
 2503SOL    HW119388   0.764   0.853  20.740
 2503SOL    HW219389   0.638   0.935  20.721
 2504SOL     OW19390   0.609   1.384   0.853
 2504SOL    HW119391   0.617   1.460   0.911
 2504SOL    HW219392   0.516   1.379   0.833
 2505SOL     OW19393   0.431   3.113  18.551
 2505SOL    HW119394   0.457   3.149  18.635
 2505SOL    HW219395   0.338   3.135  18.543
 2506SOL     OW19396   2.369   3.556  21.135
 2506SOL    HW119397   2.331   3.644  21.123
 2506SOL    HW219398   2.310   3.514  21.198
 2507SOL     OW19399   4.454   1.163  18.909
 2507SOL    HW119400   4.363   1.168  18.938
 2507SOL    HW219401   4.505   1.187  18.986
 2508SOL     OW19402   4.178   4.572   2.472
 2508SOL    HW119403   4.090   4.543   2.496
 2508SOL    HW219404   4.165   4.656   2.427
 2509SOL     OW19405   1.168   2.938  19.183
 2509SOL    HW119406   1.174   2.996  19.107
 2509SOL    HW219407   1.118   2.987  19.248
 2510SOL     OW19408   1.012   3.049  19.393
 2510SOL    HW119409   0.957   3.125  19.375
 2510SOL    HW219410   0.977   3.014  19.475
 2511SOL     OW19411   2.256   3.613   2.864
 2511SOL    HW119412   2.219   3.525   2.863
 2511SOL    HW219413   2.272   3.632   2.957
 2512SOL     OW19414   4.117   2.635   9.463
 2512SOL    HW119415   4.059   2.705   9.492
 2512SOL    HW219416   4.126   2.649   9.369
 2513SOL     OW19417   2.685   4.222   1.369
 2513SOL    HW119418   2.755   4.262   1.420
 2513SOL    HW219419   2.604   4.249   1.413
 2514SOL     OW19420   1.643   2.354   1.981
 2514SOL    HW119421   1.566   2.403   1.952
 2514SOL    HW219422   1.718   2.403   1.947
 2515SOL     OW19423   2.875   1.184   4.975
 2515SOL    HW119424   2.894   1.182   4.881
 2515SOL    HW219425   2.874   1.277   4.998
 2516SOL     OW19426   2.112   1.231   2.340
 2516SOL    HW119427   2.184   1.215   2.401
 2516SOL    HW219428   2.045   1.276   2.392
 2517SOL     OW19429   1.390   2.965   3.491
 2517SOL    HW119430   1.444   2.932   3.419
 2517SOL    HW219431   1.306   2.922   3.480
 2518SOL     OW19432   3.921   1.325   0.965
 2518SOL    HW119433   3.962   1.284   1.041
 2518SOL    HW219434   3.983   1.312   0.894
 2519SOL     OW19435   4.563   4.418   5.541
 2519SOL    HW119436   4.470   4.401   5.527
 2519SOL    HW219437   4.606   4.378   5.466
 2520SOL     OW19438   2.102   1.062   1.076
 2520SOL    HW119439   2.108   0.970   1.101
 2520SOL    HW219440   2.086   1.061   0.981
 2521SOL     OW19441   2.508   4.049   3.859
 2521SOL    HW119442   2.429   4.088   3.821
 2521SOL    HW219443   2.491   3.955   3.857
 2522SOL     OW19444   3.800   1.351   3.926
 2522SOL    HW119445   3.760   1.304   3.853
 2522SOL    HW219446   3.759   1.438   3.924
 2523SOL     OW19447   0.423   4.146  18.604
 2523SOL    HW119448   0.500   4.111  18.649
 2523SOL    HW219449   0.353   4.085  18.625
 2524SOL     OW19450   3.315   2.603  18.449
 2524SOL    HW119451   3.324   2.631  18.358
 2524SOL    HW219452   3.289   2.511  18.443
 2525SOL     OW19453   2.661   2.877   0.246
 2525SOL    HW119454   2.747   2.905   0.278
 2525SOL    HW219455   2.605   2.953   0.258
 2526SOL     OW19456   1.089   4.162  11.394
 2526SOL    HW119457   1.174   4.192  11.427
 2526SOL    HW219458   1.108   4.130  11.305
 2527SOL     OW19459   1.631   1.145   2.817
 2527SOL    HW119460   1.706   1.137   2.876
 2527SOL    HW219461   1.556   1.121   2.870
 2528SOL     OW19462   0.565   0.102  12.562
 2528SOL    HW119463   0.627   0.088  12.490
 2528SOL    HW219464   0.517   0.181  12.537
 2529SOL     OW19465   0.814   2.914  14.850
 2529SOL    HW119466   0.747   2.880  14.790
 2529SOL    HW219467   0.787   2.882  14.936
 2530SOL     OW19468   2.650   1.731  15.659
 2530SOL    HW119469   2.622   1.822  15.668
 2530SOL    HW219470   2.693   1.711  15.743
 2531SOL     OW19471   1.939   1.754   2.500
 2531SOL    HW119472   1.970   1.665   2.518
 2531SOL    HW219473   2.015   1.798   2.460
 2532SOL     OW19474   0.091   2.202  19.519
 2532SOL    HW119475   4.784   2.220  19.524
 2532SOL    HW219476   0.097   2.115  19.479
 2533SOL     OW19477   4.145   3.917   6.690
 2533SOL    HW119478   4.179   3.985   6.748
 2533SOL    HW219479   4.174   3.835   6.730
 2534SOL     OW19480   0.390   2.898  18.965
 2534SOL    HW119481   0.311   2.888  18.911
 2534SOL    HW219482   0.423   2.985  18.943
 2535SOL     OW19483   3.986   1.244  18.420
 2535SOL    HW119484   4.004   1.162  18.465
 2535SOL    HW219485   3.929   1.292  18.479
 2536SOL     OW19486   1.105   4.691  19.817
 2536SOL    HW119487   1.133   4.672  19.907
 2536SOL    HW219488   1.159   4.766  19.791
 2537SOL     OW19489   4.153   4.709  17.898
 2537SOL    HW119490   4.129   4.726  17.807
 2537SOL    HW219491   4.151   4.614  17.906
 2538SOL     OW19492   2.428   4.448  20.257
 2538SOL    HW119493   2.420   4.379  20.322
 2538SOL    HW219494   2.523   4.461  20.247
 2539SOL     OW19495   2.608   0.493   4.173
 2539SOL    HW119496   2.531   0.528   4.218
 2539SOL    HW219497   2.582   0.404   4.148
 2540SOL     OW19498   1.420   2.745  16.851
 2540SOL    HW119499   1.352   2.685  16.820
 2540SOL    HW219500   1.476   2.691  16.907
 2541SOL     OW19501   4.000   3.030   1.313
 2541SOL    HW119502   3.973   3.012   1.403
 2541SOL    HW219503   4.044   2.949   1.286
 2542SOL     OW19504   3.022   4.282   0.371
 2542SOL    HW119505   2.960   4.297   0.300
 2542SOL    HW219506   3.007   4.191   0.398
 2543SOL     OW19507   4.355   0.467  10.485
 2543SOL    HW119508   4.308   0.443  10.565
 2543SOL    HW219509   4.448   0.458  10.509
 2544SOL     OW19510   3.730   4.376  16.860
 2544SOL    HW119511   3.759   4.284  16.858
 2544SOL    HW219512   3.646   4.375  16.815
 2545SOL     OW19513   2.512   3.511  20.906
 2545SOL    HW119514   2.584   3.456  20.936
 2545SOL    HW219515   2.467   3.537  20.987
 2546SOL     OW19516   2.712   0.852   5.893
 2546SOL    HW119517   2.633   0.907   5.892
 2546SOL    HW219518   2.732   0.838   5.800
 2547SOL     OW19519   2.208   3.050  12.786
 2547SOL    HW119520   2.141   2.982  12.790
 2547SOL    HW219521   2.218   3.067  12.692
 2548SOL     OW19522   0.560   3.541   5.629
 2548SOL    HW119523   0.489   3.486   5.661
 2548SOL    HW219524   0.554   3.535   5.534
 2549SOL     OW19525   1.429   3.580   4.899
 2549SOL    HW119526   1.492   3.515   4.867
 2549SOL    HW219527   1.370   3.595   4.826
 2550SOL     OW19528   3.717   1.135  18.015
 2550SOL    HW119529   3.755   1.195  17.950
 2550SOL    HW219530   3.627   1.166  18.027
 2551SOL     OW19531   0.701   3.879   0.878
 2551SOL    HW119532   0.691   3.810   0.943
 2551SOL    HW219533   0.616   3.923   0.875
 2552SOL     OW19534   3.841   1.035   1.475
 2552SOL    HW119535   3.772   1.066   1.534
 2552SOL    HW219536   3.919   1.032   1.530
 2553SOL     OW19537   4.704   3.118   4.662
 2553SOL    HW119538   0.010   3.112   4.684
 2553SOL    HW219539   4.663   3.152   4.742
 2554SOL     OW19540   1.685   3.581  15.322
 2554SOL    HW119541   1.777   3.556  15.329
 2554SOL    HW219542   1.681   3.641  15.248
 2555SOL     OW19543   3.851   4.707  20.298
 2555SOL    HW119544   3.771   4.685  20.347
 2555SOL    HW219545   3.898   4.766  20.356
 2556SOL     OW19546   2.307   1.738  16.583
 2556SOL    HW119547   2.354   1.782  16.512
 2556SOL    HW219548   2.296   1.648  16.551
 2557SOL     OW19549   4.205   2.441  16.315
 2557SOL    HW119550   4.300   2.449  16.305
 2557SOL    HW219551   4.193   2.412  16.405
 2558SOL     OW19552   0.630   0.262   4.655
 2558SOL    HW119553   0.643   0.231   4.565
 2558SOL    HW219554   0.535   0.263   4.667
 2559SOL     OW19555   1.796   2.821   9.049
 2559SOL    HW119556   1.829   2.895   9.100
 2559SOL    HW219557   1.875   2.772   9.025
 2560SOL     OW19558   3.159   1.663  19.657
 2560SOL    HW119559   3.154   1.633  19.567
 2560SOL    HW219560   3.097   1.607  19.704
 2561SOL     OW19561   1.227   1.793  20.068
 2561SOL    HW119562   1.303   1.843  20.037
 2561SOL    HW219563   1.174   1.781  19.989
 2562SOL     OW19564   3.803   3.519   3.385
 2562SOL    HW119565   3.800   3.568   3.303
 2562SOL    HW219566   3.712   3.492   3.400
 2563SOL     OW19567   3.830   1.078  15.361
 2563SOL    HW119568   3.909   1.024  15.374
 2563SOL    HW219569   3.761   1.015  15.341
 2564SOL     OW19570   1.423   1.281   2.502
 2564SOL    HW119571   1.394   1.342   2.435
 2564SOL    HW219572   1.421   1.196   2.460
 2565SOL     OW19573   2.217   0.240   4.764
 2565SOL    HW119574   2.168   0.189   4.700
 2565SOL    HW219575   2.174   0.325   4.766
 2566SOL     OW19576   1.055   4.289  20.864
 2566SOL    HW119577   1.108   4.217  20.828
 2566SOL    HW219578   0.965   4.262  20.849
 2567SOL     OW19579   3.133   2.065  20.395
 2567SOL    HW119580   3.066   1.999  20.411
 2567SOL    HW219581   3.216   2.019  20.410
 2568SOL     OW19582   2.821   0.283  16.949
 2568SOL    HW119583   2.883   0.298  16.877
 2568SOL    HW219584   2.744   0.334  16.924
 2569SOL     OW19585   1.780   0.848  19.459
 2569SOL    HW119586   1.791   0.753  19.463
 2569SOL    HW219587   1.864   0.880  19.423
 2570SOL     OW19588   1.179   4.547   1.239
 2570SOL    HW119589   1.231   4.586   1.169
 2570SOL    HW219590   1.167   4.618   1.302
 2571SOL     OW19591   3.083   4.116  11.962
 2571SOL    HW119592   3.053   4.182  11.900
 2571SOL    HW219593   3.090   4.162  12.046
 2572SOL     OW19594   3.274   3.016   6.231
 2572SOL    HW119595   3.270   2.986   6.141
 2572SOL    HW219596   3.258   2.937   6.283
 2573SOL     OW19597   0.075   0.975   3.974
 2573SOL    HW119598   0.119   0.966   3.889
 2573SOL    HW219599   0.051   1.068   3.978
 2574SOL     OW19600   4.385   1.025   1.157
 2574SOL    HW119601   4.292   1.036   1.176
 2574SOL    HW219602   4.430   1.070   1.228
 2575SOL     OW19603   4.421   4.596  11.476
 2575SOL    HW119604   4.500   4.555  11.512
 2575SOL    HW219605   4.406   4.672  11.532
 2576SOL     OW19606   0.021   2.696   6.420
 2576SOL    HW119607   0.071   2.615   6.428
 2576SOL    HW219608   4.732   2.672   6.368
 2577SOL     OW19609   0.656   4.461  16.586
 2577SOL    HW119610   0.712   4.516  16.640
 2577SOL    HW219611   0.641   4.513  16.507
 2578SOL     OW19612   0.665   3.319  18.258
 2578SOL    HW119613   0.740   3.263  18.279
 2578SOL    HW219614   0.634   3.352  18.342
 2579SOL     OW19615   0.065   3.345  12.927
 2579SOL    HW119616   0.005   3.319  12.858
 2579SOL    HW219617   0.113   3.265  12.949
 2580SOL     OW19618   1.009   3.093  17.536
 2580SOL    HW119619   1.016   3.187  17.554
 2580SOL    HW219620   0.926   3.067  17.575
 2581SOL     OW19621   2.060   3.725   1.903
 2581SOL    HW119622   2.145   3.763   1.922
 2581SOL    HW219623   1.997   3.794   1.922
 2582SOL     OW19624   3.553   3.876   6.600
 2582SOL    HW119625   3.545   3.826   6.519
 2582SOL    HW219626   3.517   3.817   6.667
 2583SOL     OW19627   4.349   1.891  18.691
 2583SOL    HW119628   4.432   1.870  18.648
 2583SOL    HW219629   4.374   1.945  18.766
 2584SOL     OW19630   3.240   0.607  18.586
 2584SOL    HW119631   3.205   0.523  18.557
 2584SOL    HW219632   3.182   0.673  18.547
 2585SOL     OW19633   0.061   0.609   1.179
 2585SOL    HW119634   0.131   0.569   1.128
 2585SOL    HW219635   0.054   0.698   1.146
 2586SOL     OW19636   0.453   4.624  15.476
 2586SOL    HW119637   0.516   4.678  15.524
 2586SOL    HW219638   0.367   4.661  15.498
 2587SOL     OW19639   2.996   2.609  18.316
 2587SOL    HW119640   2.989   2.534  18.375
 2587SOL    HW219641   3.042   2.575  18.239
 2588SOL     OW19642   1.712   2.856   5.992
 2588SOL    HW119643   1.760   2.783   6.031
 2588SOL    HW219644   1.779   2.909   5.949
 2589SOL     OW19645   3.163   3.983  18.203
 2589SOL    HW119646   3.219   4.015  18.274
 2589SOL    HW219647   3.075   3.986  18.239
 2590SOL     OW19648   0.963   0.755  19.502
 2590SOL    HW119649   0.918   0.782  19.422
 2590SOL    HW219650   0.915   0.678  19.532
 2591SOL     OW19651   2.505   3.419   0.622
 2591SOL    HW119652   2.559   3.492   0.591
 2591SOL    HW219653   2.501   3.431   0.717
 2592SOL     OW19654   1.645   1.496  16.618
 2592SOL    HW119655   1.677   1.583  16.594
 2592SOL    HW219656   1.714   1.460  16.674
 2593SOL     OW19657   0.597   3.086   5.027
 2593SOL    HW119658   0.520   3.141   5.042
 2593SOL    HW219659   0.562   2.996   5.029
 2594SOL     OW19660   0.348   3.996   2.429
 2594SOL    HW119661   0.374   3.977   2.340
 2594SOL    HW219662   0.377   3.921   2.480
 2595SOL     OW19663   1.510   3.412  16.211
 2595SOL    HW119664   1.428   3.380  16.248
 2595SOL    HW219665   1.484   3.474  16.143
 2596SOL     OW19666   3.310   1.663  18.135
 2596SOL    HW119667   3.361   1.612  18.198
 2596SOL    HW219668   3.363   1.665  18.056
 2597SOL     OW19669   0.857   1.974  19.133
 2597SOL    HW119670   0.793   1.915  19.094
 2597SOL    HW219671   0.932   1.918  19.154
 2598SOL     OW19672   2.598   3.937   4.850
 2598SOL    HW119673   2.660   3.947   4.922
 2598SOL    HW219674   2.653   3.917   4.774
 2599SOL     OW19675   1.499   0.286  19.030
 2599SOL    HW119676   1.545   0.256  19.109
 2599SOL    HW219677   1.498   0.209  18.973
 2600SOL     OW19678   0.806   1.613  19.551
 2600SOL    HW119679   0.896   1.609  19.517
 2600SOL    HW219680   0.798   1.701  19.588
 2601SOL     OW19681   0.859   2.462  14.710
 2601SOL    HW119682   0.912   2.538  14.688
 2601SOL    HW219683   0.918   2.388  14.702
 2602SOL     OW19684   0.252   1.248   2.168
 2602SOL    HW119685   0.235   1.175   2.109
 2602SOL    HW219686   0.336   1.284   2.138
 2603SOL     OW19687   0.097   2.852   1.094
 2603SOL    HW119688   0.079   2.899   1.013
 2603SOL    HW219689   0.132   2.918   1.154
 2604SOL     OW19690   0.957   4.742  15.185
 2604SOL    HW119691   1.010   4.679  15.235
 2604SOL    HW219692   1.020   0.016  15.148
 2605SOL     OW19693   0.126   1.274  20.818
 2605SOL    HW119694   0.094   1.359  20.848
 2605SOL    HW219695   0.202   1.256  20.874
 2606SOL     OW19696   3.971   2.607   3.678
 2606SOL    HW119697   3.994   2.685   3.729
 2606SOL    HW219698   3.995   2.534   3.735
 2607SOL     OW19699   3.053   1.172   2.861
 2607SOL    HW119700   3.008   1.172   2.945
 2607SOL    HW219701   2.986   1.196   2.797
 2608SOL     OW19702   2.777   4.489  18.490
 2608SOL    HW119703   2.725   4.446  18.422
 2608SOL    HW219704   2.828   4.555  18.443
 2609SOL     OW19705   1.080   3.042  18.272
 2609SOL    HW119706   1.016   3.057  18.341
 2609SOL    HW219707   1.066   3.113  18.210
 2610SOL     OW19708   2.788   2.950  13.074
 2610SOL    HW119709   2.809   3.020  13.136
 2610SOL    HW219710   2.738   2.887  13.126
 2611SOL     OW19711   0.841   0.183  20.891
 2611SOL    HW119712   0.902   0.253  20.916
 2611SOL    HW219713   0.761   0.202  20.940
 2612SOL     OW19714   1.146   1.448   3.267
 2612SOL    HW119715   1.080   1.390   3.303
 2612SOL    HW219716   1.097   1.523   3.233
 2613SOL     OW19717   3.946   3.431  20.112
 2613SOL    HW119718   3.855   3.454  20.090
 2613SOL    HW219719   3.942   3.402  20.203
 2614SOL     OW19720   1.851   1.783   1.865
 2614SOL    HW119721   1.925   1.840   1.886
 2614SOL    HW219722   1.782   1.811   1.925
 2615SOL     OW19723   0.990   0.374   1.022
 2615SOL    HW119724   0.971   0.447   0.964
 2615SOL    HW219725   0.927   0.307   0.999
 2616SOL     OW19726   4.494   4.772  21.057
 2616SOL    HW119727   4.541   4.702  21.012
 2616SOL    HW219728   4.452   0.035  20.987
 2617SOL     OW19729   1.281   3.209   3.387
 2617SOL    HW119730   1.297   3.140   3.451
 2617SOL    HW219731   1.360   3.263   3.390
 2618SOL     OW19732   2.317   0.983   9.762
 2618SOL    HW119733   2.328   0.930   9.684
 2618SOL    HW219734   2.294   0.920   9.831
 2619SOL     OW19735   3.428   4.412   4.463
 2619SOL    HW119736   3.375   4.469   4.408
 2619SOL    HW219737   3.403   4.435   4.553
 2620SOL     OW19738   1.067   0.492   0.629
 2620SOL    HW119739   1.092   0.582   0.610
 2620SOL    HW219740   1.148   0.451   0.658
 2621SOL     OW19741   1.699   4.434  19.870
 2621SOL    HW119742   1.759   4.464  19.803
 2621SOL    HW219743   1.649   4.512  19.895
 2622SOL     OW19744   2.052   4.430   6.603
 2622SOL    HW119745   1.997   4.402   6.677
 2622SOL    HW219746   2.054   4.526   6.610
 2623SOL     OW19747   0.314   1.894  18.204
 2623SOL    HW119748   0.220   1.878  18.216
 2623SOL    HW219749   0.323   1.989  18.210
 2624SOL     OW19750   2.418   3.716   3.317
 2624SOL    HW119751   2.449   3.748   3.402
 2624SOL    HW219752   2.490   3.663   3.284
 2625SOL     OW19753   2.012   0.389   4.092
 2625SOL    HW119754   2.105   0.412   4.093
 2625SOL    HW219755   1.967   0.468   4.122
 2626SOL     OW19756   3.243   2.483  17.477
 2626SOL    HW119757   3.155   2.487  17.441
 2626SOL    HW219758   3.236   2.522  17.564
 2627SOL     OW19759   1.431   0.740   3.561
 2627SOL    HW119760   1.510   0.763   3.511
 2627SOL    HW219761   1.425   0.645   3.552
 2628SOL     OW19762   0.147   1.096  19.083
 2628SOL    HW119763   0.205   1.112  19.158
 2628SOL    HW219764   0.189   1.025  19.034
 2629SOL     OW19765   1.360   2.439   1.854
 2629SOL    HW119766   1.265   2.448   1.845
 2629SOL    HW219767   1.377   2.461   1.946
 2630SOL     OW19768   1.144   1.656   2.967
 2630SOL    HW119769   1.090   1.664   3.046
 2630SOL    HW219770   1.111   1.576   2.925
 2631SOL     OW19771   0.269   1.712   2.441
 2631SOL    HW119772   0.282   1.701   2.535
 2631SOL    HW219773   0.200   1.651   2.419
 2632SOL     OW19774   2.627   3.565   3.541
 2632SOL    HW119775   2.715   3.542   3.570
 2632SOL    HW219776   2.636   3.583   3.448
 2633SOL     OW19777   0.368   3.740  17.045
 2633SOL    HW119778   0.299   3.675  17.060
 2633SOL    HW219779   0.320   3.821  17.026
 2634SOL     OW19780   0.171   2.496  17.344
 2634SOL    HW119781   0.193   2.579  17.300
 2634SOL    HW219782   0.171   2.518  17.437
 2635SOL     OW19783   0.516   3.906  18.433
 2635SOL    HW119784   0.514   3.930  18.526
 2635SOL    HW219785   0.546   3.815  18.433
 2636SOL     OW19786   0.660   3.288  17.578
 2636SOL    HW119787   0.661   3.374  17.618
 2636SOL    HW219788   0.667   3.305  17.484
 2637SOL     OW19789   1.873   0.843   5.526
 2637SOL    HW119790   1.824   0.838   5.608
 2637SOL    HW219791   1.927   0.764   5.525
 2638SOL     OW19792   2.378   4.431   0.167
 2638SOL    HW119793   2.422   4.449   0.250
 2638SOL    HW219794   2.312   4.365   0.190
 2639SOL     OW19795   3.807   2.668  16.128
 2639SOL    HW119796   3.737   2.734  16.122
 2639SOL    HW219797   3.829   2.650  16.037
 2640SOL     OW19798   4.758   1.426   8.109
 2640SOL    HW119799   0.011   1.447   8.024
 2640SOL    HW219800   4.736   1.333   8.102
 2641SOL     OW19801   4.596   1.951  20.470
 2641SOL    HW119802   4.525   1.988  20.522
 2641SOL    HW219803   4.616   2.018  20.405
 2642SOL     OW19804   3.003   0.389   1.731
 2642SOL    HW119805   2.954   0.430   1.660
 2642SOL    HW219806   2.986   0.295   1.720
 2643SOL     OW19807   3.891   3.856  17.075
 2643SOL    HW119808   3.925   3.767  17.074
 2643SOL    HW219809   3.804   3.849  17.115
 2644SOL     OW19810   0.368   2.881   6.791
 2644SOL    HW119811   0.275   2.888   6.773
 2644SOL    HW219812   0.411   2.901   6.708
 2645SOL     OW19813   2.997   3.435   6.485
 2645SOL    HW119814   3.013   3.445   6.391
 2645SOL    HW219815   2.902   3.423   6.492
 2646SOL     OW19816   3.055   1.905   5.833
 2646SOL    HW119817   3.077   1.812   5.832
 2646SOL    HW219818   3.115   1.944   5.770
 2647SOL     OW19819   1.394   2.678   2.322
 2647SOL    HW119820   1.306   2.704   2.352
 2647SOL    HW219821   1.448   2.684   2.400
 2648SOL     OW19822   3.649   3.265   1.011
 2648SOL    HW119823   3.632   3.338   1.071
 2648SOL    HW219824   3.617   3.188   1.057
 2649SOL     OW19825   4.008   3.206   6.783
 2649SOL    HW119826   4.051   3.171   6.861
 2649SOL    HW219827   3.918   3.223   6.811
 2650SOL     OW19828   2.875   0.550   1.543
 2650SOL    HW119829   2.896   0.643   1.545
 2650SOL    HW219830   2.851   0.532   1.452
 2651SOL     OW19831   3.778   4.118   3.242
 2651SOL    HW119832   3.794   4.046   3.303
 2651SOL    HW219833   3.763   4.076   3.158
 2652SOL     OW19834   3.119   0.688   1.146
 2652SOL    HW119835   3.179   0.739   1.092
 2652SOL    HW219836   3.115   0.602   1.103
 2653SOL     OW19837   2.316   2.583   0.639
 2653SOL    HW119838   2.388   2.636   0.672
 2653SOL    HW219839   2.348   2.550   0.555
 2654SOL     OW19840   1.265   3.556  18.775
 2654SOL    HW119841   1.171   3.562  18.759
 2654SOL    HW219842   1.272   3.516  18.862
 2655SOL     OW19843   2.967   2.695   7.557
 2655SOL    HW119844   3.012   2.631   7.612
 2655SOL    HW219845   2.890   2.648   7.524
 2656SOL     OW19846   4.176   0.070   5.989
 2656SOL    HW119847   4.174   0.070   5.893
 2656SOL    HW219848   4.209   4.771   6.013
 2657SOL     OW19849   4.513   3.250   5.797
 2657SOL    HW119850   4.461   3.213   5.868
 2657SOL    HW219851   4.454   3.250   5.722
 2658SOL     OW19852   0.496   2.872  18.081
 2658SOL    HW119853   0.485   2.942  18.145
 2658SOL    HW219854   0.575   2.826  18.109
 2659SOL     OW19855   1.624   3.253   4.409
 2659SOL    HW119856   1.620   3.317   4.337
 2659SOL    HW219857   1.608   3.306   4.488
 2660SOL     OW19858   2.096   3.810  16.325
 2660SOL    HW119859   2.130   3.854  16.403
 2660SOL    HW219860   2.007   3.845  16.314
 2661SOL     OW19861   0.357   0.330  16.811
 2661SOL    HW119862   0.359   0.314  16.905
 2661SOL    HW219863   0.305   0.257  16.776
 2662SOL     OW19864   1.233   4.782  15.715
 2662SOL    HW119865   1.188   4.743  15.791
 2662SOL    HW219866   1.314   0.032  15.751
 2663SOL     OW19867   4.147   3.801  16.397
 2663SOL    HW119868   4.164   3.808  16.491
 2663SOL    HW219869   4.231   3.774  16.360
 2664SOL     OW19870   3.464   4.278  21.132
 2664SOL    HW119871   3.522   4.319  21.196
 2664SOL    HW219872   3.513   4.202  21.101
 2665SOL     OW19873   3.930   3.208   5.289
 2665SOL    HW119874   3.937   3.303   5.292
 2665SOL    HW219875   3.854   3.188   5.343
 2666SOL     OW19876   1.285   3.115  13.987
 2666SOL    HW119877   1.367   3.133  13.941
 2666SOL    HW219878   1.277   3.186  14.051
 2667SOL     OW19879   4.730   1.752  16.174
 2667SOL    HW119880   4.671   1.808  16.124
 2667SOL    HW219881   4.724   1.667  16.131
 2668SOL     OW19882   4.079   0.772   4.003
 2668SOL    HW119883   4.084   0.680   3.975
 2668SOL    HW219884   4.096   0.822   3.923
 2669SOL     OW19885   3.948   3.565   6.461
 2669SOL    HW119886   3.864   3.545   6.502
 2669SOL    HW219887   4.013   3.530   6.522
 2670SOL     OW19888   3.601   0.660   0.922
 2670SOL    HW119889   3.643   0.602   0.858
 2670SOL    HW219890   3.510   0.630   0.925
 2671SOL     OW19891   0.903   1.890  18.438
 2671SOL    HW119892   0.895   1.901  18.343
 2671SOL    HW219893   0.983   1.839  18.449
 2672SOL     OW19894   3.003   4.784   0.826
 2672SOL    HW119895   3.081   0.051   0.815
 2672SOL    HW219896   2.967   4.776   0.738
 2673SOL     OW19897   1.680   2.239   4.601
 2673SOL    HW119898   1.636   2.266   4.520
 2673SOL    HW219899   1.694   2.145   4.591
 2674SOL     OW19900   1.567   1.966  18.116
 2674SOL    HW119901   1.617   2.014  18.181
 2674SOL    HW219902   1.478   1.963  18.152
 2675SOL     OW19903   0.167   3.347  18.394
 2675SOL    HW119904   0.158   3.437  18.425
 2675SOL    HW219905   0.246   3.349  18.340
 2676SOL     OW19906   0.447   4.564  13.305
 2676SOL    HW119907   0.524   4.590  13.255
 2676SOL    HW219908   0.404   4.499  13.250
 2677SOL     OW19909   3.609   4.476  20.989
 2677SOL    HW119910   3.693   4.433  20.977
 2677SOL    HW219911   3.550   4.408  21.020
 2678SOL     OW19912   0.405   1.159   1.825
 2678SOL    HW119913   0.461   1.083   1.812
 2678SOL    HW219914   0.428   1.219   1.755
 2679SOL     OW19915   4.171   4.650   4.153
 2679SOL    HW119916   4.119   4.580   4.192
 2679SOL    HW219917   4.107   4.715   4.124
 2680SOL     OW19918   3.258   4.258   4.240
 2680SOL    HW119919   3.341   4.228   4.202
 2680SOL    HW219920   3.275   4.348   4.266
 2681SOL     OW19921   4.087   4.048  17.040
 2681SOL    HW119922   4.056   4.138  17.050
 2681SOL    HW219923   4.012   3.994  17.062
 2682SOL     OW19924   0.517   2.815  16.998
 2682SOL    HW119925   0.514   2.750  17.068
 2682SOL    HW219926   0.429   2.852  16.996
 2683SOL     OW19927   4.748   3.162   6.842
 2683SOL    HW119928   4.679   3.097   6.852
 2683SOL    HW219929   4.749   3.181   6.748
 2684SOL     OW19930   1.768   1.963  10.892
 2684SOL    HW119931   1.767   1.868  10.888
 2684SOL    HW219932   1.833   1.990  10.826
 2685SOL     OW19933   1.702   0.334  21.165
 2685SOL    HW119934   1.651   0.408  21.134
 2685SOL    HW219935   1.701   0.341   0.016
 2686SOL     OW19936   0.151   1.533   3.654
 2686SOL    HW119937   0.232   1.543   3.703
 2686SOL    HW219938   0.148   1.441   3.630
 2687SOL     OW19939   3.283   4.516   5.003
 2687SOL    HW119940   3.244   4.541   5.087
 2687SOL    HW219941   3.282   4.420   5.004
 2688SOL     OW19942   0.489   4.629   1.583
 2688SOL    HW119943   0.403   4.636   1.541
 2688SOL    HW219944   0.469   4.605   1.674
 2689SOL     OW19945   0.449   0.970  20.647
 2689SOL    HW119946   0.390   0.895  20.640
 2689SOL    HW219947   0.393   1.046  20.637
 2690SOL     OW19948   2.092   4.035  13.307
 2690SOL    HW119949   2.049   3.985  13.377
 2690SOL    HW219950   2.050   4.121  13.310
 2691SOL     OW19951   3.589   2.980  20.262
 2691SOL    HW119952   3.635   2.900  20.235
 2691SOL    HW219953   3.529   2.950  20.331
 2692SOL     OW19954   0.193   4.684   4.434
 2692SOL    HW119955   0.107   4.680   4.476
 2692SOL    HW219956   0.176   4.717   4.346
 2693SOL     OW19957   0.394   1.241  20.977
 2693SOL    HW119958   0.473   1.205  21.017
 2693SOL    HW219959   0.410   1.336  20.974
 2694SOL     OW19960   1.870   0.698   2.681
 2694SOL    HW119961   1.931   0.757   2.725
 2694SOL    HW219962   1.784   0.740   2.691
 2695SOL     OW19963   4.572   2.303   3.493
 2695SOL    HW119964   4.633   2.229   3.501
 2695SOL    HW219965   4.552   2.328   3.583
 2696SOL     OW19966   0.817   0.657   8.071
 2696SOL    HW119967   0.809   0.591   8.140
 2696SOL    HW219968   0.774   0.617   7.995
 2697SOL     OW19969   2.803   3.974  14.543
 2697SOL    HW119970   2.889   4.006  14.516
 2697SOL    HW219971   2.751   4.054  14.556
 2698SOL     OW19972   4.752   3.304   1.270
 2698SOL    HW119973   0.050   3.338   1.297
 2698SOL    HW219974   4.693   3.378   1.276
 2699SOL     OW19975   1.685   0.432   5.471
 2699SOL    HW119976   1.639   0.434   5.387
 2699SOL    HW219977   1.637   0.367   5.523
 2700SOL     OW19978   0.060   1.078  16.542
 2700SOL    HW119979   0.106   1.158  16.518
 2700SOL    HW219980   0.103   1.048  16.621
 2701SOL     OW19981   1.454   3.282  17.973
 2701SOL    HW119982   1.549   3.282  17.963
 2701SOL    HW219983   1.429   3.190  17.971
 2702SOL     OW19984   4.346   1.685  19.036
 2702SOL    HW119985   4.408   1.708  18.966
 2702SOL    HW219986   4.302   1.607  19.004
 2703SOL     OW19987   4.707   3.422  14.488
 2703SOL    HW119988   4.644   3.492  14.503
 2703SOL    HW219989   4.698   3.401  14.395
 2704SOL     OW19990   0.738   0.005  19.402
 2704SOL    HW119991   0.645   4.769  19.405
 2704SOL    HW219992   0.782   4.719  19.446
 2705SOL     OW19993   3.179   3.381  20.177
 2705SOL    HW119994   3.176   3.314  20.109
 2705SOL    HW219995   3.237   3.449  20.142
 2706SOL     OW19996   1.094   1.277   6.319
 2706SOL    HW119997   1.113   1.333   6.394
 2706SOL    HW219998   1.115   1.189   6.349
 2707SOL     OW19999   0.859   0.774   2.332
 2707SOL    HW120000   0.946   0.735   2.322
 2707SOL    HW220001   0.873   0.849   2.390
 2708SOL     OW20002   1.686   3.196  19.017
 2708SOL    HW120003   1.632   3.127  18.980
 2708SOL    HW220004   1.644   3.218  19.100
 2709SOL     OW20005   3.407   3.107   0.414
 2709SOL    HW120006   3.422   3.202   0.411
 2709SOL    HW220007   3.468   3.071   0.349
 2710SOL     OW20008   4.005   1.425  20.687
 2710SOL    HW120009   4.000   1.391  20.776
 2710SOL    HW220010   4.086   1.389  20.652
 2711SOL     OW20011   0.579   4.474  15.023
 2711SOL    HW120012   0.642   4.529  14.976
 2711SOL    HW220013   0.558   4.526  15.101
 2712SOL     OW20014   2.423   0.774  12.910
 2712SOL    HW120015   2.366   0.840  12.872
 2712SOL    HW220016   2.382   0.691  12.887
 2713SOL     OW20017   2.175   4.591  13.521
 2713SOL    HW120018   2.101   4.621  13.572
 2713SOL    HW220019   2.250   4.596  13.581
 2714SOL     OW20020   2.509   2.443   1.836
 2714SOL    HW120021   2.440   2.507   1.848
 2714SOL    HW220022   2.587   2.484   1.874
 2715SOL     OW20023   1.298   0.387  16.552
 2715SOL    HW120024   1.312   0.385  16.458
 2715SOL    HW220025   1.369   0.443  16.586
 2716SOL     OW20026   0.360   0.838  18.324
 2716SOL    HW120027   0.335   0.768  18.263
 2716SOL    HW220028   0.277   0.879  18.348
 2717SOL     OW20029   3.668   0.368   3.820
 2717SOL    HW120030   3.706   0.281   3.811
 2717SOL    HW220031   3.618   0.364   3.902
 2718SOL     OW20032   1.836   4.707   2.584
 2718SOL    HW120033   1.752   4.659   2.585
 2718SOL    HW220034   1.817   0.002   2.629
 2719SOL     OW20035   2.026   3.833   6.185
 2719SOL    HW120036   2.075   3.773   6.241
 2719SOL    HW220037   2.091   3.897   6.155
 2720SOL     OW20038   2.172   0.373  20.012
 2720SOL    HW120039   2.267   0.379  20.011
 2720SOL    HW220040   2.153   0.301  20.072
 2721SOL     OW20041   4.127   2.634  14.927
 2721SOL    HW120042   4.051   2.693  14.931
 2721SOL    HW220043   4.131   2.594  15.013
 2722SOL     OW20044   1.417   3.808   5.465
 2722SOL    HW120045   1.494   3.862   5.448
 2722SOL    HW220046   1.393   3.772   5.379
 2723SOL     OW20047   0.172   2.411  18.949
 2723SOL    HW120048   0.252   2.438  18.995
 2723SOL    HW220049   0.203   2.369  18.869
 2724SOL     OW20050   1.852   1.417  19.733
 2724SOL    HW120051   1.782   1.411  19.668
 2724SOL    HW220052   1.930   1.387  19.687
 2725SOL     OW20053   2.648   1.443   1.343
 2725SOL    HW120054   2.624   1.480   1.428
 2725SOL    HW220055   2.742   1.458   1.336
 2726SOL     OW20056   1.845   0.532   2.012
 2726SOL    HW120057   1.750   0.526   2.015
 2726SOL    HW220058   1.866   0.616   2.053
 2727SOL     OW20059   2.830   2.892   3.139
 2727SOL    HW120060   2.831   2.871   3.232
 2727SOL    HW220061   2.919   2.872   3.109
 2728SOL     OW20062   0.943   3.183  13.875
 2728SOL    HW120063   1.002   3.257  13.867
 2728SOL    HW220064   0.993   3.117  13.923
 2729SOL     OW20065   0.709   3.145   3.492
 2729SOL    HW120066   0.653   3.219   3.516
 2729SOL    HW220067   0.751   3.119   3.574
 2730SOL     OW20068   4.136   0.371  15.116
 2730SOL    HW120069   4.134   0.461  15.148
 2730SOL    HW220070   4.051   0.335  15.139
 2731SOL     OW20071   0.709   3.220  21.100
 2731SOL    HW120072   0.740   3.225  21.009
 2731SOL    HW220073   0.776   3.169  21.145
 2732SOL     OW20074   2.716   3.301  19.139
 2732SOL    HW120075   2.672   3.293  19.054
 2732SOL    HW220076   2.773   3.377  19.130
 2733SOL     OW20077   2.648   3.552  18.703
 2733SOL    HW120078   2.742   3.563  18.694
 2733SOL    HW220079   2.637   3.461  18.733
 2734SOL     OW20080   4.280   2.800  14.450
 2734SOL    HW120081   4.218   2.839  14.512
 2734SOL    HW220082   4.342   2.870  14.431
 2735SOL     OW20083   0.105   1.938   6.200
 2735SOL    HW120084   0.127   1.847   6.178
 2735SOL    HW220085   0.135   1.988   6.124
 2736SOL     OW20086   2.609   0.766   8.872
 2736SOL    HW120087   2.553   0.699   8.832
 2736SOL    HW220088   2.595   0.844   8.819
 2737SOL     OW20089   2.172   4.312  16.530
 2737SOL    HW120090   2.197   4.298  16.622
 2737SOL    HW220091   2.111   4.241  16.511
 2738SOL     OW20092   1.975   0.844  20.669
 2738SOL    HW120093   1.973   0.810  20.759
 2738SOL    HW220094   2.026   0.925  20.675
 2739SOL     OW20095   4.639   4.408   4.533
 2739SOL    HW120096   4.715   4.442   4.486
 2739SOL    HW220097   4.575   4.479   4.532
 2740SOL     OW20098   0.415   0.391   4.906
 2740SOL    HW120099   0.359   0.393   4.984
 2740SOL    HW220100   0.449   0.479   4.899
 2741SOL     OW20101   0.572   2.815   0.599
 2741SOL    HW120102   0.521   2.876   0.652
 2741SOL    HW220103   0.515   2.794   0.525
 2742SOL     OW20104   2.542   2.361   4.979
 2742SOL    HW120105   2.595   2.308   5.039
 2742SOL    HW220106   2.464   2.384   5.029
 2743SOL     OW20107   0.026   4.008  21.011
 2743SOL    HW120108   0.045   3.999  20.918
 2743SOL    HW220109   4.718   4.023  21.015
 2744SOL     OW20110   3.102   3.468  16.632
 2744SOL    HW120111   3.108   3.479  16.538
 2744SOL    HW220112   3.179   3.512  16.667
 2745SOL     OW20113   3.505   1.256  15.781
 2745SOL    HW120114   3.434   1.287  15.726
 2745SOL    HW220115   3.555   1.335  15.804
 2746SOL     OW20116   3.693   2.838  18.311
 2746SOL    HW120117   3.782   2.805  18.325
 2746SOL    HW220118   3.644   2.807  18.387
 2747SOL     OW20119   3.538   4.391  19.103
 2747SOL    HW120120   3.485   4.311  19.110
 2747SOL    HW220121   3.619   4.371  19.150
 2748SOL     OW20122   3.707   3.630   7.557
 2748SOL    HW120123   3.758   3.667   7.484
 2748SOL    HW220124   3.646   3.700   7.581
 2749SOL     OW20125   1.988   1.445   0.065
 2749SOL    HW120126   1.947   1.392  21.240
 2749SOL    HW220127   1.930   1.435   0.140
 2750SOL     OW20128   2.678   3.598   5.134
 2750SOL    HW120129   2.641   3.634   5.215
 2750SOL    HW220130   2.713   3.512   5.160
 2751SOL     OW20131   1.795   4.467  18.643
 2751SOL    HW120132   1.751   4.525  18.581
 2751SOL    HW220133   1.834   4.526  18.707
 2752SOL     OW20134   1.359   1.772  16.017
 2752SOL    HW120135   1.428   1.777  16.083
 2752SOL    HW220136   1.406   1.776  15.933
 2753SOL     OW20137   3.816   2.475   4.136
 2753SOL    HW120138   3.891   2.462   4.193
 2753SOL    HW220139   3.786   2.387   4.115
 2754SOL     OW20140   0.920   2.345  20.783
 2754SOL    HW120141   0.862   2.271  20.803
 2754SOL    HW220142   1.007   2.315  20.809
 2755SOL     OW20143   1.221   2.904  17.906
 2755SOL    HW120144   1.249   2.921  17.816
 2755SOL    HW220145   1.164   2.978  17.927
 2756SOL     OW20146   2.107   4.204   3.237
 2756SOL    HW120147   2.049   4.175   3.167
 2756SOL    HW220148   2.156   4.125   3.261
 2757SOL     OW20149   0.582   0.282  20.775
 2757SOL    HW120150   0.605   0.342  20.845
 2757SOL    HW220151   0.652   0.290  20.711
 2758SOL     OW20152   2.127   0.428   5.187
 2758SOL    HW120153   2.079   0.443   5.269
 2758SOL    HW220154   2.061   0.443   5.119
 2759SOL     OW20155   4.676   4.426   0.635
 2759SOL    HW120156   4.588   4.399   0.610
 2759SOL    HW220157   4.729   4.410   0.557
 2760SOL     OW20158   4.393   1.790  16.908
 2760SOL    HW120159   4.346   1.842  16.843
 2760SOL    HW220160   4.447   1.853  16.955
 2761SOL     OW20161   3.138   1.877  16.371
 2761SOL    HW120162   3.118   1.902  16.462
 2761SOL    HW220163   3.224   1.835  16.377
 2762SOL     OW20164   3.619   1.279   1.783
 2762SOL    HW120165   3.699   1.231   1.761
 2762SOL    HW220166   3.633   1.367   1.747
 2763SOL     OW20167   2.391   2.939   5.590
 2763SOL    HW120168   2.316   2.984   5.552
 2763SOL    HW220169   2.460   3.006   5.594
 2764SOL     OW20170   1.763   3.048   4.652
 2764SOL    HW120171   1.816   2.988   4.705
 2764SOL    HW220172   1.784   3.025   4.561
 2765SOL     OW20173   1.421   1.937   2.701
 2765SOL    HW120174   1.487   1.984   2.752
 2765SOL    HW220175   1.344   1.936   2.758
 2766SOL     OW20176   2.708   3.456   4.010
 2766SOL    HW120177   2.753   3.534   3.976
 2766SOL    HW220178   2.773   3.386   4.003
 2767SOL     OW20179   4.600   1.992  15.537
 2767SOL    HW120180   4.646   1.954  15.612
 2767SOL    HW220181   4.522   2.032  15.575
 2768SOL     OW20182   4.585   0.136  14.506
 2768SOL    HW120183   4.503   0.127  14.457
 2768SOL    HW220184   4.653   0.137  14.438
 2769SOL     OW20185   2.776   4.077   3.786
 2769SOL    HW120186   2.800   3.989   3.815
 2769SOL    HW220187   2.683   4.085   3.808
 2770SOL     OW20188   3.209   1.302  16.218
 2770SOL    HW120189   3.126   1.258  16.200
 2770SOL    HW220190   3.271   1.261  16.157
 2771SOL     OW20191   3.799   0.731   4.081
 2771SOL    HW120192   3.877   0.767   4.037
 2771SOL    HW220193   3.806   0.636   4.068
 2772SOL     OW20194   3.519   3.284   2.683
 2772SOL    HW120195   3.530   3.377   2.664
 2772SOL    HW220196   3.467   3.250   2.611
 2773SOL     OW20197   3.297   4.717  20.141
 2773SOL    HW120198   3.295   4.786  20.074
 2773SOL    HW220199   3.359   4.653  20.107
 2774SOL     OW20200   1.341   3.315   6.354
 2774SOL    HW120201   1.272   3.346   6.296
 2774SOL    HW220202   1.412   3.378   6.343
 2775SOL     OW20203   1.040   2.434  19.033
 2775SOL    HW120204   1.092   2.511  19.010
 2775SOL    HW220205   0.956   2.447  18.988
 2776SOL     OW20206   0.614   2.668   6.073
 2776SOL    HW120207   0.620   2.577   6.043
 2776SOL    HW220208   0.547   2.707   6.017
 2777SOL     OW20209   2.820   4.294   0.205
 2777SOL    HW120210   2.725   4.287   0.192
 2777SOL    HW220211   2.858   4.250   0.129
 2778SOL     OW20212   4.368   1.372  17.014
 2778SOL    HW120213   4.398   1.348  17.102
 2778SOL    HW220214   4.330   1.292  16.979
 2779SOL     OW20215   3.524   4.494  20.137
 2779SOL    HW120216   3.547   4.442  20.061
 2779SOL    HW220217   3.444   4.452  20.171
 2780SOL     OW20218   3.480   3.424  19.171
 2780SOL    HW120219   3.542   3.355  19.149
 2780SOL    HW220220   3.468   3.418  19.266
 2781SOL     OW20221   2.550   4.316   0.662
 2781SOL    HW120222   2.566   4.244   0.723
 2781SOL    HW220223   2.619   4.380   0.682
 2782SOL     OW20224   1.045   2.810   2.815
 2782SOL    HW120225   1.084   2.842   2.734
 2782SOL    HW220226   1.092   2.856   2.884
 2783SOL     OW20227   1.722   1.234  18.504
 2783SOL    HW120228   1.785   1.306  18.515
 2783SOL    HW220229   1.766   1.173  18.445
 2784SOL     OW20230   1.009   4.587  12.847
 2784SOL    HW120231   1.021   4.601  12.753
 2784SOL    HW220232   1.060   4.508  12.866
 2785SOL     OW20233   4.505   3.583  20.971
 2785SOL    HW120234   4.574   3.568  20.906
 2785SOL    HW220235   4.425   3.551  20.929
 2786SOL     OW20236   2.207   1.880  18.846
 2786SOL    HW120237   2.122   1.857  18.882
 2786SOL    HW220238   2.263   1.805  18.866
 2787SOL     OW20239   0.097   0.740  16.701
 2787SOL    HW120240   0.175   0.716  16.651
 2787SOL    HW220241   0.107   0.833  16.718
 2788SOL     OW20242   2.866   2.331  15.528
 2788SOL    HW120243   2.850   2.393  15.457
 2788SOL    HW220244   2.901   2.383  15.599
 2789SOL     OW20245   0.434   2.110  19.803
 2789SOL    HW120246   0.509   2.051  19.804
 2789SOL    HW220247   0.442   2.158  19.721
 2790SOL     OW20248   4.220   3.289  15.953
 2790SOL    HW120249   4.238   3.379  15.980
 2790SOL    HW220250   4.143   3.264  16.004
 2791SOL     OW20251   3.238   0.378  16.216
 2791SOL    HW120252   3.305   0.445  16.226
 2791SOL    HW220253   3.227   0.341  16.304
 2792SOL     OW20254   0.911   0.002   5.666
 2792SOL    HW120255   1.006   0.015   5.667
 2792SOL    HW220256   0.891   4.752   5.752
 2793SOL     OW20257   0.842   1.584  20.467
 2793SOL    HW120258   0.823   1.579  20.561
 2793SOL    HW220259   0.937   1.583  20.462
 2794SOL     OW20260   2.733   2.546   1.909
 2794SOL    HW120261   2.820   2.528   1.945
 2794SOL    HW220262   2.712   2.634   1.941
 2795SOL     OW20263   1.052   2.778  16.629
 2795SOL    HW120264   0.985   2.724  16.587
 2795SOL    HW220265   1.112   2.716  16.669
 2796SOL     OW20266   2.072   1.248  17.945
 2796SOL    HW120267   1.982   1.265  17.972
 2796SOL    HW220268   2.076   1.154  17.929
 2797SOL     OW20269   2.647   0.165   5.472
 2797SOL    HW120270   2.614   0.116   5.397
 2797SOL    HW220271   2.661   0.099   5.540
 2798SOL     OW20272   4.173   1.963  17.823
 2798SOL    HW120273   4.176   1.868  17.839
 2798SOL    HW220274   4.225   2.001  17.893
 2799SOL     OW20275   3.286   3.178   4.471
 2799SOL    HW120276   3.265   3.094   4.430
 2799SOL    HW220277   3.286   3.160   4.565
 2800SOL     OW20278   0.087   0.869   6.421
 2800SOL    HW120279   0.017   0.932   6.402
 2800SOL    HW220280   0.136   0.909   6.493
 2801SOL     OW20281   2.081   1.366   6.524
 2801SOL    HW120282   2.068   1.438   6.585
 2801SOL    HW220283   2.176   1.362   6.511
 2802SOL     OW20284   0.574   4.235  15.131
 2802SOL    HW120285   0.481   4.236  15.150
 2802SOL    HW220286   0.592   4.321  15.093
 2803SOL     OW20287   4.262   3.422   4.309
 2803SOL    HW120288   4.287   3.330   4.315
 2803SOL    HW220289   4.341   3.467   4.280
 2804SOL     OW20290   2.343   2.726  18.373
 2804SOL    HW120291   2.291   2.708  18.295
 2804SOL    HW220292   2.374   2.816  18.362
 2805SOL     OW20293   2.535   2.448  19.704
 2805SOL    HW120294   2.485   2.473  19.626
 2805SOL    HW220295   2.546   2.354  19.696
 2806SOL     OW20296   3.459   2.092  19.784
 2806SOL    HW120297   3.409   2.010  19.787
 2806SOL    HW220298   3.473   2.114  19.876
 2807SOL     OW20299   2.853   1.540   0.817
 2807SOL    HW120300   2.789   1.490   0.867
 2807SOL    HW220301   2.858   1.624   0.861
 2808SOL     OW20302   2.332   1.571  17.821
 2808SOL    HW120303   2.308   1.498  17.764
 2808SOL    HW220304   2.420   1.549  17.852
 2809SOL     OW20305   4.292   1.619   5.021
 2809SOL    HW120306   4.213   1.661   4.987
 2809SOL    HW220307   4.266   1.584   5.106
 2810SOL     OW20308   0.968   3.181  16.608
 2810SOL    HW120309   0.884   3.142  16.630
 2810SOL    HW220310   0.949   3.275  16.599
 2811SOL     OW20311   0.645   4.509  16.191
 2811SOL    HW120312   0.713   4.575  16.173
 2811SOL    HW220313   0.648   4.451  16.115
 2812SOL     OW20314   2.068   1.379  19.546
 2812SOL    HW120315   2.100   1.303  19.595
 2812SOL    HW220316   2.106   1.369  19.459
 2813SOL     OW20317   4.753   0.649   6.013
 2813SOL    HW120318   4.744   0.670   5.920
 2813SOL    HW220319   4.666   0.663   6.049
 2814SOL     OW20320   2.846   2.761   3.426
 2814SOL    HW120321   2.939   2.783   3.428
 2814SOL    HW220322   2.807   2.814   3.495
 2815SOL     OW20323   0.685   0.474  15.611
 2815SOL    HW120324   0.636   0.407  15.657
 2815SOL    HW220325   0.620   0.542  15.592
 2816SOL     OW20326   3.973   0.422  17.952
 2816SOL    HW120327   4.029   0.366  18.007
 2816SOL    HW220328   3.973   0.506  17.997
 2817SOL     OW20329   0.748   3.262  16.420
 2817SOL    HW120330   0.691   3.322  16.372
 2817SOL    HW220331   0.694   3.183  16.433
 2818SOL     OW20332   1.438   4.124   1.181
 2818SOL    HW120333   1.511   4.171   1.141
 2818SOL    HW220334   1.361   4.176   1.158
 2819SOL     OW20335   4.625   0.768   6.686
 2819SOL    HW120336   4.646   0.700   6.623
 2819SOL    HW220337   4.650   0.732   6.771
 2820SOL     OW20338   2.697   0.403  20.105
 2820SOL    HW120339   2.746   0.483  20.127
 2820SOL    HW220340   2.681   0.361  20.190
 2821SOL     OW20341   4.164   0.986   3.502
 2821SOL    HW120342   4.205   0.925   3.440
 2821SOL    HW220343   4.207   1.069   3.486
 2822SOL     OW20344   2.289   2.523   1.086
 2822SOL    HW120345   2.288   2.457   1.156
 2822SOL    HW220346   2.359   2.583   1.111
 2823SOL     OW20347   0.279   2.856  15.924
 2823SOL    HW120348   0.197   2.903  15.910
 2823SOL    HW220349   0.347   2.919  15.903
 2824SOL     OW20350   2.393   2.615  18.999
 2824SOL    HW120351   2.346   2.604  18.917
 2824SOL    HW220352   2.463   2.549  18.997
 2825SOL     OW20353   2.994   4.057  20.627
 2825SOL    HW120354   3.077   4.013  20.641
 2825SOL    HW220355   2.937   3.990  20.588
 2826SOL     OW20356   1.435   0.492   4.996
 2826SOL    HW120357   1.359   0.530   4.951
 2826SOL    HW220358   1.397   0.445   5.071
 2827SOL     OW20359   2.105   0.106   3.953
 2827SOL    HW120360   2.086   0.191   3.992
 2827SOL    HW220361   2.123   0.048   4.027
 2828SOL     OW20362   4.697   3.117  16.849
 2828SOL    HW120363   4.662   3.067  16.775
 2828SOL    HW220364   4.724   3.050  16.912
 2829SOL     OW20365   4.083   4.277   5.680
 2829SOL    HW120366   4.064   4.185   5.702
 2829SOL    HW220367   4.028   4.327   5.740
 2830SOL     OW20368   3.903   2.859   1.900
 2830SOL    HW120369   3.822   2.868   1.949
 2830SOL    HW220370   3.914   2.943   1.855
 2831SOL     OW20371   1.683   3.159  15.577
 2831SOL    HW120372   1.623   3.114  15.518
 2831SOL    HW220373   1.637   3.239  15.602
 2832SOL     OW20374   3.425   3.970  16.575
 2832SOL    HW120375   3.506   4.005  16.538
 2832SOL    HW220376   3.358   4.034  16.551
 2833SOL     OW20377   1.083   1.208  11.990
 2833SOL    HW120378   1.144   1.153  12.039
 2833SOL    HW220379   0.996   1.180  12.020
 2834SOL     OW20380   2.649   1.922   4.692
 2834SOL    HW120381   2.575   1.981   4.677
 2834SOL    HW220382   2.692   1.958   4.770
 2835SOL     OW20383   1.340   3.446   1.641
 2835SOL    HW120384   1.351   3.520   1.581
 2835SOL    HW220385   1.388   3.374   1.599
 2836SOL     OW20386   2.694   3.612  20.711
 2836SOL    HW120387   2.767   3.591  20.769
 2836SOL    HW220388   2.619   3.567  20.749
 2837SOL     OW20389   0.346   0.357   3.643
 2837SOL    HW120390   0.386   0.278   3.609
 2837SOL    HW220391   0.379   0.427   3.587
 2838SOL     OW20392   0.363   4.479   4.567
 2838SOL    HW120393   0.291   4.537   4.542
 2838SOL    HW220394   0.334   4.439   4.649
 2839SOL     OW20395   3.313   1.448  20.375
 2839SOL    HW120396   3.348   1.530  20.343
 2839SOL    HW220397   3.218   1.456  20.363
 2840SOL     OW20398   4.235   1.321  20.604
 2840SOL    HW120399   4.266   1.387  20.665
 2840SOL    HW220400   4.268   1.349  20.519
 2841SOL     OW20401   2.881   3.167  20.050
 2841SOL    HW120402   2.857   3.240  20.107
 2841SOL    HW220403   2.838   3.091  20.089
 2842SOL     OW20404   2.330   3.277   5.710
 2842SOL    HW120405   2.300   3.315   5.628
 2842SOL    HW220406   2.407   3.226   5.687
 2843SOL     OW20407   3.486   1.643  15.431
 2843SOL    HW120408   3.527   1.691  15.503
 2843SOL    HW220409   3.418   1.702  15.399
 2844SOL     OW20410   0.903   3.689   5.101
 2844SOL    HW120411   0.942   3.766   5.059
 2844SOL    HW220412   0.926   3.699   5.194
 2845SOL     OW20413   1.220   2.570   5.249
 2845SOL    HW120414   1.209   2.481   5.283
 2845SOL    HW220415   1.139   2.615   5.272
 2846SOL     OW20416   3.638   3.708   2.877
 2846SOL    HW120417   3.652   3.782   2.936
 2846SOL    HW220418   3.583   3.648   2.926
 2847SOL     OW20419   4.541   0.148   3.296
 2847SOL    HW120420   4.464   0.138   3.351
 2847SOL    HW220421   4.604   0.197   3.350
 2848SOL     OW20422   2.642   4.310  13.955
 2848SOL    HW120423   2.726   4.345  13.925
 2848SOL    HW220424   2.599   4.278  13.876
 2849SOL     OW20425   2.870   0.194  20.501
 2849SOL    HW120426   2.940   0.235  20.452
 2849SOL    HW220427   2.913   0.123  20.550
 2850SOL     OW20428   4.144   0.335   5.845
 2850SOL    HW120429   4.115   0.253   5.887
 2850SOL    HW220430   4.216   0.309   5.788
 2851SOL     OW20431   0.435   1.965  20.289
 2851SOL    HW120432   0.363   2.013  20.330
 2851SOL    HW220433   0.487   1.932  20.362
 2852SOL     OW20434   0.619   1.929  19.819
 2852SOL    HW120435   0.564   1.851  19.824
 2852SOL    HW220436   0.682   1.910  19.749
 2853SOL     OW20437   0.345   2.585  16.069
 2853SOL    HW120438   0.379   2.521  16.006
 2853SOL    HW220439   0.335   2.665  16.018
 2854SOL     OW20440   0.567   4.335   5.369
 2854SOL    HW120441   0.628   4.262   5.372
 2854SOL    HW220442   0.540   4.347   5.460
 2855SOL     OW20443   1.940   0.015   0.869
 2855SOL    HW120444   1.983   4.723   0.834
 2855SOL    HW220445   1.999   0.048   0.936
 2856SOL     OW20446   0.271   2.606   0.383
 2856SOL    HW120447   0.301   2.693   0.408
 2856SOL    HW220448   0.300   2.596   0.292
 2857SOL     OW20449   3.490   3.757  18.529
 2857SOL    HW120450   3.461   3.681  18.579
 2857SOL    HW220451   3.585   3.758  18.540
 2858SOL     OW20452   1.657   3.665   2.062
 2858SOL    HW120453   1.680   3.649   1.971
 2858SOL    HW220454   1.737   3.699   2.102
 2859SOL     OW20455   3.079   4.061   4.242
 2859SOL    HW120456   3.154   4.119   4.255
 2859SOL    HW220457   3.118   3.977   4.217
 2860SOL     OW20458   3.439   4.468   6.671
 2860SOL    HW120459   3.355   4.431   6.698
 2860SOL    HW220460   3.498   4.451   6.744
 2861SOL     OW20461   4.484   2.542   0.384
 2861SOL    HW120462   4.524   2.455   0.387
 2861SOL    HW220463   4.400   2.532   0.428
 2862SOL     OW20464   3.189   3.687   5.059
 2862SOL    HW120465   3.243   3.759   5.091
 2862SOL    HW220466   3.227   3.664   4.974
 2863SOL     OW20467   3.487   3.971   3.298
 2863SOL    HW120468   3.527   3.913   3.364
 2863SOL    HW220469   3.490   4.058   3.338
 2864SOL     OW20470   2.813   1.718  18.823
 2864SOL    HW120471   2.811   1.809  18.852
 2864SOL    HW220472   2.890   1.681  18.865
 2865SOL     OW20473   0.204   0.248  14.085
 2865SOL    HW120474   0.184   0.171  14.032
 2865SOL    HW220475   0.175   0.322  14.031
 2866SOL     OW20476   1.172   2.162  16.711
 2866SOL    HW120477   1.089   2.118  16.728
 2866SOL    HW220478   1.150   2.235  16.654
 2867SOL     OW20479   0.515   3.118  17.315
 2867SOL    HW120480   0.566   3.198  17.319
 2867SOL    HW220481   0.576   3.049  17.341
 2868SOL     OW20482   2.101   2.709   0.758
 2868SOL    HW120483   2.055   2.640   0.806
 2868SOL    HW220484   2.160   2.662   0.700
 2869SOL     OW20485   4.460   4.165   1.508
 2869SOL    HW120486   4.481   4.157   1.601
 2869SOL    HW220487   4.412   4.084   1.488
 2870SOL     OW20488   2.193   2.705   3.718
 2870SOL    HW120489   2.276   2.664   3.742
 2870SOL    HW220490   2.214   2.763   3.645
 2871SOL     OW20491   0.019   4.364   1.025
 2871SOL    HW120492   0.008   4.374   1.120
 2871SOL    HW220493   0.010   4.270   1.010
 2872SOL     OW20494   1.012   4.232   1.987
 2872SOL    HW120495   1.099   4.258   1.955
 2872SOL    HW220496   1.029   4.159   2.046
 2873SOL     OW20497   1.350   1.387   6.013
 2873SOL    HW120498   1.437   1.348   6.000
 2873SOL    HW220499   1.291   1.311   6.017
 2874SOL     OW20500   3.432   3.688  16.594
 2874SOL    HW120501   3.363   3.755  16.586
 2874SOL    HW220502   3.511   3.737  16.616
 2875SOL     OW20503   3.321   3.844   2.613
 2875SOL    HW120504   3.311   3.882   2.700
 2875SOL    HW220505   3.284   3.756   2.621
 2876SOL     OW20506   0.378   4.387   4.215
 2876SOL    HW120507   0.448   4.371   4.278
 2876SOL    HW220508   0.420   4.433   4.143
 2877SOL     OW20509   3.539   2.214   8.372
 2877SOL    HW120510   3.579   2.279   8.430
 2877SOL    HW220511   3.449   2.246   8.360
 2878SOL     OW20512   1.749   1.734  16.559
 2878SOL    HW120513   1.745   1.790  16.481
 2878SOL    HW220514   1.698   1.781  16.624
 2879SOL     OW20515   1.783   2.982   0.997
 2879SOL    HW120516   1.778   2.908   1.058
 2879SOL    HW220517   1.816   2.943   0.915
 2880SOL     OW20518   1.752   3.786  20.414
 2880SOL    HW120519   1.778   3.748  20.330
 2880SOL    HW220520   1.790   3.874  20.414
 2881SOL     OW20521   3.729   2.544  18.568
 2881SOL    HW120522   3.673   2.621  18.567
 2881SOL    HW220523   3.760   2.537  18.658
 2882SOL     OW20524   0.523   4.181  19.610
 2882SOL    HW120525   0.578   4.237  19.665
 2882SOL    HW220526   0.450   4.156  19.667
 2883SOL     OW20527   2.629   3.086  15.043
 2883SOL    HW120528   2.614   3.179  15.063
 2883SOL    HW220529   2.635   3.045  15.129
 2884SOL     OW20530   2.694   1.500   5.889
 2884SOL    HW120531   2.611   1.542   5.912
 2884SOL    HW220532   2.730   1.470   5.972
 2885SOL     OW20533   2.852   2.398   3.645
 2885SOL    HW120534   2.780   2.346   3.680
 2885SOL    HW220535   2.930   2.346   3.664
 2886SOL     OW20536   2.218   3.534  19.156
 2886SOL    HW120537   2.300   3.577  19.181
 2886SOL    HW220538   2.236   3.492  19.072
 2887SOL     OW20539   4.507   4.170  15.067
 2887SOL    HW120540   4.523   4.261  15.090
 2887SOL    HW220541   4.439   4.173  15.000
 2888SOL     OW20542   3.926   1.568   0.849
 2888SOL    HW120543   3.920   1.482   0.890
 2888SOL    HW220544   3.963   1.551   0.762
 2889SOL     OW20545   4.002   2.597   2.854
 2889SOL    HW120546   4.000   2.593   2.950
 2889SOL    HW220547   4.094   2.583   2.832
 2890SOL     OW20548   1.276   3.633   4.673
 2890SOL    HW120549   1.335   3.708   4.661
 2890SOL    HW220550   1.320   3.561   4.627
 2891SOL     OW20551   3.972   1.586  14.074
 2891SOL    HW120552   3.947   1.614  13.986
 2891SOL    HW220553   4.064   1.561  14.066
 2892SOL     OW20554   2.036   4.549   0.741
 2892SOL    HW120555   2.108   4.556   0.804
 2892SOL    HW220556   2.078   4.523   0.659
 2893SOL     OW20557   0.679   4.307   7.414
 2893SOL    HW120558   0.651   4.384   7.463
 2893SOL    HW220559   0.770   4.324   7.390
 2894SOL     OW20560   1.176   3.828  16.749
 2894SOL    HW120561   1.230   3.822  16.669
 2894SOL    HW220562   1.196   3.916  16.783
 2895SOL     OW20563   1.359   4.163  18.687
 2895SOL    HW120564   1.449   4.179  18.714
 2895SOL    HW220565   1.309   4.162  18.769
 2896SOL     OW20566   0.180   3.161  16.754
 2896SOL    HW120567   0.100   3.122  16.791
 2896SOL    HW220568   0.239   3.169  16.828
 2897SOL     OW20569   2.671   0.642  14.445
 2897SOL    HW120570   2.765   0.656  14.456
 2897SOL    HW220571   2.649   0.574  14.508
 2898SOL     OW20572   1.948   2.805  19.851
 2898SOL    HW120573   1.994   2.867  19.907
 2898SOL    HW220574   2.015   2.772  19.791
 2899SOL     OW20575   1.339   2.703  14.172
 2899SOL    HW120576   1.427   2.740  14.168
 2899SOL    HW220577   1.282   2.779  14.189
 2900SOL     OW20578   3.328   1.099   0.842
 2900SOL    HW120579   3.319   1.189   0.873
 2900SOL    HW220580   3.352   1.108   0.750
 2901SOL     OW20581   0.271   4.778  16.950
 2901SOL    HW120582   0.214   0.050  16.999
 2901SOL    HW220583   0.269   0.024  16.860
 2902SOL     OW20584   4.709   0.643  16.430
 2902SOL    HW120585   4.759   0.718  16.397
 2902SOL    HW220586   4.637   0.681  16.480
 2903SOL     OW20587   1.843   1.221   0.192
 2903SOL    HW120588   1.787   1.288   0.230
 2903SOL    HW220589   1.828   1.227   0.098
 2904SOL     OW20590   1.449   3.699   0.570
 2904SOL    HW120591   1.481   3.789   0.566
 2904SOL    HW220592   1.500   3.658   0.641
 2905SOL     OW20593   3.066   2.983  13.629
 2905SOL    HW120594   3.159   2.974  13.652
 2905SOL    HW220595   3.057   3.074  13.600
 2906SOL     OW20596   3.178   1.154  17.394
 2906SOL    HW120597   3.156   1.208  17.470
 2906SOL    HW220598   3.199   1.068  17.432
 2907SOL     OW20599   3.308   2.184   1.315
 2907SOL    HW120600   3.274   2.268   1.345
 2907SOL    HW220601   3.403   2.193   1.321
 2908SOL     OW20602   4.330   0.074   1.411
 2908SOL    HW120603   4.398   0.092   1.346
 2908SOL    HW220604   4.337   0.146   1.474
 2909SOL     OW20605   1.435   0.615   1.691
 2909SOL    HW120606   1.384   0.567   1.626
 2909SOL    HW220607   1.482   0.547   1.739
 2910SOL     OW20608   0.836   2.605  15.398
 2910SOL    HW120609   0.890   2.600  15.320
 2910SOL    HW220610   0.812   2.698  15.405
 2911SOL     OW20611   1.840   0.467   2.816
 2911SOL    HW120612   1.870   0.533   2.754
 2911SOL    HW220613   1.745   0.462   2.801
 2912SOL     OW20614   3.306   0.540   2.197
 2912SOL    HW120615   3.384   0.541   2.142
 2912SOL    HW220616   3.243   0.596   2.151
 2913SOL     OW20617   3.358   0.272   2.670
 2913SOL    HW120618   3.348   0.335   2.741
 2913SOL    HW220619   3.416   0.205   2.705
 2914SOL     OW20620   0.752   2.741  19.463
 2914SOL    HW120621   0.789   2.674  19.406
 2914SOL    HW220622   0.666   2.706  19.489
 2915SOL     OW20623   0.320   2.083   0.023
 2915SOL    HW120624   0.330   2.168  21.223
 2915SOL    HW220625   0.287   2.024  21.199
 2916SOL     OW20626   3.346   3.730   3.536
 2916SOL    HW120627   3.418   3.784   3.570
 2916SOL    HW220628   3.346   3.652   3.592
 2917SOL     OW20629   3.156   4.391  16.459
 2917SOL    HW120630   3.212   4.456  16.416
 2917SOL    HW220631   3.157   4.315  16.401
 2918SOL     OW20632   0.048   1.965  19.384
 2918SOL    HW120633   0.126   1.992  19.336
 2918SOL    HW220634   0.078   1.894  19.441
 2919SOL     OW20635   3.952   3.304   2.019
 2919SOL    HW120636   4.027   3.248   2.037
 2919SOL    HW220637   3.953   3.369   2.089
 2920SOL     OW20638   1.712   0.707   0.304
 2920SOL    HW120639   1.647   0.657   0.353
 2920SOL    HW220640   1.750   0.767   0.369
 2921SOL     OW20641   3.699   0.291   2.060
 2921SOL    HW120642   3.764   0.240   2.012
 2921SOL    HW220643   3.702   0.257   2.150
 2922SOL     OW20644   2.665   1.829   0.766
 2922SOL    HW120645   2.733   1.794   0.824
 2922SOL    HW220646   2.591   1.769   0.777
 2923SOL     OW20647   2.115   3.313   8.545
 2923SOL    HW120648   2.115   3.400   8.505
 2923SOL    HW220649   2.184   3.317   8.611
 2924SOL     OW20650   3.224   4.164   0.592
 2924SOL    HW120651   3.147   4.113   0.567
 2924SOL    HW220652   3.250   4.128   0.677
 2925SOL     OW20653   1.099   3.903  17.944
 2925SOL    HW120654   1.097   3.980  18.001
 2925SOL    HW220655   1.118   3.938  17.857
 2926SOL     OW20656   0.694   0.017   1.634
 2926SOL    HW120657   0.619   4.747   1.615
 2926SOL    HW220658   0.673   0.099   1.589
 2927SOL     OW20659   3.556   0.211   1.380
 2927SOL    HW120660   3.523   0.300   1.368
 2927SOL    HW220661   3.643   0.222   1.419
 2928SOL     OW20662   4.195   3.935  17.622
 2928SOL    HW120663   4.289   3.939  17.606
 2928SOL    HW220664   4.157   3.912  17.537
 2929SOL     OW20665   4.523   1.973  17.301
 2929SOL    HW120666   4.612   1.985  17.332
 2929SOL    HW220667   4.472   2.041  17.346
 2930SOL     OW20668   3.216   0.915   5.260
 2930SOL    HW120669   3.261   0.947   5.182
 2930SOL    HW220670   3.255   0.830   5.277
 2931SOL     OW20671   3.624   2.533   5.510
 2931SOL    HW120672   3.674   2.478   5.450
 2931SOL    HW220673   3.543   2.552   5.463
 2932SOL     OW20674   0.063   3.662   4.057
 2932SOL    HW120675   0.127   3.600   4.023
 2932SOL    HW220676   0.115   3.736   4.089
 2933SOL     OW20677   0.234   1.907   2.051
 2933SOL    HW120678   0.255   1.824   2.092
 2933SOL    HW220679   0.204   1.884   1.964
 2934SOL     OW20680   1.677   2.311   2.482
 2934SOL    HW120681   1.768   2.291   2.503
 2934SOL    HW220682   1.664   2.273   2.395
 2935SOL     OW20683   4.693   3.681   6.535
 2935SOL    HW120684   4.658   3.670   6.446
 2935SOL    HW220685   4.645   3.756   6.570
 2936SOL     OW20686   4.131   1.761   8.096
 2936SOL    HW120687   4.064   1.821   8.064
 2936SOL    HW220688   4.170   1.724   8.017
 2937SOL     OW20689   1.629   4.042  15.649
 2937SOL    HW120690   1.647   4.028  15.556
 2937SOL    HW220691   1.714   4.068  15.686
 2938SOL     OW20692   4.066   3.516  13.865
 2938SOL    HW120693   4.041   3.424  13.861
 2938SOL    HW220694   4.128   3.521  13.938
 2939SOL     OW20695   1.157   1.886  17.621
 2939SOL    HW120696   1.097   1.880  17.546
 2939SOL    HW220697   1.184   1.796  17.637
 2940SOL     OW20698   3.294   1.512  17.336
 2940SOL    HW120699   3.334   1.598  17.328
 2940SOL    HW220700   3.363   1.450  17.313
 2941SOL     OW20701   3.586   0.823   1.625
 2941SOL    HW120702   3.591   0.915   1.598
 2941SOL    HW220703   3.492   0.806   1.635
 2942SOL     OW20704   0.787   0.033  15.404
 2942SOL    HW120705   0.851   0.016  15.335
 2942SOL    HW220706   0.839   0.036  15.485
 2943SOL     OW20707   4.766   2.012  17.455
 2943SOL    HW120708   0.048   1.949  17.434
 2943SOL    HW220709   4.766   2.073  17.382
 2944SOL     OW20710   1.979   4.576   9.327
 2944SOL    HW120711   1.955   4.637   9.257
 2944SOL    HW220712   2.032   4.628   9.387
 2945SOL     OW20713   3.938   2.271  15.210
 2945SOL    HW120714   3.964   2.187  15.248
 2945SOL    HW220715   4.021   2.317  15.195
 2946SOL     OW20716   4.656   0.659  17.547
 2946SOL    HW120717   4.697   0.583  17.506
 2946SOL    HW220718   4.580   0.624  17.593
 2947SOL     OW20719   1.569   4.480   9.897
 2947SOL    HW120720   1.481   4.498   9.866
 2947SOL    HW220721   1.607   4.566   9.912
 2948SOL     OW20722   0.740   0.352  12.088
 2948SOL    HW120723   0.800   0.278  12.094
 2948SOL    HW220724   0.773   0.404  12.015
 2949SOL     OW20725   1.755   3.449  13.877
 2949SOL    HW120726   1.830   3.443  13.936
 2949SOL    HW220727   1.783   3.510  13.809
 2950SOL     OW20728   0.596   2.544  18.261
 2950SOL    HW120729   0.517   2.595  18.277
 2950SOL    HW220730   0.611   2.553  18.167
 2951SOL     OW20731   3.309   4.324  20.181
 2951SOL    HW120732   3.220   4.324  20.217
 2951SOL    HW220733   3.298   4.291  20.091
 2952SOL     OW20734   3.273   4.504  18.164
 2952SOL    HW120735   3.289   4.585  18.117
 2952SOL    HW220736   3.230   4.531  18.245
 2953SOL     OW20737   4.567   2.695  16.429
 2953SOL    HW120738   4.608   2.714  16.345
 2953SOL    HW220739   4.494   2.755  16.435
 2954SOL     OW20740   0.195   2.394   3.192
 2954SOL    HW120741   0.169   2.337   3.120
 2954SOL    HW220742   0.136   2.469   3.185
 2955SOL     OW20743   2.511   4.029   3.320
 2955SOL    HW120744   2.581   4.094   3.320
 2955SOL    HW220745   2.534   3.970   3.392
 2956SOL     OW20746   1.320   0.332  16.268
 2956SOL    HW120747   1.411   0.306  16.254
 2956SOL    HW220748   1.269   0.255  16.243
 2957SOL     OW20749   0.955   1.483  12.853
 2957SOL    HW120750   0.981   1.575  12.843
 2957SOL    HW220751   0.867   1.487  12.892
 2958SOL     OW20752   2.189   1.675   3.508
 2958SOL    HW120753   2.158   1.682   3.599
 2958SOL    HW220754   2.284   1.666   3.516
 2959SOL     OW20755   2.078   4.343  18.711
 2959SOL    HW120756   2.103   4.375  18.798
 2959SOL    HW220757   1.992   4.304  18.724
 2960SOL     OW20758   4.431   1.387   4.856
 2960SOL    HW120759   4.405   1.469   4.816
 2960SOL    HW220760   4.357   1.328   4.842
 2961SOL     OW20761   0.707   0.771  11.614
 2961SOL    HW120762   0.752   0.692  11.585
 2961SOL    HW220763   0.772   0.818  11.666
 2962SOL     OW20764   3.351   2.487   2.314
 2962SOL    HW120765   3.356   2.576   2.279
 2962SOL    HW220766   3.415   2.485   2.385
 2963SOL     OW20767   3.415   3.596   0.263
 2963SOL    HW120768   3.435   3.507   0.235
 2963SOL    HW220769   3.391   3.641   0.182
 2964SOL     OW20770   0.904   3.551   1.249
 2964SOL    HW120771   0.913   3.524   1.340
 2964SOL    HW220772   0.810   3.565   1.237
 2965SOL     OW20773   2.534   1.891  20.093
 2965SOL    HW120774   2.485   1.948  20.034
 2965SOL    HW220775   2.586   1.951  20.147
 2966SOL     OW20776   2.997   2.568   1.979
 2966SOL    HW120777   3.051   2.519   2.040
 2966SOL    HW220778   3.034   2.549   1.893
 2967SOL     OW20779   0.477   0.477   2.251
 2967SOL    HW120780   0.563   0.440   2.270
 2967SOL    HW220781   0.495   0.554   2.197
 2968SOL     OW20782   2.519   1.483   7.869
 2968SOL    HW120783   2.480   1.513   7.951
 2968SOL    HW220784   2.611   1.506   7.877
 2969SOL     OW20785   1.222   1.231   0.002
 2969SOL    HW120786   1.191   1.187   0.082
 2969SOL    HW220787   1.315   1.210  21.242
 2970SOL     OW20788   0.652   1.463   1.964
 2970SOL    HW120789   0.721   1.496   2.021
 2970SOL    HW220790   0.643   1.529   1.896
 2971SOL     OW20791   3.435   3.307   4.276
 2971SOL    HW120792   3.385   3.385   4.252
 2971SOL    HW220793   3.373   3.252   4.323
 2972SOL     OW20794   0.760   4.216  13.470
 2972SOL    HW120795   0.792   4.270  13.398
 2972SOL    HW220796   0.667   4.236  13.476
 2973SOL     OW20797   0.932   1.014   6.195
 2973SOL    HW120798   0.869   0.942   6.201
 2973SOL    HW220799   0.887   1.088   6.235
 2974SOL     OW20800   1.292   0.625  20.829
 2974SOL    HW120801   1.202   0.632  20.863
 2974SOL    HW220802   1.285   0.650  20.737
 2975SOL     OW20803   2.744   2.081   2.732
 2975SOL    HW120804   2.656   2.086   2.695
 2975SOL    HW220805   2.793   2.148   2.685
 2976SOL     OW20806   0.129   2.884   8.302
 2976SOL    HW120807   0.180   2.931   8.369
 2976SOL    HW220808   0.049   2.936   8.293
 2977SOL     OW20809   2.044   4.039  15.283
 2977SOL    HW120810   2.097   4.008  15.357
 2977SOL    HW220811   2.071   3.985  15.209
 2978SOL     OW20812   2.659   0.547   1.863
 2978SOL    HW120813   2.683   0.456   1.881
 2978SOL    HW220814   2.577   0.541   1.813
 2979SOL     OW20815   3.315   4.467   7.855
 2979SOL    HW120816   3.304   4.467   7.760
 2979SOL    HW220817   3.258   4.396   7.885
 2980SOL     OW20818   2.251   1.876   4.647
 2980SOL    HW120819   2.216   1.807   4.703
 2980SOL    HW220820   2.276   1.831   4.566
 2981SOL     OW20821   4.140   0.881   0.808
 2981SOL    HW120822   4.222   0.847   0.773
 2981SOL    HW220823   4.078   0.872   0.735
 2982SOL     OW20824   4.024   3.847   5.525
 2982SOL    HW120825   3.948   3.815   5.477
 2982SOL    HW220826   3.995   3.850   5.616
 2983SOL     OW20827   3.617   3.667  19.315
 2983SOL    HW120828   3.639   3.638  19.226
 2983SOL    HW220829   3.542   3.613  19.340
 2984SOL     OW20830   1.846   3.914  19.652
 2984SOL    HW120831   1.758   3.935  19.682
 2984SOL    HW220832   1.858   3.822  19.674
 2985SOL     OW20833   2.617   2.934  19.904
 2985SOL    HW120834   2.645   2.857  19.953
 2985SOL    HW220835   2.522   2.925  19.897
 2986SOL     OW20836   1.752   2.281  15.328
 2986SOL    HW120837   1.697   2.304  15.253
 2986SOL    HW220838   1.806   2.358  15.343
 2987SOL     OW20839   0.087   2.804   5.747
 2987SOL    HW120840   0.116   2.785   5.836
 2987SOL    HW220841   0.108   2.896   5.734
 2988SOL     OW20842   0.348   1.437   0.620
 2988SOL    HW120843   0.330   1.345   0.637
 2988SOL    HW220844   0.420   1.437   0.557
 2989SOL     OW20845   3.038   2.482  13.595
 2989SOL    HW120846   3.067   2.394  13.575
 2989SOL    HW220847   3.000   2.475  13.683
 2990SOL     OW20848   0.853   2.523  16.853
 2990SOL    HW120849   0.760   2.526  16.828
 2990SOL    HW220850   0.899   2.502  16.772
 2991SOL     OW20851   0.166   2.903  16.214
 2991SOL    HW120852   0.200   2.834  16.272
 2991SOL    HW220853   0.243   2.942  16.175
 2992SOL     OW20854   3.280   1.398   3.035
 2992SOL    HW120855   3.212   1.465   3.026
 2992SOL    HW220856   3.242   1.320   2.994
 2993SOL     OW20857   2.412   2.375   5.825
 2993SOL    HW120858   2.384   2.458   5.785
 2993SOL    HW220859   2.505   2.369   5.806
 2994SOL     OW20860   1.140   0.139  15.067
 2994SOL    HW120861   1.096   0.219  15.095
 2994SOL    HW220862   1.232   0.155  15.085
 2995SOL     OW20863   3.143   2.622   5.826
 2995SOL    HW120864   3.119   2.677   5.751
 2995SOL    HW220865   3.074   2.638   5.890
 2996SOL     OW20866   2.819   3.773  19.175
 2996SOL    HW120867   2.842   3.681  19.168
 2996SOL    HW220868   2.902   3.819  19.163
 2997SOL     OW20869   3.523   4.711   5.177
 2997SOL    HW120870   3.508   0.016   5.197
 2997SOL    HW220871   3.456   4.689   5.112
 2998SOL     OW20872   3.360   1.953  20.752
 2998SOL    HW120873   3.403   2.020  20.698
 2998SOL    HW220874   3.384   1.975  20.842
 2999SOL     OW20875   3.072   0.153  18.656
 2999SOL    HW120876   3.076   0.112  18.743
 2999SOL    HW220877   3.132   0.101  18.603
 3000SOL     OW20878   3.886   2.783  20.876
 3000SOL    HW120879   3.981   2.775  20.885
 3000SOL    HW220880   3.872   2.871  20.842
 3001SOL     OW20881   1.795   1.094  20.928
 3001SOL    HW120882   1.737   1.145  20.872
 3001SOL    HW220883   1.869   1.072  20.872
 3002SOL     OW20884   2.260   3.062   7.875
 3002SOL    HW120885   2.194   3.096   7.814
 3002SOL    HW220886   2.211   3.040   7.954
 3003SOL     OW20887   2.975   3.748   4.762
 3003SOL    HW120888   3.000   3.661   4.730
 3003SOL    HW220889   3.041   3.807   4.724
 3004SOL     OW20890   3.470   3.513  17.861
 3004SOL    HW120891   3.450   3.525  17.954
 3004SOL    HW220892   3.409   3.445  17.832
 3005SOL     OW20893   2.268   0.320  18.379
 3005SOL    HW120894   2.274   0.234  18.420
 3005SOL    HW220895   2.257   0.301  18.285
 3006SOL     OW20896   1.416   1.112  19.327
 3006SOL    HW120897   1.388   1.040  19.271
 3006SOL    HW220898   1.443   1.180  19.266
 3007SOL     OW20899   1.569   2.550   2.529
 3007SOL    HW120900   1.622   2.477   2.496
 3007SOL    HW220901   1.630   2.624   2.534
 3008SOL     OW20902   2.492   1.940   5.694
 3008SOL    HW120903   2.556   1.927   5.623
 3008SOL    HW220904   2.493   1.857   5.742
 3009SOL     OW20905   3.830   0.725  16.499
 3009SOL    HW120906   3.925   0.729  16.491
 3009SOL    HW220907   3.800   0.688  16.416
 3010SOL     OW20908   3.849   2.345  20.729
 3010SOL    HW120909   3.877   2.333  20.820
 3010SOL    HW220910   3.904   2.415  20.696
 3011SOL     OW20911   4.047   4.499   1.742
 3011SOL    HW120912   4.071   4.575   1.688
 3011SOL    HW220913   4.096   4.511   1.823
 3012SOL     OW20914   2.582   1.445  20.587
 3012SOL    HW120915   2.522   1.484  20.523
 3012SOL    HW220916   2.538   1.458  20.671
 3013SOL     OW20917   4.253   4.206   1.795
 3013SOL    HW120918   4.346   4.227   1.787
 3013SOL    HW220919   4.249   4.111   1.792
 3014SOL     OW20920   4.554   3.532  18.902
 3014SOL    HW120921   4.598   3.447  18.896
 3014SOL    HW220922   4.502   3.527  18.982
 3015SOL     OW20923   4.164   2.950  20.553
 3015SOL    HW120924   4.103   2.907  20.613
 3015SOL    HW220925   4.174   2.888  20.481
 3016SOL     OW20926   3.182   4.224  15.455
 3016SOL    HW120927   3.169   4.173  15.375
 3016SOL    HW220928   3.127   4.302  15.443
 3017SOL     OW20929   3.065   3.215  19.008
 3017SOL    HW120930   3.032   3.179  19.091
 3017SOL    HW220931   3.150   3.252  19.031
 3018SOL     OW20932   0.983   0.976  18.523
 3018SOL    HW120933   1.073   1.008  18.519
 3018SOL    HW220934   0.929   1.053  18.506
 3019SOL     OW20935   2.797   2.704  19.393
 3019SOL    HW120936   2.883   2.739  19.369
 3019SOL    HW220937   2.764   2.764  19.460
 3020SOL     OW20938   4.313   1.939  16.236
 3020SOL    HW120939   4.338   1.887  16.313
 3020SOL    HW220940   4.310   2.029  16.267
 3021SOL     OW20941   1.783   2.992  18.643
 3021SOL    HW120942   1.827   3.070  18.677
 3021SOL    HW220943   1.824   2.978  18.557
 3022SOL     OW20944   2.532   1.993   2.284
 3022SOL    HW120945   2.606   1.936   2.263
 3022SOL    HW220946   2.455   1.948   2.248
 3023SOL     OW20947   3.305   0.874  16.987
 3023SOL    HW120948   3.326   0.901  16.898
 3023SOL    HW220949   3.257   0.949  17.024
 3024SOL     OW20950   2.887   3.795  16.169
 3024SOL    HW120951   2.847   3.787  16.256
 3024SOL    HW220952   2.934   3.713  16.156
 3025SOL     OW20953   0.741   0.244  17.481
 3025SOL    HW120954   0.810   0.303  17.512
 3025SOL    HW220955   0.754   0.240  17.386
 3026SOL     OW20956   3.593   0.710   6.131
 3026SOL    HW120957   3.574   0.617   6.144
 3026SOL    HW220958   3.515   0.744   6.086
 3027SOL     OW20959   0.878   1.001   5.890
 3027SOL    HW120960   0.971   1.024   5.880
 3027SOL    HW220961   0.872   0.911   5.859
 3028SOL     OW20962   0.115   0.491  18.945
 3028SOL    HW120963   0.193   0.529  18.904
 3028SOL    HW220964   0.053   0.563  18.951
 3029SOL     OW20965   2.430   0.149  20.157
 3029SOL    HW120966   2.465   0.196  20.233
 3029SOL    HW220967   2.424   0.215  20.088
 3030SOL     OW20968   0.599   4.224  15.889
 3030SOL    HW120969   0.627   4.315  15.888
 3030SOL    HW220970   0.677   4.175  15.914
 3031SOL     OW20971   0.880   1.341  20.904
 3031SOL    HW120972   0.785   1.336  20.913
 3031SOL    HW220973   0.902   1.272  20.842
 3032SOL     OW20974   1.479   4.257  15.449
 3032SOL    HW120975   1.556   4.314  15.447
 3032SOL    HW220976   1.498   4.188  15.385
 3033SOL     OW20977   1.882   2.897   0.733
 3033SOL    HW120978   1.951   2.833   0.746
 3033SOL    HW220979   1.926   2.972   0.693
 3034SOL     OW20980   2.855   0.593  17.315
 3034SOL    HW120981   2.787   0.660  17.308
 3034SOL    HW220982   2.916   0.614  17.244
 3035SOL     OW20983   0.014   4.323  19.976
 3035SOL    HW120984   0.070   4.309  19.899
 3035SOL    HW220985   4.765   4.411  19.963
 3036SOL     OW20986   1.939   2.232  16.977
 3036SOL    HW120987   1.990   2.285  16.917
 3036SOL    HW220988   1.907   2.293  17.043
 3037SOL     OW20989   3.084   0.277  20.332
 3037SOL    HW120990   3.043   0.249  20.250
 3037SOL    HW220991   3.134   0.201  20.362
 3038SOL     OW20992   3.757   1.883   0.203
 3038SOL    HW120993   3.739   1.965   0.249
 3038SOL    HW220994   3.687   1.875   0.138
 3039SOL     OW20995   2.067   0.441  19.169
 3039SOL    HW120996   1.997   0.377  19.184
 3039SOL    HW220997   2.148   0.392  19.186
 3040SOL     OW20998   0.962   0.141  15.575
 3040SOL    HW120999   0.960   0.230  15.612
 3040SOL    HW221000   1.055   0.120  15.568
 3041SOL     OW21001   2.566   2.459  20.205
 3041SOL    HW121002   2.629   2.477  20.275
 3041SOL    HW221003   2.535   2.370  20.222
 3042SOL     OW21004   1.757   1.415   7.385
 3042SOL    HW121005   1.748   1.496   7.436
 3042SOL    HW221006   1.675   1.408   7.337
 3043SOL     OW21007   3.924   2.394   4.478
 3043SOL    HW121008   3.958   2.472   4.522
 3043SOL    HW221009   3.997   2.363   4.425
 3044SOL     OW21010   1.368   1.476   1.750
 3044SOL    HW121011   1.315   1.444   1.822
 3044SOL    HW221012   1.448   1.508   1.791
 3045SOL     OW21013   1.498   1.710   3.595
 3045SOL    HW121014   1.539   1.775   3.538
 3045SOL    HW221015   1.545   1.629   3.577
 3046SOL     OW21016   2.579   2.697   4.742
 3046SOL    HW121017   2.524   2.738   4.675
 3046SOL    HW221018   2.520   2.636   4.786
 3047SOL     OW21019   1.937   1.181   9.599
 3047SOL    HW121020   1.972   1.141   9.520
 3047SOL    HW221021   1.878   1.250   9.567
 3048SOL     OW21022   3.340   2.998   2.025
 3048SOL    HW121023   3.427   2.978   2.059
 3048SOL    HW221024   3.336   3.094   2.024
 3049SOL     OW21025   0.080   3.679   3.030
 3049SOL    HW121026   4.781   3.690   3.071
 3049SOL    HW221027   0.062   3.644   2.944
 3050SOL     OW21028   3.821   1.498   2.165
 3050SOL    HW121029   3.805   1.428   2.228
 3050SOL    HW221030   3.865   1.455   2.092
 3051SOL     OW21031   4.742   0.306   7.310
 3051SOL    HW121032   4.753   0.401   7.314
 3051SOL    HW221033   4.670   0.287   7.370
 3052SOL     OW21034   1.760   0.276  20.179
 3052SOL    HW121035   1.837   0.318  20.141
 3052SOL    HW221036   1.710   0.349  20.216
 3053SOL     OW21037   2.232   0.471  14.148
 3053SOL    HW121038   2.192   0.554  14.175
 3053SOL    HW221039   2.275   0.438  14.227
 3054SOL     OW21040   0.579   4.547   6.265
 3054SOL    HW121041   0.496   4.516   6.231
 3054SOL    HW221042   0.625   4.468   6.294
 3055SOL     OW21043   1.862   4.772   3.476
 3055SOL    HW121044   1.876   0.031   3.559
 3055SOL    HW221045   1.859   0.055   3.411
 3056SOL     OW21046   3.251   1.023   5.505
 3056SOL    HW121047   3.184   0.975   5.553
 3056SOL    HW221048   3.249   0.987   5.416
 3057SOL     OW21049   1.862   0.149   5.083
 3057SOL    HW121050   1.881   0.156   5.176
 3057SOL    HW221051   1.771   0.179   5.074
 3058SOL     OW21052   2.662   0.293   3.162
 3058SOL    HW121053   2.751   0.257   3.156
 3058SOL    HW221054   2.674   0.379   3.201
 3059SOL     OW21055   3.546   3.687   9.056
 3059SOL    HW121056   3.616   3.751   9.062
 3059SOL    HW221057   3.590   3.602   9.054
 3060SOL     OW21058   4.447   4.087   5.396
 3060SOL    HW121059   4.408   4.048   5.318
 3060SOL    HW221060   4.500   4.159   5.363
 3061SOL     OW21061   0.463   3.975   0.878
 3061SOL    HW121062   0.429   4.037   0.942
 3061SOL    HW221063   0.442   4.013   0.793
 3062SOL     OW21064   0.824   2.534  17.526
 3062SOL    HW121065   0.863   2.574  17.448
 3062SOL    HW221066   0.769   2.464  17.491
 3063SOL     OW21067   4.149   1.336  16.585
 3063SOL    HW121068   4.231   1.340  16.536
 3063SOL    HW221069   4.155   1.408  16.647
 3064SOL     OW21070   2.250   4.034  19.062
 3064SOL    HW121071   2.308   4.061  19.133
 3064SOL    HW221072   2.296   4.059  18.982
 3065SOL     OW21073   1.777   1.453   5.529
 3065SOL    HW121074   1.796   1.501   5.448
 3065SOL    HW221075   1.759   1.364   5.500
 3066SOL     OW21076   2.582   2.171  18.950
 3066SOL    HW121077   2.522   2.212  18.887
 3066SOL    HW221078   2.524   2.126  19.012
 3067SOL     OW21079   2.541   3.922  20.685
 3067SOL    HW121080   2.464   3.968  20.652
 3067SOL    HW221081   2.519   3.829  20.678
 3068SOL     OW21082   3.420   2.439  16.579
 3068SOL    HW121083   3.378   2.371  16.631
 3068SOL    HW221084   3.397   2.418  16.489
 3069SOL     OW21085   0.238   2.834   5.431
 3069SOL    HW121086   0.204   2.901   5.489
 3069SOL    HW221087   0.325   2.865   5.406
 3070SOL     OW21088   4.616   2.902  18.228
 3070SOL    HW121089   4.568   2.860  18.156
 3070SOL    HW221090   4.670   2.968  18.185
 3071SOL     OW21091   2.150   2.763  15.790
 3071SOL    HW121092   2.236   2.723  15.801
 3071SOL    HW221093   2.104   2.745  15.871
 3072SOL     OW21094   1.003   0.111  12.437
 3072SOL    HW121095   0.986   0.093  12.345
 3072SOL    HW221096   0.936   0.062  12.484
 3073SOL     OW21097   3.995   2.716   5.218
 3073SOL    HW121098   4.078   2.719   5.170
 3073SOL    HW221099   3.932   2.756   5.159
 3074SOL     OW21100   4.459   4.063  18.931
 3074SOL    HW121101   4.445   3.968  18.926
 3074SOL    HW221102   4.478   4.079  19.024
 3075SOL     OW21103   4.398   1.040  20.449
 3075SOL    HW121104   4.450   0.967  20.481
 3075SOL    HW221105   4.422   1.114  20.505
 3076SOL     OW21106   1.759   3.971   3.704
 3076SOL    HW121107   1.750   3.998   3.795
 3076SOL    HW221108   1.820   4.033   3.666
 3077SOL     OW21109   3.357   0.906  17.828
 3077SOL    HW121110   3.445   0.867  17.827
 3077SOL    HW221111   3.372   0.999  17.841
 3078SOL     OW21112   2.796   3.829   2.089
 3078SOL    HW121113   2.714   3.824   2.040
 3078SOL    HW221114   2.782   3.772   2.165
 3079SOL     OW21115   1.548   3.439  18.981
 3079SOL    HW121116   1.628   3.387  18.974
 3079SOL    HW221117   1.578   3.527  19.007
 3080SOL     OW21118   1.717   1.898  16.348
 3080SOL    HW121119   1.735   1.986  16.380
 3080SOL    HW221120   1.775   1.887  16.273
 3081SOL     OW21121   0.012   1.751   5.213
 3081SOL    HW121122   4.725   1.690   5.210
 3081SOL    HW221123   0.031   1.771   5.122
 3082SOL     OW21124   1.892   2.007   3.917
 3082SOL    HW121125   1.853   1.925   3.948
 3082SOL    HW221126   1.843   2.027   3.837
 3083SOL     OW21127   1.251   3.117  18.463
 3083SOL    HW121128   1.338   3.104  18.426
 3083SOL    HW221129   1.191   3.082  18.398
 3084SOL     OW21130   1.328   2.510  19.606
 3084SOL    HW121131   1.280   2.580  19.562
 3084SOL    HW221132   1.354   2.548  19.689
 3085SOL     OW21133   2.627   3.365  14.648
 3085SOL    HW121134   2.575   3.285  14.660
 3085SOL    HW221135   2.613   3.389  14.556
 3086SOL     OW21136   2.197   2.601  18.557
 3086SOL    HW121137   2.253   2.663  18.511
 3086SOL    HW221138   2.143   2.561  18.488
 3087SOL     OW21139   2.806   1.364   6.412
 3087SOL    HW121140   2.849   1.417   6.480
 3087SOL    HW221141   2.749   1.304   6.460
 3088SOL     OW21142   4.014   2.846  19.926
 3088SOL    HW121143   3.965   2.866  19.846
 3088SOL    HW221144   3.992   2.918  19.985
 3089SOL     OW21145   2.152   0.788  13.748
 3089SOL    HW121146   2.144   0.824  13.660
 3089SOL    HW221147   2.218   0.719  13.740
 3090SOL     OW21148   1.494   1.480  15.508
 3090SOL    HW121149   1.499   1.488  15.413
 3090SOL    HW221150   1.478   1.387  15.524
 3091SOL     OW21151   0.731   3.516   0.174
 3091SOL    HW121152   0.673   3.492   0.246
 3091SOL    HW221153   0.812   3.468   0.191
 3092SOL     OW21154   1.246   4.328   3.371
 3092SOL    HW121155   1.213   4.247   3.408
 3092SOL    HW221156   1.303   4.364   3.439
 3093SOL     OW21157   0.869   2.040   2.579
 3093SOL    HW121158   0.944   2.026   2.522
 3093SOL    HW221159   0.793   2.020   2.525
 3094SOL     OW21160   0.188   2.776   7.746
 3094SOL    HW121161   0.263   2.721   7.724
 3094SOL    HW221162   0.123   2.715   7.782
 3095SOL     OW21163   4.625   2.222  15.260
 3095SOL    HW121164   4.678   2.246  15.337
 3095SOL    HW221165   4.648   2.131  15.243
 3096SOL     OW21166   0.613   2.452  16.145
 3096SOL    HW121167   0.524   2.426  16.121
 3096SOL    HW221168   0.669   2.391  16.096
 3097SOL     OW21169   3.500   3.306  16.327
 3097SOL    HW121170   3.558   3.277  16.398
 3097SOL    HW221171   3.452   3.227  16.302
 3098SOL     OW21172   3.523   0.982  15.696
 3098SOL    HW121173   3.511   1.071  15.729
 3098SOL    HW221174   3.533   0.929  15.775
 3099SOL     OW21175   4.765   2.036   4.403
 3099SOL    HW121176   0.065   2.068   4.425
 3099SOL    HW221177   4.733   1.996   4.485
 3100SOL     OW21178   0.379   4.478  20.164
 3100SOL    HW121179   0.407   4.394  20.128
 3100SOL    HW221180   0.457   4.534  20.158
 3101SOL     OW21181   1.595   1.428   3.103
 3101SOL    HW121182   1.557   1.421   3.016
 3101SOL    HW221183   1.689   1.416   3.090
 3102SOL     OW21184   1.602   2.874   5.190
 3102SOL    HW121185   1.625   2.941   5.125
 3102SOL    HW221186   1.622   2.914   5.274
 3103SOL     OW21187   2.019   0.581  20.605
 3103SOL    HW121188   2.000   0.674  20.618
 3103SOL    HW221189   1.964   0.535  20.669
 3104SOL     OW21190   4.386   4.394   0.934
 3104SOL    HW121191   4.302   4.409   0.978
 3104SOL    HW221192   4.442   4.466   0.965
 3105SOL     OW21193   4.030   2.368  18.577
 3105SOL    HW121194   4.007   2.307  18.507
 3105SOL    HW221195   4.083   2.435  18.534
 3106SOL     OW21196   0.493   1.779   1.273
 3106SOL    HW121197   0.569   1.807   1.222
 3106SOL    HW221198   0.456   1.861   1.308
 3107SOL     OW21199   1.877   0.433   3.735
 3107SOL    HW121200   1.834   0.514   3.759
 3107SOL    HW221201   1.852   0.370   3.803
 3108SOL     OW21202   3.655   2.881   4.796
 3108SOL    HW121203   3.594   2.947   4.830
 3108SOL    HW221204   3.608   2.798   4.807
 3109SOL     OW21205   1.787   1.297  15.031
 3109SOL    HW121206   1.813   1.224  14.974
 3109SOL    HW221207   1.703   1.326  14.996
 3110SOL     OW21208   0.801   2.553   1.723
 3110SOL    HW121209   0.706   2.547   1.729
 3110SOL    HW221210   0.817   2.639   1.684
 3111SOL     OW21211   0.830   1.287  20.431
 3111SOL    HW121212   0.919   1.273  20.397
 3111SOL    HW221213   0.821   1.382  20.434
 3112SOL     OW21214   2.645   2.742  11.281
 3112SOL    HW121215   2.559   2.740  11.324
 3112SOL    HW221216   2.679   2.653  11.290
 3113SOL     OW21217   0.411   2.737   0.970
 3113SOL    HW121218   0.364   2.716   0.889
 3113SOL    HW221219   0.343   2.748   1.036
 3114SOL     OW21220   0.515   1.997   3.903
 3114SOL    HW121221   0.471   2.016   3.820
 3114SOL    HW221222   0.591   1.945   3.878
 3115SOL     OW21223   4.707   3.026   1.284
 3115SOL    HW121224   4.631   3.010   1.229
 3115SOL    HW221225   4.727   3.119   1.273
 3116SOL     OW21226   3.192   3.073  16.539
 3116SOL    HW121227   3.225   3.033  16.459
 3116SOL    HW221228   3.203   3.007  16.606
 3117SOL     OW21229   3.940   3.191  19.977
 3117SOL    HW121230   3.986   3.217  19.897
 3117SOL    HW221231   3.951   3.265  20.036
 3118SOL     OW21232   0.766   3.697   3.566
 3118SOL    HW121233   0.766   3.782   3.522
 3118SOL    HW221234   0.844   3.698   3.621
 3119SOL     OW21235   0.454   3.994  15.739
 3119SOL    HW121236   0.531   3.974  15.687
 3119SOL    HW221237   0.481   4.065  15.797
 3120SOL     OW21238   0.553   1.476   3.099
 3120SOL    HW121239   0.492   1.523   3.043
 3120SOL    HW221240   0.572   1.395   3.052
 3121SOL     OW21241   0.880   3.240   8.047
 3121SOL    HW121242   0.928   3.209   7.970
 3121SOL    HW221243   0.945   3.240   8.118
 3122SOL     OW21244   1.902   4.117   3.525
 3122SOL    HW121245   1.834   4.164   3.478
 3122SOL    HW221246   1.961   4.085   3.457
 3123SOL     OW21247   2.065   1.755   3.287
 3123SOL    HW121248   2.080   1.678   3.232
 3123SOL    HW221249   2.124   1.742   3.362
 3124SOL     OW21250   0.096   3.195   0.679
 3124SOL    HW121251   0.167   3.190   0.615
 3124SOL    HW221252   0.105   3.282   0.718
 3125SOL     OW21253   1.700   1.461   0.216
 3125SOL    HW121254   1.708   1.511   0.135
 3125SOL    HW221255   1.767   1.498   0.274
 3126SOL     OW21256   0.724   2.198   5.571
 3126SOL    HW121257   0.672   2.126   5.536
 3126SOL    HW221258   0.771   2.160   5.645
 3127SOL     OW21259   3.282   1.125   1.139
 3127SOL    HW121260   3.221   1.194   1.113
 3127SOL    HW221261   3.264   1.052   1.080
 3128SOL     OW21262   0.997   3.227  16.277
 3128SOL    HW121263   1.007   3.140  16.239
 3128SOL    HW221264   0.922   3.219  16.335
 3129SOL     OW21265   0.136   0.996   5.839
 3129SOL    HW121266   0.227   0.989   5.869
 3129SOL    HW221267   0.129   0.930   5.770
 3130SOL     OW21268   4.096   0.097   6.523
 3130SOL    HW121269   4.010   0.135   6.538
 3130SOL    HW221270   4.108   0.035   6.595
 3131SOL     OW21271   0.137   2.624  19.279
 3131SOL    HW121272   0.220   2.665  19.257
 3131SOL    HW221273   0.161   2.545  19.326
 3132SOL     OW21274   2.968   2.438  13.859
 3132SOL    HW121275   3.053   2.394  13.861
 3132SOL    HW221276   2.935   2.432  13.948
 3133SOL     OW21277   3.888   1.397   5.658
 3133SOL    HW121278   3.956   1.450   5.615
 3133SOL    HW221279   3.936   1.323   5.695
 3134SOL     OW21280   4.514   3.380  18.034
 3134SOL    HW121281   4.593   3.346  17.992
 3134SOL    HW221282   4.512   3.473  18.010
 3135SOL     OW21283   3.911   3.073   2.643
 3135SOL    HW121284   3.921   3.067   2.738
 3135SOL    HW221285   4.001   3.075   2.610
 3136SOL     OW21286   1.418   1.342  12.996
 3136SOL    HW121287   1.347   1.376  12.942
 3136SOL    HW221288   1.380   1.268  13.042
 3137SOL     OW21289   4.254   4.595   6.427
 3137SOL    HW121290   4.217   4.629   6.508
 3137SOL    HW221291   4.328   4.541   6.454
 3138SOL     OW21292   0.948   4.216   1.712
 3138SOL    HW121293   1.006   4.291   1.728
 3138SOL    HW221294   0.938   4.175   1.798
 3139SOL     OW21295   1.902   1.514  17.811
 3139SOL    HW121296   1.958   1.462  17.752
 3139SOL    HW221297   1.840   1.557  17.752
 3140SOL     OW21298   4.344   0.728  18.839
 3140SOL    HW121299   4.430   0.769  18.830
 3140SOL    HW221300   4.297   0.784  18.900
 3141SOL     OW21301   2.118   2.937  18.602
 3141SOL    HW121302   2.086   2.905  18.518
 3141SOL    HW221303   2.073   3.021  18.614
 3142SOL     OW21304   3.048   0.581  17.097
 3142SOL    HW121305   3.070   0.496  17.133
 3142SOL    HW221306   3.129   0.632  17.102
 3143SOL     OW21307   0.758   3.814   4.292
 3143SOL    HW121308   0.769   3.904   4.260
 3143SOL    HW221309   0.785   3.818   4.384
 3144SOL     OW21310   4.289   1.460   0.422
 3144SOL    HW121311   4.280   1.364   0.418
 3144SOL    HW221312   4.383   1.475   0.412
 3145SOL     OW21313   3.768   0.021   3.246
 3145SOL    HW121314   3.804   0.046   3.332
 3145SOL    HW221315   3.734   0.103   3.210
 3146SOL     OW21316   1.994   4.725  18.763
 3146SOL    HW121317   2.081   4.760  18.781
 3146SOL    HW221318   1.983   4.656  18.828
 3147SOL     OW21319   4.355   2.451   0.870
 3147SOL    HW121320   4.433   2.504   0.852
 3147SOL    HW221321   4.389   2.370   0.907
 3148SOL     OW21322   0.002   0.895  16.288
 3148SOL    HW121323   4.720   0.938  16.238
 3148SOL    HW221324   0.009   0.946  16.369
 3149SOL     OW21325   3.068   4.378  12.480
 3149SOL    HW121326   3.022   4.385  12.563
 3149SOL    HW221327   3.147   4.327  12.500
 3150SOL     OW21328   4.025   3.182  13.722
 3150SOL    HW121329   3.983   3.225  13.646
 3150SOL    HW221330   3.970   3.105  13.739
 3151SOL     OW21331   0.373   4.606   7.147
 3151SOL    HW121332   0.348   4.687   7.102
 3151SOL    HW221333   0.432   4.562   7.086
 3152SOL     OW21334   2.800   1.750   0.523
 3152SOL    HW121335   2.863   1.687   0.489
 3152SOL    HW221336   2.832   1.770   0.611
 3153SOL     OW21337   1.395   0.058   0.576
 3153SOL    HW121338   1.307   0.087   0.600
 3153SOL    HW221339   1.450   0.135   0.587
 3154SOL     OW21340   3.943   1.888  18.964
 3154SOL    HW121341   3.878   1.843  18.910
 3154SOL    HW221342   3.946   1.839  19.046
 3155SOL     OW21343   4.541   1.140  17.547
 3155SOL    HW121344   4.622   1.118  17.501
 3155SOL    HW221345   4.471   1.103  17.492
 3156SOL     OW21346   0.987   0.237  19.223
 3156SOL    HW121347   1.055   0.185  19.265
 3156SOL    HW221348   0.916   0.239  19.287
 3157SOL     OW21349   1.174   0.353   1.856
 3157SOL    HW121350   1.139   0.264   1.864
 3157SOL    HW221351   1.096   0.409   1.855
 3158SOL     OW21352   2.487   4.054  13.831
 3158SOL    HW121353   2.562   4.028  13.779
 3158SOL    HW221354   2.506   4.020  13.919
 3159SOL     OW21355   2.569   1.471   2.081
 3159SOL    HW121356   2.621   1.528   2.137
 3159SOL    HW221357   2.488   1.456   2.128
 3160SOL     OW21358   4.477   2.437   2.627
 3160SOL    HW121359   4.543   2.447   2.695
 3160SOL    HW221360   4.447   2.346   2.635
 3161SOL     OW21361   1.760   2.424  17.418
 3161SOL    HW121362   1.797   2.505  17.383
 3161SOL    HW221363   1.665   2.434  17.408
 3162SOL     OW21364   3.831   0.145   6.500
 3162SOL    HW121365   3.815   0.051   6.508
 3162SOL    HW221366   3.826   0.162   6.406
 3163SOL     OW21367   3.951   1.339   1.947
 3163SOL    HW121368   4.031   1.331   1.895
 3163SOL    HW221369   3.881   1.342   1.882
 3164SOL     OW21370   0.205   1.518  20.637
 3164SOL    HW121371   0.259   1.451  20.596
 3164SOL    HW221372   0.137   1.470  20.683
 3165SOL     OW21373   4.373   1.478   3.495
 3165SOL    HW121374   4.441   1.474   3.428
 3165SOL    HW221375   4.389   1.560   3.541
 3166SOL     OW21376   1.434   1.828   1.589
 3166SOL    HW121377   1.477   1.755   1.544
 3166SOL    HW221378   1.422   1.894   1.521
 3167SOL     OW21379   0.889   4.516  16.743
 3167SOL    HW121380   0.918   4.476  16.825
 3167SOL    HW221381   0.961   4.573  16.717
 3168SOL     OW21382   2.025   2.209  15.456
 3168SOL    HW121383   2.023   2.194  15.362
 3168SOL    HW221384   2.012   2.122  15.494
 3169SOL     OW21385   0.820   3.962   6.326
 3169SOL    HW121386   0.858   3.881   6.360
 3169SOL    HW221387   0.762   3.993   6.395
 3170SOL     OW21388   3.891   0.530   4.839
 3170SOL    HW121389   3.807   0.555   4.801
 3170SOL    HW221390   3.951   0.525   4.764
 3171SOL     OW21391   4.759   3.118  19.664
 3171SOL    HW121392   0.014   3.176  19.600
 3171SOL    HW221393   0.024   3.129  19.744
 3172SOL     OW21394   0.106   0.275  15.549
 3172SOL    HW121395   0.187   0.251  15.504
 3172SOL    HW221396   0.056   0.194  15.553
 3173SOL     OW21397   2.093   2.860  14.596
 3173SOL    HW121398   2.037   2.860  14.518
 3173SOL    HW221399   2.182   2.854  14.562
 3174SOL     OW21400   4.666   2.653   1.066
 3174SOL    HW121401   4.667   2.619   0.977
 3174SOL    HW221402   4.748   2.703   1.073
 3175SOL     OW21403   1.158   0.696   2.963
 3175SOL    HW121404   1.069   0.671   2.987
 3175SOL    HW221405   1.149   0.780   2.919
 3176SOL     OW21406   1.999   1.049   4.583
 3176SOL    HW121407   1.975   0.960   4.610
 3176SOL    HW221408   2.064   1.078   4.647
 3177SOL     OW21409   1.796   2.841  17.021
 3177SOL    HW121410   1.714   2.859  16.975
 3177SOL    HW221411   1.829   2.928  17.045
 3178SOL     OW21412   1.323   3.104  16.415
 3178SOL    HW121413   1.240   3.068  16.386
 3178SOL    HW221414   1.370   3.125  16.334
 3179SOL     OW21415   1.346   0.544  19.355
 3179SOL    HW121416   1.271   0.530  19.414
 3179SOL    HW221417   1.329   0.486  19.281
 3180SOL     OW21418   2.200   0.045  16.222
 3180SOL    HW121419   2.253   0.050  16.142
 3180SOL    HW221420   2.191   4.738  16.239
 3181SOL     OW21421   0.685   2.267   1.860
 3181SOL    HW121422   0.771   2.302   1.884
 3181SOL    HW221423   0.700   2.174   1.847
 3182SOL     OW21424   1.137   4.296  15.974
 3182SOL    HW121425   1.084   4.226  15.935
 3182SOL    HW221426   1.073   4.359  16.006
 3183SOL     OW21427   0.853   4.356   1.348
 3183SOL    HW121428   0.773   4.324   1.388
 3183SOL    HW221429   0.890   4.417   1.412
 3184SOL     OW21430   0.362   1.436  18.498
 3184SOL    HW121431   0.278   1.402  18.468
 3184SOL    HW221432   0.426   1.395  18.440
 3185SOL     OW21433   2.421   3.226  16.302
 3185SOL    HW121434   2.364   3.297  16.333
 3185SOL    HW221435   2.465   3.196  16.382
 3186SOL     OW21436   3.797   1.672  17.804
 3186SOL    HW121437   3.862   1.657  17.872
 3186SOL    HW221438   3.838   1.638  17.724
 3187SOL     OW21439   2.193   2.205  19.908
 3187SOL    HW121440   2.174   2.134  19.847
 3187SOL    HW221441   2.178   2.285  19.858
 3188SOL     OW21442   4.200   4.289   0.299
 3188SOL    HW121443   4.253   4.368   0.313
 3188SOL    HW221444   4.234   4.253   0.217
 3189SOL     OW21445   4.647   0.353  14.246
 3189SOL    HW121446   4.723   0.297  14.264
 3189SOL    HW221447   4.579   0.292  14.220
 3190SOL     OW21448   4.310   1.200   0.324
 3190SOL    HW121449   4.376   1.176   0.260
 3190SOL    HW221450   4.276   1.117   0.356
 3191SOL     OW21451   4.064   3.072   7.022
 3191SOL    HW121452   4.035   3.052   7.112
 3191SOL    HW221453   4.116   3.152   7.031
 3192SOL     OW21454   1.567   0.132   2.251
 3192SOL    HW121455   1.503   0.132   2.179
 3192SOL    HW221456   1.542   0.207   2.305
 3193SOL     OW21457   3.667   0.450   4.613
 3193SOL    HW121458   3.610   0.404   4.552
 3193SOL    HW221459   3.713   0.515   4.560
 3194SOL     OW21460   2.441   1.275  17.962
 3194SOL    HW121461   2.494   1.338  17.914
 3194SOL    HW221462   2.386   1.328  18.020
 3195SOL     OW21463   3.891   3.485   6.028
 3195SOL    HW121464   3.856   3.477   5.939
 3195SOL    HW221465   3.978   3.523   6.017
 3196SOL     OW21466   0.094   2.619  16.906
 3196SOL    HW121467   0.023   2.626  16.842
 3196SOL    HW221468   0.068   2.679  16.976
 3197SOL     OW21469   0.323   3.695  18.195
 3197SOL    HW121470   0.263   3.722  18.264
 3197SOL    HW221471   0.331   3.772  18.139
 3198SOL     OW21472   1.962   2.643  20.361
 3198SOL    HW121473   1.943   2.559  20.319
 3198SOL    HW221474   2.045   2.629  20.407
 3199SOL     OW21475   4.387   4.119   0.475
 3199SOL    HW121476   4.445   4.193   0.457
 3199SOL    HW221477   4.347   4.140   0.560
 3200SOL     OW21478   0.701   1.792   6.171
 3200SOL    HW121479   0.651   1.864   6.134
 3200SOL    HW221480   0.719   1.734   6.097
 3201SOL     OW21481   2.666   3.572  16.599
 3201SOL    HW121482   2.585   3.529  16.570
 3201SOL    HW221483   2.725   3.499  16.619
 3202SOL     OW21484   0.539   3.661  16.426
 3202SOL    HW121485   0.531   3.574  16.464
 3202SOL    HW221486   0.614   3.700  16.470
 3203SOL     OW21487   0.336   3.713  19.133
 3203SOL    HW121488   0.416   3.661  19.133
 3203SOL    HW221489   0.285   3.679  19.206
 3204SOL     OW21490   3.949   1.183  16.361
 3204SOL    HW121491   4.005   1.254  16.327
 3204SOL    HW221492   3.870   1.187  16.306
 3205SOL     OW21493   0.299   2.713  20.254
 3205SOL    HW121494   0.348   2.647  20.304
 3205SOL    HW221495   0.350   2.793  20.264
 3206SOL     OW21496   4.456   1.535  16.786
 3206SOL    HW121497   4.459   1.629  16.803
 3206SOL    HW221498   4.465   1.495  16.873
 3207SOL     OW21499   2.608   3.804  17.315
 3207SOL    HW121500   2.648   3.878  17.360
 3207SOL    HW221501   2.670   3.732  17.326
 3208SOL     OW21502   3.181   4.437  18.421
 3208SOL    HW121503   3.125   4.365  18.390
 3208SOL    HW221504   3.130   4.478  18.491
 3209SOL     OW21505   3.872   3.599  17.790
 3209SOL    HW121506   3.925   3.529  17.828
 3209SOL    HW221507   3.794   3.555  17.756
 3210SOL     OW21508   1.473   0.498  21.149
 3210SOL    HW121509   1.389   0.496  21.104
 3210SOL    HW221510   1.459   0.556  21.224
 3211SOL     OW21511   3.167   1.089   8.719
 3211SOL    HW121512   3.226   1.152   8.678
 3211SOL    HW221513   3.199   1.003   8.689
 3212SOL     OW21514   0.252   3.615  15.138
 3212SOL    HW121515   0.252   3.668  15.218
 3212SOL    HW221516   0.221   3.674  15.069
 3213SOL     OW21517   1.755   1.232  16.632
 3213SOL    HW121518   1.691   1.180  16.680
 3213SOL    HW221519   1.825   1.170  16.611
 3214SOL     OW21520   4.228   3.178   1.987
 3214SOL    HW121521   4.178   3.120   2.045
 3214SOL    HW221522   4.210   3.145   1.899
 3215SOL     OW21523   3.476   1.406  21.206
 3215SOL    HW121524   3.449   1.491  21.241
 3215SOL    HW221525   3.456   1.344   0.032
 3216SOL     OW21526   1.494   4.124   2.001
 3216SOL    HW121527   1.470   4.086   1.917
 3216SOL    HW221528   1.478   4.054   2.065
 3217SOL     OW21529   1.015   0.377  13.103
 3217SOL    HW121530   1.089   0.351  13.158
 3217SOL    HW221531   0.954   0.303  13.107
 3218SOL     OW21532   2.838   2.157  18.885
 3218SOL    HW121533   2.748   2.179  18.910
 3218SOL    HW221534   2.854   2.073  18.927
 3219SOL     OW21535   0.889   1.318   4.448
 3219SOL    HW121536   0.874   1.228   4.478
 3219SOL    HW221537   0.867   1.372   4.524
 3220SOL     OW21538   2.285   1.204   6.135
 3220SOL    HW121539   2.222   1.275   6.124
 3220SOL    HW221540   2.259   1.137   6.072
 3221SOL     OW21541   1.264   0.527   4.757
 3221SOL    HW121542   1.265   0.595   4.689
 3221SOL    HW221543   1.182   0.542   4.804
 3222SOL     OW21544   4.310   0.741   2.310
 3222SOL    HW121545   4.278   0.808   2.250
 3222SOL    HW221546   4.257   0.752   2.389
 3223SOL     OW21547   4.401   3.242  20.420
 3223SOL    HW121548   4.378   3.218  20.331
 3223SOL    HW221549   4.409   3.337  20.418
 3224SOL     OW21550   0.267   4.683   0.777
 3224SOL    HW121551   0.241   4.774   0.789
 3224SOL    HW221552   0.196   4.633   0.816
 3225SOL     OW21553   3.559   1.586   3.955
 3225SOL    HW121554   3.631   1.624   3.906
 3225SOL    HW221555   3.561   1.630   4.040
 3226SOL     OW21556   1.329   2.715   8.721
 3226SOL    HW121557   1.380   2.757   8.790
 3226SOL    HW221558   1.367   2.627   8.712
 3227SOL     OW21559   1.645   2.773  18.305
 3227SOL    HW121560   1.582   2.705  18.330
 3227SOL    HW221561   1.658   2.760  18.211
 3228SOL     OW21562   3.094   3.864  16.419
 3228SOL    HW121563   3.161   3.895  16.358
 3228SOL    HW221564   3.015   3.855  16.366
 3229SOL     OW21565   1.035   0.116   2.666
 3229SOL    HW121566   0.996   0.177   2.604
 3229SOL    HW221567   1.072   0.171   2.735
 3230SOL     OW21568   0.535   1.791   4.310
 3230SOL    HW121569   0.614   1.845   4.301
 3230SOL    HW221570   0.567   1.708   4.344
 3231SOL     OW21571   4.020   1.744   1.493
 3231SOL    HW121572   4.064   1.686   1.431
 3231SOL    HW221573   3.988   1.816   1.439
 3232SOL     OW21574   0.204   2.911   4.154
 3232SOL    HW121575   0.219   2.833   4.100
 3232SOL    HW221576   0.110   2.912   4.170
 3233SOL     OW21577   1.541   2.316  18.133
 3233SOL    HW121578   1.619   2.299  18.186
 3233SOL    HW221579   1.484   2.241  18.150
 3234SOL     OW21580   2.764   4.202  16.599
 3234SOL    HW121581   2.834   4.140  16.621
 3234SOL    HW221582   2.690   4.174  16.652
 3235SOL     OW21583   1.971   2.971   3.743
 3235SOL    HW121584   1.947   2.896   3.797
 3235SOL    HW221585   1.973   3.045   3.803
 3236SOL     OW21586   2.221   0.844  20.338
 3236SOL    HW121587   2.220   0.760  20.292
 3236SOL    HW221588   2.262   0.825  20.422
 3237SOL     OW21589   2.604   0.104   2.052
 3237SOL    HW121590   2.631   0.111   2.143
 3237SOL    HW221591   2.508   0.105   2.055
 3238SOL     OW21592   2.314   4.381   6.506
 3238SOL    HW121593   2.223   4.399   6.531
 3238SOL    HW221594   2.363   4.389   6.588
 3239SOL     OW21595   2.751   3.421  16.885
 3239SOL    HW121596   2.816   3.491  16.896
 3239SOL    HW221597   2.770   3.385  16.799
 3240SOL     OW21598   2.999   2.758   5.995
 3240SOL    HW121599   3.015   2.767   6.089
 3240SOL    HW221600   2.988   2.847   5.963
 3241SOL     OW21601   2.913   0.885   6.082
 3241SOL    HW121602   2.876   0.868   6.168
 3241SOL    HW221603   2.838   0.881   6.022
 3242SOL     OW21604   1.058   4.657   2.502
 3242SOL    HW121605   1.085   4.744   2.531
 3242SOL    HW221606   1.137   4.617   2.467
 3243SOL     OW21607   3.928   4.405   5.880
 3243SOL    HW121608   3.876   4.483   5.861
 3243SOL    HW221609   3.866   4.342   5.916
 3244SOL     OW21610   2.111   2.685  19.641
 3244SOL    HW121611   2.042   2.620  19.648
 3244SOL    HW221612   2.191   2.634  19.630
 3245SOL     OW21613   1.277   3.177   4.254
 3245SOL    HW121614   1.192   3.139   4.235
 3245SOL    HW221615   1.340   3.106   4.239
 3246SOL     OW21616   4.042   3.449  15.740
 3246SOL    HW121617   3.965   3.409  15.698
 3246SOL    HW221618   4.110   3.382  15.733
 3247SOL     OW21619   1.086   3.005   0.610
 3247SOL    HW121620   1.177   2.989   0.637
 3247SOL    HW221621   1.078   3.100   0.608
 3248SOL     OW21622   4.080   3.398  21.025
 3248SOL    HW121623   4.009   3.334  21.014
 3248SOL    HW221624   4.059   3.444  21.106
 3249SOL     OW21625   2.134   4.454  20.526
 3249SOL    HW121626   2.138   4.523  20.460
 3249SOL    HW221627   2.041   4.441  20.543
 3250SOL     OW21628   3.695   0.728  19.420
 3250SOL    HW121629   3.631   0.702  19.354
 3250SOL    HW221630   3.704   0.651  19.476
 3251SOL     OW21631   4.545   4.451   5.827
 3251SOL    HW121632   4.476   4.503   5.786
 3251SOL    HW221633   4.557   4.377   5.768
 3252SOL     OW21634   2.101   1.287  18.769
 3252SOL    HW121635   2.022   1.236  18.786
 3252SOL    HW221636   2.171   1.222  18.764
 3253SOL     OW21637   3.796   1.935   3.842
 3253SOL    HW121638   3.876   1.961   3.797
 3253SOL    HW221639   3.725   1.966   3.785
 3254SOL     OW21640   1.536   3.086  14.617
 3254SOL    HW121641   1.465   3.026  14.640
 3254SOL    HW221642   1.550   3.073  14.523
 3255SOL     OW21643   0.956   4.561   1.484
 3255SOL    HW121644   0.931   4.649   1.456
 3255SOL    HW221645   0.980   4.571   1.576
 3256SOL     OW21646   4.396   0.562   5.828
 3256SOL    HW121647   4.324   0.508   5.794
 3256SOL    HW221648   4.415   0.525   5.914
 3257SOL     OW21649   1.126   2.162  18.405
 3257SOL    HW121650   1.052   2.155  18.345
 3257SOL    HW221651   1.086   2.177  18.491
 3258SOL     OW21652   1.951   0.441  21.018
 3258SOL    HW121653   1.905   0.524  21.002
 3258SOL    HW221654   1.915   0.409  21.100
 3259SOL     OW21655   0.353   3.889   5.496
 3259SOL    HW121656   0.380   3.824   5.432
 3259SOL    HW221657   0.431   3.941   5.512
 3260SOL     OW21658   4.606   2.248   3.923
 3260SOL    HW121659   4.656   2.321   3.885
 3260SOL    HW221660   4.672   2.187   3.954
 3261SOL     OW21661   4.040   4.616  18.181
 3261SOL    HW121662   4.028   4.696  18.130
 3261SOL    HW221663   4.131   4.621  18.211
 3262SOL     OW21664   1.837   2.219   0.313
 3262SOL    HW121665   1.780   2.190   0.384
 3262SOL    HW221666   1.820   2.312   0.304
 3263SOL     OW21667   1.971   2.581  18.401
 3263SOL    HW121668   1.999   2.671  18.385
 3263SOL    HW221669   2.008   2.531  18.328
 3264SOL     OW21670   2.555   4.043  19.532
 3264SOL    HW121671   2.591   3.958  19.505
 3264SOL    HW221672   2.466   4.023  19.559
 3265SOL     OW21673   4.522   3.468   3.367
 3265SOL    HW121674   4.434   3.494   3.394
 3265SOL    HW221675   4.508   3.390   3.313
 3266SOL     OW21676   0.096   2.115   3.303
 3266SOL    HW121677   0.050   2.185   3.258
 3266SOL    HW221678   0.160   2.084   3.240
 3267SOL     OW21679   3.316   2.044   1.621
 3267SOL    HW121680   3.251   1.988   1.580
 3267SOL    HW221681   3.291   2.133   1.596
 3268SOL     OW21682   0.777   2.896  15.344
 3268SOL    HW121683   0.859   2.945  15.337
 3268SOL    HW221684   0.709   2.963  15.348
 3269SOL     OW21685   2.429   3.767  17.577
 3269SOL    HW121686   2.428   3.824  17.654
 3269SOL    HW221687   2.366   3.806  17.517
 3270SOL     OW21688   0.157   0.657  17.050
 3270SOL    HW121689   0.100   0.725  17.085
 3270SOL    HW221690   0.172   0.683  16.959
 3271SOL     OW21691   2.568   2.545   2.477
 3271SOL    HW121692   2.541   2.543   2.569
 3271SOL    HW221693   2.569   2.453   2.450
 3272SOL     OW21694   2.299   1.933   1.857
 3272SOL    HW121695   2.250   1.920   1.775
 3272SOL    HW221696   2.328   2.024   1.854
 3273SOL     OW21697   0.089   3.427   5.137
 3273SOL    HW121698   0.056   3.487   5.204
 3273SOL    HW221699   0.076   3.473   5.055
 3274SOL     OW21700   0.536   3.433  18.508
 3274SOL    HW121701   0.445   3.405  18.513
 3274SOL    HW221702   0.580   3.384  18.577
 3275SOL     OW21703   3.331   1.797  20.053
 3275SOL    HW121704   3.357   1.720  20.104
 3275SOL    HW221705   3.253   1.830  20.098
 3276SOL     OW21706   2.081   2.987  17.497
 3276SOL    HW121707   2.032   2.905  17.503
 3276SOL    HW221708   2.022   3.046  17.451
 3277SOL     OW21709   3.476   0.575  15.702
 3277SOL    HW121710   3.511   0.490  15.675
 3277SOL    HW221711   3.402   0.554  15.760
 3278SOL     OW21712   4.413   2.958  18.900
 3278SOL    HW121713   4.468   2.914  18.836
 3278SOL    HW221714   4.415   2.902  18.977
 3279SOL     OW21715   1.456   1.753   5.104
 3279SOL    HW121716   1.448   1.658   5.105
 3279SOL    HW221717   1.430   1.781   5.191
 3280SOL     OW21718   2.842   1.382   0.058
 3280SOL    HW121719   2.803   1.418   0.137
 3280SOL    HW221720   2.890   1.454   0.019
 3281SOL     OW21721   4.407   2.022  20.658
 3281SOL    HW121722   4.426   1.978  20.741
 3281SOL    HW221723   4.363   2.103  20.683
 3282SOL     OW21724   2.886   3.531   4.531
 3282SOL    HW121725   2.843   3.548   4.447
 3282SOL    HW221726   2.980   3.531   4.510
 3283SOL     OW21727   1.899   0.268  14.002
 3283SOL    HW121728   1.834   0.218  13.953
 3283SOL    HW221729   1.968   0.288  13.938
 3284SOL     OW21730   0.745   2.666  17.746
 3284SOL    HW121731   0.787   2.631  17.667
 3284SOL    HW221732   0.809   2.728  17.781
 3285SOL     OW21733   1.025   1.418  17.801
 3285SOL    HW121734   0.932   1.402  17.814
 3285SOL    HW221735   1.064   1.406  17.887
 3286SOL     OW21736   4.579   4.623   3.008
 3286SOL    HW121737   4.631   4.590   2.935
 3286SOL    HW221738   4.579   4.718   2.997
 3287SOL     OW21739   0.703   0.129   5.504
 3287SOL    HW121740   0.772   0.080   5.548
 3287SOL    HW221741   0.672   0.071   5.434
 3288SOL     OW21742   2.275   1.367  19.818
 3288SOL    HW121743   2.295   1.347  19.726
 3288SOL    HW221744   2.359   1.358  19.863
 3289SOL     OW21745   2.362   3.591   6.541
 3289SOL    HW121746   2.393   3.682   6.538
 3289SOL    HW221747   2.321   3.583   6.627
 3290SOL     OW21748   2.291   1.015   8.485
 3290SOL    HW121749   2.260   1.042   8.399
 3290SOL    HW221750   2.281   0.920   8.485
 3291SOL     OW21751   1.914   0.600   3.109
 3291SOL    HW121752   1.858   0.522   3.113
 3291SOL    HW221753   1.902   0.634   3.020
 3292SOL     OW21754   1.218   4.765   1.636
 3292SOL    HW121755   1.276   0.043   1.597
 3292SOL    HW221756   1.145   4.757   1.574
 3293SOL     OW21757   3.386   2.498  19.940
 3293SOL    HW121758   3.354   2.573  19.889
 3293SOL    HW221759   3.480   2.495  19.921
 3294SOL     OW21760   0.695   0.921   1.126
 3294SOL    HW121761   0.687   0.838   1.080
 3294SOL    HW221762   0.616   0.928   1.180
 3295SOL     OW21763   0.963   0.063   6.761
 3295SOL    HW121764   0.993   0.109   6.682
 3295SOL    HW221765   0.917   4.773   6.728
 3296SOL     OW21766   0.980   4.117  18.085
 3296SOL    HW121767   0.948   4.072  18.163
 3296SOL    HW221768   0.995   4.207  18.113
 3297SOL     OW21769   2.380   4.201  13.636
 3297SOL    HW121770   2.408   4.138  13.703
 3297SOL    HW221771   2.363   4.147  13.559
 3298SOL     OW21772   2.429   4.147  12.734
 3298SOL    HW121773   2.349   4.127  12.687
 3298SOL    HW221774   2.400   4.198  12.810
 3299SOL     OW21775   1.528   0.899   6.429
 3299SOL    HW121776   1.497   0.900   6.338
 3299SOL    HW221777   1.449   0.909   6.482
 3300SOL     OW21778   1.118   0.770  16.599
 3300SOL    HW121779   1.174   0.772  16.521
 3300SOL    HW221780   1.131   0.683  16.636
 3301SOL     OW21781   0.596   0.953   2.103
 3301SOL    HW121782   0.514   0.969   2.149
 3301SOL    HW221783   0.663   0.997   2.156
 3302SOL     OW21784   3.025   4.574   2.265
 3302SOL    HW121785   3.110   4.618   2.263
 3302SOL    HW221786   2.970   4.624   2.205
 3303SOL     OW21787   4.397   0.540   4.447
 3303SOL    HW121788   4.491   0.525   4.444
 3303SOL    HW221789   4.373   0.563   4.358
 3304SOL     OW21790   2.178   0.383   4.417
 3304SOL    HW121791   2.119   0.459   4.411
 3304SOL    HW221792   2.266   0.421   4.421
 3305SOL     OW21793   0.604   1.729   4.882
 3305SOL    HW121794   0.533   1.683   4.926
 3305SOL    HW221795   0.566   1.812   4.855
 3306SOL     OW21796   1.557   0.450   2.749
 3306SOL    HW121797   1.517   0.439   2.663
 3306SOL    HW221798   1.503   0.398   2.808
 3307SOL     OW21799   1.054   4.671  19.005
 3307SOL    HW121800   0.996   4.635  18.938
 3307SOL    HW221801   1.007   4.657  19.087
 3308SOL     OW21802   1.690   0.782   8.286
 3308SOL    HW121803   1.771   0.761   8.238
 3308SOL    HW221804   1.628   0.810   8.219
 3309SOL     OW21805   4.677   2.763   2.420
 3309SOL    HW121806   4.635   2.835   2.372
 3309SOL    HW221807   4.770   2.771   2.398
 3310SOL     OW21808   4.047   4.424  19.636
 3310SOL    HW121809   3.994   4.434  19.715
 3310SOL    HW221810   4.124   4.479  19.652
 3311SOL     OW21811   3.854   1.649   2.424
 3311SOL    HW121812   3.940   1.691   2.423
 3311SOL    HW221813   3.849   1.601   2.342
 3312SOL     OW21814   2.219   2.791  15.510
 3312SOL    HW121815   2.177   2.707  15.529
 3312SOL    HW221816   2.150   2.856  15.523
 3313SOL     OW21817   0.903   2.721  17.315
 3313SOL    HW121818   0.972   2.776  17.277
 3313SOL    HW221819   0.885   2.655  17.248
 3314SOL     OW21820   1.116   3.380   5.643
 3314SOL    HW121821   1.036   3.363   5.593
 3314SOL    HW221822   1.112   3.474   5.662
 3315SOL     OW21823   4.549   3.759  17.162
 3315SOL    HW121824   4.482   3.768  17.229
 3315SOL    HW221825   4.623   3.811  17.195
 3316SOL     OW21826   1.207   0.969   1.432
 3316SOL    HW121827   1.270   0.914   1.386
 3316SOL    HW221828   1.259   1.042   1.465
 3317SOL     OW21829   1.273   1.421   5.678
 3317SOL    HW121830   1.274   1.462   5.765
 3317SOL    HW221831   1.230   1.486   5.622
 3318SOL     OW21832   1.472   3.783   7.775
 3318SOL    HW121833   1.384   3.760   7.745
 3318SOL    HW221834   1.530   3.742   7.710
 3319SOL     OW21835   4.702   3.242  15.422
 3319SOL    HW121836   4.735   3.195  15.499
 3319SOL    HW221837   4.768   3.228  15.354
 3320SOL     OW21838   3.968   4.649  14.210
 3320SOL    HW121839   3.921   4.723  14.172
 3320SOL    HW221840   3.900   4.589  14.241
 3321SOL     OW21841   1.465   3.381  20.627
 3321SOL    HW121842   1.450   3.465  20.671
 3321SOL    HW221843   1.436   3.395  20.537
 3322SOL     OW21844   4.590   1.461  16.548
 3322SOL    HW121845   4.522   1.492  16.607
 3322SOL    HW221846   4.605   1.370  16.574
 3323SOL     OW21847   0.768   1.384   3.808
 3323SOL    HW121848   0.773   1.451   3.875
 3323SOL    HW221849   0.853   1.389   3.764
 3324SOL     OW21850   2.113   1.351  17.693
 3324SOL    HW121851   2.148   1.266  17.666
 3324SOL    HW221852   2.106   1.345  17.788
 3325SOL     OW21853   3.328   0.333  14.685
 3325SOL    HW121854   3.394   0.312  14.619
 3325SOL    HW221855   3.330   0.259  14.746
 3326SOL     OW21856   2.487   1.600   3.473
 3326SOL    HW121857   2.572   1.602   3.430
 3326SOL    HW221858   2.458   1.509   3.464
 3327SOL     OW21859   3.847   2.781   7.375
 3327SOL    HW121860   3.802   2.865   7.388
 3327SOL    HW221861   3.874   2.754   7.463
 3328SOL     OW21862   0.061   3.713  17.738
 3328SOL    HW121863   0.124   3.692  17.669
 3328SOL    HW221864   0.115   3.734  17.814
 3329SOL     OW21865   1.011   1.366   0.835
 3329SOL    HW121866   1.024   1.297   0.900
 3329SOL    HW221867   0.947   1.425   0.875
 3330SOL     OW21868   1.355   4.682  18.689
 3330SOL    HW121869   1.380   4.606  18.637
 3330SOL    HW221870   1.352   4.754  18.626
 3331SOL     OW21871   1.573   0.449  16.670
 3331SOL    HW121872   1.634   0.390  16.627
 3331SOL    HW221873   1.608   0.462  16.758
 3332SOL     OW21874   0.821   2.308   3.410
 3332SOL    HW121875   0.759   2.378   3.390
 3332SOL    HW221876   0.859   2.284   3.325
 3333SOL     OW21877   2.363   3.058  18.659
 3333SOL    HW121878   2.427   3.055  18.587
 3333SOL    HW221879   2.297   2.993  18.636
 3334SOL     OW21880   1.822   2.838   0.428
 3334SOL    HW121881   1.746   2.827   0.485
 3334SOL    HW221882   1.889   2.780   0.465
 3335SOL     OW21883   0.285   3.202  19.260
 3335SOL    HW121884   0.347   3.220  19.190
 3335SOL    HW221885   0.203   3.182  19.215
 3336SOL     OW21886   2.617   1.577   6.387
 3336SOL    HW121887   2.703   1.540   6.368
 3336SOL    HW221888   2.624   1.612   6.475
 3337SOL     OW21889   1.279   2.111  20.620
 3337SOL    HW121890   1.371   2.085  20.615
 3337SOL    HW221891   1.241   2.079  20.538
 3338SOL     OW21892   2.511   4.093   2.817
 3338SOL    HW121893   2.439   4.154   2.797
 3338SOL    HW221894   2.479   4.041   2.891
 3339SOL     OW21895   2.342   3.036   6.741
 3339SOL    HW121896   2.288   2.963   6.710
 3339SOL    HW221897   2.310   3.053   6.829
 3340SOL     OW21898   0.766   0.445  15.325
 3340SOL    HW121899   0.754   0.482  15.412
 3340SOL    HW221900   0.731   0.512  15.265
 3341SOL     OW21901   2.352   4.247   3.684
 3341SOL    HW121902   2.428   4.305   3.692
 3341SOL    HW221903   2.304   4.281   3.608
 3342SOL     OW21904   2.312   1.835   1.471
 3342SOL    HW121905   2.352   1.756   1.435
 3342SOL    HW221906   2.385   1.891   1.495
 3343SOL     OW21907   1.384   0.228   4.355
 3343SOL    HW121908   1.465   0.243   4.405
 3343SOL    HW221909   1.329   0.176   4.414
 3344SOL     OW21910   1.120   2.725   4.902
 3344SOL    HW121911   1.120   2.649   4.960
 3344SOL    HW221912   1.191   2.781   4.934
 3345SOL     OW21913   3.772   3.071  19.561
 3345SOL    HW121914   3.841   3.134  19.579
 3345SOL    HW221915   3.698   3.101  19.616
 3346SOL     OW21916   1.323   1.486  20.224
 3346SOL    HW121917   1.294   1.575  20.243
 3346SOL    HW221918   1.278   1.462  20.143
 3347SOL     OW21919   3.725   1.776  18.813
 3347SOL    HW121920   3.669   1.850  18.789
 3347SOL    HW221921   3.675   1.698  18.789
 3348SOL     OW21922   3.484   1.671   3.634
 3348SOL    HW121923   3.522   1.583   3.643
 3348SOL    HW221924   3.450   1.690   3.721
 3349SOL     OW21925   0.188   3.918  17.011
 3349SOL    HW121926   0.232   4.003  17.018
 3349SOL    HW221927   0.159   3.899  17.100
 3350SOL     OW21928   3.081   0.508  17.976
 3350SOL    HW121929   3.111   0.599  17.978
 3350SOL    HW221930   3.160   0.456  17.962
 3351SOL     OW21931   4.524   3.308   1.721
 3351SOL    HW121932   4.531   3.245   1.650
 3351SOL    HW221933   4.452   3.366   1.695
 3352SOL     OW21934   3.111   2.571   3.518
 3352SOL    HW121935   3.125   2.619   3.437
 3352SOL    HW221936   3.125   2.479   3.495
 3353SOL     OW21937   0.634   4.154  16.500
 3353SOL    HW121938   0.618   4.240  16.538
 3353SOL    HW221939   0.561   4.100  16.529
 3354SOL     OW21940   0.240   0.023  14.466
 3354SOL    HW121941   0.229   4.721  14.501
 3354SOL    HW221942   0.278   0.073  14.539
 3355SOL     OW21943   1.856   0.688   4.175
 3355SOL    HW121944   1.795   0.744   4.127
 3355SOL    HW221945   1.801   0.622   4.218
 3356SOL     OW21946   2.014   3.745  17.965
 3356SOL    HW121947   2.011   3.675  18.030
 3356SOL    HW221948   1.952   3.811  17.997
 3357SOL     OW21949   1.107   0.263   6.009
 3357SOL    HW121950   1.037   0.317   5.973
 3357SOL    HW221951   1.126   0.200   5.939
 3358SOL     OW21952   4.072   2.699  19.589
 3358SOL    HW121953   4.154   2.739  19.559
 3358SOL    HW221954   4.015   2.772  19.611
 3359SOL     OW21955   2.141   1.697  17.973
 3359SOL    HW121956   2.097   1.638  17.912
 3359SOL    HW221957   2.234   1.676  17.962
 3360SOL     OW21958   4.613   1.754   0.309
 3360SOL    HW121959   4.681   1.744   0.242
 3360SOL    HW221960   4.573   1.667   0.316
 3361SOL     OW21961   4.131   4.617  21.170
 3361SOL    HW121962   4.099   4.683  21.231
 3361SOL    HW221963   4.195   4.663  21.116
 3362SOL     OW21964   4.290   3.202  19.552
 3362SOL    HW121965   4.248   3.261  19.490
 3362SOL    HW221966   4.383   3.227  19.550
 3363SOL     OW21967   4.000   4.582  19.409
 3363SOL    HW121968   3.933   4.634  19.452
 3363SOL    HW221969   4.024   4.515  19.473
 3364SOL     OW21970   0.238   3.681   5.839
 3364SOL    HW121971   0.312   3.706   5.895
 3364SOL    HW221972   0.254   3.728   5.757
 3365SOL     OW21973   4.245   2.650   5.783
 3365SOL    HW121974   4.248   2.558   5.811
 3365SOL    HW221975   4.322   2.660   5.728
 3366SOL     OW21976   4.657   0.022   6.040
 3366SOL    HW121977   4.602   4.731   6.045
 3366SOL    HW221978   4.594   0.094   6.032
 3367SOL     OW21979   0.504   2.514  18.969
 3367SOL    HW121980   0.505   2.455  18.893
 3367SOL    HW221981   0.581   2.570  18.956
 3368SOL     OW21982   1.361   0.481  18.766
 3368SOL    HW121983   1.421   0.549  18.734
 3368SOL    HW221984   1.281   0.529  18.789
 3369SOL     OW21985   3.152   1.373   4.740
 3369SOL    HW121986   3.086   1.305   4.728
 3369SOL    HW221987   3.197   1.349   4.821
 3370SOL     OW21988   0.053   1.927   7.681
 3370SOL    HW121989   0.139   1.909   7.642
 3370SOL    HW221990   0.025   1.844   7.718
 3371SOL     OW21991   3.333   0.890  18.396
 3371SOL    HW121992   3.246   0.849  18.397
 3371SOL    HW221993   3.377   0.852  18.320
 3372SOL     OW21994   2.414   2.373  15.363
 3372SOL    HW121995   2.424   2.288  15.406
 3372SOL    HW221996   2.496   2.418  15.379
 3373SOL     OW21997   2.775   4.451   2.258
 3373SOL    HW121998   2.698   4.404   2.225
 3373SOL    HW221999   2.744   4.541   2.272
 3374SOL     OW22000   1.856   2.567  19.248
 3374SOL    HW122001   1.878   2.476  19.269
 3374SOL    HW222002   1.792   2.560  19.177
 3375SOL     OW22003   2.359   4.271   2.916
 3375SOL    HW122004   2.315   4.350   2.884
 3375SOL    HW222005   2.380   4.291   3.007
 3376SOL     OW22006   3.587   3.906  19.890
 3376SOL    HW122007   3.492   3.894  19.883
 3376SOL    HW222008   3.608   3.969  19.821
 3377SOL     OW22009   1.021   3.772   4.736
 3377SOL    HW122010   1.045   3.744   4.825
 3377SOL    HW222011   1.099   3.755   4.683
 3378SOL     OW22012   1.407   3.372   4.113
 3378SOL    HW122013   1.356   3.324   4.179
 3378SOL    HW222014   1.417   3.309   4.041
 3379SOL     OW22015   1.456   2.310  19.038
 3379SOL    HW122016   1.402   2.388  19.056
 3379SOL    HW222017   1.546   2.340  19.049
 3380SOL     OW22018   2.579   2.890   6.703
 3380SOL    HW122019   2.495   2.928   6.728
 3380SOL    HW222020   2.600   2.828   6.773
 3381SOL     OW22021   3.296   2.580   0.349
 3381SOL    HW122022   3.214   2.583   0.399
 3381SOL    HW222023   3.269   2.562   0.259
 3382SOL     OW22024   0.155   1.178   4.298
 3382SOL    HW122025   0.231   1.167   4.240
 3382SOL    HW222026   0.191   1.163   4.386
 3383SOL     OW22027   0.040   1.193  20.041
 3383SOL    HW122028   4.776   1.265  20.077
 3383SOL    HW222029   0.023   1.120  20.100
 3384SOL     OW22030   0.469   1.516   2.335
 3384SOL    HW122031   0.416   1.570   2.393
 3384SOL    HW222032   0.507   1.578   2.273
 3385SOL     OW22033   3.181   4.331  13.627
 3385SOL    HW122034   3.104   4.278  13.646
 3385SOL    HW222035   3.185   4.335  13.532
 3386SOL     OW22036   3.012   4.434   0.609
 3386SOL    HW122037   3.044   4.378   0.538
 3386SOL    HW222038   3.065   4.513   0.604
 3387SOL     OW22039   4.210   3.200  20.629
 3387SOL    HW122040   4.201   3.112  20.592
 3387SOL    HW222041   4.283   3.239  20.581
 3388SOL     OW22042   3.628   3.169   2.005
 3388SOL    HW122043   3.718   3.181   2.033
 3388SOL    HW222044   3.604   3.081   2.035
 3389SOL     OW22045   2.604   1.212  15.818
 3389SOL    HW122046   2.664   1.283  15.840
 3389SOL    HW222047   2.652   1.132  15.841
 3390SOL     OW22048   0.317   3.678  18.860
 3390SOL    HW122049   0.224   3.655  18.868
 3390SOL    HW222050   0.332   3.740  18.931
 3391SOL     OW22051   1.065   2.366   8.130
 3391SOL    HW122052   0.981   2.324   8.116
 3391SOL    HW222053   1.068   2.386   8.224
 3392SOL     OW22054   1.728   0.678   1.069
 3392SOL    HW122055   1.719   0.772   1.082
 3392SOL    HW222056   1.776   0.647   1.146
 3393SOL     OW22057   2.580   1.016  19.693
 3393SOL    HW122058   2.536   0.966  19.624
 3393SOL    HW222059   2.524   1.092  19.707
 3394SOL     OW22060   3.998   3.226  15.402
 3394SOL    HW122061   3.949   3.205  15.481
 3394SOL    HW222062   4.027   3.141  15.368
 3395SOL     OW22063   3.098   1.086   1.941
 3395SOL    HW122064   3.171   1.041   1.899
 3395SOL    HW222065   3.026   1.022   1.941
 3396SOL     OW22066   0.401   4.189  16.864
 3396SOL    HW122067   0.375   4.278  16.841
 3396SOL    HW222068   0.395   4.187  16.960
 3397SOL     OW22069   2.290   1.625  17.468
 3397SOL    HW122070   2.316   1.636  17.377
 3397SOL    HW222071   2.225   1.555  17.467
 3398SOL     OW22072   1.693   3.153   7.517
 3398SOL    HW122073   1.678   3.138   7.424
 3398SOL    HW222074   1.653   3.238   7.535
 3399SOL     OW22075   4.268   0.856  17.502
 3399SOL    HW122076   4.207   0.785  17.518
 3399SOL    HW222077   4.341   0.841  17.563
 3400SOL     OW22078   2.284   2.314  17.207
 3400SOL    HW122079   2.305   2.251  17.277
 3400SOL    HW222080   2.247   2.260  17.137
 3401SOL     OW22081   3.687   4.153  18.320
 3401SOL    HW122082   3.718   4.184  18.405
 3401SOL    HW222083   3.728   4.212  18.257
 3402SOL     OW22084   3.475   1.018   0.261
 3402SOL    HW122085   3.513   1.022   0.173
 3402SOL    HW222086   3.489   0.928   0.290
 3403SOL     OW22087   2.987   1.883   1.642
 3403SOL    HW122088   2.950   1.942   1.576
 3403SOL    HW222089   3.005   1.802   1.594
 3404SOL     OW22090   0.844   1.095  19.912
 3404SOL    HW122091   0.816   1.187  19.914
 3404SOL    HW222092   0.772   1.049  19.869
 3405SOL     OW22093   1.458   2.024  17.001
 3405SOL    HW122094   1.481   2.098  16.944
 3405SOL    HW222095   1.380   1.986  16.961
 3406SOL     OW22096   1.006   2.391  17.763
 3406SOL    HW122097   1.016   2.479  17.799
 3406SOL    HW222098   1.086   2.346  17.788
 3407SOL     OW22099   2.282   1.397   1.697
 3407SOL    HW122100   2.356   1.354   1.739
 3407SOL    HW222101   2.216   1.406   1.765
 3408SOL     OW22102   3.479   2.026   3.980
 3408SOL    HW122103   3.510   2.053   3.893
 3408SOL    HW222104   3.384   2.016   3.968
 3409SOL     OW22105   2.892   3.272   1.471
 3409SOL    HW122106   2.935   3.303   1.391
 3409SOL    HW222107   2.953   3.295   1.541
 3410SOL     OW22108   0.663   4.088   6.510
 3410SOL    HW122109   0.704   4.138   6.581
 3410SOL    HW222110   0.574   4.069   6.542
 3411SOL     OW22111   3.699   3.214  17.631
 3411SOL    HW122112   3.697   3.148  17.701
 3411SOL    HW222113   3.699   3.298  17.677
 3412SOL     OW22114   4.666   3.828  15.849
 3412SOL    HW122115   4.681   3.738  15.818
 3412SOL    HW222116   4.727   3.839  15.921
 3413SOL     OW22117   2.422   4.631  18.061
 3413SOL    HW122118   2.428   4.720  18.025
 3413SOL    HW222119   2.425   4.643  18.155
 3414SOL     OW22120   0.509   0.834  20.358
 3414SOL    HW122121   0.420   0.805  20.338
 3414SOL    HW222122   0.500   0.880  20.442
 3415SOL     OW22123   1.446   4.282  19.000
 3415SOL    HW122124   1.411   4.289  19.088
 3415SOL    HW222125   1.417   4.362  18.956
 3416SOL     OW22126   0.571   4.203  19.000
 3416SOL    HW122127   0.618   4.176  18.921
 3416SOL    HW222128   0.630   4.265  19.043
 3417SOL     OW22129   1.271   3.173   4.914
 3417SOL    HW122130   1.295   3.161   4.822
 3417SOL    HW222131   1.193   3.229   4.911
 3418SOL     OW22132   2.564   2.145   5.928
 3418SOL    HW122133   2.594   2.121   5.840
 3418SOL    HW222134   2.480   2.189   5.913
 3419SOL     OW22135   1.877   0.111  14.239
 3419SOL    HW122136   1.886   0.148  14.151
 3419SOL    HW222137   1.919   0.025  14.233
 3420SOL     OW22138   1.095   0.229  19.518
 3420SOL    HW122139   1.017   0.215  19.572
 3420SOL    HW222140   1.103   0.324  19.510
 3421SOL     OW22141   3.734   3.231   6.466
 3421SOL    HW122142   3.766   3.313   6.504
 3421SOL    HW222143   3.663   3.204   6.525
 3422SOL     OW22144   0.451   2.653   3.856
 3422SOL    HW122145   0.478   2.741   3.880
 3422SOL    HW222146   0.404   2.620   3.932
 3423SOL     OW22147   0.593   2.064  15.986
 3423SOL    HW122148   0.511   2.041  15.943
 3423SOL    HW222149   0.616   1.986  16.036
 3424SOL     OW22150   0.817   2.387  20.268
 3424SOL    HW122151   0.873   2.361  20.341
 3424SOL    HW222152   0.729   2.362  20.295
 3425SOL     OW22153   3.157   2.289   6.511
 3425SOL    HW122154   3.182   2.224   6.446
 3425SOL    HW222155   3.089   2.342   6.468
 3426SOL     OW22156   0.721   3.924   2.657
 3426SOL    HW122157   0.700   4.011   2.625
 3426SOL    HW222158   0.803   3.935   2.705
 3427SOL     OW22159   0.975   2.342  21.117
 3427SOL    HW122160   1.034   2.333  21.043
 3427SOL    HW222161   0.952   2.252  21.141
 3428SOL     OW22162   1.654   1.210   2.248
 3428SOL    HW122163   1.710   1.151   2.299
 3428SOL    HW222164   1.684   1.200   2.158
 3429SOL     OW22165   3.712   2.609   2.954
 3429SOL    HW122166   3.737   2.658   3.032
 3429SOL    HW222167   3.769   2.643   2.885
 3430SOL     OW22168   1.370   2.936   0.011
 3430SOL    HW122169   1.367   2.897   0.098
 3430SOL    HW222170   1.364   2.862  21.196
 3431SOL     OW22171   2.880   1.983   9.353
 3431SOL    HW122172   2.938   1.917   9.392
 3431SOL    HW222173   2.895   2.062   9.404
 3432SOL     OW22174   2.720   4.584   8.035
 3432SOL    HW122175   2.777   4.660   8.025
 3432SOL    HW222176   2.698   4.559   7.945
 3433SOL     OW22177   4.229   3.724   7.930
 3433SOL    HW122178   4.190   3.807   7.956
 3433SOL    HW222179   4.271   3.742   7.846
 3434SOL     OW22180   3.854   4.035   9.581
 3434SOL    HW122181   3.843   3.950   9.624
 3434SOL    HW222182   3.905   4.087   9.643
 3435SOL     OW22183   1.262   2.479   7.744
 3435SOL    HW122184   1.339   2.536   7.743
 3435SOL    HW222185   1.191   2.534   7.711
 3436SOL     OW22186   1.314   1.066   8.703
 3436SOL    HW122187   1.370   1.042   8.629
 3436SOL    HW222188   1.375   1.078   8.776
 3437SOL     OW22189   1.741   1.562   6.210
 3437SOL    HW122190   1.779   1.649   6.221
 3437SOL    HW222191   1.787   1.508   6.275
 3438SOL     OW22192   1.477   0.505   8.992
 3438SOL    HW122193   1.447   0.440   9.054
 3438SOL    HW222194   1.535   0.458   8.932
 3439SOL     OW22195   1.737   0.177   5.806
 3439SOL    HW122196   1.717   0.086   5.826
 3439SOL    HW222197   1.665   0.227   5.846
 3440SOL     OW22198   4.476   3.120   1.449
 3440SOL    HW122199   4.420   3.150   1.377
 3440SOL    HW222200   4.542   3.065   1.406
 3441SOL     OW22201   1.934   0.377   8.205
 3441SOL    HW122202   1.881   0.445   8.246
 3441SOL    HW222203   1.911   0.381   8.113
 3442SOL     OW22204   3.955   1.334   4.645
 3442SOL    HW122205   3.876   1.293   4.681
 3442SOL    HW222206   3.996   1.376   4.721
 3443SOL     OW22207   3.318   0.876   8.629
 3443SOL    HW122208   3.301   0.789   8.666
 3443SOL    HW222209   3.408   0.871   8.597
 3444SOL     OW22210   2.472   4.352   7.535
 3444SOL    HW122211   2.491   4.442   7.561
 3444SOL    HW222212   2.526   4.339   7.457
 3445SOL     OW22213   0.991   3.974   3.073
 3445SOL    HW122214   0.960   3.902   3.127
 3445SOL    HW222215   0.979   3.944   2.983
 3446SOL     OW22216   4.678   3.731   9.314
 3446SOL    HW122217   4.613   3.742   9.383
 3446SOL    HW222218   4.723   3.815   9.309
 3447SOL     OW22219   2.825   3.133   1.057
 3447SOL    HW122220   2.790   3.149   0.970
 3447SOL    HW222221   2.774   3.189   1.115
 3448SOL     OW22222   1.078   3.373   9.339
 3448SOL    HW122223   1.019   3.376   9.414
 3448SOL    HW222224   1.151   3.318   9.369
 3449SOL     OW22225   2.662   4.118  10.113
 3449SOL    HW122226   2.715   4.133  10.192
 3449SOL    HW222227   2.725   4.091  10.046
 3450SOL     OW22228   3.328   3.519  10.858
 3450SOL    HW122229   3.304   3.602  10.817
 3450SOL    HW222230   3.298   3.526  10.948
 3451SOL     OW22231   4.455   2.920  10.175
 3451SOL    HW122232   4.508   2.843  10.153
 3451SOL    HW222233   4.373   2.884  10.207
 3452SOL     OW22234   2.688   3.816   9.229
 3452SOL    HW122235   2.762   3.790   9.285
 3452SOL    HW222236   2.713   3.902   9.195
 3453SOL     OW22237   4.763   4.586   9.494
 3453SOL    HW122238   4.693   4.651   9.502
 3453SOL    HW222239   4.753   4.551   9.406
 3454SOL     OW22240   3.502   4.460  10.366
 3454SOL    HW122241   3.413   4.476  10.334
 3454SOL    HW222242   3.504   4.367  10.388
 3455SOL     OW22243   4.719   0.707   9.399
 3455SOL    HW122244   4.728   0.761   9.477
 3455SOL    HW222245   4.649   0.645   9.421
 3456SOL     OW22246   3.760   4.248  11.048
 3456SOL    HW122247   3.812   4.263  10.968
 3456SOL    HW222248   3.807   4.179  11.094
 3457SOL     OW22249   0.018   3.941  10.971
 3457SOL    HW122250   0.098   3.955  11.021
 3457SOL    HW222251   0.038   3.973  10.883
 3458SOL     OW22252   3.071   3.275  10.457
 3458SOL    HW122253   3.093   3.239  10.370
 3458SOL    HW222254   3.008   3.344  10.439
 3459SOL     OW22255   3.071   0.326  10.363
 3459SOL    HW122256   3.065   0.396  10.427
 3459SOL    HW222257   2.983   0.289  10.358
 3460SOL     OW22258   4.057   0.275   8.959
 3460SOL    HW122259   4.025   0.348   9.011
 3460SOL    HW222260   4.079   0.207   9.022
 3461SOL     OW22261   4.523   0.736   9.703
 3461SOL    HW122262   4.479   0.734   9.788
 3461SOL    HW222263   4.539   0.644   9.682
 3462SOL     OW22264   4.383   4.129   9.197
 3462SOL    HW122265   4.290   4.127   9.177
 3462SOL    HW222266   4.416   4.045   9.165
 3463SOL     OW22267   0.168   4.510   9.856
 3463SOL    HW122268   0.125   4.491   9.939
 3463SOL    HW222269   0.153   4.431   9.803
 3464SOL     OW22270   4.711   4.095   9.068
 3464SOL    HW122271   4.781   4.053   9.118
 3464SOL    HW222272   4.710   4.048   8.984
 3465SOL     OW22273   3.325   3.759  10.722
 3465SOL    HW122274   3.330   3.822  10.794
 3465SOL    HW222275   3.308   3.812  10.645
 3466SOL     OW22276   4.688   3.960  10.168
 3466SOL    HW122277   4.754   3.891  10.171
 3466SOL    HW222278   4.663   3.974  10.259
 3467SOL     OW22279   0.693   0.466  11.336
 3467SOL    HW122280   0.721   0.388  11.288
 3467SOL    HW222281   0.647   0.520  11.271
 3468SOL     OW22282   4.073   3.640  10.547
 3468SOL    HW122283   4.140   3.699  10.512
 3468SOL    HW222284   4.116   3.554  10.548
 3469SOL     OW22285   3.818   2.886  10.263
 3469SOL    HW122286   3.900   2.840  10.246
 3469SOL    HW222287   3.750   2.824  10.237
 3470SOL     OW22288   3.393   4.521   9.300
 3470SOL    HW122289   3.314   4.473   9.275
 3470SOL    HW222290   3.424   4.477   9.379
 3471SOL     OW22291   3.860   3.428  11.313
 3471SOL    HW122292   3.801   3.411  11.239
 3471SOL    HW222293   3.801   3.450  11.386
 3472SOL     OW22294   0.475   4.483   9.819
 3472SOL    HW122295   0.379   4.488   9.818
 3472SOL    HW222296   0.494   4.392   9.796
 3473SOL     OW22297   3.818   3.103  10.425
 3473SOL    HW122298   3.728   3.135  10.432
 3473SOL    HW222299   3.817   3.043  10.350
 3474SOL     OW22300   0.054   2.687  10.331
 3474SOL    HW122301   0.034   2.596  10.310
 3474SOL    HW222302   0.001   2.706  10.408
 3475SOL     OW22303   2.879   3.685   9.400
 3475SOL    HW122304   2.959   3.729   9.372
 3475SOL    HW222305   2.909   3.618   9.462
 3476SOL     OW22306   4.260   2.746  10.278
 3476SOL    HW122307   4.171   2.747  10.244
 3476SOL    HW222308   4.250   2.764  10.372
 3477SOL     OW22309   2.958   3.565  13.324
 3477SOL    HW122310   2.946   3.658  13.344
 3477SOL    HW222311   2.945   3.559  13.229
 3478SOL     OW22312   3.185   2.012  18.701
 3478SOL    HW122313   3.198   1.997  18.607
 3478SOL    HW222314   3.104   2.064  18.706
 3479SOL     OW22315   4.118   3.088  20.864
 3479SOL    HW122316   4.052   3.144  20.904
 3479SOL    HW222317   4.171   3.147  20.811
 3480SOL     OW22318   3.729   4.733  12.545
 3480SOL    HW122319   3.653   0.003  12.558
 3480SOL    HW222320   3.804   0.004  12.554
 3481SOL     OW22321   1.973   3.813  11.515
 3481SOL    HW122322   1.999   3.871  11.444
 3481SOL    HW222323   1.899   3.763  11.479
 3482SOL     OW22324   3.950   3.973  11.499
 3482SOL    HW122325   3.999   3.892  11.487
 3482SOL    HW222326   4.003   4.040  11.455
 3483SOL     OW22327   3.532   3.185  18.473
 3483SOL    HW122328   3.624   3.171  18.499
 3483SOL    HW222329   3.491   3.099  18.486
 3484SOL     OW22330   3.553   2.818   6.363
 3484SOL    HW122331   3.539   2.877   6.289
 3484SOL    HW222332   3.537   2.731   6.327
 3485SOL     OW22333   3.567   0.145  12.633
 3485SOL    HW122334   3.557   0.238  12.610
 3485SOL    HW222335   3.497   0.129  12.696
 3486SOL     OW22336   3.910   0.560  12.772
 3486SOL    HW122337   3.837   0.613  12.741
 3486SOL    HW222338   3.985   0.619  12.771
 3487SOL     OW22339   4.240   1.549  12.216
 3487SOL    HW122340   4.158   1.597  12.209
 3487SOL    HW222341   4.258   1.544  12.309
 3488SOL     OW22342   4.776   4.779   1.028
 3488SOL    HW122343   4.721   4.708   0.996
 3488SOL    HW222344   0.049   4.736   1.090
 3489SOL     OW22345   0.207   4.201  12.456
 3489SOL    HW122346   0.185   4.249  12.377
 3489SOL    HW222347   0.168   4.114  12.444
 3490SOL     OW22348   3.035   0.341  12.048
 3490SOL    HW122349   3.050   0.390  12.128
 3490SOL    HW222350   3.118   0.297  12.030
 3491SOL     OW22351   1.960   0.093  15.058
 3491SOL    HW122352   1.941   0.089  14.964
 3491SOL    HW222353   1.987   0.184  15.073
 3492SOL     OW22354   4.309   3.468  10.579
 3492SOL    HW122355   4.338   3.385  10.616
 3492SOL    HW222356   4.333   3.533  10.644
 3493SOL     OW22357   1.364   0.157  19.550
 3493SOL    HW122358   1.275   0.191  19.542
 3493SOL    HW222359   1.355   0.077  19.603
 3494SOL     OW22360   4.029   1.957  12.511
 3494SOL    HW122361   3.945   1.984  12.547
 3494SOL    HW222362   4.081   1.932  12.587
 3495SOL     OW22363   4.510   0.876   4.137
 3495SOL    HW122364   4.596   0.906   4.168
 3495SOL    HW222365   4.448   0.925   4.190
 3496SOL     OW22366   1.471   4.658   6.378
 3496SOL    HW122367   1.516   4.736   6.410
 3496SOL    HW222368   1.457   4.675   6.285
 3497SOL     OW22369   4.579   0.700   5.248
 3497SOL    HW122370   4.599   0.642   5.322
 3497SOL    HW222371   4.574   0.642   5.172
 3498SOL     OW22372   1.430   3.740   6.055
 3498SOL    HW122373   1.422   3.760   6.148
 3498SOL    HW222374   1.344   3.762   6.019
 3499SOL     OW22375   3.660   0.567   1.626
 3499SOL    HW122376   3.731   0.586   1.687
 3499SOL    HW222377   3.622   0.653   1.606
 3500SOL     OW22378   2.453   4.400  17.470
 3500SOL    HW122379   2.468   4.484  17.427
 3500SOL    HW222380   2.535   4.381  17.515
 3501SOL     OW22381   3.687   4.008  15.248
 3501SOL    HW122382   3.696   4.010  15.153
 3501SOL    HW222383   3.776   3.993  15.281
 3502SOL     OW22384   3.203   0.787   4.837
 3502SOL    HW122385   3.111   0.771   4.817
 3502SOL    HW222386   3.225   0.866   4.787
 3503SOL     OW22387   2.372   3.768  11.420
 3503SOL    HW122388   2.441   3.707  11.446
 3503SOL    HW222389   2.292   3.716  11.422
 3504SOL     OW22390   3.336   3.634   1.012
 3504SOL    HW122391   3.375   3.597   1.091
 3504SOL    HW222392   3.252   3.670   1.040
 3505SOL     OW22393   3.703   0.358   2.481
 3505SOL    HW122394   3.610   0.335   2.484
 3505SOL    HW222395   3.748   0.279   2.512
 3506SOL     OW22396   1.476   0.954  14.036
 3506SOL    HW122397   1.429   0.969  13.954
 3506SOL    HW222398   1.488   1.042  14.073
 3507SOL     OW22399   4.252   4.676   4.431
 3507SOL    HW122400   4.251   4.641   4.341
 3507SOL    HW222401   4.212   4.762   4.424
 3508SOL     OW22402   0.593   3.355   3.827
 3508SOL    HW122403   0.563   3.348   3.737
 3508SOL    HW222404   0.559   3.275   3.869
 3509SOL     OW22405   1.352   2.596  18.352
 3509SOL    HW122406   1.315   2.681  18.329
 3509SOL    HW222407   1.276   2.537  18.354
 3510SOL     OW22408   0.206   1.243  16.954
 3510SOL    HW122409   0.283   1.261  17.008
 3510SOL    HW222410   0.205   1.314  16.889
 3511SOL     OW22411   0.475   0.643  11.654
 3511SOL    HW122412   0.500   0.568  11.708
 3511SOL    HW222413   0.555   0.695  11.646
 3512SOL     OW22414   4.772   0.020  11.286
 3512SOL    HW122415   4.741   4.757  11.362
 3512SOL    HW222416   4.695   0.067  11.255
 3513SOL     OW22417   2.130   0.139  16.883
 3513SOL    HW122418   2.146   0.171  16.971
 3513SOL    HW222419   2.110   0.217  16.832
 3514SOL     OW22420   0.963   3.122  20.632
 3514SOL    HW122421   1.057   3.118  20.616
 3514SOL    HW222422   0.948   3.210  20.668
 3515SOL     OW22423   0.409   3.023  16.161
 3515SOL    HW122424   0.417   3.080  16.237
 3515SOL    HW222425   0.492   2.975  16.158
 3516SOL     OW22426   4.375   0.303  19.262
 3516SOL    HW122427   4.467   0.292  19.236
 3516SOL    HW222428   4.326   0.290  19.182
 3517SOL     OW22429   4.320   0.675  15.692
 3517SOL    HW122430   4.405   0.671  15.736
 3517SOL    HW222431   4.275   0.749  15.733
 3518SOL     OW22432   0.594   0.202  15.789
 3518SOL    HW122433   0.606   0.137  15.719
 3518SOL    HW222434   0.509   0.179  15.827
 3519SOL     OW22435   4.621   1.308  12.497
 3519SOL    HW122436   4.602   1.396  12.467
 3519SOL    HW222437   4.545   1.284  12.550
 3520SOL     OW22438   1.406   4.750  14.960
 3520SOL    HW122439   1.369   4.702  15.034
 3520SOL    HW222440   1.409   0.055  14.990
 3521SOL     OW22441   3.355   3.701   2.120
 3521SOL    HW122442   3.366   3.795   2.134
 3521SOL    HW222443   3.337   3.666   2.208
 3522SOL     OW22444   3.471   3.014   5.746
 3522SOL    HW122445   3.498   2.973   5.829
 3522SOL    HW222446   3.548   3.007   5.690
 3523SOL     OW22447   0.640   2.902  20.959
 3523SOL    HW122448   0.664   2.943  20.876
 3523SOL    HW222449   0.718   2.911  21.014
 3524SOL     OW22450   1.782   3.190  15.295
 3524SOL    HW122451   1.833   3.211  15.217
 3524SOL    HW222452   1.739   3.273  15.319
 3525SOL     OW22453   1.569   3.667  16.702
 3525SOL    HW122454   1.582   3.606  16.775
 3525SOL    HW222455   1.520   3.616  16.637
 3526SOL     OW22456   1.671   2.241   3.595
 3526SOL    HW122457   1.645   2.171   3.654
 3526SOL    HW222458   1.626   2.222   3.513
 3527SOL     OW22459   0.736   0.926   3.737
 3527SOL    HW122460   0.778   0.841   3.729
 3527SOL    HW222461   0.668   0.914   3.804
 3528SOL     OW22462   3.649   2.305  19.657
 3528SOL    HW122463   3.623   2.216  19.678
 3528SOL    HW222464   3.733   2.295  19.611
 3529SOL     OW22465   4.494   1.493  19.527
 3529SOL    HW122466   4.553   1.558  19.487
 3529SOL    HW222467   4.427   1.546  19.570
 3530SOL     OW22468   0.421   1.771   3.178
 3530SOL    HW122469   0.392   1.744   3.091
 3530SOL    HW222470   0.512   1.742   3.184
 3531SOL     OW22471   3.541   3.293   3.147
 3531SOL    HW122472   3.514   3.217   3.198
 3531SOL    HW222473   3.548   3.260   3.058
 3532SOL     OW22474   0.793   1.488   5.156
 3532SOL    HW122475   0.796   1.485   5.060
 3532SOL    HW222476   0.821   1.577   5.178
 3533SOL     OW22477   2.334   0.522   0.538
 3533SOL    HW122478   2.416   0.558   0.505
 3533SOL    HW222479   2.292   0.484   0.461
 3534SOL     OW22480   4.161   3.051  12.899
 3534SOL    HW122481   4.073   3.088  12.893
 3534SOL    HW222482   4.198   3.063  12.811
 3535SOL     OW22483   2.616   0.594  19.059
 3535SOL    HW122484   2.573   0.666  19.012
 3535SOL    HW222485   2.686   0.636  19.109
 3536SOL     OW22486   1.183   2.456   3.323
 3536SOL    HW122487   1.128   2.449   3.245
 3536SOL    HW222488   1.232   2.373   3.326
 3537SOL     OW22489   1.717   2.099  19.495
 3537SOL    HW122490   1.747   2.080  19.406
 3537SOL    HW222491   1.781   2.161  19.529
 3538SOL     OW22492   4.368   3.808   0.047
 3538SOL    HW122493   4.444   3.788  21.237
 3538SOL    HW222494   4.402   3.863   0.117
 3539SOL     OW22495   2.395   4.307  11.279
 3539SOL    HW122496   2.394   4.212  11.285
 3539SOL    HW222497   2.431   4.336  11.363
 3540SOL     OW22498   2.360   0.723  18.539
 3540SOL    HW122499   2.284   0.664  18.532
 3540SOL    HW222500   2.433   0.664  18.557
 3541SOL     OW22501   4.156   1.970  21.001
 3541SOL    HW122502   4.158   2.036  20.931
 3541SOL    HW222503   4.095   2.005  21.065
 3542SOL     OW22504   0.128   2.385  14.565
 3542SOL    HW122505   0.145   2.338  14.647
 3542SOL    HW222506   0.183   2.340  14.501
 3543SOL     OW22507   2.161   1.806   8.189
 3543SOL    HW122508   2.239   1.858   8.170
 3543SOL    HW222509   2.153   1.811   8.285
 3544SOL     OW22510   2.201   0.730   2.597
 3544SOL    HW122511   2.114   0.725   2.557
 3544SOL    HW222512   2.203   0.817   2.637
 3545SOL     OW22513   1.284   4.296   1.859
 3545SOL    HW122514   1.316   4.379   1.824
 3545SOL    HW222515   1.355   4.234   1.842
 3546SOL     OW22516   4.278   1.058  17.791
 3546SOL    HW122517   4.293   0.974  17.750
 3546SOL    HW222518   4.205   1.097  17.742
 3547SOL     OW22519   2.026   4.460   1.572
 3547SOL    HW122520   1.979   4.474   1.655
 3547SOL    HW222521   2.075   4.379   1.586
 3548SOL     OW22522   0.412   3.745  19.747
 3548SOL    HW122523   0.486   3.767  19.690
 3548SOL    HW222524   0.391   3.655  19.725
 3549SOL     OW22525   0.865   1.236  18.539
 3549SOL    HW122526   0.901   1.203  18.621
 3549SOL    HW222527   0.914   1.316  18.521
 3550SOL     OW22528   0.761   1.500   4.626
 3550SOL    HW122529   0.766   1.470   4.717
 3550SOL    HW222530   0.735   1.592   4.632
 3551SOL     OW22531   1.693   0.840   5.736
 3551SOL    HW122532   1.715   0.922   5.779
 3551SOL    HW222533   1.667   0.782   5.808
 3552SOL     OW22534   3.729   0.130  13.482
 3552SOL    HW122535   3.714   0.140  13.388
 3552SOL    HW222536   3.766   0.043  13.491
 3553SOL     OW22537   1.959   2.831  15.603
 3553SOL    HW122538   2.034   2.837  15.663
 3553SOL    HW222539   1.886   2.871  15.651
 3554SOL     OW22540   4.310   3.657  18.653
 3554SOL    HW122541   4.323   3.632  18.561
 3554SOL    HW222542   4.216   3.661  18.664
 3555SOL     OW22543   4.732   0.112   2.697
 3555SOL    HW122544   0.003   0.175   2.656
 3555SOL    HW222545   4.769   0.026   2.675
 3556SOL     OW22546   0.448   0.510  14.730
 3556SOL    HW122547   0.479   0.432  14.683
 3556SOL    HW222548   0.361   0.486  14.761
 3557SOL     OW22549   0.873   4.573  15.747
 3557SOL    HW122550   0.892   4.515  15.673
 3557SOL    HW222551   0.948   4.632  15.751
 3558SOL     OW22552   3.062   1.289   2.199
 3558SOL    HW122553   3.021   1.206   2.224
 3558SOL    HW222554   3.115   1.267   2.122
 3559SOL     OW22555   0.615   2.528  21.217
 3559SOL    HW122556   0.598   2.583   0.049
 3559SOL    HW222557   0.658   2.450   0.008
 3560SOL     OW22558   4.420   2.316  11.873
 3560SOL    HW122559   4.464   2.252  11.818
 3560SOL    HW222560   4.490   2.355  11.926
 3561SOL     OW22561   4.434   0.771   3.750
 3561SOL    HW122562   4.460   0.774   3.658
 3561SOL    HW222563   4.425   0.677   3.769
 3562SOL     OW22564   0.748   1.587   3.979
 3562SOL    HW122565   0.797   1.653   4.028
 3562SOL    HW222566   0.656   1.605   4.000
 3563SOL     OW22567   3.795   4.627   0.205
 3563SOL    HW122568   3.845   4.709   0.201
 3563SOL    HW222569   3.837   4.571   0.140
 3564SOL     OW22570   0.785   1.532  16.113
 3564SOL    HW122571   0.782   1.503  16.022
 3564SOL    HW222572   0.704   1.581  16.125
 3565SOL     OW22573   0.728   3.668   2.615
 3565SOL    HW122574   0.726   3.763   2.627
 3565SOL    HW222575   0.766   3.635   2.697
 3566SOL     OW22576   3.216   2.464   7.112
 3566SOL    HW122577   3.226   2.466   7.016
 3566SOL    HW222578   3.304   2.482   7.145
 3567SOL     OW22579   1.136   4.033  17.681
 3567SOL    HW122580   1.102   4.109  17.633
 3567SOL    HW222581   1.232   4.042  17.674
 3568SOL     OW22582   3.188   3.239  15.694
 3568SOL    HW122583   3.115   3.213  15.638
 3568SOL    HW222584   3.191   3.334  15.686
 3569SOL     OW22585   3.510   4.599  17.746
 3569SOL    HW122586   3.437   4.595  17.685
 3569SOL    HW222587   3.490   4.533  17.813
 3570SOL     OW22588   3.900   4.416  14.512
 3570SOL    HW122589   3.988   4.390  14.483
 3570SOL    HW222590   3.903   4.406  14.608
 3571SOL     OW22591   3.120   2.756   6.900
 3571SOL    HW122592   3.122   2.850   6.882
 3571SOL    HW222593   3.204   2.723   6.868
 3572SOL     OW22594   2.354   1.479   6.468
 3572SOL    HW122595   2.433   1.513   6.426
 3572SOL    HW222596   2.356   1.385   6.449
 3573SOL     OW22597   0.852   2.416   1.235
 3573SOL    HW122598   0.846   2.448   1.145
 3573SOL    HW222599   0.834   2.493   1.289
 3574SOL     OW22600   2.647   3.886  18.363
 3574SOL    HW122601   2.625   3.948  18.433
 3574SOL    HW222602   2.621   3.801  18.397
 3575SOL     OW22603   1.655   0.004  17.833
 3575SOL    HW122604   1.749   4.773  17.831
 3575SOL    HW222605   1.647   0.084  17.885
 3576SOL     OW22606   1.874   2.620   4.677
 3576SOL    HW122607   1.849   2.529   4.694
 3576SOL    HW222608   1.893   2.622   4.583
 3577SOL     OW22609   2.183   1.081  12.285
 3577SOL    HW122610   2.186   0.997  12.331
 3577SOL    HW222611   2.252   1.075  12.220
 3578SOL     OW22612   3.596   4.310  19.945
 3578SOL    HW122613   3.563   4.243  20.005
 3578SOL    HW222614   3.635   4.261  19.873
 3579SOL     OW22615   0.285   1.478   6.159
 3579SOL    HW122616   0.355   1.500   6.098
 3579SOL    HW222617   0.211   1.533   6.133
 3580SOL     OW22618   0.854   0.334  18.219
 3580SOL    HW122619   0.826   0.263  18.277
 3580SOL    HW222620   0.863   0.410  18.277
 3581SOL     OW22621   1.664   2.989  19.372
 3581SOL    HW122622   1.638   2.905  19.335
 3581SOL    HW222623   1.671   2.973  19.467
 3582SOL     OW22624   3.507   4.345   0.566
 3582SOL    HW122625   3.477   4.257   0.542
 3582SOL    HW222626   3.542   4.335   0.655
 3583SOL     OW22627   3.060   2.841   4.821
 3583SOL    HW122628   2.968   2.854   4.802
 3583SOL    HW222629   3.078   2.750   4.796
 3584SOL     OW22630   3.716   0.857   2.661
 3584SOL    HW122631   3.650   0.919   2.692
 3584SOL    HW222632   3.721   0.872   2.566
 3585SOL     OW22633   2.723   2.762  18.327
 3585SOL    HW122634   2.726   2.840  18.381
 3585SOL    HW222635   2.810   2.723  18.335
 3586SOL     OW22636   2.349   4.687   5.984
 3586SOL    HW122637   2.365   4.685   5.890
 3586SOL    HW222638   2.379   4.773   6.013
 3587SOL     OW22639   1.552   3.522  18.613
 3587SOL    HW122640   1.458   3.516  18.629
 3587SOL    HW222641   1.571   3.616  18.613
 3588SOL     OW22642   4.382   4.009  16.144
 3588SOL    HW122643   4.392   4.104  16.137
 3588SOL    HW222644   4.429   3.985  16.224
 3589SOL     OW22645   0.120   1.429   5.786
 3589SOL    HW122646   0.170   1.494   5.836
 3589SOL    HW222647   0.048   1.479   5.748
 3590SOL     OW22648   0.299   3.892   6.977
 3590SOL    HW122649   0.360   3.833   7.020
 3590SOL    HW222650   0.288   3.965   7.038
 3591SOL     OW22651   0.086   3.648  13.850
 3591SOL    HW122652   0.043   3.708  13.910
 3591SOL    HW222653   0.014   3.594  13.815
 3592SOL     OW22654   0.605   0.277   1.567
 3592SOL    HW122655   0.581   0.331   1.641
 3592SOL    HW222656   0.530   0.282   1.507
 3593SOL     OW22657   2.732   0.275  15.616
 3593SOL    HW122658   2.655   0.269  15.673
 3593SOL    HW222659   2.781   0.194  15.634
 3594SOL     OW22660   2.510   1.286  13.291
 3594SOL    HW122661   2.516   1.350  13.361
 3594SOL    HW222662   2.505   1.338  13.211
 3595SOL     OW22663   1.839   0.558   1.284
 3595SOL    HW122664   1.915   0.564   1.341
 3595SOL    HW222665   1.765   0.578   1.340
 3596SOL     OW22666   2.038   0.889   3.142
 3596SOL    HW122667   2.021   0.819   3.204
 3596SOL    HW222668   1.954   0.904   3.098
 3597SOL     OW22669   3.962   3.737  16.723
 3597SOL    HW122670   3.885   3.752  16.777
 3597SOL    HW222671   4.020   3.810  16.744
 3598SOL     OW22672   3.426   0.731   3.876
 3598SOL    HW122673   3.481   0.774   3.942
 3598SOL    HW222674   3.408   0.799   3.811
 3599SOL     OW22675   1.931   0.030  16.508
 3599SOL    HW122676   1.962   0.106  16.458
 3599SOL    HW222677   1.929   4.745  16.444
 3600SOL     OW22678   0.966   3.853  15.288
 3600SOL    HW122679   0.952   3.762  15.311
 3600SOL    HW222680   0.928   3.862  15.201
 3601SOL     OW22681   4.045   0.218  16.195
 3601SOL    HW122682   4.039   0.287  16.128
 3601SOL    HW222683   4.019   0.262  16.276
 3602SOL     OW22684   1.883   4.592   4.143
 3602SOL    HW122685   1.891   4.573   4.050
 3602SOL    HW222686   1.961   4.645   4.164
 3603SOL     OW22687   1.407   0.451   6.025
 3603SOL    HW122688   1.449   0.432   6.109
 3603SOL    HW222689   1.399   0.366   5.982
 3604SOL     OW22690   1.505   3.106  16.659
 3604SOL    HW122691   1.469   3.130  16.573
 3604SOL    HW222692   1.589   3.152  16.663
 3605SOL     OW22693   2.579   4.042  20.426
 3605SOL    HW122694   2.629   4.049  20.345
 3605SOL    HW222695   2.618   3.968  20.473
 3606SOL     OW22696   1.111   2.680  15.990
 3606SOL    HW122697   1.122   2.639  16.076
 3606SOL    HW222698   1.121   2.774  16.007
 3607SOL     OW22699   1.249   0.352  20.873
 3607SOL    HW122700   1.271   0.258  20.872
 3607SOL    HW222701   1.301   0.389  20.802
 3608SOL     OW22702   3.576   1.766  14.097
 3608SOL    HW122703   3.563   1.856  14.067
 3608SOL    HW222704   3.636   1.728  14.034
 3609SOL     OW22705   3.944   3.872  18.455
 3609SOL    HW122706   4.000   3.832  18.389
 3609SOL    HW222707   3.855   3.858  18.423
 3610SOL     OW22708   0.038   0.377   4.740
 3610SOL    HW122709   4.751   0.353   4.796
 3610SOL    HW222710   0.082   0.294   4.721
 3611SOL     OW22711   0.809   3.839  19.472
 3611SOL    HW122712   0.841   3.909  19.529
 3611SOL    HW222713   0.798   3.881  19.387
 3612SOL     OW22714   4.707   2.048   6.360
 3612SOL    HW122715   4.717   2.142   6.347
 3612SOL    HW222716   4.771   2.008   6.301
 3613SOL     OW22717   2.099   2.428   6.228
 3613SOL    HW122718   2.166   2.427   6.160
 3613SOL    HW222719   2.145   2.452   6.308
 3614SOL     OW22720   1.394   0.402   3.169
 3614SOL    HW122721   1.423   0.487   3.136
 3614SOL    HW222722   1.361   0.356   3.092
 3615SOL     OW22723   0.598   4.760  12.802
 3615SOL    HW122724   0.631   0.062  12.820
 3615SOL    HW222725   0.590   4.757  12.706
 3616SOL     OW22726   3.800   1.677   3.838
 3616SOL    HW122727   3.841   1.672   3.752
 3616SOL    HW222728   3.776   1.769   3.848
 3617SOL     OW22729   0.877   4.146  15.492
 3617SOL    HW122730   0.847   4.210  15.427
 3617SOL    HW222731   0.959   4.114  15.457
 3618SOL     OW22732   2.669   1.442  18.315
 3618SOL    HW122733   2.743   1.484  18.271
 3618SOL    HW222734   2.709   1.386  18.382
 3619SOL     OW22735   1.461   1.494   5.275
 3619SOL    HW122736   1.520   1.559   5.313
 3619SOL    HW222737   1.467   1.418   5.333
 3620SOL     OW22738   3.588   3.970  17.679
 3620SOL    HW122739   3.495   3.948  17.664
 3620SOL    HW222740   3.590   4.065  17.684
 3621SOL     OW22741   0.922   1.657  17.041
 3621SOL    HW122742   0.921   1.569  17.002
 3621SOL    HW222743   1.008   1.663  17.082
 3622SOL     OW22744   1.237   3.164   2.022
 3622SOL    HW122745   1.224   3.207   1.937
 3622SOL    HW222746   1.230   3.235   2.086
 3623SOL     OW22747   2.434   3.455  15.452
 3623SOL    HW122748   2.376   3.453  15.376
 3623SOL    HW222749   2.498   3.524  15.432
 3624SOL     OW22750   4.323   1.252  20.116
 3624SOL    HW122751   4.413   1.220  20.118
 3624SOL    HW222752   4.318   1.305  20.037
 3625SOL     OW22753   4.740   2.858   2.856
 3625SOL    HW122754   0.020   2.927   2.859
 3625SOL    HW222755   4.701   2.867   2.769
 3626SOL     OW22756   1.006   3.476   0.391
 3626SOL    HW122757   0.981   3.566   0.373
 3626SOL    HW222758   1.101   3.474   0.380
 3627SOL     OW22759   2.753   4.190  17.021
 3627SOL    HW122760   2.803   4.143  16.955
 3627SOL    HW222761   2.710   4.121  17.072
 3628SOL     OW22762   0.917   0.959  16.579
 3628SOL    HW122763   0.873   0.931  16.499
 3628SOL    HW222764   0.976   0.887  16.600
 3629SOL     OW22765   3.300   2.561   1.768
 3629SOL    HW122766   3.361   2.558   1.842
 3629SOL    HW222767   3.214   2.578   1.808
 3630SOL     OW22768   2.702   4.484   3.045
 3630SOL    HW122769   2.681   4.391   3.037
 3630SOL    HW222770   2.797   4.486   3.059
 3631SOL     OW22771   1.640   1.357   4.983
 3631SOL    HW122772   1.613   1.336   4.894
 3631SOL    HW222773   1.606   1.285   5.036
 3632SOL     OW22774   1.729   2.356   1.096
 3632SOL    HW122775   1.657   2.408   1.130
 3632SOL    HW222776   1.721   2.272   1.140
 3633SOL     OW22777   2.310   2.029   6.330
 3633SOL    HW122778   2.373   1.961   6.308
 3633SOL    HW222779   2.247   1.986   6.389
 3634SOL     OW22780   1.548   1.590  17.424
 3634SOL    HW122781   1.643   1.585  17.413
 3634SOL    HW222782   1.519   1.648  17.354
 3635SOL     OW22783   4.297   0.528   4.715
 3635SOL    HW122784   4.325   0.534   4.624
 3635SOL    HW222785   4.373   0.557   4.766
 3636SOL     OW22786   3.355   2.717   5.623
 3636SOL    HW122787   3.357   2.810   5.645
 3636SOL    HW222788   3.349   2.672   5.707
 3637SOL     OW22789   0.835   1.226  19.217
 3637SOL    HW122790   0.803   1.143  19.181
 3637SOL    HW222791   0.929   1.226  19.198
 3638SOL     OW22792   3.260   0.385   3.620
 3638SOL    HW122793   3.332   0.441   3.648
 3638SOL    HW222794   3.185   0.415   3.671
 3639SOL     OW22795   0.350   0.597  19.446
 3639SOL    HW122796   0.329   0.670  19.388
 3639SOL    HW222797   0.267   0.575  19.488
 3640SOL     OW22798   3.521   3.130   2.935
 3640SOL    HW122799   3.483   3.181   2.864
 3640SOL    HW222800   3.554   3.051   2.892
 3641SOL     OW22801   2.621   0.932   3.144
 3641SOL    HW122802   2.587   0.904   3.229
 3641SOL    HW222803   2.637   0.851   3.096
 3642SOL     OW22804   3.283   4.628   5.449
 3642SOL    HW122805   3.267   4.559   5.514
 3642SOL    HW222806   3.378   4.630   5.440
 3643SOL     OW22807   2.419   1.580   6.014
 3643SOL    HW122808   2.408   1.619   5.927
 3643SOL    HW222809   2.343   1.611   6.063
 3644SOL     OW22810   4.481   2.531  19.157
 3644SOL    HW122811   4.412   2.485  19.108
 3644SOL    HW222812   4.546   2.463  19.176
 3645SOL     OW22813   4.725   0.622  18.658
 3645SOL    HW122814   4.753   0.696  18.712
 3645SOL    HW222815   4.782   0.550  18.685
 3646SOL     OW22816   4.385   0.254   4.642
 3646SOL    HW122817   4.301   0.296   4.661
 3646SOL    HW222818   4.400   0.269   4.549
 3647SOL     OW22819   2.487   4.335   3.167
 3647SOL    HW122820   2.547   4.277   3.215
 3647SOL    HW222821   2.513   4.423   3.193
 3648SOL     OW22822   2.177   2.448   6.557
 3648SOL    HW122823   2.128   2.529   6.552
 3648SOL    HW222824   2.126   2.392   6.616
 3649SOL     OW22825   1.908   1.157  19.411
 3649SOL    HW122826   1.947   1.177  19.496
 3649SOL    HW222827   1.819   1.129  19.431
 3650SOL     OW22828   3.599   4.233   5.579
 3650SOL    HW122829   3.546   4.221   5.658
 3650SOL    HW222830   3.544   4.200   5.508
 3651SOL     OW22831   1.745   2.248   0.850
 3651SOL    HW122832   1.777   2.319   0.794
 3651SOL    HW222833   1.747   2.286   0.939
 3652SOL     OW22834   3.306   2.176   5.995
 3652SOL    HW122835   3.311   2.248   6.058
 3652SOL    HW222836   3.339   2.214   5.913
 3653SOL     OW22837   3.448   0.601   8.222
 3653SOL    HW122838   3.540   0.577   8.230
 3653SOL    HW222839   3.416   0.548   8.149
 3654SOL     OW22840   4.690   2.306   5.319
 3654SOL    HW122841   4.770   2.351   5.348
 3654SOL    HW222842   4.721   2.220   5.289
 3655SOL     OW22843   2.012   2.628  17.644
 3655SOL    HW122844   1.956   2.667  17.576
 3655SOL    HW222845   1.959   2.558  17.682
 3656SOL     OW22846   1.403   2.216  17.548
 3656SOL    HW122847   1.432   2.127  17.567
 3656SOL    HW222848   1.482   2.269  17.562
 3657SOL     OW22849   0.023   1.022   4.508
 3657SOL    HW122850   4.772   1.035   4.421
 3657SOL    HW222851   4.738   0.988   4.560
 3658SOL     OW22852   2.884   2.217  17.772
 3658SOL    HW122853   2.862   2.160  17.698
 3658SOL    HW222854   2.807   2.215  17.828
 3659SOL     OW22855   2.053   1.501   2.509
 3659SOL    HW122856   1.981   1.438   2.507
 3659SOL    HW222857   2.131   1.447   2.519
 3660SOL     OW22858   2.944   4.665   1.055
 3660SOL    HW122859   2.979   4.690   0.969
 3660SOL    HW222860   3.014   4.687   1.116
 3661SOL     OW22861   0.017   1.700  15.541
 3661SOL    HW122862   4.744   1.697  15.616
 3661SOL    HW222863   4.748   1.686  15.465
 3662SOL     OW22864   3.757   3.074   4.482
 3662SOL    HW122865   3.827   3.070   4.417
 3662SOL    HW222866   3.766   2.994   4.533
 3663SOL     OW22867   2.849   3.235   3.939
 3663SOL    HW122868   2.819   3.164   3.996
 3663SOL    HW222869   2.920   3.196   3.887
 3664SOL     OW22870   2.284   0.419  17.811
 3664SOL    HW122871   2.227   0.482  17.854
 3664SOL    HW222872   2.371   0.437  17.846
 3665SOL     OW22873   1.372   0.845   4.965
 3665SOL    HW122874   1.462   0.866   4.990
 3665SOL    HW222875   1.320   0.913   5.006
 3666SOL     OW22876   2.793   2.572   5.007
 3666SOL    HW122877   2.713   2.617   5.033
 3666SOL    HW222878   2.764   2.485   4.981
 3667SOL     OW22879   4.248   4.604   3.700
 3667SOL    HW122880   4.268   4.693   3.672
 3667SOL    HW222881   4.300   4.548   3.642
 3668SOL     OW22882   4.322   3.964   5.179
 3668SOL    HW122883   4.237   3.961   5.223
 3668SOL    HW222884   4.301   3.985   5.088
 3669SOL     OW22885   0.127   2.101  15.352
 3669SOL    HW122886   0.181   2.057  15.417
 3669SOL    HW222887   0.071   2.160  15.402
 3670SOL     OW22888   1.699   4.348   3.011
 3670SOL    HW122889   1.703   4.264   3.056
 3670SOL    HW222890   1.724   4.328   2.920
 3671SOL     OW22891   2.204   3.070   0.229
 3671SOL    HW122892   2.135   3.006   0.215
 3671SOL    HW222893   2.212   3.116   0.146
 3672SOL     OW22894   2.050   1.057  17.099
 3672SOL    HW122895   1.997   0.978  17.113
 3672SOL    HW222896   2.072   1.054  17.006
 3673SOL     OW22897   0.529   3.154  18.839
 3673SOL    HW122898   0.617   3.118  18.849
 3673SOL    HW222899   0.524   3.223  18.906
 3674SOL     OW22900   2.794   2.989   2.177
 3674SOL    HW122901   2.723   3.004   2.239
 3674SOL    HW222902   2.845   2.918   2.216
 3675SOL     OW22903   1.889   3.420   5.622
 3675SOL    HW122904   1.834   3.344   5.604
 3675SOL    HW222905   1.843   3.493   5.580
 3676SOL     OW22906   0.120   4.627   3.035
 3676SOL    HW122907   0.149   4.544   3.073
 3676SOL    HW222908   0.053   4.601   2.972
 3677SOL     OW22909   4.499   0.295   0.835
 3677SOL    HW122910   4.590   0.281   0.863
 3677SOL    HW222911   4.464   0.207   0.825
 3678SOL     OW22912   3.547   2.742  18.969
 3678SOL    HW122913   3.513   2.653  18.963
 3678SOL    HW222914   3.476   2.792  19.007
 3679SOL     OW22915   0.158   2.741   3.409
 3679SOL    HW122916   0.241   2.736   3.455
 3679SOL    HW222917   0.129   2.650   3.401
 3680SOL     OW22918   3.306   0.842  20.795
 3680SOL    HW122919   3.312   0.753  20.763
 3680SOL    HW222920   3.353   0.894  20.731
 3681SOL     OW22921   2.545   2.335   0.687
 3681SOL    HW122922   2.499   2.358   0.607
 3681SOL    HW222923   2.606   2.265   0.660
 3682SOL     OW22924   3.125   3.932   1.563
 3682SOL    HW122925   3.089   4.005   1.613
 3682SOL    HW222926   3.209   3.912   1.605
 3683SOL     OW22927   3.765   4.535  20.628
 3683SOL    HW122928   3.840   4.594  20.616
 3683SOL    HW222929   3.802   4.455  20.665
 3684SOL     OW22930   0.559   3.199  18.046
 3684SOL    HW122931   0.598   3.253  18.115
 3684SOL    HW222932   0.541   3.260  17.975
 3685SOL     OW22933   2.016   0.446   6.318
 3685SOL    HW122934   2.099   0.442   6.270
 3685SOL    HW222935   1.984   0.535   6.302
 3686SOL     OW22936   4.407   2.658  16.038
 3686SOL    HW122937   4.498   2.673  16.014
 3686SOL    HW222938   4.363   2.742  16.021
 3687SOL     OW22939   4.224   2.554  18.497
 3687SOL    HW122940   4.285   2.482  18.515
 3687SOL    HW222941   4.262   2.599  18.421
 3688SOL     OW22942   1.818   3.627  18.929
 3688SOL    HW122943   1.750   3.654  18.990
 3688SOL    HW222944   1.854   3.547  18.967
 3689SOL     OW22945   3.492   2.551   6.317
 3689SOL    HW122946   3.464   2.461   6.300
 3689SOL    HW222947   3.515   2.551   6.410
 3690SOL     OW22948   0.558   0.507   0.175
 3690SOL    HW122949   0.636   0.532   0.127
 3690SOL    HW222950   0.561   0.558   0.256
 3691SOL     OW22951   2.891   4.779   1.512
 3691SOL    HW122952   2.897   0.057   1.442
 3691SOL    HW222953   2.940   0.030   1.585
 3692SOL     OW22954   3.042   3.713  20.367
 3692SOL    HW122955   3.064   3.621  20.358
 3692SOL    HW222956   3.022   3.742  20.278
 3693SOL     OW22957   3.099   0.290  21.220
 3693SOL    HW122958   3.153   0.276  21.142
 3693SOL    HW222959   3.062   0.378  21.208
 3694SOL     OW22960   4.524   1.228  19.187
 3694SOL    HW122961   4.565   1.202  19.269
 3694SOL    HW222962   4.505   1.321  19.199
 3695SOL     OW22963   1.241   1.831   3.594
 3695SOL    HW122964   1.173   1.772   3.625
 3695SOL    HW222965   1.317   1.774   3.578
 3696SOL     OW22966   0.151   3.690  20.556
 3696SOL    HW122967   0.239   3.654  20.562
 3696SOL    HW222968   0.118   3.660  20.471
 3697SOL     OW22969   2.036   0.999  15.083
 3697SOL    HW122970   2.048   1.093  15.093
 3697SOL    HW222971   2.125   0.963  15.084
 3698SOL     OW22972   2.114   2.288  15.809
 3698SOL    HW122973   2.145   2.233  15.737
 3698SOL    HW222974   2.044   2.342  15.770
 3699SOL     OW22975   1.699   3.554   3.215
 3699SOL    HW122976   1.771   3.508   3.171
 3699SOL    HW222977   1.720   3.546   3.308
 3700SOL     OW22978   3.390   2.842  19.354
 3700SOL    HW122979   3.353   2.755  19.369
 3700SOL    HW222980   3.405   2.878  19.441
 3701SOL     OW22981   0.934   1.605   0.942
 3701SOL    HW122982   1.006   1.649   0.897
 3701SOL    HW222983   0.875   1.675   0.968
 3702SOL     OW22984   1.844   2.818   5.577
 3702SOL    HW122985   1.801   2.888   5.527
 3702SOL    HW222986   1.771   2.769   5.616
 3703SOL     OW22987   0.672   0.016  20.479
 3703SOL    HW122988   0.731   0.057  20.543
 3703SOL    HW222989   0.689   4.709  20.488
 3704SOL     OW22990   2.069   1.774   5.672
 3704SOL    HW122991   1.977   1.800   5.667
 3704SOL    HW222992   2.117   1.848   5.634
 3705SOL     OW22993   0.183   4.048  19.788
 3705SOL    HW122994   0.253   4.034  19.852
 3705SOL    HW222995   0.192   4.140  19.762
 3706SOL     OW22996   0.309   4.461   5.872
 3706SOL    HW122997   0.363   4.525   5.825
 3706SOL    HW222998   0.342   4.464   5.962
 3707SOL     OW22999   1.090   3.420   3.873
 3707SOL    HW123000   1.112   3.455   3.959
 3707SOL    HW223001   1.166   3.438   3.819
 3708SOL     OW23002   1.286   2.294   0.164
 3708SOL    HW123003   1.285   2.215   0.110
 3708SOL    HW223004   1.355   2.348   0.127
 3709SOL     OW23005   4.014   4.714   9.832
 3709SOL    HW123006   4.086   4.715   9.895
 3709SOL    HW223007   4.049   4.758   9.755
 3710SOL     OW23008   0.416   3.261   4.200
 3710SOL    HW123009   0.425   3.222   4.113
 3710SOL    HW223010   0.352   3.206   4.245
 3711SOL     OW23011   1.786   0.598  18.480
 3711SOL    HW123012   1.825   0.682  18.457
 3711SOL    HW223013   1.808   0.586  18.573
 3712SOL     OW23014   2.899   3.424  16.311
 3712SOL    HW123015   2.820   3.475  16.329
 3712SOL    HW223016   2.970   3.488  16.318
 3713SOL     OW23017   4.192   0.259  19.481
 3713SOL    HW123018   4.232   0.254  19.395
 3713SOL    HW223019   4.165   0.350  19.490
 3714SOL     OW23020   3.957   2.155  19.314
 3714SOL    HW123021   4.051   2.159  19.330
 3714SOL    HW223022   3.947   2.179  19.222
 3715SOL     OW23023   1.140   3.643   3.144
 3715SOL    HW123024   1.139   3.560   3.191
 3715SOL    HW223025   1.063   3.690   3.176
 3716SOL     OW23026   1.741   4.440   6.144
 3716SOL    HW123027   1.673   4.428   6.210
 3716SOL    HW223028   1.819   4.397   6.181
 3717SOL     OW23029   3.001   0.717  16.151
 3717SOL    HW123030   2.956   0.634  16.163
 3717SOL    HW223031   3.087   0.704  16.191
 3718SOL     OW23032   4.402   2.561  17.247
 3718SOL    HW123033   4.428   2.653  17.239
 3718SOL    HW223034   4.455   2.528  17.320
 3719SOL     OW23035   3.627   2.282  20.116
 3719SOL    HW123036   3.578   2.298  20.196
 3719SOL    HW223037   3.585   2.206  20.076
 3720SOL     OW23038   1.762   2.141  16.474
 3720SOL    HW123039   1.763   2.189  16.557
 3720SOL    HW223040   1.754   2.209  16.407
 3721SOL     OW23041   1.158   3.443  12.884
 3721SOL    HW123042   1.218   3.387  12.934
 3721SOL    HW223043   1.077   3.393  12.877
 3722SOL     OW23044   4.379   3.511  19.853
 3722SOL    HW123045   4.401   3.507  19.760
 3722SOL    HW223046   4.335   3.428  19.871
 3723SOL     OW23047   4.225   4.433  17.862
 3723SOL    HW123048   4.256   4.387  17.940
 3723SOL    HW223049   4.286   4.407  17.793
 3724SOL     OW23050   0.128   4.301  17.323
 3724SOL    HW123051   0.065   4.373  17.320
 3724SOL    HW223052   0.211   4.343  17.344
 3725SOL     OW23053   0.658   3.663  18.961
 3725SOL    HW123054   0.651   3.702  18.874
 3725SOL    HW223055   0.644   3.737  19.021
 3726SOL     OW23056   3.626   2.340   8.614
 3726SOL    HW123057   3.697   2.277   8.597
 3726SOL    HW223058   3.670   2.418   8.646
 3727SOL     OW23059   1.808   1.239  18.047
 3727SOL    HW123060   1.716   1.262  18.035
 3727SOL    HW223061   1.809   1.185  18.127
 3728SOL     OW23062   3.294   1.285   0.162
 3728SOL    HW123063   3.335   1.203   0.190
 3728SOL    HW223064   3.204   1.260   0.139
 3729SOL     OW23065   3.780   1.827   4.651
 3729SOL    HW123066   3.730   1.767   4.595
 3729SOL    HW223067   3.760   1.799   4.740
 3730SOL     OW23068   1.400   1.130  20.991
 3730SOL    HW123069   1.364   1.048  20.957
 3730SOL    HW223070   1.470   1.153  20.930
 3731SOL     OW23071   2.786   2.765  18.797
 3731SOL    HW123072   2.754   2.841  18.846
 3731SOL    HW223073   2.880   2.766  18.811
 3732SOL     OW23074   1.660   4.488   2.523
 3732SOL    HW123075   1.693   4.456   2.607
 3732SOL    HW223076   1.668   4.414   2.463
 3733SOL     OW23077   2.783   0.874   0.790
 3733SOL    HW123078   2.814   0.858   0.879
 3733SOL    HW223079   2.743   0.961   0.794
 3734SOL     OW23080   3.062   2.270  19.388
 3734SOL    HW123081   3.042   2.180  19.415
 3734SOL    HW223082   2.976   2.310  19.375
 3735SOL     OW23083   0.335   3.761  21.059
 3735SOL    HW123084   0.365   3.714  20.981
 3735SOL    HW223085   0.337   3.695  21.128
 3736SOL     OW23086   3.221   1.945  16.648
 3736SOL    HW123087   3.173   1.961  16.729
 3736SOL    HW223088   3.302   1.903  16.676
 3737SOL     OW23089   0.615   4.500   5.732
 3737SOL    HW123090   0.630   4.540   5.647
 3737SOL    HW223091   0.596   4.573   5.790
 3738SOL     OW23092   0.089   3.988  19.361
 3738SOL    HW123093   0.130   3.953  19.441
 3738SOL    HW223094   0.070   3.911  19.308
 3739SOL     OW23095   1.929   3.478  15.335
 3739SOL    HW123096   1.988   3.553  15.337
 3739SOL    HW223097   1.984   3.404  15.312
 3740SOL     OW23098   0.145   2.447   7.223
 3740SOL    HW123099   0.171   2.376   7.282
 3740SOL    HW223100   0.159   2.527   7.274
 3741SOL     OW23101   3.758   3.541  13.855
 3741SOL    HW123102   3.834   3.496  13.892
 3741SOL    HW223103   3.733   3.605  13.922
 3742SOL     OW23104   4.003   3.361  15.052
 3742SOL    HW123105   3.917   3.398  15.074
 3742SOL    HW223106   4.025   3.401  14.968
 3743SOL     OW23107   2.721   3.832  15.587
 3743SOL    HW123108   2.803   3.792  15.558
 3743SOL    HW223109   2.707   3.905  15.527
 3744SOL     OW23110   0.097   1.393  18.461
 3744SOL    HW123111   0.015   1.403  18.413
 3744SOL    HW223112   0.084   1.443  18.541
 3745SOL     OW23113   0.475   2.475   1.902
 3745SOL    HW123114   0.469   2.508   1.812
 3745SOL    HW223115   0.553   2.421   1.903
 3746SOL     OW23116   2.470   3.086   5.279
 3746SOL    HW123117   2.494   3.179   5.270
 3746SOL    HW223118   2.385   3.088   5.324
 3747SOL     OW23119   1.187   0.680  19.997
 3747SOL    HW123120   1.122   0.645  20.058
 3747SOL    HW223121   1.157   0.769  19.979
 3748SOL     OW23122   0.266   3.505  15.825
 3748SOL    HW123123   0.301   3.574  15.881
 3748SOL    HW223124   0.249   3.432  15.885
 3749SOL     OW23125   0.533   0.625   4.895
 3749SOL    HW123126   0.497   0.713   4.904
 3749SOL    HW223127   0.551   0.616   4.801
 3750SOL     OW23128   4.514   2.327  19.522
 3750SOL    HW123129   4.547   2.329  19.432
 3750SOL    HW223130   4.422   2.352  19.515
 3751SOL     OW23131   1.194   4.769   2.118
 3751SOL    HW123132   1.175   0.042   2.046
 3751SOL    HW223133   1.150   4.688   2.094
 3752SOL     OW23134   2.139   3.158  18.260
 3752SOL    HW123135   2.122   3.176  18.352
 3752SOL    HW223136   2.218   3.209  18.240
 3753SOL     OW23137   2.349   4.663  14.981
 3753SOL    HW123138   2.324   4.674  14.889
 3753SOL    HW223139   2.423   4.722  14.993
 3754SOL     OW23140   1.300   3.178   5.635
 3754SOL    HW123141   1.277   3.098   5.587
 3754SOL    HW223142   1.220   3.231   5.633
 3755SOL     OW23143   3.812   4.663  13.478
 3755SOL    HW123144   3.746   4.594  13.469
 3755SOL    HW223145   3.896   4.616  13.479
 3756SOL     OW23146   3.121   2.287  16.031
 3756SOL    HW123147   3.160   2.364  16.072
 3756SOL    HW223148   3.115   2.222  16.102
 3757SOL     OW23149   0.974   0.233  18.695
 3757SOL    HW123150   1.012   0.246  18.608
 3757SOL    HW223151   0.959   0.139  18.702
 3758SOL     OW23152   0.093   3.522  16.852
 3758SOL    HW123153   0.115   3.569  16.932
 3758SOL    HW223154   0.176   3.510  16.807
 3759SOL     OW23155   4.534   2.293  18.815
 3759SOL    HW123156   4.474   2.225  18.844
 3759SOL    HW223157   4.620   2.251  18.816
 3760SOL     OW23158   3.301   2.961  18.525
 3760SOL    HW123159   3.268   3.020  18.593
 3760SOL    HW223160   3.239   2.888  18.525
 3761SOL     OW23161   3.552   0.463  19.552
 3761SOL    HW123162   3.471   0.504  19.521
 3761SOL    HW223163   3.550   0.476  19.647
 3762SOL     OW23164   3.423   3.932  19.535
 3762SOL    HW123165   3.500   3.874  19.539
 3762SOL    HW223166   3.459   4.018  19.516
 3763SOL     OW23167   0.363   3.419  18.241
 3763SOL    HW123168   0.446   3.381  18.212
 3763SOL    HW223169   0.362   3.507  18.203
 3764SOL     OW23170   2.921   3.553  18.608
 3764SOL    HW123171   2.947   3.486  18.671
 3764SOL    HW223172   3.002   3.601  18.589
 3765SOL     OW23173   0.970   1.928   5.986
 3765SOL    HW123174   1.045   1.959   6.037
 3765SOL    HW223175   0.915   1.882   6.049
 3766SOL     OW23176   4.124   2.634  21.215
 3766SOL    HW123177   4.208   2.644   0.015
 3766SOL    HW223178   4.074   2.710  21.242
 3767SOL     OW23179   4.636   3.076   6.139
 3767SOL    HW123180   4.700   3.026   6.189
 3767SOL    HW223181   4.587   3.009   6.090
 3768SOL     OW23182   3.262   3.514   4.231
 3768SOL    HW123183   3.181   3.563   4.217
 3768SOL    HW223184   3.313   3.568   4.292
 3769SOL     OW23185   0.963   0.357  14.497
 3769SOL    HW123186   0.888   0.327  14.446
 3769SOL    HW223187   0.966   0.451  14.484
 3770SOL     OW23188   1.660   2.443   0.300
 3770SOL    HW123189   1.640   2.484   0.216
 3770SOL    HW223190   1.584   2.387   0.318
 3771SOL     OW23191   2.521   0.074  19.095
 3771SOL    HW123192   2.475   0.043  19.173
 3771SOL    HW223193   2.523   0.169  19.104
 3772SOL     OW23194   2.112   3.122   5.191
 3772SOL    HW123195   2.165   3.137   5.113
 3772SOL    HW223196   2.063   3.042   5.172
 3773SOL     OW23197   0.375   0.691   3.690
 3773SOL    HW123198   0.442   0.735   3.743
 3773SOL    HW223199   0.298   0.687   3.746
 3774SOL     OW23200   3.597   4.231  18.036
 3774SOL    HW123201   3.550   4.238  18.119
 3774SOL    HW223202   3.615   4.137  18.026
 3775SOL     OW23203   4.324   4.551  20.944
 3775SOL    HW123204   4.416   4.573  20.930
 3775SOL    HW223205   4.276   4.609  20.885
 3776SOL     OW23206   3.344   4.764  18.897
 3776SOL    HW123207   3.361   0.053  18.842
 3776SOL    HW223208   3.380   4.690  18.848
 3777SOL     OW23209   1.849   4.238  20.749
 3777SOL    HW123210   1.928   4.270  20.792
 3777SOL    HW223211   1.847   4.284  20.665
 3778SOL     OW23212   3.351   3.658  16.891
 3778SOL    HW123213   3.351   3.709  16.810
 3778SOL    HW223214   3.430   3.604  16.885
 3779SOL     OW23215   3.335   4.450  17.097
 3779SOL    HW123216   3.268   4.437  17.165
 3779SOL    HW223217   3.289   4.433  17.015
 3780SOL     OW23218   2.053   4.241  19.016
 3780SOL    HW123219   2.071   4.325  19.059
 3780SOL    HW223220   2.119   4.181  19.053
 3781SOL     OW23221   4.207   4.766  18.512
 3781SOL    HW123222   4.240   4.715  18.438
 3781SOL    HW223223   4.270   4.750  18.582
 3782SOL     OW23224   1.546   1.336  17.948
 3782SOL    HW123225   1.576   1.290  17.870
 3782SOL    HW223226   1.451   1.337  17.941
 3783SOL     OW23227   2.551   1.309   1.762
 3783SOL    HW123228   2.569   1.333   1.853
 3783SOL    HW223229   2.637   1.302   1.721
 3784SOL     OW23230   4.609   0.462  16.946
 3784SOL    HW123231   4.639   0.413  16.869
 3784SOL    HW223232   4.683   0.458  17.007
 3785SOL     OW23233   2.650   1.886  17.847
 3785SOL    HW123234   2.656   1.818  17.914
 3785SOL    HW223235   2.736   1.884  17.803
 3786SOL     OW23236   2.109   1.796   2.819
 3786SOL    HW123237   2.167   1.837   2.755
 3786SOL    HW223238   2.143   1.825   2.904
 3787SOL     OW23239   4.332   3.591  18.078
 3787SOL    HW123240   4.328   3.668  18.022
 3787SOL    HW223241   4.241   3.566  18.091
 3788SOL     OW23242   2.096   4.234   0.601
 3788SOL    HW123243   2.109   4.325   0.574
 3788SOL    HW223244   2.156   4.184   0.546
 3789SOL     OW23245   1.268   1.326   4.753
 3789SOL    HW123246   1.296   1.407   4.795
 3789SOL    HW223247   1.200   1.291   4.811
 3790SOL     OW23248   0.780   2.948   1.947
 3790SOL    HW123249   0.812   2.962   2.036
 3790SOL    HW223250   0.839   2.882   1.910
 3791SOL     OW23251   3.815   3.686   6.880
 3791SOL    HW123252   3.832   3.771   6.840
 3791SOL    HW223253   3.902   3.650   6.898
 3792SOL     OW23254   1.587   3.579   3.788
 3792SOL    HW123255   1.650   3.649   3.805
 3792SOL    HW223256   1.530   3.579   3.866
 3793SOL     OW23257   4.321   3.768  16.609
 3793SOL    HW123258   4.362   3.685  16.584
 3793SOL    HW223259   4.347   3.781  16.701
 3794SOL     OW23260   1.878   2.438   3.723
 3794SOL    HW123261   1.868   2.388   3.642
 3794SOL    HW223262   1.810   2.403   3.781
 3795SOL     OW23263   0.666   3.631   3.821
 3795SOL    HW123264   0.691   3.540   3.835
 3795SOL    HW223265   0.699   3.652   3.733
 3796SOL     OW23266   1.309   3.765   3.572
 3796SOL    HW123267   1.390   3.745   3.526
 3796SOL    HW223268   1.323   3.852   3.609
 3797SOL     OW23269   2.046   2.836   4.216
 3797SOL    HW123270   2.055   2.922   4.256
 3797SOL    HW223271   2.080   2.847   4.127
 3798SOL     OW23272   0.647   4.755  15.661
 3798SOL    HW123273   0.730   4.710  15.642
 3798SOL    HW223274   0.632   4.736  15.754
 3799SOL     OW23275   1.469   4.574   4.055
 3799SOL    HW123276   1.481   4.659   4.013
 3799SOL    HW223277   1.522   4.514   4.003
 3800SOL     OW23278   2.258   1.972   4.162
 3800SOL    HW123279   2.223   1.936   4.081
 3800SOL    HW223280   2.304   1.898   4.203
 3801SOL     OW23281   4.710   4.734  16.112
 3801SOL    HW123282   4.669   0.033  16.120
 3801SOL    HW223283   4.717   4.702  16.202
 3802SOL     OW23284   2.882   2.547  20.561
 3802SOL    HW123285   2.836   2.554  20.645
 3802SOL    HW223286   2.969   2.583  20.579
 3803SOL     OW23287   0.650   3.758  14.003
 3803SOL    HW123288   0.629   3.665  13.998
 3803SOL    HW223289   0.665   3.773  14.097
 3804SOL     OW23290   3.926   3.268   2.286
 3804SOL    HW123291   3.890   3.180   2.273
 3804SOL    HW223292   3.881   3.301   2.363
 3805SOL     OW23293   1.052   0.464  16.042
 3805SOL    HW123294   1.076   0.535  15.983
 3805SOL    HW223295   1.093   0.487  16.126
 3806SOL     OW23296   3.566   1.829   5.847
 3806SOL    HW123297   3.650   1.784   5.853
 3806SOL    HW223298   3.524   1.791   5.769
 3807SOL     OW23299   1.833   3.718   3.831
 3807SOL    HW123300   1.849   3.771   3.909
 3807SOL    HW223301   1.815   3.782   3.762
 3808SOL     OW23302   3.366   1.990  12.331
 3808SOL    HW123303   3.380   2.073  12.376
 3808SOL    HW223304   3.275   1.992  12.302
 3809SOL     OW23305   4.009   4.465  16.602
 3809SOL    HW123306   4.060   4.479  16.522
 3809SOL    HW223307   4.034   4.378  16.632
 3810SOL     OW23308   1.728   0.966  17.155
 3810SOL    HW123309   1.705   0.897  17.092
 3810SOL    HW223310   1.710   1.048  17.109
 3811SOL     OW23311   3.261   0.189  13.071
 3811SOL    HW123312   3.261   0.238  13.153
 3811SOL    HW223313   3.172   0.200  13.037
 3812SOL     OW23314   1.849   2.504   1.899
 3812SOL    HW123315   1.926   2.511   1.955
 3812SOL    HW223316   1.867   2.564   1.826
 3813SOL     OW23317   3.959   1.939   0.955
 3813SOL    HW123318   3.879   1.976   0.920
 3813SOL    HW223319   4.029   1.985   0.909
 3814SOL     OW23320   1.766   1.665   0.018
 3814SOL    HW123321   1.850   1.708   0.002
 3814SOL    HW223322   1.702   1.735   0.011
 3815SOL     OW23323   3.407   4.357   5.282
 3815SOL    HW123324   3.429   4.269   5.311
 3815SOL    HW223325   3.491   4.399   5.264
 3816SOL     OW23326   3.032   4.603  11.560
 3816SOL    HW123327   3.085   4.540  11.511
 3816SOL    HW223328   3.082   4.619  11.640
 3817SOL     OW23329   2.905   2.033  18.059
 3817SOL    HW123330   2.874   1.944  18.041
 3817SOL    HW223331   2.845   2.066  18.127
 3818SOL     OW23332   1.718   2.168   8.719
 3818SOL    HW123333   1.632   2.129   8.700
 3818SOL    HW223334   1.729   2.155   8.813
 3819SOL     OW23335   1.912   3.698  20.221
 3819SOL    HW123336   1.989   3.652  20.253
 3819SOL    HW223337   1.944   3.751  20.147
 3820SOL     OW23338   0.323   0.458  16.566
 3820SOL    HW123339   0.325   0.546  16.604
 3820SOL    HW223340   0.319   0.399  16.641
 3821SOL     OW23341   2.120   1.549   6.759
 3821SOL    HW123342   2.038   1.599   6.752
 3821SOL    HW223343   2.129   1.533   6.853
 3822SOL     OW23344   0.723   4.392  19.110
 3822SOL    HW123345   0.735   4.456  19.039
 3822SOL    HW223346   0.781   4.424  19.179
 3823SOL     OW23347   2.296   4.305  16.785
 3823SOL    HW123348   2.384   4.278  16.761
 3823SOL    HW223349   2.285   4.277  16.876
 3824SOL     OW23350   3.982   3.411  18.614
 3824SOL    HW123351   4.045   3.338  18.613
 3824SOL    HW223352   4.037   3.489  18.610
 3825SOL     OW23353   1.409   3.929  15.402
 3825SOL    HW123354   1.494   3.961  15.373
 3825SOL    HW223355   1.365   3.901  15.321
 3826SOL     OW23356   3.236   2.777  14.715
 3826SOL    HW123357   3.213   2.865  14.745
 3826SOL    HW223358   3.284   2.791  14.633
 3827SOL     OW23359   3.293   1.504   5.558
 3827SOL    HW123360   3.368   1.522   5.501
 3827SOL    HW223361   3.257   1.422   5.524
 3828SOL     OW23362   0.057   0.259  14.781
 3828SOL    HW123363   0.066   0.184  14.840
 3828SOL    HW223364   4.752   0.284  14.787
 3829SOL     OW23365   0.979   0.249   6.553
 3829SOL    HW123366   1.019   0.276   6.470
 3829SOL    HW223367   0.931   0.326   6.583
 3830SOL     OW23368   4.330   3.502   0.434
 3830SOL    HW123369   4.389   3.569   0.469
 3830SOL    HW223370   4.276   3.548   0.370
 3831SOL     OW23371   3.582   2.952  18.775
 3831SOL    HW123372   3.577   2.890  18.848
 3831SOL    HW223373   3.654   3.011  18.800
 3832SOL     OW23374   1.119   4.098  15.378
 3832SOL    HW123375   1.204   4.063  15.406
 3832SOL    HW223376   1.075   4.023  15.339
 3833SOL     OW23377   1.273   2.224   3.268
 3833SOL    HW123378   1.273   2.160   3.338
 3833SOL    HW223379   1.235   2.178   3.193
 3834SOL     OW23380   1.136   0.501  19.524
 3834SOL    HW123381   1.110   0.583  19.483
 3834SOL    HW223382   1.090   0.500  19.608
 3835SOL     OW23383   4.006   1.942   2.151
 3835SOL    HW123384   4.054   1.978   2.076
 3835SOL    HW223385   3.933   2.003   2.164
 3836SOL     OW23386   1.631   4.705  19.634
 3836SOL    HW123387   1.713   4.660  19.655
 3836SOL    HW223388   1.629   4.780  19.693
 3837SOL     OW23389   0.252   3.598   3.267
 3837SOL    HW123390   0.193   3.594   3.192
 3837SOL    HW223391   0.206   3.654   3.330
 3838SOL     OW23392   1.459   1.582  18.131
 3838SOL    HW123393   1.498   1.598  18.217
 3838SOL    HW223394   1.530   1.546  18.078
 3839SOL     OW23395   0.131   2.462  15.186
 3839SOL    HW123396   0.139   2.367  15.196
 3839SOL    HW223397   0.199   2.498  15.241
 3840SOL     OW23398   2.813   2.097  18.603
 3840SOL    HW123399   2.718   2.099  18.589
 3840SOL    HW223400   2.824   2.119  18.696
 3841SOL     OW23401   2.025   1.205   5.466
 3841SOL    HW123402   2.071   1.207   5.382
 3841SOL    HW223403   2.068   1.134   5.515
 3842SOL     OW23404   0.164   1.375   5.368
 3842SOL    HW123405   0.152   1.317   5.293
 3842SOL    HW223406   0.208   1.320   5.433
 3843SOL     OW23407   0.630   1.950  18.528
 3843SOL    HW123408   0.564   1.889  18.495
 3843SOL    HW223409   0.713   1.918  18.491
 3844SOL     OW23410   0.887   2.019  16.080
 3844SOL    HW123411   0.881   2.010  16.175
 3844SOL    HW223412   0.928   1.937  16.051
 3845SOL     OW23413   3.942   4.450   0.052
 3845SOL    HW123414   3.988   4.369   0.076
 3845SOL    HW223415   4.002   4.494  21.235
 3846SOL     OW23416   4.515   3.888   0.938
 3846SOL    HW123417   4.557   3.872   0.853
 3846SOL    HW223418   4.429   3.924   0.916
 3847SOL     OW23419   4.731   2.813  19.360
 3847SOL    HW123420   0.001   2.749  19.318
 3847SOL    HW223421   4.653   2.764  19.386
 3848SOL     OW23422   4.779   2.316  17.768
 3848SOL    HW123423   0.068   2.294  17.822
 3848SOL    HW223424   0.002   2.261  17.689
 3849SOL     OW23425   0.173   1.933   3.560
 3849SOL    HW123426   0.246   1.892   3.514
 3849SOL    HW223427   0.209   2.014   3.595
 3850SOL     OW23428   0.875   0.553   2.925
 3850SOL    HW123429   0.809   0.599   2.978
 3850SOL    HW223430   0.824   0.510   2.856
 3851SOL     OW23431   0.176   1.712   0.276
 3851SOL    HW123432   0.262   1.751   0.258
 3851SOL    HW223433   0.178   1.691   0.369
 3852SOL     OW23434   3.901   3.353  12.928
 3852SOL    HW123435   3.881   3.330  12.838
 3852SOL    HW223436   3.877   3.276  12.979
 3853SOL     OW23437   4.363   2.280   2.225
 3853SOL    HW123438   4.268   2.292   2.213
 3853SOL    HW223439   4.383   2.200   2.176
 3854SOL     OW23440   4.598   4.558  19.485
 3854SOL    HW123441   4.595   4.647  19.521
 3854SOL    HW223442   4.640   4.568  19.400
 3855SOL     OW23443   0.962   2.033   1.609
 3855SOL    HW123444   1.027   2.009   1.543
 3855SOL    HW223445   1.009   2.089   1.670
 3856SOL     OW23446   1.219   1.163  14.659
 3856SOL    HW123447   1.223   1.205  14.745
 3856SOL    HW223448   1.265   1.223  14.600
 3857SOL     OW23449   3.377   2.427   6.634
 3857SOL    HW123450   3.307   2.382   6.587
 3857SOL    HW223451   3.454   2.370   6.624
 3858SOL     OW23452   3.229   2.123  15.392
 3858SOL    HW123453   3.243   2.175  15.313
 3858SOL    HW223454   3.312   2.126  15.439
 3859SOL     OW23455   1.574   4.546  13.873
 3859SOL    HW123456   1.559   4.620  13.814
 3859SOL    HW223457   1.530   4.570  13.954
 3860SOL     OW23458   1.137   4.403  17.708
 3860SOL    HW123459   1.152   4.494  17.685
 3860SOL    HW223460   1.099   4.364  17.629
 3861SOL     OW23461   3.977   2.667  15.556
 3861SOL    HW123462   3.946   2.669  15.465
 3861SOL    HW223463   3.953   2.752  15.592
 3862SOL     OW23464   2.282   0.599  19.492
 3862SOL    HW123465   2.190   0.586  19.466
 3862SOL    HW223466   2.279   0.608  19.587
 3863SOL     OW23467   1.050   3.702   2.479
 3863SOL    HW123468   0.971   3.650   2.467
 3863SOL    HW223469   1.072   3.691   2.572
 3864SOL     OW23470   3.971   0.644  19.307
 3864SOL    HW123471   3.951   0.565  19.357
 3864SOL    HW223472   3.888   0.692  19.305
 3865SOL     OW23473   4.214   1.925  19.106
 3865SOL    HW123474   4.255   1.839  19.095
 3865SOL    HW223475   4.123   1.912  19.077
 3866SOL     OW23476   4.701   2.971   0.369
 3866SOL    HW123477   4.736   3.001   0.285
 3866SOL    HW223478   4.778   2.951   0.421
 3867SOL     OW23479   1.323   3.151   1.746
 3867SOL    HW123480   1.285   3.185   1.664
 3867SOL    HW223481   1.405   3.199   1.756
 3868SOL     OW23482   4.160   3.128  15.125
 3868SOL    HW123483   4.107   3.205  15.105
 3868SOL    HW223484   4.226   3.159  15.187
 3869SOL     OW23485   1.567   3.452   6.280
 3869SOL    HW123486   1.542   3.482   6.193
 3869SOL    HW223487   1.655   3.489   6.294
 3870SOL     OW23488   1.419   0.675   3.058
 3870SOL    HW123489   1.326   0.656   3.053
 3870SOL    HW223490   1.424   0.762   3.098
 3871SOL     OW23491   2.917   0.152   2.120
 3871SOL    HW123492   2.977   0.222   2.094
 3871SOL    HW223493   2.875   0.184   2.199
 3872SOL     OW23494   0.569   0.950   5.301
 3872SOL    HW123495   0.554   0.860   5.332
 3872SOL    HW223496   0.483   0.979   5.271
 3873SOL     OW23497   2.024   4.113  16.898
 3873SOL    HW123498   1.952   4.176  16.908
 3873SOL    HW223499   1.990   4.032  16.935
 3874SOL     OW23500   3.934   1.535   8.309
 3874SOL    HW123501   4.023   1.513   8.339
 3874SOL    HW223502   3.914   1.470   8.242
 3875SOL     OW23503   0.645   4.348   0.149
 3875SOL    HW123504   0.688   4.280   0.200
 3875SOL    HW223505   0.718   4.392   0.104
 3876SOL     OW23506   1.074   4.660  21.212
 3876SOL    HW123507   1.053   4.753  21.209
 3876SOL    HW223508   1.096   4.637  21.122
 3877SOL     OW23509   1.221   1.318  16.295
 3877SOL    HW123510   1.158   1.264  16.343
 3877SOL    HW223511   1.293   1.331  16.357
 3878SOL     OW23512   0.692   4.459   2.415
 3878SOL    HW123513   0.741   4.389   2.370
 3878SOL    HW223514   0.733   4.465   2.501
 3879SOL     OW23515   0.641   4.111  14.887
 3879SOL    HW123516   0.645   4.175  14.958
 3879SOL    HW223517   0.556   4.068  14.898
 3880SOL     OW23518   2.363   4.002  16.566
 3880SOL    HW123519   2.269   4.021  16.565
 3880SOL    HW223520   2.370   3.912  16.598
 3881SOL     OW23521   4.458   3.303   3.158
 3881SOL    HW123522   4.429   3.332   3.071
 3881SOL    HW223523   4.416   3.218   3.171
 3882SOL     OW23524   3.364   0.239  17.080
 3882SOL    HW123525   3.319   0.290  17.147
 3882SOL    HW223526   3.294   0.202  17.027
 3883SOL     OW23527   4.507   0.932  18.028
 3883SOL    HW123528   4.432   0.953  18.083
 3883SOL    HW223529   4.523   1.011  17.976
 3884SOL     OW23530   3.405   4.779   1.330
 3884SOL    HW123531   3.460   0.068   1.348
 3884SOL    HW223532   3.458   4.704   1.359
 3885SOL     OW23533   2.768   0.287   2.863
 3885SOL    HW123534   2.832   0.318   2.928
 3885SOL    HW223535   2.816   0.223   2.811
 3886SOL     OW23536   2.487   1.106   1.508
 3886SOL    HW123537   2.556   1.059   1.555
 3886SOL    HW223538   2.459   1.174   1.569
 3887SOL     OW23539   3.466   2.477  18.926
 3887SOL    HW123540   3.442   2.387  18.948
 3887SOL    HW223541   3.445   2.485  18.833
 3888SOL     OW23542   2.217   4.029   6.140
 3888SOL    HW123543   2.187   4.027   6.049
 3888SOL    HW223544   2.261   4.114   6.148
 3889SOL     OW23545   2.173   4.516   4.603
 3889SOL    HW123546   2.220   4.435   4.622
 3889SOL    HW223547   2.144   4.548   4.688
 3890SOL     OW23548   3.757   3.359   1.282
 3890SOL    HW123549   3.710   3.323   1.357
 3890SOL    HW223550   3.780   3.282   1.230
 3891SOL     OW23551   2.989   4.029   0.488
 3891SOL    HW123552   2.934   3.992   0.420
 3891SOL    HW223553   3.008   3.956   0.547
 3892SOL     OW23554   4.642   4.418  14.391
 3892SOL    HW123555   4.650   4.493  14.450
 3892SOL    HW223556   4.702   4.437  14.319
 3893SOL     OW23557   0.015   4.583   5.174
 3893SOL    HW123558   0.077   4.655   5.180
 3893SOL    HW223559   4.716   4.624   5.185
 3894SOL     OW23560   0.104   0.092   7.868
 3894SOL    HW123561   0.050   0.014   7.863
 3894SOL    HW223562   0.116   0.120   7.777
 3895SOL     OW23563   3.654   2.719  19.309
 3895SOL    HW123564   3.609   2.642  19.344
 3895SOL    HW223565   3.583   2.775  19.277
 3896SOL     OW23566   3.332   4.411  14.671
 3896SOL    HW123567   3.393   4.478  14.699
 3896SOL    HW223568   3.370   4.374  14.592
 3897SOL     OW23569   1.916   2.036  20.499
 3897SOL    HW123570   1.881   2.124  20.487
 3897SOL    HW223571   1.898   2.015  20.590
 3898SOL     OW23572   2.133   0.997  13.047
 3898SOL    HW123573   2.083   1.076  13.025
 3898SOL    HW223574   2.193   0.985  12.973
 3899SOL     OW23575   3.574   3.520   2.538
 3899SOL    HW123576   3.665   3.491   2.539
 3899SOL    HW223577   3.578   3.614   2.557
 3900SOL     OW23578   1.624   2.543   6.207
 3900SOL    HW123579   1.666   2.458   6.214
 3900SOL    HW223580   1.691   2.606   6.234
 3901SOL     OW23581   2.879   0.973   2.130
 3901SOL    HW123582   2.794   1.017   2.119
 3901SOL    HW223583   2.858   0.879   2.125
 3902SOL     OW23584   2.905   3.956  16.634
 3902SOL    HW123585   2.832   3.894  16.631
 3902SOL    HW223586   2.982   3.905  16.608
 3903SOL     OW23587   2.131   4.176  17.831
 3903SOL    HW123588   2.197   4.189  17.764
 3903SOL    HW223589   2.109   4.264  17.861
 3904SOL     OW23590   0.153   4.523  15.065
 3904SOL    HW123591   0.165   4.535  15.160
 3904SOL    HW223592   0.152   4.612  15.030
 3905SOL     OW23593   4.353   0.395  17.309
 3905SOL    HW123594   4.311   0.334  17.370
 3905SOL    HW223595   4.298   0.474  17.312
 3906SOL     OW23596   2.929   1.916  20.184
 3906SOL    HW123597   2.999   1.979  20.169
 3906SOL    HW223598   2.889   1.904  20.097
 3907SOL     OW23599   0.058   0.079   5.418
 3907SOL    HW123600   0.078   0.169   5.392
 3907SOL    HW223601   4.773   0.087   5.480
 3908SOL     OW23602   0.160   0.796  20.405
 3908SOL    HW123603   0.210   0.796  20.486
 3908SOL    HW223604   0.108   0.715  20.410
 3909SOL     OW23605   2.163   2.542   4.530
 3909SOL    HW123606   2.163   2.568   4.622
 3909SOL    HW223607   2.073   2.557   4.501
 3910SOL     OW23608   3.228   0.205  18.195
 3910SOL    HW123609   3.249   0.224  18.103
 3910SOL    HW223610   3.207   0.290  18.233
 3911SOL     OW23611   0.557   2.777  18.756
 3911SOL    HW123612   0.514   2.841  18.813
 3911SOL    HW223613   0.616   2.729  18.814
 3912SOL     OW23614   3.102   4.755  19.557
 3912SOL    HW123615   3.160   4.727  19.628
 3912SOL    HW223616   3.151   4.733  19.477
 3913SOL     OW23617   3.792   4.401  19.562
 3913SOL    HW123618   3.742   4.442  19.633
 3913SOL    HW223619   3.884   4.421  19.583
 3914SOL     OW23620   4.688   0.610   6.471
 3914SOL    HW123621   4.664   0.520   6.449
 3914SOL    HW223622   4.767   0.628   6.420
 3915SOL     OW23623   2.533   3.056   7.873
 3915SOL    HW123624   2.570   3.038   7.786
 3915SOL    HW223625   2.438   3.053   7.860
 3916SOL     OW23626   2.051   4.421  14.665
 3916SOL    HW123627   1.982   4.416  14.599
 3916SOL    HW223628   2.026   4.496  14.720
 3917SOL     OW23629   1.690   4.224  21.131
 3917SOL    HW123630   1.621   4.251  21.191
 3917SOL    HW223631   1.670   4.268  21.049
 3918SOL     OW23632   2.125   1.647   4.760
 3918SOL    HW123633   2.206   1.630   4.808
 3918SOL    HW223634   2.058   1.659   4.828
 3919SOL     OW23635   1.918   2.453  17.119
 3919SOL    HW123636   2.010   2.481  17.124
 3919SOL    HW223637   1.868   2.528  17.151
 3920SOL     OW23638   1.282   1.131   5.699
 3920SOL    HW123639   1.288   1.226   5.683
 3920SOL    HW223640   1.196   1.106   5.666
 3921SOL     OW23641   1.640   4.502   0.049
 3921SOL    HW123642   1.594   4.484  21.211
 3921SOL    HW223643   1.680   4.418   0.072
 3922SOL     OW23644   0.801   4.266  20.983
 3922SOL    HW123645   0.716   4.229  20.958
 3922SOL    HW223646   0.779   4.349  21.025
 3923SOL     OW23647   4.240   1.544  17.848
 3923SOL    HW123648   4.272   1.468  17.800
 3923SOL    HW223649   4.306   1.612  17.833
 3924SOL     OW23650   1.322   1.435  17.518
 3924SOL    HW123651   1.279   1.457  17.436
 3924SOL    HW223652   1.412   1.467  17.507
 3925SOL     OW23653   0.487   4.334  18.389
 3925SOL    HW123654   0.437   4.314  18.310
 3925SOL    HW223655   0.455   4.271  18.453
 3926SOL     OW23656   3.388   1.963   1.894
 3926SOL    HW123657   3.387   2.010   1.810
 3926SOL    HW223658   3.381   1.871   1.869
 3927SOL     OW23659   0.317   0.063   2.807
 3927SOL    HW123660   0.326   0.027   2.896
 3927SOL    HW223661   0.259   0.001   2.763
 3928SOL     OW23662   1.911   2.665  18.005
 3928SOL    HW123663   1.900   2.754  17.972
 3928SOL    HW223664   1.828   2.622  17.984
 3929SOL     OW23665   0.557   3.958  17.908
 3929SOL    HW123666   0.591   3.888  17.852
 3929SOL    HW223667   0.589   3.937  17.995
 3930SOL     OW23668   0.946   4.244  18.980
 3930SOL    HW123669   0.983   4.241  19.068
 3930SOL    HW223670   0.853   4.259  18.994
 3931SOL     OW23671   0.621   4.018   5.816
 3931SOL    HW123672   0.670   4.044   5.893
 3931SOL    HW223673   0.653   3.930   5.796
 3932SOL     OW23674   0.466   3.735   5.959
 3932SOL    HW123675   0.461   3.801   6.028
 3932SOL    HW223676   0.536   3.765   5.901
 3933SOL     OW23677   0.486   2.373   5.896
 3933SOL    HW123678   0.529   2.326   5.967
 3933SOL    HW223679   0.393   2.351   5.905
 3934SOL     OW23680   0.531   4.723  16.668
 3934SOL    HW123681   0.516   4.632  16.693
 3934SOL    HW223682   0.481   4.774  16.732
 3935SOL     OW23683   0.838   0.370  10.076
 3935SOL    HW123684   0.835   0.424  10.155
 3935SOL    HW223685   0.891   0.294  10.102
 3936SOL     OW23686   0.683   2.302  14.840
 3936SOL    HW123687   0.740   2.370  14.805
 3936SOL    HW223688   0.735   2.259  14.908
 3937SOL     OW23689   1.911   2.352   6.035
 3937SOL    HW123690   1.977   2.350   6.105
 3937SOL    HW223691   1.853   2.279   6.056
 3938SOL     OW23692   2.378   4.409   5.919
 3938SOL    HW123693   2.344   4.486   5.964
 3938SOL    HW223694   2.408   4.441   5.834
 3939SOL     OW23695   2.589   0.404  18.842
 3939SOL    HW123696   2.568   0.407  18.935
 3939SOL    HW223697   2.684   0.403  18.838
 3940SOL     OW23698   4.101   2.734   2.000
 3940SOL    HW123699   4.026   2.774   1.956
 3940SOL    HW223700   4.172   2.739   1.936
 3941SOL     OW23701   1.870   2.664  16.825
 3941SOL    HW123702   1.853   2.701  16.911
 3941SOL    HW223703   1.925   2.587  16.843
 3942SOL     OW23704   0.656   3.963  20.121
 3942SOL    HW123705   0.666   3.904  20.046
 3942SOL    HW223706   0.713   3.924  20.189
 3943SOL     OW23707   1.555   3.686   0.179
 3943SOL    HW123708   1.531   3.623   0.247
 3943SOL    HW223709   1.502   3.763   0.199
 3944SOL     OW23710   2.524   4.697  17.479
 3944SOL    HW123711   2.439   4.740  17.489
 3944SOL    HW223712   2.547   4.668  17.568
 3945SOL     OW23713   0.987   1.636   3.191
 3945SOL    HW123714   0.909   1.620   3.137
 3945SOL    HW223715   0.981   1.730   3.213
 3946SOL     OW23716   0.612   3.819  19.201
 3946SOL    HW123717   0.688   3.868  19.169
 3946SOL    HW223718   0.544   3.885  19.214
 3947SOL     OW23719   4.112   4.274   8.925
 3947SOL    HW123720   4.152   4.197   8.884
 3947SOL    HW223721   4.112   4.254   9.019
 3948SOL     OW23722   2.216   4.160   9.026
 3948SOL    HW123723   2.172   4.177   9.109
 3948SOL    HW223724   2.305   4.193   9.039
 3949SOL     OW23725   1.651   4.154   4.572
 3949SOL    HW123726   1.711   4.220   4.536
 3949SOL    HW223727   1.700   4.116   4.645
 3950SOL     OW23728   2.837   0.277   5.643
 3950SOL    HW123729   2.781   0.231   5.581
 3950SOL    HW223730   2.783   0.350   5.675
 3951SOL     OW23731   1.787   1.783   4.057
 3951SOL    HW123732   1.699   1.765   4.090
 3951SOL    HW223733   1.824   1.697   4.038
 3952SOL     OW23734   2.848   3.549   5.766
 3952SOL    HW123735   2.787   3.572   5.696
 3952SOL    HW223736   2.905   3.483   5.728
 3953SOL     OW23737   0.416   1.970  20.863
 3953SOL    HW123738   0.444   2.025  20.937
 3953SOL    HW223739   0.473   1.893  20.868
 3954SOL     OW23740   1.136   2.520  16.202
 3954SOL    HW123741   1.226   2.508  16.234
 3954SOL    HW223742   1.094   2.436  16.216
 3955SOL     OW23743   3.433   4.137   4.084
 3955SOL    HW123744   3.386   4.067   4.038
 3955SOL    HW223745   3.524   4.106   4.088
 3956SOL     OW23746   1.445   2.340   2.732
 3956SOL    HW123747   1.482   2.352   2.819
 3956SOL    HW223748   1.521   2.318   2.677
 3957SOL     OW23749   2.704   2.183  19.948
 3957SOL    HW123750   2.715   2.211  20.039
 3957SOL    HW223751   2.774   2.119  19.934
 3958SOL     OW23752   0.946   3.796  15.816
 3958SOL    HW123753   0.931   3.804  15.722
 3958SOL    HW223754   0.993   3.876  15.840
 3959SOL     OW23755   0.554   1.937  17.068
 3959SOL    HW123756   0.545   1.889  16.986
 3959SOL    HW223757   0.464   1.951  17.098
 3960SOL     OW23758   0.027   3.980   2.005
 3960SOL    HW123759   0.058   4.069   1.993
 3960SOL    HW223760   4.780   3.978   2.095
 3961SOL     OW23761   2.547   3.283  15.871
 3961SOL    HW123762   2.600   3.328  15.937
 3961SOL    HW223763   2.610   3.232  15.820
 3962SOL     OW23764   2.679   1.146  21.009
 3962SOL    HW123765   2.727   1.161  21.090
 3962SOL    HW223766   2.728   1.194  20.942
 3963SOL     OW23767   4.135   2.578   3.219
 3963SOL    HW123768   4.228   2.577   3.241
 3963SOL    HW223769   4.108   2.669   3.234
 3964SOL     OW23770   0.594   2.543  15.546
 3964SOL    HW123771   0.669   2.560  15.489
 3964SOL    HW223772   0.564   2.456  15.521
 3965SOL     OW23773   3.291   3.248  20.988
 3965SOL    HW123774   3.384   3.227  20.995
 3965SOL    HW223775   3.248   3.163  20.991
 3966SOL     OW23776   1.738   2.352   1.642
 3966SOL    HW123777   1.788   2.394   1.712
 3966SOL    HW223778   1.804   2.319   1.581
 3967SOL     OW23779   2.936   0.057   0.524
 3967SOL    HW123780   2.951   0.055   0.429
 3967SOL    HW223781   2.854   0.105   0.533
 3968SOL     OW23782   4.368   2.938   0.884
 3968SOL    HW123783   4.309   2.962   0.813
 3968SOL    HW223784   4.456   2.942   0.845
 3969SOL     OW23785   3.712   4.428   0.880
 3969SOL    HW123786   3.625   4.392   0.894
 3969SOL    HW223787   3.771   4.371   0.929
 3970SOL     OW23788   3.024   4.000   3.328
 3970SOL    HW123789   2.992   4.078   3.374
 3970SOL    HW223790   3.088   4.034   3.265
 3971SOL     OW23791   0.984   3.735  18.128
 3971SOL    HW123792   1.023   3.794  18.064
 3971SOL    HW223793   1.040   3.742  18.205
 3972SOL     OW23794   2.885   2.477  17.783
 3972SOL    HW123795   2.829   2.471  17.705
 3972SOL    HW223796   2.913   2.386  17.799
 3973SOL     OW23797   3.538   1.219  19.334
 3973SOL    HW123798   3.540   1.213  19.430
 3973SOL    HW223799   3.616   1.173  19.306
 3974SOL     OW23800   0.307   2.386  17.608
 3974SOL    HW123801   0.271   2.437  17.680
 3974SOL    HW223802   0.279   2.296  17.625
 3975SOL     OW23803   0.695   3.004   0.291
 3975SOL    HW123804   0.716   3.097   0.280
 3975SOL    HW223805   0.777   2.959   0.268
 3976SOL     OW23806   2.717   1.830  16.917
 3976SOL    HW123807   2.672   1.766  16.863
 3976SOL    HW223808   2.701   1.803  17.007
 3977SOL     OW23809   0.252   1.255   3.120
 3977SOL    HW123810   0.346   1.242   3.118
 3977SOL    HW223811   0.216   1.169   3.141
 3978SOL     OW23812   3.742   1.113  17.560
 3978SOL    HW123813   3.784   1.162  17.489
 3978SOL    HW223814   3.715   1.179  17.623
 3979SOL     OW23815   0.293   4.079   1.054
 3979SOL    HW123816   0.326   4.142   1.118
 3979SOL    HW223817   0.198   4.091   1.055
 3980SOL     OW23818   0.104   2.144  18.997
 3980SOL    HW123819   0.169   2.077  19.015
 3980SOL    HW223820   0.154   2.225  18.986
 3981SOL     OW23821   4.110   2.185  16.233
 3981SOL    HW123822   4.042   2.155  16.294
 3981SOL    HW223823   4.116   2.279  16.248
 3982SOL     OW23824   4.577   1.496   6.619
 3982SOL    HW123825   4.557   1.418   6.670
 3982SOL    HW223826   4.648   1.539   6.666
 3983SOL     OW23827   4.524   1.380   4.227
 3983SOL    HW123828   4.598   1.440   4.238
 3983SOL    HW223829   4.535   1.343   4.139
 3984SOL     OW23830   2.459   3.826   6.477
 3984SOL    HW123831   2.546   3.847   6.511
 3984SOL    HW223832   2.455   3.870   6.392
 3985SOL     OW23833   4.088   1.293  16.008
 3985SOL    HW123834   4.040   1.210  16.010
 3985SOL    HW223835   4.081   1.327  16.097
 3986SOL     OW23836   3.348   2.123  17.218
 3986SOL    HW123837   3.368   2.180  17.291
 3986SOL    HW223838   3.281   2.063  17.252
 3987SOL     OW23839   2.221   1.552  21.039
 3987SOL    HW123840   2.307   1.563  21.079
 3987SOL    HW223841   2.192   1.641  21.019
 3988SOL     OW23842   3.324   0.375  17.951
 3988SOL    HW123843   3.408   0.344  17.984
 3988SOL    HW223844   3.345   0.450  17.896
 3989SOL     OW23845   1.631   0.452   5.198
 3989SOL    HW123846   1.577   0.529   5.214
 3989SOL    HW223847   1.698   0.483   5.137
 3990SOL     OW23848   2.880   0.375  18.974
 3990SOL    HW123849   2.853   0.462  19.005
 3990SOL    HW223850   2.964   0.390  18.932
 3991SOL     OW23851   2.695   0.428   2.474
 3991SOL    HW123852   2.727   0.454   2.560
 3991SOL    HW223853   2.630   0.495   2.452
 3992SOL     OW23854   3.284   4.180   5.024
 3992SOL    HW123855   3.305   4.087   5.014
 3992SOL    HW223856   3.237   4.186   5.107
 3993SOL     OW23857   1.887   3.903  15.954
 3993SOL    HW123858   1.873   3.886  16.048
 3993SOL    HW223859   1.846   3.829  15.910
 3994SOL     OW23860   4.428   4.544   6.165
 3994SOL    HW123861   4.426   4.543   6.069
 3994SOL    HW223862   4.335   4.545   6.190
 3995SOL     OW23863   2.801   3.171   5.482
 3995SOL    HW123864   2.821   3.080   5.503
 3995SOL    HW223865   2.886   3.215   5.485
 3996SOL     OW23866   4.771   3.368  17.958
 3996SOL    HW123867   0.043   3.307  18.003
 3996SOL    HW223868   0.013   3.365  17.867
 3997SOL     OW23869   0.644   4.203  17.758
 3997SOL    HW123870   0.615   4.131  17.814
 3997SOL    HW223871   0.738   4.209  17.774
 3998SOL     OW23872   4.209   3.231  18.610
 3998SOL    HW123873   4.213   3.145  18.651
 3998SOL    HW223874   4.251   3.290  18.673
 3999SOL     OW23875   0.037   4.230  18.596
 3999SOL    HW123876   0.090   4.303  18.627
 3999SOL    HW223877   0.004   4.189  18.676
 4000SOL     OW23878   0.136   3.830  20.083
 4000SOL    HW123879   0.158   3.888  20.156
 4000SOL    HW223880   0.217   3.825  20.032
 4001SOL     OW23881   3.030   2.949   1.010
 4001SOL    HW123882   2.980   3.028   1.029
 4001SOL    HW223883   3.040   2.949   0.915
 4002SOL     OW23884   1.769   2.623  14.210
 4002SOL    HW123885   1.711   2.547  14.216
 4002SOL    HW223886   1.832   2.600  14.141
 4003SOL     OW23887   4.220   0.181   2.120
 4003SOL    HW123888   4.217   0.253   2.183
 4003SOL    HW223889   4.313   0.169   2.102
 4004SOL     OW23890   3.836   1.079   6.179
 4004SOL    HW123891   3.755   1.108   6.138
 4004SOL    HW223892   3.904   1.097   6.115
 4005SOL     OW23893   1.371   2.421  16.349
 4005SOL    HW123894   1.448   2.476  16.335
 4005SOL    HW223895   1.406   2.332  16.353
 4006SOL     OW23896   4.157   2.149  19.628
 4006SOL    HW123897   4.185   2.196  19.550
 4006SOL    HW223898   4.144   2.059  19.600
 4007SOL     OW23899   1.558   1.706  18.363
 4007SOL    HW123900   1.653   1.701  18.350
 4007SOL    HW223901   1.541   1.799  18.377
 4008SOL     OW23902   3.546   2.691   1.484
 4008SOL    HW123903   3.574   2.782   1.477
 4008SOL    HW223904   3.473   2.694   1.545
 4009SOL     OW23905   4.700   0.880   0.234
 4009SOL    HW123906   4.667   0.934   0.306
 4009SOL    HW223907   4.747   0.809   0.276
 4010SOL     OW23908   3.535   0.397   5.912
 4010SOL    HW123909   3.515   0.474   5.860
 4010SOL    HW223910   3.627   0.379   5.894
 4011SOL     OW23911   0.800   0.784  17.522
 4011SOL    HW123912   0.797   0.799  17.428
 4011SOL    HW223913   0.719   0.736  17.541
 4012SOL     OW23914   0.973   1.364   2.447
 4012SOL    HW123915   0.984   1.272   2.473
 4012SOL    HW223916   1.025   1.372   2.367
 4013SOL     OW23917   3.430   1.464   6.434
 4013SOL    HW123918   3.471   1.379   6.449
 4013SOL    HW223919   3.362   1.446   6.368
 4014SOL     OW23920   1.852   3.572   5.841
 4014SOL    HW123921   1.762   3.546   5.864
 4014SOL    HW223922   1.880   3.505   5.778
 4015SOL     OW23923   4.690   1.957  15.270
 4015SOL    HW123924   4.661   1.980  15.358
 4015SOL    HW223925   4.785   1.944  15.279
 4016SOL     OW23926   2.124   3.244   7.468
 4016SOL    HW123927   2.095   3.243   7.376
 4016SOL    HW223928   2.214   3.212   7.465
 4017SOL     OW23929   3.526   2.246   2.489
 4017SOL    HW123930   3.441   2.202   2.487
 4017SOL    HW223931   3.545   2.258   2.582
 4018SOL     OW23932   1.643   2.693   5.718
 4018SOL    HW123933   1.630   2.769   5.775
 4018SOL    HW223934   1.569   2.635   5.739
 4019SOL     OW23935   0.259   0.254  11.894
 4019SOL    HW123936   0.311   0.229  11.970
 4019SOL    HW223937   0.254   0.350  11.899
 4020SOL     OW23938   0.903   1.018  20.947
 4020SOL    HW123939   0.813   0.991  20.931
 4020SOL    HW223940   0.930   1.063  20.866
 4021SOL     OW23941   0.395   0.635   2.518
 4021SOL    HW123942   0.431   0.608   2.434
 4021SOL    HW223943   0.462   0.610   2.582
 4022SOL     OW23944   0.199   0.726   2.073
 4022SOL    HW123945   0.290   0.703   2.055
 4022SOL    HW223946   0.163   0.647   2.115
 4023SOL     OW23947   4.333   2.571   4.034
 4023SOL    HW123948   4.261   2.591   4.093
 4023SOL    HW223949   4.298   2.504   3.975
 4024SOL     OW23950   1.323   3.611   0.871
 4024SOL    HW123951   1.283   3.668   0.805
 4024SOL    HW223952   1.388   3.561   0.823
 4025SOL     OW23953   3.931   3.212  20.636
 4025SOL    HW123954   3.904   3.194  20.545
 4025SOL    HW223955   4.026   3.216  20.632
 4026SOL     OW23956   4.201   0.652  16.051
 4026SOL    HW123957   4.224   0.719  16.116
 4026SOL    HW223958   4.281   0.600  16.042
 4027SOL     OW23959   3.594   0.699   5.030
 4027SOL    HW123960   3.650   0.756   4.977
 4027SOL    HW223961   3.651   0.625   5.052
 4028SOL     OW23962   0.117   0.180  17.033
 4028SOL    HW123963   0.038   0.140  17.066
 4028SOL    HW223964   0.115   0.270  17.067
 4029SOL     OW23965   0.851   4.557  19.526
 4029SOL    HW123966   0.844   4.466  19.499
 4029SOL    HW223967   0.875   4.553  19.619
 4030SOL     OW23968   2.876   0.701  16.478
 4030SOL    HW123969   2.924   0.770  16.524
 4030SOL    HW223970   2.925   0.621  16.496
 4031SOL     OW23971   0.294   1.983  15.988
 4031SOL    HW123972   0.238   2.030  15.926
 4031SOL    HW223973   0.285   1.891  15.963
 4032SOL     OW23974   2.221   4.453  18.923
 4032SOL    HW123975   2.270   4.372  18.907
 4032SOL    HW223976   2.286   4.522  18.917
 4033SOL     OW23977   0.629   0.482  19.933
 4033SOL    HW123978   0.565   0.554  19.933
 4033SOL    HW223979   0.635   0.456  19.841
 4034SOL     OW23980   4.463   2.429  13.975
 4034SOL    HW123981   4.555   2.411  13.958
 4034SOL    HW223982   4.452   2.409  14.068
 4035SOL     OW23983   0.948   2.036  19.815
 4035SOL    HW123984   1.022   2.097  19.818
 4035SOL    HW223985   0.895   2.058  19.891
 4036SOL     OW23986   2.712   3.993   2.682
 4036SOL    HW123987   2.701   3.898   2.677
 4036SOL    HW223988   2.632   4.024   2.725
 4037SOL     OW23989   3.443   2.285   3.298
 4037SOL    HW123990   3.458   2.319   3.386
 4037SOL    HW223991   3.437   2.190   3.310
 4038SOL     OW23992   3.846   1.794  20.798
 4038SOL    HW123993   3.860   1.766  20.888
 4038SOL    HW223994   3.802   1.879  20.805
 4039SOL     OW23995   3.594   2.049   5.424
 4039SOL    HW123996   3.620   2.042   5.515
 4039SOL    HW223997   3.676   2.037   5.375
 4040SOL     OW23998   0.356   3.797  12.294
 4040SOL    HW123999   0.263   3.817  12.308
 4040SOL    HW224000   0.403   3.872  12.330
 4041SOL     OW24001   2.041   3.705   1.423
 4041SOL    HW124002   2.115   3.647   1.441
 4041SOL    HW224003   2.065   3.750   1.342
 4042SOL     OW24004   4.422   0.195   4.308
 4042SOL    HW124005   4.486   0.126   4.289
 4042SOL    HW224006   4.449   0.268   4.251
 4043SOL     OW24007   0.432   2.562  20.450
 4043SOL    HW124008   0.435   2.474  20.413
 4043SOL    HW224009   0.391   2.551  20.535
 4044SOL     OW24010   3.689   2.059  19.358
 4044SOL    HW124011   3.626   2.126  19.333
 4044SOL    HW224012   3.774   2.092  19.328
 4045SOL     OW24013   4.245   0.564   3.628
 4045SOL    HW124014   4.282   0.559   3.716
 4045SOL    HW224015   4.309   0.520   3.572
 4046SOL     OW24016   1.056   2.550  11.773
 4046SOL    HW124017   1.120   2.516  11.711
 4046SOL    HW224018   0.989   2.481  11.777
 4047SOL     OW24019   2.962   3.957  19.672
 4047SOL    HW124020   2.939   3.865  19.658
 4047SOL    HW224021   3.038   3.972  19.615
 4048SOL     OW24022   0.572   4.145   7.604
 4048SOL    HW124023   0.589   4.197   7.525
 4048SOL    HW224024   0.480   4.161   7.625
 4049SOL     OW24025   2.526   3.587  19.568
 4049SOL    HW124026   2.437   3.611  19.543
 4049SOL    HW224027   2.554   3.523  19.503
 4050SOL     OW24028   2.980   3.681  17.738
 4050SOL    HW124029   3.067   3.700  17.774
 4050SOL    HW224030   2.992   3.600  17.688
 4051SOL     OW24031   3.804   0.130   4.934
 4051SOL    HW124032   3.888   0.133   4.888
 4051SOL    HW224033   3.807   0.047   4.981
 4052SOL     OW24034   2.508   2.946  16.221
 4052SOL    HW124035   2.485   3.026  16.173
 4052SOL    HW224036   2.543   2.977  16.304
 4053SOL     OW24037   3.302   4.082  20.011
 4053SOL    HW124038   3.259   3.997  20.023
 4053SOL    HW224039   3.351   4.094  20.093
 4054SOL     OW24040   3.172   0.768   3.343
 4054SOL    HW124041   3.136   0.695   3.292
 4054SOL    HW224042   3.264   0.773   3.317
 4055SOL     OW24043   3.490   4.352   0.216
 4055SOL    HW124044   3.404   4.310   0.214
 4055SOL    HW224045   3.486   4.410   0.292
 4056SOL     OW24046   4.017   3.593   0.594
 4056SOL    HW124047   4.093   3.640   0.629
 4056SOL    HW224048   3.969   3.659   0.544
 4057SOL     OW24049   0.541   0.983   2.534
 4057SOL    HW124050   0.608   0.932   2.487
 4057SOL    HW224051   0.510   1.046   2.469
 4058SOL     OW24052   2.760   2.790  16.630
 4058SOL    HW124053   2.703   2.747  16.694
 4058SOL    HW224054   2.808   2.855  16.680
 4059SOL     OW24055   0.475   3.984  12.463
 4059SOL    HW124056   0.440   4.037  12.535
 4059SOL    HW224057   0.511   3.906  12.506
 4060SOL     OW24058   2.845   4.281  13.433
 4060SOL    HW124059   2.915   4.253  13.374
 4060SOL    HW224060   2.887   4.283  13.520
 4061SOL     OW24061   3.039   2.041   6.077
 4061SOL    HW124062   3.133   2.059   6.085
 4061SOL    HW224063   3.028   2.012   5.987
 4062SOL     OW24064   1.049   4.676   5.132
 4062SOL    HW124065   1.134   4.636   5.113
 4062SOL    HW224066   1.025   4.719   5.049
 4063SOL     OW24067   1.874   1.486   4.947
 4063SOL    HW124068   1.927   1.452   5.020
 4063SOL    HW224069   1.799   1.427   4.943
 4064SOL     OW24070   2.593   2.005  15.726
 4064SOL    HW124071   2.648   2.054  15.788
 4064SOL    HW224072   2.517   1.979  15.778
 4065SOL     OW24073   4.465   2.432  16.176
 4065SOL    HW124074   4.560   2.442  16.189
 4065SOL    HW224075   4.438   2.513  16.132
 4066SOL     OW24076   3.731   0.048   4.411
 4066SOL    HW124077   3.761   0.098   4.487
 4066SOL    HW224078   3.732   4.744   4.440
 4067SOL     OW24079   0.438   0.118  16.060
 4067SOL    HW124080   0.350   0.141  16.089
 4067SOL    HW224081   0.495   0.183  16.099
 4068SOL     OW24082   3.933   1.634   3.601
 4068SOL    HW124083   3.983   1.591   3.533
 4068SOL    HW224084   3.889   1.708   3.557
 4069SOL     OW24085   0.013   3.850  15.557
 4069SOL    HW124086   0.082   3.916  15.565
 4069SOL    HW224087   4.764   3.842  15.646
 4070SOL     OW24088   2.371   1.921  17.861
 4070SOL    HW124089   2.464   1.915  17.838
 4070SOL    HW224090   2.334   1.838  17.833
 4071SOL     OW24091   0.993   2.116   3.593
 4071SOL    HW124092   1.074   2.109   3.542
 4071SOL    HW224093   0.926   2.142   3.529
 4072SOL     OW24094   3.014   2.588  19.901
 4072SOL    HW124095   3.063   2.637  19.834
 4072SOL    HW224096   2.933   2.562  19.856
 4073SOL     OW24097   1.206   3.220   1.461
 4073SOL    HW124098   1.184   3.265   1.379
 4073SOL    HW224099   1.280   3.164   1.439
 4074SOL     OW24100   4.042   3.516   5.484
 4074SOL    HW124101   4.107   3.586   5.473
 4074SOL    HW224102   4.009   3.501   5.395
 4075SOL     OW24103   4.568   3.544  17.420
 4075SOL    HW124104   4.572   3.600  17.497
 4075SOL    HW224105   4.476   3.518  17.413
 4076SOL     OW24106   1.314   4.345   7.213
 4076SOL    HW124107   1.306   4.278   7.280
 4076SOL    HW224108   1.226   4.356   7.179
 4077SOL     OW24109   1.876   4.173   7.085
 4077SOL    HW124110   1.869   4.253   7.033
 4077SOL    HW224111   1.922   4.111   7.027
 4078SOL     OW24112   3.138   1.429   3.888
 4078SOL    HW124113   3.065   1.367   3.884
 4078SOL    HW224114   3.172   1.422   3.977
 4079SOL     OW24115   3.909   1.213  17.340
 4079SOL    HW124116   4.005   1.214  17.338
 4079SOL    HW224117   3.884   1.303  17.319
 4080SOL     OW24118   0.399   3.783  20.013
 4080SOL    HW124119   0.390   3.771  19.918
 4080SOL    HW224120   0.445   3.704  20.042
 4081SOL     OW24121   4.463   2.528   2.356
 4081SOL    HW124122   4.428   2.452   2.311
 4081SOL    HW224123   4.497   2.494   2.438
 4082SOL     OW24124   0.290   0.571   0.747
 4082SOL    HW124125   0.288   0.540   0.838
 4082SOL    HW224126   0.356   0.640   0.747
 4083SOL     OW24127   3.328   3.000   5.518
 4083SOL    HW124128   3.369   3.011   5.604
 4083SOL    HW224129   3.385   3.046   5.457
 4084SOL     OW24130   3.613   0.512   3.410
 4084SOL    HW124131   3.538   0.520   3.469
 4084SOL    HW224132   3.645   0.602   3.399
 4085SOL     OW24133   2.934   1.236   3.893
 4085SOL    HW124134   2.841   1.251   3.879
 4085SOL    HW224135   2.958   1.167   3.831
 4086SOL     OW24136   1.212   3.179   3.900
 4086SOL    HW124137   1.179   3.140   3.981
 4086SOL    HW224138   1.155   3.254   3.883
 4087SOL     OW24139   0.314   0.478  17.997
 4087SOL    HW124140   0.347   0.417  18.064
 4087SOL    HW224141   0.294   0.558  18.044
 4088SOL     OW24142   3.607   1.983   7.627
 4088SOL    HW124143   3.676   2.042   7.597
 4088SOL    HW224144   3.551   1.971   7.551
 4089SOL     OW24145   1.389   1.046  17.650
 4089SOL    HW124146   1.392   0.971  17.591
 4089SOL    HW224147   1.426   1.014  17.732
 4090SOL     OW24148   4.112   3.466   5.194
 4090SOL    HW124149   4.172   3.392   5.198
 4090SOL    HW224150   4.165   3.541   5.219
 4091SOL     OW24151   4.584   1.808  20.199
 4091SOL    HW124152   4.554   1.894  20.169
 4091SOL    HW224153   4.640   1.828  20.275
 4092SOL     OW24154   1.780   2.945   4.046
 4092SOL    HW124155   1.711   2.986   4.098
 4092SOL    HW224156   1.740   2.867   4.008
 4093SOL     OW24157   2.567   2.381  18.689
 4093SOL    HW124158   2.549   2.449  18.624
 4093SOL    HW224159   2.558   2.299  18.641
 4094SOL     OW24160   3.263   4.110  13.035
 4094SOL    HW124161   3.207   4.032  13.033
 4094SOL    HW224162   3.209   4.177  13.077
 4095SOL     OW24163   2.089   0.792   2.870
 4095SOL    HW124164   2.156   0.726   2.886
 4095SOL    HW224165   2.071   0.829   2.956
 4096SOL     OW24166   1.345   3.012   4.649
 4096SOL    HW124167   1.426   3.053   4.680
 4096SOL    HW224168   1.374   2.940   4.593
 4097SOL     OW24169   3.958   0.100  20.467
 4097SOL    HW124170   3.912   0.085  20.550
 4097SOL    HW224171   3.990   0.190  20.472
 4098SOL     OW24172   1.422   2.671  21.169
 4098SOL    HW124173   1.487   2.658  21.100
 4098SOL    HW224174   1.356   2.605  21.152
 4099SOL     OW24175   0.837   3.740  11.532
 4099SOL    HW124176   0.873   3.827  11.518
 4099SOL    HW224177   0.773   3.729  11.462
 4100SOL     OW24178   0.138   4.359  21.173
 4100SOL    HW124179   0.132   4.267  21.200
 4100SOL    HW224180   0.230   4.373  21.154
 4101SOL     OW24181   3.109   2.110  20.738
 4101SOL    HW124182   3.175   2.041  20.743
 4101SOL    HW224183   3.158   2.190  20.719
 4102SOL     OW24184   4.035   2.067   5.624
 4102SOL    HW124185   4.119   2.111   5.639
 4102SOL    HW224186   4.041   2.033   5.535
 4103SOL     OW24187   3.563   2.406  20.850
 4103SOL    HW124188   3.581   2.488  20.804
 4103SOL    HW224189   3.631   2.346  20.819
 4104SOL     OW24190   3.485   4.375  16.758
 4104SOL    HW124191   3.395   4.402  16.777
 4104SOL    HW224192   3.500   4.405  16.669
 4105SOL     OW24193   0.465   1.829   1.819
 4105SOL    HW124194   0.486   1.812   1.728
 4105SOL    HW224195   0.385   1.779   1.835
 4106SOL     OW24196   2.928   4.639  18.318
 4106SOL    HW124197   3.012   4.683  18.332
 4106SOL    HW224198   2.948   4.566  18.260
 4107SOL     OW24199   0.373   4.018  17.706
 4107SOL    HW124200   0.293   4.051  17.748
 4107SOL    HW224201   0.434   4.005  17.778
 4108SOL     OW24202   1.977   2.123   6.393
 4108SOL    HW124203   2.009   2.149   6.479
 4108SOL    HW224204   1.936   2.037   6.408
 4109SOL     OW24205   3.731   4.623   6.739
 4109SOL    HW124206   3.763   4.649   6.652
 4109SOL    HW224207   3.652   4.573   6.722
 4110SOL     OW24208   2.144   2.736  18.804
 4110SOL    HW124209   2.141   2.681  18.726
 4110SOL    HW224210   2.115   2.822  18.774
 4111SOL     OW24211   3.590   2.285   2.748
 4111SOL    HW124212   3.605   2.326   2.833
 4111SOL    HW224213   3.665   2.226   2.736
 4112SOL     OW24214   2.540   4.314  12.270
 4112SOL    HW124215   2.552   4.394  12.321
 4112SOL    HW224216   2.475   4.263  12.319
 4113SOL     OW24217   4.360   0.468  20.703
 4113SOL    HW124218   4.366   0.413  20.625
 4113SOL    HW224219   4.301   0.539  20.678
 4114SOL     OW24220   4.060   4.583  14.817
 4114SOL    HW124221   4.092   4.669  14.843
 4114SOL    HW224222   4.095   4.570  14.729
 4115SOL     OW24223   3.889   1.534   4.944
 4115SOL    HW124224   3.882   1.509   5.037
 4115SOL    HW224225   3.800   1.526   4.911
 4116SOL     OW24226   3.470   4.488  14.235
 4116SOL    HW124227   3.559   4.476  14.268
 4116SOL    HW224228   3.481   4.508  14.142
 4117SOL     OW24229   3.969   3.050  14.033
 4117SOL    HW124230   3.961   3.005  13.948
 4117SOL    HW224231   4.052   3.017  14.069
 4118SOL     OW24232   2.396   1.103   2.993
 4118SOL    HW124233   2.387   1.030   3.055
 4118SOL    HW224234   2.490   1.114   2.983
 4119SOL     OW24235   3.638   2.880  15.520
 4119SOL    HW124236   3.546   2.886  15.545
 4119SOL    HW224237   3.637   2.869  15.425
 4120SOL     OW24238   0.106   4.600   3.961
 4120SOL    HW124239   0.116   4.581   3.867
 4120SOL    HW224240   0.110   4.515   4.004
 4121SOL     OW24241   2.352   0.645   2.820
 4121SOL    HW124242   2.296   0.649   2.742
 4121SOL    HW224243   2.433   0.687   2.793
 4122SOL     OW24244   0.043   1.968  19.750
 4122SOL    HW124245   4.775   1.896  19.780
 4122SOL    HW224246   4.768   2.038  19.729
 4123SOL     OW24247   1.415   2.221   5.766
 4123SOL    HW124248   1.349   2.228   5.835
 4123SOL    HW224249   1.495   2.253   5.806
 4124SOL     OW24250   4.576   0.100   2.990
 4124SOL    HW124251   4.656   0.148   3.013
 4124SOL    HW224252   4.553   0.132   2.903
 4125SOL     OW24253   0.310   1.885  19.511
 4125SOL    HW124254   0.375   1.819  19.490
 4125SOL    HW224255   0.262   1.849  19.586
 4126SOL     OW24256   4.451   2.394   2.957
 4126SOL    HW124257   4.525   2.393   2.898
 4126SOL    HW224258   4.486   2.362   3.040
 4127SOL     OW24259   2.770   2.055   7.953
 4127SOL    HW124260   2.825   2.046   8.031
 4127SOL    HW224261   2.776   2.147   7.929
 4128SOL     OW24262   0.123   0.840  17.421
 4128SOL    HW124263   0.148   0.868  17.333
 4128SOL    HW224264   0.033   0.871  17.432
 4129SOL     OW24265   1.862   4.348   1.126
 4129SOL    HW124266   1.951   4.340   1.160
 4129SOL    HW224267   1.820   4.414   1.181
 4130SOL     OW24268   0.137   2.762   6.019
 4130SOL    HW124269   0.102   2.674   6.027
 4130SOL    HW224270   0.122   2.803   6.104
 4131SOL     OW24271   3.886   4.009   1.087
 4131SOL    HW124272   3.801   3.993   1.130
 4131SOL    HW224273   3.947   3.951   1.133
 4132SOL     OW24274   4.445   0.740  13.971
 4132SOL    HW124275   4.432   0.827  14.009
 4132SOL    HW224276   4.520   0.703  14.019
 4133SOL     OW24277   0.532   3.073   6.267
 4133SOL    HW124278   0.584   2.993   6.256
 4133SOL    HW224279   0.442   3.044   6.248
 4134SOL     OW24280   4.610   1.125  17.869
 4134SOL    HW124281   4.688   1.126  17.814
 4134SOL    HW224282   4.544   1.082  17.815
 4135SOL     OW24283   4.124   4.610  14.513
 4135SOL    HW124284   4.030   4.625  14.524
 4135SOL    HW224285   4.138   4.612  14.418
 4136SOL     OW24286   0.380   3.832   3.474
 4136SOL    HW124287   0.429   3.750   3.466
 4136SOL    HW224288   0.350   3.833   3.565
 4137SOL     OW24289   4.415   4.507   3.499
 4137SOL    HW124290   4.453   4.420   3.514
 4137SOL    HW224291   4.415   4.516   3.404
 4138SOL     OW24292   1.070   1.738   0.106
 4138SOL    HW124293   1.126   1.764   0.033
 4138SOL    HW224294   1.061   1.643   0.097
 4139SOL     OW24295   1.390   3.184   1.098
 4139SOL    HW124296   1.342   3.266   1.089
 4139SOL    HW224297   1.330   3.117   1.065
 4140SOL     OW24298   0.042   3.060  18.087
 4140SOL    HW124299   0.090   3.137  18.058
 4140SOL    HW224300   0.071   2.990  18.029
 4141SOL     OW24301   0.031   2.053   2.249
 4141SOL    HW124302   0.092   2.018   2.184
 4141SOL    HW224303   0.079   2.046   2.332
 4142SOL     OW24304   3.483   2.736  21.020
 4142SOL    HW124305   3.466   2.731  21.114
 4142SOL    HW224306   3.398   2.754  20.981
 4143SOL     OW24307   1.654   3.173   3.578
 4143SOL    HW124308   1.598   3.246   3.602
 4143SOL    HW224309   1.612   3.097   3.618
 4144SOL     OW24310   3.453   1.216   6.694
 4144SOL    HW124311   3.485   1.229   6.783
 4144SOL    HW224312   3.531   1.201   6.641
 4145SOL     OW24313   1.617   1.221  17.690
 4145SOL    HW124314   1.666   1.139  17.689
 4145SOL    HW224315   1.531   1.197  17.656
 4146SOL     OW24316   3.069   3.061   5.038
 4146SOL    HW124317   3.074   2.971   5.004
 4146SOL    HW224318   3.046   3.050   5.130
 4147SOL     OW24319   4.728   2.024  14.782
 4147SOL    HW124320   4.725   2.090  14.851
 4147SOL    HW224321   4.693   2.069  14.705
 4148SOL     OW24322   0.930   2.567   3.905
 4148SOL    HW124323   0.936   2.475   3.878
 4148SOL    HW224324   0.899   2.612   3.827
 4149SOL     OW24325   3.472   3.326  15.486
 4149SOL    HW124326   3.556   3.328  15.441
 4149SOL    HW224327   3.494   3.322  15.579
 4150SOL     OW24328   3.469   2.718  16.005
 4150SOL    HW124329   3.497   2.807  16.027
 4150SOL    HW224330   3.487   2.709  15.912
 4151SOL     OW24331   4.703   1.852  15.757
 4151SOL    HW124332   4.628   1.859  15.816
 4151SOL    HW224333   4.778   1.838  15.815
 4152SOL     OW24334   2.896   3.133   4.818
 4152SOL    HW124335   2.918   3.140   4.910
 4152SOL    HW224336   2.840   3.056   4.812
 4153SOL     OW24337   1.520   2.781   2.981
 4153SOL    HW124338   1.609   2.801   2.952
 4153SOL    HW224339   1.506   2.691   2.952
 4154SOL     OW24340   0.174   4.709  14.829
 4154SOL    HW124341   0.147   4.674  14.744
 4154SOL    HW224342   0.260   4.670  14.844
 4155SOL     OW24343   2.261   0.851  15.260
 4155SOL    HW124344   2.309   0.772  15.283
 4155SOL    HW224345   2.291   0.874  15.172
 4156SOL     OW24346   1.015   4.471   3.421
 4156SOL    HW124347   0.977   4.514   3.345
 4156SOL    HW224348   1.102   4.444   3.393
 4157SOL     OW24349   2.880   1.497   2.772
 4157SOL    HW124350   2.958   1.532   2.814
 4157SOL    HW224351   2.807   1.538   2.818
 4158SOL     OW24352   1.628   2.797  17.422
 4158SOL    HW124353   1.622   2.868  17.359
 4158SOL    HW224354   1.553   2.809  17.479
 4159SOL     OW24355   0.665   3.547  17.656
 4159SOL    HW124356   0.691   3.638  17.662
 4159SOL    HW224357   0.586   3.548  17.601
 4160SOL     OW24358   2.281   2.198  16.761
 4160SOL    HW124359   2.250   2.180  16.849
 4160SOL    HW224360   2.372   2.171  16.761
 4161SOL     OW24361   3.908   3.461   5.706
 4161SOL    HW124362   3.950   3.466   5.621
 4161SOL    HW224363   3.963   3.401   5.757
 4162SOL     OW24364   2.234   4.569   2.242
 4162SOL    HW124365   2.260   4.540   2.155
 4162SOL    HW224366   2.182   4.648   2.227
 4163SOL     OW24367   3.889   0.866  17.461
 4163SOL    HW124368   3.902   0.803  17.531
 4163SOL    HW224369   3.932   0.946  17.492
 4164SOL     OW24370   1.068   3.908   5.781
 4164SOL    HW124371   1.002   3.917   5.712
 4164SOL    HW224372   1.115   3.991   5.780
 4165SOL     OW24373   2.601   4.690  17.756
 4165SOL    HW124374   2.605   4.596  17.773
 4165SOL    HW224375   2.587   4.729  17.842
 4166SOL     OW24376   4.098   3.006  18.032
 4166SOL    HW124377   4.104   2.977  18.122
 4166SOL    HW224378   4.010   2.981  18.004
 4167SOL     OW24379   2.696   1.751  15.101
 4167SOL    HW124380   2.641   1.792  15.034
 4167SOL    HW224381   2.655   1.666  15.117
 4168SOL     OW24382   2.688   0.615   0.870
 4168SOL    HW124383   2.683   0.703   0.834
 4168SOL    HW224384   2.744   0.623   0.947
 4169SOL     OW24385   0.575   0.672  20.894
 4169SOL    HW124386   0.555   0.673  20.801
 4169SOL    HW224387   0.518   0.739  20.932
 4170SOL     OW24388   0.945   3.395   3.019
 4170SOL    HW124389   1.013   3.398   3.086
 4170SOL    HW224390   0.959   3.311   2.975
 4171SOL     OW24391   1.278   3.032  19.514
 4171SOL    HW124392   1.194   3.037  19.469
 4171SOL    HW224393   1.327   3.108  19.481
 4172SOL     OW24394   0.717   2.073  17.261
 4172SOL    HW124395   0.668   1.999  17.227
 4172SOL    HW224396   0.795   2.077  17.205
 4173SOL     OW24397   0.487   3.223   0.870
 4173SOL    HW124398   0.415   3.285   0.882
 4173SOL    HW224399   0.553   3.250   0.933
 4174SOL     OW24400   1.514   1.345  14.981
 4174SOL    HW124401   1.433   1.325  14.933
 4174SOL    HW224402   1.510   1.439  14.995
 4175SOL     OW24403   0.430   4.488  19.732
 4175SOL    HW124404   0.476   4.514  19.812
 4175SOL    HW224405   0.493   4.505  19.662
 4176SOL     OW24406   0.713   2.342  17.338
 4176SOL    HW124407   0.705   2.250  17.315
 4176SOL    HW224408   0.785   2.375  17.284
 4177SOL     OW24409   1.664   1.883  17.181
 4177SOL    HW124410   1.634   1.924  17.099
 4177SOL    HW224411   1.749   1.922  17.198
 4178SOL     OW24412   2.176   1.620   0.133
 4178SOL    HW124413   2.240   1.560   0.171
 4178SOL    HW224414   2.116   1.564   0.084
 4179SOL     OW24415   2.198   2.136   1.271
 4179SOL    HW124416   2.275   2.164   1.321
 4179SOL    HW224417   2.143   2.091   1.335
 4180SOL     OW24418   2.412   1.366  15.955
 4180SOL    HW124419   2.348   1.295  15.961
 4180SOL    HW224420   2.491   1.324  15.919
 4181SOL     OW24421   4.691   0.192  15.325
 4181SOL    HW124422   4.771   0.147  15.350
 4181SOL    HW224423   4.682   0.176  15.231
 4182SOL     OW24424   0.121   1.065   5.459
 4182SOL    HW124425   0.039   1.046   5.414
 4182SOL    HW224426   0.152   0.980   5.490
 4183SOL     OW24427   1.797   0.866  21.096
 4183SOL    HW124428   1.796   0.953  21.056
 4183SOL    HW224429   1.746   0.877  21.176
 4184SOL     OW24430   0.659   4.308   2.854
 4184SOL    HW124431   0.642   4.236   2.915
 4184SOL    HW224432   0.618   4.384   2.894
 4185SOL     OW24433   4.733   4.308  15.397
 4185SOL    HW124434   0.038   4.283  15.412
 4185SOL    HW224435   4.705   4.252  15.325
 4186SOL     OW24436   2.716   1.009  16.405
 4186SOL    HW124437   2.808   1.031  16.416
 4186SOL    HW224438   2.683   0.997  16.494
 4187SOL     OW24439   4.375   2.403   6.459
 4187SOL    HW124440   4.331   2.489   6.456
 4187SOL    HW224441   4.317   2.345   6.410
 4188SOL     OW24442   0.102   0.280   2.969
 4188SOL    HW124443   0.123   0.187   2.962
 4188SOL    HW224444   0.133   0.318   2.887
 4189SOL     OW24445   1.847   3.256  18.771
 4189SOL    HW124446   1.939   3.253  18.794
 4189SOL    HW224447   1.801   3.231  18.851
 4190SOL     OW24448   1.050   0.777   0.547
 4190SOL    HW124449   1.138   0.790   0.510
 4190SOL    HW224450   0.997   0.749   0.472
 4191SOL     OW24451   4.641   1.682  19.331
 4191SOL    HW124452   4.695   1.704  19.406
 4191SOL    HW224453   4.697   1.697  19.255
 4192SOL     OW24454   0.244   4.744  20.115
 4192SOL    HW124455   0.152   4.718  20.124
 4192SOL    HW224456   0.291   4.683  20.172
 4193SOL     OW24457   1.317   2.075  18.246
 4193SOL    HW124458   1.271   2.119  18.317
 4193SOL    HW224459   1.248   2.041  18.189
 4194SOL     OW24460   4.274   2.204   5.641
 4194SOL    HW124461   4.313   2.256   5.571
 4194SOL    HW224462   4.349   2.180   5.697
 4195SOL     OW24463   4.101   2.074   4.967
 4195SOL    HW124464   4.127   2.065   5.059
 4195SOL    HW224465   4.056   2.158   4.963
 4196SOL     OW24466   4.661   3.385  16.939
 4196SOL    HW124467   4.740   3.435  16.921
 4196SOL    HW224468   4.674   3.301  16.896
 4197SOL     OW24469   2.452   0.362  19.996
 4197SOL    HW124470   2.545   0.373  20.016
 4197SOL    HW224471   2.439   0.410  19.914
 4198SOL     OW24472   0.861   2.516  17.126
 4198SOL    HW124473   0.934   2.460  17.150
 4198SOL    HW224474   0.853   2.506  17.031
 4199SOL     OW24475   2.338   4.506   3.597
 4199SOL    HW124476   2.316   4.599   3.603
 4199SOL    HW224477   2.253   4.461   3.596
 4200SOL     OW24478   1.520   4.109  14.959
 4200SOL    HW124479   1.505   4.072  14.872
 4200SOL    HW224480   1.559   4.038  15.010
 4201SOL     OW24481   3.323   1.109  18.562
 4201SOL    HW124482   3.286   1.058  18.490
 4201SOL    HW224483   3.418   1.106  18.548
 4202SOL     OW24484   0.225   3.686   7.872
 4202SOL    HW124485   0.233   3.637   7.954
 4202SOL    HW224486   0.245   3.621   7.804
 4203SOL     OW24487   2.722   1.190  14.059
 4203SOL    HW124488   2.817   1.201  14.066
 4203SOL    HW224489   2.695   1.161  14.146
 4204SOL     OW24490   0.751   0.977  16.308
 4204SOL    HW124491   0.778   1.069  16.318
 4204SOL    HW224492   0.816   0.940  16.249
 4205SOL     OW24493   1.469   2.088   4.761
 4205SOL    HW124494   1.378   2.059   4.768
 4205SOL    HW224495   1.500   2.051   4.679
 4206SOL     OW24496   2.991   1.717   1.231
 4206SOL    HW124497   3.035   1.763   1.304
 4206SOL    HW224498   3.050   1.645   1.210
 4207SOL     OW24499   4.587   1.862   1.632
 4207SOL    HW124500   4.613   1.922   1.562
 4207SOL    HW224501   4.512   1.814   1.596
 4208SOL     OW24502   3.232   4.228   2.794
 4208SOL    HW124503   3.201   4.254   2.881
 4208SOL    HW224504   3.303   4.166   2.812
 4209SOL     OW24505   0.783   3.029   1.305
 4209SOL    HW124506   0.745   3.117   1.302
 4209SOL    HW224507   0.723   2.980   1.361
 4210SOL     OW24508   4.059   0.412   2.516
 4210SOL    HW124509   3.982   0.453   2.475
 4210SOL    HW224510   4.057   0.441   2.607
 4211SOL     OW24511   0.255   1.478   3.306
 4211SOL    HW124512   0.234   1.419   3.234
 4211SOL    HW224513   0.174   1.525   3.324
 4212SOL     OW24514   1.868   0.600   5.999
 4212SOL    HW124515   1.779   0.625   6.024
 4212SOL    HW224516   1.859   0.563   5.911
 4213SOL     OW24517   1.922   3.424   4.382
 4213SOL    HW124518   1.991   3.414   4.317
 4213SOL    HW224519   1.841   3.416   4.332
 4214SOL     OW24520   3.355   3.120   1.737
 4214SOL    HW124521   3.334   3.211   1.759
 4214SOL    HW224522   3.355   3.074   1.821
 4215SOL     OW24523   4.242   1.640  17.073
 4215SOL    HW124524   4.305   1.683  17.014
 4215SOL    HW224525   4.195   1.712  17.115
 4216SOL     OW24526   0.325   3.404  16.440
 4216SOL    HW124527   0.247   3.446  16.476
 4216SOL    HW224528   0.327   3.433  16.349
 4217SOL     OW24529   2.465   3.917   4.404
 4217SOL    HW124530   2.464   4.001   4.450
 4217SOL    HW224531   2.392   3.868   4.442
 4218SOL     OW24532   4.285   1.787  17.470
 4218SOL    HW124533   4.288   1.695  17.442
 4218SOL    HW224534   4.374   1.806  17.501
 4219SOL     OW24535   0.290   0.582   1.609
 4219SOL    HW124536   0.246   0.550   1.530
 4219SOL    HW224537   0.222   0.582   1.677
 4220SOL     OW24538   1.643   3.123   3.230
 4220SOL    HW124539   1.608   3.205   3.263
 4220SOL    HW224540   1.734   3.122   3.261
 4221SOL     OW24541   3.716   1.726   2.790
 4221SOL    HW124542   3.723   1.814   2.827
 4221SOL    HW224543   3.663   1.737   2.711
 4222SOL     OW24544   3.568   0.920  19.903
 4222SOL    HW124545   3.544   0.981  19.833
 4222SOL    HW224546   3.498   0.854  19.903
 4223SOL     OW24547   4.635   0.185  12.856
 4223SOL    HW124548   4.609   0.198  12.765
 4223SOL    HW224549   4.731   0.190  12.854
 4224SOL     OW24550   1.749   1.402   3.975
 4224SOL    HW124551   1.800   1.336   4.022
 4224SOL    HW224552   1.804   1.481   3.978
 4225SOL     OW24553   4.482   3.911  15.117
 4225SOL    HW124554   4.482   4.006  15.113
 4225SOL    HW224555   4.555   3.889  15.175
 4226SOL     OW24556   3.199   2.183   4.997
 4226SOL    HW124557   3.198   2.205   4.904
 4226SOL    HW224558   3.284   2.215   5.028
 4227SOL     OW24559   1.069   3.205   5.951
 4227SOL    HW124560   1.087   3.288   5.994
 4227SOL    HW224561   1.015   3.228   5.875
 4228SOL     OW24562   1.124   3.624  16.940
 4228SOL    HW124563   1.083   3.554  16.888
 4228SOL    HW224564   1.138   3.694  16.876
 4229SOL     OW24565   3.756   1.746   4.278
 4229SOL    HW124566   3.799   1.708   4.202
 4229SOL    HW224567   3.673   1.781   4.244
 4230SOL     OW24568   3.639   2.551   0.161
 4230SOL    HW124569   3.627   2.497   0.083
 4230SOL    HW224570   3.719   2.518   0.201
 4231SOL     OW24571   4.148   0.870   1.385
 4231SOL    HW124572   4.109   0.842   1.467
 4231SOL    HW224573   4.092   0.831   1.317
 4232SOL     OW24574   1.066   3.102  20.277
 4232SOL    HW124575   1.032   3.192  20.274
 4232SOL    HW224576   1.120   3.096  20.197
 4233SOL     OW24577   0.117   2.920   0.609
 4233SOL    HW124578   0.140   2.853   0.673
 4233SOL    HW224579   0.105   3.000   0.661
 4234SOL     OW24580   1.715   4.651   3.820
 4234SOL    HW124581   1.809   4.664   3.808
 4234SOL    HW224582   1.681   4.738   3.840
 4235SOL     OW24583   1.281   4.453   0.871
 4235SOL    HW124584   1.315   4.375   0.915
 4235SOL    HW224585   1.359   4.498   0.839
 4236SOL     OW24586   1.338   1.763  16.551
 4236SOL    HW124587   1.262   1.820  16.546
 4236SOL    HW224588   1.404   1.806  16.496
 4237SOL     OW24589   0.085   4.243   1.946
 4237SOL    HW124590   0.038   4.260   1.865
 4237SOL    HW224591   0.094   4.329   1.988
 4238SOL     OW24592   2.541   2.542  18.472
 4238SOL    HW124593   2.614   2.582  18.424
 4238SOL    HW224594   2.462   2.576  18.428
 4239SOL     OW24595   4.156   1.013  17.041
 4239SOL    HW124596   4.070   0.970  17.049
 4239SOL    HW224597   4.219   0.947  17.069
 4240SOL     OW24598   0.814   2.587  21.019
 4240SOL    HW124599   0.843   2.498  20.998
 4240SOL    HW224600   0.743   2.575  21.082
 4241SOL     OW24601   1.035   4.651  17.516
 4241SOL    HW124602   0.943   4.638  17.494
 4241SOL    HW224603   1.034   4.680  17.607
 4242SOL     OW24604   0.247   2.190   4.321
 4242SOL    HW124605   0.328   2.238   4.336
 4242SOL    HW224606   0.266   2.100   4.350
 4243SOL     OW24607   0.794   2.253   3.122
 4243SOL    HW124608   0.809   2.239   3.028
 4243SOL    HW224609   0.743   2.176   3.148
 4244SOL     OW24610   2.308   0.924  17.197
 4244SOL    HW124611   2.303   0.961  17.109
 4244SOL    HW224612   2.220   0.937  17.233
 4245SOL     OW24613   1.576   2.410  16.715
 4245SOL    HW124614   1.618   2.490  16.686
 4245SOL    HW224615   1.643   2.342  16.703
 4246SOL     OW24616   1.957   3.479   6.085
 4246SOL    HW124617   1.919   3.509   6.002
 4246SOL    HW224618   2.050   3.502   6.077
 4247SOL     OW24619   2.523   0.174   2.936
 4247SOL    HW124620   2.613   0.202   2.921
 4247SOL    HW224621   2.490   0.233   3.004
 4248SOL     OW24622   1.721   0.904   5.286
 4248SOL    HW124623   1.701   0.990   5.322
 4248SOL    HW224624   1.790   0.870   5.343
 4249SOL     OW24625   1.956   0.315  14.415
 4249SOL    HW124626   1.925   0.275  14.334
 4249SOL    HW224627   1.877   0.328  14.468
 4250SOL     OW24628   1.465   4.589   2.047
 4250SOL    HW124629   1.493   4.612   2.135
 4250SOL    HW224630   1.378   4.550   2.059
 4251SOL     OW24631   3.691   2.792  20.083
 4251SOL    HW124632   3.698   2.773  19.989
 4251SOL    HW224633   3.705   2.707  20.126
 4252SOL     OW24634   2.197   3.925  18.378
 4252SOL    HW124635   2.174   4.002  18.430
 4252SOL    HW224636   2.245   3.960  18.303
 4253SOL     OW24637   3.363   3.306   3.806
 4253SOL    HW124638   3.386   3.376   3.867
 4253SOL    HW224639   3.345   3.230   3.862
 4254SOL     OW24640   1.692   2.928  15.073
 4254SOL    HW124641   1.745   3.007  15.079
 4254SOL    HW224642   1.717   2.875  15.148
 4255SOL     OW24643   4.218   0.673  20.317
 4255SOL    HW124644   4.289   0.638  20.263
 4255SOL    HW224645   4.187   0.750  20.268
 4256SOL     OW24646   4.512   3.074  15.033
 4256SOL    HW124647   4.466   3.088  15.116
 4256SOL    HW224648   4.589   3.021  15.057
 4257SOL     OW24649   2.333   2.661  15.108
 4257SOL    HW124650   2.263   2.632  15.166
 4257SOL    HW224651   2.374   2.734  15.155
 4258SOL     OW24652   3.787   3.630   3.856
 4258SOL    HW124653   3.865   3.684   3.846
 4258SOL    HW224654   3.735   3.675   3.922
 4259SOL     OW24655   1.852   2.040  18.800
 4259SOL    HW124656   1.895   1.967  18.844
 4259SOL    HW224657   1.873   2.029  18.707
 4260SOL     OW24658   0.850   2.284   4.688
 4260SOL    HW124659   0.873   2.297   4.780
 4260SOL    HW224660   0.933   2.263   4.644
 4261SOL     OW24661   3.095   3.646   1.539
 4261SOL    HW124662   3.097   3.742   1.538
 4261SOL    HW224663   3.002   3.624   1.532
 4262SOL     OW24664   2.238   1.372  18.121
 4262SOL    HW124665   2.177   1.360  18.194
 4262SOL    HW224666   2.192   1.338  18.045
 4263SOL     OW24667   1.977   4.043  18.823
 4263SOL    HW124668   2.012   3.956  18.844
 4263SOL    HW224669   2.016   4.101  18.888
 4264SOL     OW24670   0.505   3.372  17.851
 4264SOL    HW124671   0.442   3.444  17.843
 4264SOL    HW224672   0.581   3.403  17.802
 4265SOL     OW24673   4.647   0.778  13.719
 4265SOL    HW124674   4.576   0.812  13.665
 4265SOL    HW224675   4.626   0.807  13.808
 4266SOL     OW24676   0.836   1.076  18.240
 4266SOL    HW124677   0.857   1.147  18.300
 4266SOL    HW224678   0.760   1.107  18.190
 4267SOL     OW24679   3.772   3.474   4.252
 4267SOL    HW124680   3.779   3.502   4.343
 4267SOL    HW224681   3.859   3.489   4.215
 4268SOL     OW24682   3.986   2.477   2.044
 4268SOL    HW124683   4.038   2.546   2.003
 4268SOL    HW224684   3.904   2.477   1.995
 4269SOL     OW24685   3.691   4.078   4.032
 4269SOL    HW124686   3.732   4.131   4.101
 4269SOL    HW224687   3.759   4.070   3.965
 4270SOL     OW24688   2.403   2.745   6.226
 4270SOL    HW124689   2.397   2.686   6.301
 4270SOL    HW224690   2.446   2.823   6.260
 4271SOL     OW24691   3.175   3.366  18.301
 4271SOL    HW124692   3.116   3.435  18.332
 4271SOL    HW224693   3.239   3.355  18.372
 4272SOL     OW24694   1.995   0.974   2.683
 4272SOL    HW124695   2.038   0.919   2.748
 4272SOL    HW224696   1.961   1.048   2.734
 4273SOL     OW24697   2.796   2.595   5.567
 4273SOL    HW124698   2.856   2.521   5.579
 4273SOL    HW224699   2.778   2.625   5.655
 4274SOL     OW24700   1.956   4.175   2.685
 4274SOL    HW124701   2.044   4.200   2.655
 4274SOL    HW224702   1.933   4.100   2.630
 4275SOL     OW24703   0.432   2.248   4.764
 4275SOL    HW124704   0.415   2.284   4.852
 4275SOL    HW224705   0.435   2.325   4.708
 4276SOL     OW24706   0.991   0.788   1.829
 4276SOL    HW124707   0.971   0.834   1.747
 4276SOL    HW224708   0.995   0.857   1.895
 4277SOL     OW24709   0.410   3.627   3.882
 4277SOL    HW124710   0.378   3.536   3.883
 4277SOL    HW224711   0.505   3.618   3.880
 4278SOL     OW24712   1.044   2.977   1.614
 4278SOL    HW124713   1.069   2.966   1.706
 4278SOL    HW224714   1.000   3.062   1.611
 4279SOL     OW24715   1.625   2.754  15.535
 4279SOL    HW124716   1.558   2.794  15.591
 4279SOL    HW224717   1.648   2.822  15.473
 4280SOL     OW24718   0.463   4.756   4.292
 4280SOL    HW124719   0.434   0.059   4.307
 4280SOL    HW224720   0.415   4.704   4.356
 4281SOL     OW24721   0.707   3.785  14.263
 4281SOL    HW124722   0.623   3.794  14.308
 4281SOL    HW224723   0.748   3.709  14.304
 4282SOL     OW24724   4.639   1.232  15.479
 4282SOL    HW124725   4.564   1.234  15.538
 4282SOL    HW224726   4.609   1.277  15.400
 4283SOL     OW24727   4.245   2.245  20.841
 4283SOL    HW124728   4.177   2.296  20.886
 4283SOL    HW224729   4.207   2.227  20.755
 4284SOL     OW24730   2.222   0.203  18.137
 4284SOL    HW124731   2.177   0.208  18.052
 4284SOL    HW224732   2.308   0.167  18.116
 4285SOL     OW24733   0.440   0.903   2.774
 4285SOL    HW124734   0.428   0.808   2.778
 4285SOL    HW224735   0.481   0.919   2.688
 4286SOL     OW24736   0.056   2.216   0.344
 4286SOL    HW124737   0.103   2.297   0.326
 4286SOL    HW224738   0.114   2.168   0.404
 4287SOL     OW24739   2.049   0.112   1.514
 4287SOL    HW124740   1.969   0.162   1.498
 4287SOL    HW224741   2.050   0.097   1.609
 4288SOL     OW24742   0.465   2.263   2.234
 4288SOL    HW124743   0.554   2.276   2.199
 4288SOL    HW224744   0.479   2.222   2.320
 4289SOL     OW24745   0.476   4.584   1.878
 4289SOL    HW124746   0.511   4.637   1.949
 4289SOL    HW224747   0.382   4.601   1.880
 4290SOL     OW24748   4.432   2.160   2.611
 4290SOL    HW124749   4.515   2.118   2.634
 4290SOL    HW224750   4.379   2.153   2.690
 4291SOL     OW24751   4.672   1.212   4.784
 4291SOL    HW124752   4.626   1.289   4.818
 4291SOL    HW224753   4.641   1.140   4.839
 4292SOL     OW24754   4.402   4.645   2.254
 4292SOL    HW124755   4.450   4.634   2.337
 4292SOL    HW224756   4.316   4.678   2.281
 4293SOL     OW24757   2.578   3.825  15.821
 4293SOL    HW124758   2.638   3.859  15.887
 4293SOL    HW224759   2.634   3.804  15.746
 4294SOL     OW24760   0.231   3.008  15.220
 4294SOL    HW124761   0.176   3.086  15.223
 4294SOL    HW224762   0.210   2.961  15.300
 4295SOL     OW24763   3.398   4.635  20.906
 4295SOL    HW124764   3.468   4.584  20.947
 4295SOL    HW224765   3.369   4.695  20.975
 4296SOL     OW24766   1.701   2.651  16.607
 4296SOL    HW124767   1.773   2.634  16.667
 4296SOL    HW224768   1.662   2.732  16.638
 4297SOL     OW24769   4.546   0.450   1.476
 4297SOL    HW124770   4.457   0.435   1.447
 4297SOL    HW224771   4.561   0.544   1.462
 4298SOL     OW24772   1.054   1.080  19.419
 4298SOL    HW124773   1.069   1.054  19.510
 4298SOL    HW224774   1.079   1.172  19.416
 4299SOL     OW24775   1.233   2.773  19.513
 4299SOL    HW124776   1.246   2.868  19.517
 4299SOL    HW224777   1.181   2.753  19.592
 4300SOL     OW24778   2.859   3.870   4.352
 4300SOL    HW124779   2.858   3.873   4.257
 4300SOL    HW224780   2.918   3.941   4.378
 4301SOL     OW24781   4.494   4.538   1.670
 4301SOL    HW124782   4.440   4.602   1.718
 4301SOL    HW224783   4.456   4.536   1.583
 4302SOL     OW24784   2.468   1.158   0.342
 4302SOL    HW124785   2.450   1.246   0.308
 4302SOL    HW224786   2.484   1.105   0.265
 4303SOL     OW24787   4.279   2.099   0.064
 4303SOL    HW124788   4.243   2.178   0.105
 4303SOL    HW224789   4.325   2.130  21.231
 4304SOL     OW24790   4.702   3.432  17.207
 4304SOL    HW124791   4.671   3.418  17.118
 4304SOL    HW224792   4.628   3.471  17.253
 4305SOL     OW24793   2.703   3.735  20.013
 4305SOL    HW124794   2.701   3.698  20.102
 4305SOL    HW224795   2.720   3.660  19.956
 4306SOL     OW24796   3.011   4.089   4.521
 4306SOL    HW124797   3.102   4.109   4.545
 4306SOL    HW224798   3.004   4.116   4.429
 4307SOL     OW24799   2.034   1.430   3.783
 4307SOL    HW124800   2.015   1.442   3.877
 4307SOL    HW224801   2.062   1.339   3.776
 4308SOL     OW24802   1.479   4.446  13.241
 4308SOL    HW124803   1.495   4.514  13.176
 4308SOL    HW224804   1.387   4.422  13.228
 4309SOL     OW24805   0.223   1.422  19.077
 4309SOL    HW124806   0.252   1.484  19.010
 4309SOL    HW224807   0.216   1.338  19.031
 4310SOL     OW24808   3.197   3.880   5.258
 4310SOL    HW124809   3.212   3.963   5.304
 4310SOL    HW224810   3.102   3.877   5.246
 4311SOL     OW24811   3.424   3.888   0.911
 4311SOL    HW124812   3.416   3.798   0.944
 4311SOL    HW224813   3.444   3.940   0.989
 4312SOL     OW24814   2.129   2.192   5.616
 4312SOL    HW124815   2.177   2.188   5.699
 4312SOL    HW224816   2.038   2.178   5.640
 4313SOL     OW24817   3.486   1.139  16.287
 4313SOL    HW124818   3.576   1.167  16.268
 4313SOL    HW224819   3.441   1.143  16.203
 4314SOL     OW24820   0.255   0.198   1.525
 4314SOL    HW124821   0.244   0.282   1.481
 4314SOL    HW224822   0.280   0.138   1.454
 4315SOL     OW24823   1.869   3.111   0.481
 4315SOL    HW124824   1.845   3.020   0.494
 4315SOL    HW224825   1.872   3.121   0.385
 4316SOL     OW24826   2.094   1.911  17.709
 4316SOL    HW124827   2.136   1.905  17.795
 4316SOL    HW224828   2.011   1.955  17.727
 4317SOL     OW24829   1.733   0.972   0.097
 4317SOL    HW124830   1.788   0.918   0.154
 4317SOL    HW224831   1.725   1.055   0.145
 4318SOL     OW24832   3.249   3.883  11.689
 4318SOL    HW124833   3.313   3.923  11.631
 4318SOL    HW224834   3.223   3.953  11.750
 4319SOL     OW24835   3.906   0.535   7.586
 4319SOL    HW124836   3.998   0.515   7.568
 4319SOL    HW224837   3.862   0.521   7.502
 4320SOL     OW24838   3.212   4.767  16.566
 4320SOL    HW124839   3.296   4.730  16.593
 4320SOL    HW224840   3.147   4.706  16.599
 4321SOL     OW24841   3.631   1.224   3.184
 4321SOL    HW124842   3.599   1.287   3.120
 4321SOL    HW224843   3.705   1.267   3.226
 4322SOL     OW24844   1.029   2.694  15.724
 4322SOL    HW124845   1.063   2.686  15.813
 4322SOL    HW224846   0.961   2.627  15.718
 4323SOL     OW24847   4.743   4.358   3.758
 4323SOL    HW124848   0.028   4.339   3.817
 4323SOL    HW224849   4.777   4.426   3.699
 4324SOL     OW24850   3.837   0.171  16.959
 4324SOL    HW124851   3.846   0.214  17.044
 4324SOL    HW224852   3.793   0.088  16.979
 4325SOL     OW24853   3.489   3.626   1.449
 4325SOL    HW124854   3.521   3.663   1.367
 4325SOL    HW224855   3.427   3.558   1.422
 4326SOL     OW24856   2.316   0.901   3.179
 4326SOL    HW124857   2.308   0.818   3.228
 4326SOL    HW224858   2.231   0.910   3.135
 4327SOL     OW24859   0.854   2.859   1.094
 4327SOL    HW124860   0.768   2.861   1.052
 4327SOL    HW224861   0.848   2.922   1.166
 4328SOL     OW24862   1.755   2.640  17.189
 4328SOL    HW124863   1.660   2.652  17.199
 4328SOL    HW224864   1.784   2.716  17.140
 4329SOL     OW24865   0.075   3.074   0.145
 4329SOL    HW124866   0.023   3.073   0.065
 4329SOL    HW224867   0.164   3.056   0.115
 4330SOL     OW24868   0.444   2.373   4.431
 4330SOL    HW124869   0.538   2.365   4.415
 4330SOL    HW224870   0.438   2.427   4.509
 4331SOL     OW24871   3.165   0.757   3.696
 4331SOL    HW124872   3.157   0.721   3.608
 4331SOL    HW224873   3.231   0.825   3.688
 4332SOL     OW24874   3.740   0.525  17.834
 4332SOL    HW124875   3.784   0.607  17.814
 4332SOL    HW224876   3.810   0.461  17.846
 4333SOL     OW24877   2.931   2.726  17.534
 4333SOL    HW124878   2.840   2.754  17.536
 4333SOL    HW224879   2.934   2.654  17.471
 4334SOL     OW24880   4.475   3.701   5.882
 4334SOL    HW124881   4.505   3.741   5.964
 4334SOL    HW224882   4.426   3.623   5.910
 4335SOL     OW24883   2.796   0.037  19.343
 4335SOL    HW124884   2.839   0.006  19.263
 4335SOL    HW224885   2.748   4.747  19.375
 4336SOL     OW24886   2.723   1.131  18.754
 4336SOL    HW124887   2.688   1.043  18.760
 4336SOL    HW224888   2.789   1.136  18.823
 4337SOL     OW24889   3.458   2.288  17.428
 4337SOL    HW124890   3.510   2.269  17.506
 4337SOL    HW224891   3.403   2.363  17.454
 4338SOL     OW24892   1.924   1.845  16.927
 4338SOL    HW124893   1.926   1.755  16.961
 4338SOL    HW224894   1.960   1.837  16.838
 4339SOL     OW24895   1.262   3.361  20.058
 4339SOL    HW124896   1.186   3.406  20.022
 4339SOL    HW224897   1.322   3.432  20.083
 4340SOL     OW24898   2.459   4.354  14.176
 4340SOL    HW124899   2.485   4.267  14.208
 4340SOL    HW224900   2.519   4.372  14.104
 4341SOL     OW24901   0.382   1.082   4.153
 4341SOL    HW124902   0.467   1.111   4.121
 4341SOL    HW224903   0.387   0.986   4.151
 4342SOL     OW24904   3.659   1.285   0.907
 4342SOL    HW124905   3.671   1.224   0.835
 4342SOL    HW224906   3.747   1.313   0.931
 4343SOL     OW24907   2.557   1.031   0.583
 4343SOL    HW124908   2.483   0.981   0.618
 4343SOL    HW224909   2.521   1.076   0.507
 4344SOL     OW24910   2.553   0.226  16.695
 4344SOL    HW124911   2.600   0.310  16.694
 4344SOL    HW224912   2.477   0.241  16.638
 4345SOL     OW24913   4.009   3.068   7.284
 4345SOL    HW124914   4.057   3.067   7.367
 4345SOL    HW224915   3.927   3.115   7.304
 4346SOL     OW24916   0.539   3.712   6.500
 4346SOL    HW124917   0.587   3.634   6.525
 4346SOL    HW224918   0.484   3.732   6.576
 4347SOL     OW24919   0.129   3.976   4.628
 4347SOL    HW124920   0.059   3.912   4.643
 4347SOL    HW224921   0.095   4.034   4.560
 4348SOL     OW24922   2.610   2.025   7.701
 4348SOL    HW124923   2.681   2.062   7.649
 4348SOL    HW224924   2.648   2.010   7.787
 4349SOL     OW24925   4.038   1.941   3.711
 4349SOL    HW124926   4.060   1.852   3.737
 4349SOL    HW224927   4.079   1.952   3.625
 4350SOL     OW24928   2.154   3.388   5.509
 4350SOL    HW124929   2.074   3.401   5.560
 4350SOL    HW224930   2.146   3.449   5.436
 4351SOL     OW24931   0.815   3.755   2.070
 4351SOL    HW124932   0.906   3.786   2.071
 4351SOL    HW224933   0.822   3.660   2.062
 4352SOL     OW24934   3.128   2.660  20.728
 4352SOL    HW124935   3.088   2.616  20.803
 4352SOL    HW224936   3.213   2.689  20.760
 4353SOL     OW24937   2.945   2.657  16.471
 4353SOL    HW124938   2.884   2.594  16.433
 4353SOL    HW224939   2.889   2.720  16.516
 4354SOL     OW24940   3.320   1.373  15.603
 4354SOL    HW124941   3.316   1.468  15.616
 4354SOL    HW224942   3.384   1.362  15.532
 4355SOL     OW24943   2.006   4.417   5.566
 4355SOL    HW124944   1.963   4.458   5.641
 4355SOL    HW224945   2.044   4.490   5.517
 4356SOL     OW24946   3.884   4.758   1.287
 4356SOL    HW124947   3.972   4.749   1.251
 4356SOL    HW224948   3.861   0.063   1.272
 4357SOL     OW24949   4.095   3.423   7.185
 4357SOL    HW124950   4.162   3.464   7.240
 4357SOL    HW224951   4.033   3.385   7.248
 4358SOL     OW24952   1.119   2.219  19.194
 4358SOL    HW124953   1.159   2.304  19.212
 4358SOL    HW224954   1.066   2.233  19.115
 4359SOL     OW24955   3.902   0.823   0.252
 4359SOL    HW124956   3.956   0.785   0.182
 4359SOL    HW224957   3.817   0.779   0.243
 4360SOL     OW24958   2.449   4.611  18.864
 4360SOL    HW124959   2.537   4.581  18.840
 4360SOL    HW224960   2.463   4.687  18.920
 4361SOL     OW24961   0.218   4.723  16.513
 4361SOL    HW124962   0.277   4.692  16.444
 4361SOL    HW224963   0.165   4.647  16.536
 4362SOL     OW24964   4.053   0.350   3.552
 4362SOL    HW124965   4.126   0.397   3.512
 4362SOL    HW224966   3.983   0.414   3.560
 4363SOL     OW24967   1.581   0.766  17.023
 4363SOL    HW124968   1.524   0.804  16.956
 4363SOL    HW224969   1.535   0.779  17.105
 4364SOL     OW24970   3.475   0.875  16.281
 4364SOL    HW124971   3.484   0.841  16.370
 4364SOL    HW224972   3.492   0.969  16.289
 4365SOL     OW24973   2.863   3.059   1.649
 4365SOL    HW124974   2.866   3.144   1.605
 4365SOL    HW224975   2.884   3.079   1.740
 4366SOL     OW24976   2.384   4.477   5.629
 4366SOL    HW124977   2.437   4.479   5.549
 4366SOL    HW224978   2.354   4.386   5.635
 4367SOL     OW24979   3.869   3.739   7.383
 4367SOL    HW124980   3.950   3.759   7.428
 4367SOL    HW224981   3.879   3.778   7.296
 4368SOL     OW24982   2.184   2.538  15.308
 4368SOL    HW124983   2.113   2.518  15.369
 4368SOL    HW224984   2.262   2.500  15.349
 4369SOL     OW24985   2.800   0.689   4.131
 4369SOL    HW124986   2.731   0.623   4.134
 4369SOL    HW224987   2.870   0.654   4.186
 4370SOL     OW24988   0.573   2.890  18.498
 4370SOL    HW124989   0.506   2.953  18.527
 4370SOL    HW224990   0.582   2.829  18.571
 4371SOL     OW24991   2.004   3.091   3.041
 4371SOL    HW124992   1.968   3.058   3.123
 4371SOL    HW224993   2.068   3.025   3.015
 4372SOL     OW24994   2.803   1.945   6.395
 4372SOL    HW124995   2.787   1.988   6.311
 4372SOL    HW224996   2.720   1.954   6.443
 4373SOL     OW24997   1.395   4.504   2.630
 4373SOL    HW124998   1.477   4.521   2.585
 4373SOL    HW224999   1.329   4.503   2.560
 4374SOL     OW25000   4.282   3.705  15.511
 4374SOL    HW125001   4.257   3.693  15.603
 4374SOL    HW225002   4.376   3.685  15.509
 4375SOL     OW25003   2.085   3.456  19.790
 4375SOL    HW125004   2.096   3.362  19.777
 4375SOL    HW225005   2.030   3.463  19.867
 4376SOL     OW25006   3.595   4.101  20.130
 4376SOL    HW125007   3.545   4.037  20.181
 4376SOL    HW225008   3.670   4.052  20.098
 4377SOL     OW25009   4.681   4.623   3.311
 4377SOL    HW125010   4.699   4.532   3.287
 4377SOL    HW225011   4.604   4.647   3.260
 4378SOL     OW25012   2.829   1.294  20.800
 4378SOL    HW125013   2.908   1.240  20.803
 4378SOL    HW225014   2.803   1.294  20.708
 4379SOL     OW25015   3.394   2.991  16.311
 4379SOL    HW125016   3.372   2.993  16.218
 4379SOL    HW225017   3.410   2.899  16.331
 4380SOL     OW25018   3.952   2.307  20.974
 4380SOL    HW125019   4.016   2.271  21.036
 4380SOL    HW225020   3.924   2.389  21.014
 4381SOL     OW25021   1.708   0.245  17.975
 4381SOL    HW125022   1.729   0.213  18.063
 4381SOL    HW225023   1.632   0.301  17.988
 4382SOL     OW25024   3.366   3.151  19.073
 4382SOL    HW125025   3.363   3.055  19.072
 4382SOL    HW225026   3.460   3.171  19.075
 4383SOL     OW25027   2.526   4.220   6.076
 4383SOL    HW125028   2.495   4.268   6.153
 4383SOL    HW225029   2.513   4.281   6.004
 4384SOL     OW25030   3.628   2.820   6.811
 4384SOL    HW125031   3.679   2.885   6.859
 4384SOL    HW225032   3.592   2.868   6.736
 4385SOL     OW25033   2.965   1.518  19.802
 4385SOL    HW125034   2.979   1.432  19.762
 4385SOL    HW225035   2.999   1.508  19.891
 4386SOL     OW25036   1.308   3.978  14.394
 4386SOL    HW125037   1.389   4.007  14.351
 4386SOL    HW225038   1.305   3.884  14.378
 4387SOL     OW25039   2.230   4.365  17.606
 4387SOL    HW125040   2.309   4.378  17.553
 4387SOL    HW225041   2.189   4.451  17.610
 4388SOL     OW25042   4.308   3.263   5.635
 4388SOL    HW125043   4.221   3.277   5.671
 4388SOL    HW225044   4.311   3.319   5.557
 4389SOL     OW25045   0.749   3.054  20.771
 4389SOL    HW125046   0.782   3.126  20.826
 4389SOL    HW225047   0.817   3.040  20.706
 4390SOL     OW25048   2.294   0.344   1.959
 4390SOL    HW125049   2.205   0.334   1.993
 4390SOL    HW225050   2.342   0.387   2.029
 4391SOL     OW25051   1.926   2.611   3.442
 4391SOL    HW125052   1.893   2.698   3.466
 4391SOL    HW225053   1.855   2.572   3.391
 4392SOL     OW25054   3.616   2.965  21.154
 4392SOL    HW125055   3.661   2.917  21.224
 4392SOL    HW225056   3.582   2.896  21.097
 4393SOL     OW25057   4.336   1.552   6.818
 4393SOL    HW125058   4.430   1.535   6.814
 4393SOL    HW225059   4.298   1.494   6.752
 4394SOL     OW25060   0.655   0.023  17.652
 4394SOL    HW125061   0.677   0.104  17.606
 4394SOL    HW225062   0.700   4.741  17.603
 4395SOL     OW25063   1.644   2.324  20.757
 4395SOL    HW125064   1.562   2.354  20.718
 4395SOL    HW225065   1.636   2.229  20.759
 4396SOL     OW25066   1.065   2.592   3.531
 4396SOL    HW125067   1.110   2.522   3.483
 4396SOL    HW225068   1.122   2.668   3.522
 4397SOL     OW25069   1.581   1.684  14.033
 4397SOL    HW125070   1.552   1.659  13.945
 4397SOL    HW225071   1.523   1.635  14.092
 4398SOL     OW25072   4.010   0.207  16.751
 4398SOL    HW125073   3.961   0.182  16.830
 4398SOL    HW225074   3.988   0.140  16.687
 4399SOL     OW25075   2.045   4.003   5.575
 4399SOL    HW125076   2.056   3.941   5.503
 4399SOL    HW225077   2.030   3.948   5.652
 4400SOL     OW25078   2.899   4.163   3.494
 4400SOL    HW125079   2.980   4.171   3.544
 4400SOL    HW225080   2.840   4.113   3.550
 4401SOL     OW25081   3.661   1.178   5.756
 4401SOL    HW125082   3.604   1.172   5.679
 4401SOL    HW225083   3.709   1.095   5.757
 4402SOL     OW25084   0.526   1.452  15.332
 4402SOL    HW125085   0.605   1.419  15.376
 4402SOL    HW225086   0.468   1.376  15.328
 4403SOL     OW25087   0.226   4.558  13.788
 4403SOL    HW125088   0.221   4.470  13.748
 4403SOL    HW225089   0.261   4.613  13.718
 4404SOL     OW25090   0.640   0.323  18.035
 4404SOL    HW125091   0.713   0.308  18.095
 4404SOL    HW225092   0.562   0.321  18.090
 4405SOL     OW25093   2.273   4.778   5.036
 4405SOL    HW125094   2.307   0.068   5.081
 4405SOL    HW225095   2.345   4.748   4.982
 4406SOL     OW25096   2.811   3.624  14.514
 4406SOL    HW125097   2.805   3.711  14.554
 4406SOL    HW225098   2.877   3.578  14.567
 4407SOL     OW25099   2.006   1.346  20.915
 4407SOL    HW125100   1.933   1.407  20.932
 4407SOL    HW225101   2.084   1.400  20.925
 4408SOL     OW25102   0.410   0.210   2.468
 4408SOL    HW125103   0.474   0.215   2.539
 4408SOL    HW225104   0.432   0.282   2.410
 4409SOL     OW25105   2.528   0.623   3.919
 4409SOL    HW125106   2.534   0.585   4.007
 4409SOL    HW225107   2.613   0.605   3.879
 4410SOL     OW25108   1.976   3.301   1.005
 4410SOL    HW125109   1.908   3.247   1.045
 4410SOL    HW225110   1.980   3.273   0.914
 4411SOL     OW25111   4.424   1.011   0.617
 4411SOL    HW125112   4.416   0.923   0.655
 4411SOL    HW225113   4.383   1.003   0.530
 4412SOL     OW25114   2.366   4.409  17.922
 4412SOL    HW125115   2.392   4.487  17.973
 4412SOL    HW225116   2.273   4.422  17.906
 4413SOL     OW25117   1.176   2.925  16.079
 4413SOL    HW125118   1.141   3.001  16.032
 4413SOL    HW225119   1.133   2.928  16.165
 4414SOL     OW25120   3.380   3.738  20.802
 4414SOL    HW125121   3.293   3.757  20.767
 4414SOL    HW225122   3.364   3.679  20.876
 4415SOL     OW25123   3.312   2.568  13.664
 4415SOL    HW125124   3.376   2.497  13.655
 4415SOL    HW225125   3.228   2.524  13.665
 4416SOL     OW25126   4.517   3.553  16.545
 4416SOL    HW125127   4.571   3.604  16.606
 4416SOL    HW225128   4.571   3.477  16.523
 4417SOL     OW25129   3.293   3.827  15.125
 4417SOL    HW125130   3.267   3.813  15.034
 4417SOL    HW225131   3.231   3.775  15.177
 4418SOL     OW25132   2.197   2.322   3.205
 4418SOL    HW125133   2.242   2.256   3.257
 4418SOL    HW225134   2.207   2.403   3.255
 4419SOL     OW25135   0.910   2.286  16.570
 4419SOL    HW125136   0.828   2.270  16.524
 4419SOL    HW225137   0.906   2.230  16.648
 4420SOL     OW25138   2.541   3.894   3.564
 4420SOL    HW125139   2.631   3.920   3.586
 4420SOL    HW225140   2.505   3.863   3.647
 4421SOL     OW25141   3.492   1.044   2.220
 4421SOL    HW125142   3.482   1.109   2.289
 4421SOL    HW225143   3.412   0.992   2.224
 4422SOL     OW25144   0.511   0.119  16.442
 4422SOL    HW125145   0.451   0.065  16.390
 4422SOL    HW225146   0.530   0.066  16.520
 4423SOL     OW25147   2.022   3.889  21.039
 4423SOL    HW125148   1.986   3.967  21.081
 4423SOL    HW225149   2.070   3.922  20.963
 4424SOL     OW25150   3.018   3.593   4.158
 4424SOL    HW125151   2.958   3.639   4.100
 4424SOL    HW225152   2.993   3.501   4.151
 4425SOL     OW25153   0.954   3.464   5.408
 4425SOL    HW125154   1.027   3.525   5.416
 4425SOL    HW225155   0.985   3.398   5.346
 4426SOL     OW25156   3.402   4.070  17.232
 4426SOL    HW125157   3.307   4.062  17.230
 4426SOL    HW225158   3.420   4.124  17.310
 4427SOL     OW25159   0.468   1.580   5.988
 4427SOL    HW125160   0.449   1.523   5.914
 4427SOL    HW225161   0.561   1.603   5.978
 4428SOL     OW25162   2.939   3.906   0.117
 4428SOL    HW125163   2.920   3.971   0.049
 4428SOL    HW225164   3.033   3.916   0.133
 4429SOL     OW25165   1.041   2.936   6.314
 4429SOL    HW125166   1.082   2.849   6.315
 4429SOL    HW225167   1.114   2.997   6.302
 4430SOL     OW25168   0.714   2.542  20.691
 4430SOL    HW125169   0.703   2.473  20.626
 4430SOL    HW225170   0.793   2.519  20.739
 4431SOL     OW25171   3.771   4.395  18.852
 4431SOL    HW125172   3.819   4.476  18.831
 4431SOL    HW225173   3.682   4.424  18.870
 4432SOL     OW25174   1.599   3.540  17.617
 4432SOL    HW125175   1.548   3.563  17.695
 4432SOL    HW225176   1.559   3.591  17.546
 4433SOL     OW25177   2.850   1.534   5.657
 4433SOL    HW125178   2.934   1.536   5.703
 4433SOL    HW225179   2.785   1.522   5.725
 4434SOL     OW25180   3.951   0.041  18.478
 4434SOL    HW125181   3.944   0.059  18.384
 4434SOL    HW225182   4.043   0.020  18.492
 4435SOL     OW25183   2.253   4.031   4.013
 4435SOL    HW125184   2.327   3.975   4.033
 4435SOL    HW225185   2.222   4.002   3.927
 4436SOL     OW25186   3.657   1.685  13.847
 4436SOL    HW125187   3.610   1.684  13.764
 4436SOL    HW225188   3.697   1.772  13.852
 4437SOL     OW25189   3.404   3.005  18.228
 4437SOL    HW125190   3.447   3.081  18.266
 4437SOL    HW225191   3.383   2.949  18.303
 4438SOL     OW25192   4.702   4.389   1.725
 4438SOL    HW125193   4.674   4.480   1.715
 4438SOL    HW225194   4.684   4.349   1.640
 4439SOL     OW25195   0.229   0.344   7.196
 4439SOL    HW125196   0.136   0.340   7.173
 4439SOL    HW225197   0.249   0.255   7.227
 4440SOL     OW25198   2.577   0.497  15.859
 4440SOL    HW125199   2.570   0.543  15.943
 4440SOL    HW225200   2.571   0.566  15.793
 4441SOL     OW25201   3.000   1.733   4.761
 4441SOL    HW125202   3.020   1.682   4.839
 4441SOL    HW225203   3.033   1.821   4.781
 4442SOL     OW25204   3.652   3.101   3.932
 4442SOL    HW125205   3.659   3.161   4.006
 4442SOL    HW225206   3.735   3.111   3.885
 4443SOL     OW25207   0.751   1.149   1.978
 4443SOL    HW125208   0.675   1.093   1.994
 4443SOL    HW225209   0.713   1.236   1.961
 4444SOL     OW25210   0.873   3.126   0.896
 4444SOL    HW125211   0.821   3.059   0.852
 4444SOL    HW225212   0.949   3.080   0.930
 4445SOL     OW25213   0.482   0.260   2.021
 4445SOL    HW125214   0.532   0.329   2.064
 4445SOL    HW225215   0.397   0.300   2.002
 4446SOL     OW25216   3.836   2.933  17.954
 4446SOL    HW125217   3.823   2.954  18.046
 4446SOL    HW225218   3.764   2.977  17.909
 4447SOL     OW25219   3.846   0.275   6.736
 4447SOL    HW125220   3.753   0.287   6.757
 4447SOL    HW225221   3.845   0.224   6.655
 4448SOL     OW25222   1.460   0.850  16.785
 4448SOL    HW125223   1.492   0.830  16.697
 4448SOL    HW225224   1.366   0.835  16.780
 4449SOL     OW25225   3.083   0.620   5.008
 4449SOL    HW125226   3.148   0.670   4.959
 4449SOL    HW225227   3.028   0.687   5.050
 4450SOL     OW25228   0.247   0.547   4.625
 4450SOL    HW125229   0.215   0.606   4.557
 4450SOL    HW225230   0.169   0.520   4.673
 4451SOL     OW25231   4.365   4.762   1.753
 4451SOL    HW125232   4.320   0.049   1.712
 4451SOL    HW225233   4.354   4.777   1.847
 4452SOL     OW25234   0.449   2.894  15.050
 4452SOL    HW125235   0.450   2.972  14.993
 4452SOL    HW225236   0.358   2.884  15.076
 4453SOL     OW25237   2.966   0.046   1.799
 4453SOL    HW125238   3.031   0.037   1.869
 4453SOL    HW225239   2.882   0.051   1.845
 4454SOL     OW25240   2.130   3.820  19.180
 4454SOL    HW125241   2.179   3.886  19.131
 4454SOL    HW225242   2.123   3.746  19.120
 4455SOL     OW25243   4.316   4.735   0.433
 4455SOL    HW125244   4.384   0.013   0.449
 4455SOL    HW225245   4.310   4.685   0.514
 4456SOL     OW25246   0.520   3.383   6.366
 4456SOL    HW125247   0.502   3.305   6.314
 4456SOL    HW225248   0.453   3.382   6.435
 4457SOL     OW25249   2.364   4.367  20.982
 4457SOL    HW125250   2.420   4.290  20.969
 4457SOL    HW225251   2.361   4.409  20.896
 4458SOL     OW25252   0.178   1.838  17.392
 4458SOL    HW125253   0.223   1.881  17.319
 4458SOL    HW225254   0.195   1.745  17.379
 4459SOL     OW25255   4.279   1.716  15.761
 4459SOL    HW125256   4.231   1.737  15.842
 4459SOL    HW225257   4.367   1.693  15.791
 4460SOL     OW25258   3.174   0.383   1.087
 4460SOL    HW125259   3.176   0.384   1.183
 4460SOL    HW225260   3.099   0.327   1.066
 4461SOL     OW25261   4.276   3.663   5.335
 4461SOL    HW125262   4.362   3.637   5.303
 4461SOL    HW225263   4.294   3.726   5.404
 4462SOL     OW25264   3.545   0.323  20.416
 4462SOL    HW125265   3.553   0.291  20.326
 4462SOL    HW225266   3.526   0.245  20.468
 4463SOL     OW25267   0.569   2.089  21.051
 4463SOL    HW125268   0.604   2.164  21.099
 4463SOL    HW225269   0.580   2.015  21.111
 4464SOL     OW25270   3.415   2.360   5.801
 4464SOL    HW125271   3.381   2.362   5.711
 4464SOL    HW225272   3.510   2.355   5.791
 4465SOL     OW25273   1.535   1.369   0.827
 4465SOL    HW125274   1.447   1.335   0.810
 4465SOL    HW225275   1.544   1.366   0.922
 4466SOL     OW25276   1.377   0.732   4.207
 4466SOL    HW125277   1.372   0.640   4.230
 4466SOL    HW225278   1.406   0.733   4.115
 4467SOL     OW25279   4.238   0.932   5.957
 4467SOL    HW125280   4.288   0.891   5.887
 4467SOL    HW225281   4.304   0.962   6.020
 4468SOL     OW25282   3.551   3.572   3.692
 4468SOL    HW125283   3.639   3.591   3.724
 4468SOL    HW225284   3.503   3.541   3.769
 4469SOL     OW25285   3.002   0.157   1.260
 4469SOL    HW125286   3.095   0.135   1.248
 4469SOL    HW225287   2.960   0.125   1.180
 4470SOL     OW25288   3.017   4.439   3.714
 4470SOL    HW125289   3.027   4.397   3.800
 4470SOL    HW225290   2.944   4.500   3.726
 4471SOL     OW25291   2.604   0.656  16.082
 4471SOL    HW125292   2.632   0.746  16.095
 4471SOL    HW225293   2.509   0.658  16.093
 4472SOL     OW25294   3.473   2.437   7.183
 4472SOL    HW125295   3.500   2.487   7.106
 4472SOL    HW225296   3.546   2.446   7.245
 4473SOL     OW25297   3.069   1.192  18.425
 4473SOL    HW125298   3.017   1.265  18.458
 4473SOL    HW225299   3.004   1.125  18.402
 4474SOL     OW25300   0.003   1.919  16.376
 4474SOL    HW125301   0.048   1.986  16.325
 4474SOL    HW225302   4.768   1.850  16.312
 4475SOL     OW25303   1.737   3.666  16.442
 4475SOL    HW125304   1.762   3.576  16.462
 4475SOL    HW225305   1.649   3.675  16.477
 4476SOL     OW25306   2.514   3.243   3.067
 4476SOL    HW125307   2.529   3.325   3.114
 4476SOL    HW225308   2.551   3.258   2.980
 4477SOL     OW25309   0.672   3.316   1.037
 4477SOL    HW125310   0.700   3.405   1.015
 4477SOL    HW225311   0.736   3.259   0.994
 4478SOL     OW25312   4.184   4.488  17.525
 4478SOL    HW125313   4.092   4.467  17.541
 4478SOL    HW225314   4.225   4.404  17.506
 4479SOL     OW25315   3.567   2.064   1.048
 4479SOL    HW125316   3.548   2.135   1.109
 4479SOL    HW225317   3.498   2.000   1.064
 4480SOL     OW25318   1.630   0.714   6.075
 4480SOL    HW125319   1.565   0.647   6.052
 4480SOL    HW225320   1.578   0.789   6.104
 4481SOL     OW25321   4.491   0.665  19.772
 4481SOL    HW125322   4.525   0.665  19.682
 4481SOL    HW225323   4.484   0.758  19.794
 4482SOL     OW25324   3.397   1.911   4.643
 4482SOL    HW125325   3.309   1.901   4.606
 4482SOL    HW225326   3.424   1.821   4.662
 4483SOL     OW25327   1.954   2.089  19.317
 4483SOL    HW125328   2.015   2.105  19.245
 4483SOL    HW225329   1.945   1.994  19.321
 4484SOL     OW25330   3.437   4.090   5.406
 4484SOL    HW125331   3.472   4.002   5.394
 4484SOL    HW225332   3.371   4.080   5.475
 4485SOL     OW25333   2.956   2.130   1.148
 4485SOL    HW125334   3.036   2.082   1.128
 4485SOL    HW225335   2.981   2.222   1.145
 4486SOL     OW25336   3.435   0.286   1.985
 4486SOL    HW125337   3.399   0.257   2.069
 4486SOL    HW225338   3.530   0.279   1.996
 4487SOL     OW25339   2.613   4.116   2.424
 4487SOL    HW125340   2.656   4.106   2.509
 4487SOL    HW225341   2.523   4.089   2.440
 4488SOL     OW25342   0.461   0.564  20.592
 4488SOL    HW125343   0.459   0.545  20.498
 4488SOL    HW225344   0.409   0.494  20.631
 4489SOL     OW25345   3.091   0.881   5.647
 4489SOL    HW125346   3.021   0.817   5.636
 4489SOL    HW225347   3.113   0.876   5.740
 4490SOL     OW25348   3.376   2.591  20.545
 4490SOL    HW125349   3.463   2.566  20.577
 4490SOL    HW225350   3.394   2.659  20.480
 4491SOL     OW25351   1.885   2.022   2.265
 4491SOL    HW125352   1.838   1.955   2.314
 4491SOL    HW225353   1.867   2.001   2.173
 4492SOL     OW25354   3.712   3.258  15.953
 4492SOL    HW125355   3.706   3.339  16.003
 4492SOL    HW225356   3.784   3.210  15.994
 4493SOL     OW25357   1.904   1.695   6.764
 4493SOL    HW125358   1.846   1.772   6.762
 4493SOL    HW225359   1.882   1.651   6.845
 4494SOL     OW25360   1.259   0.740   4.581
 4494SOL    HW125361   1.187   0.785   4.539
 4494SOL    HW225362   1.288   0.799   4.651
 4495SOL     OW25363   3.248   1.628  19.402
 4495SOL    HW125364   3.271   1.617  19.310
 4495SOL    HW225365   3.286   1.712  19.426
 4496SOL     OW25366   1.275   0.410   4.204
 4496SOL    HW125367   1.314   0.352   4.269
 4496SOL    HW225368   1.188   0.373   4.187
 4497SOL     OW25369   1.218   3.528   3.628
 4497SOL    HW125370   1.164   3.506   3.552
 4497SOL    HW225371   1.252   3.616   3.608
 4498SOL     OW25372   2.763   2.734   5.811
 4498SOL    HW125373   2.703   2.771   5.875
 4498SOL    HW225374   2.844   2.721   5.859
 4499SOL     OW25375   3.563   1.404   2.953
 4499SOL    HW125376   3.541   1.493   2.924
 4499SOL    HW225377   3.481   1.370   2.989
 4500SOL     OW25378   1.475   0.860   4.702
 4500SOL    HW125379   1.468   0.956   4.706
 4500SOL    HW225380   1.445   0.831   4.788
 4501SOL     OW25381   0.014   2.167  17.245
 4501SOL    HW125382   4.756   2.136  17.166
 4501SOL    HW225383   0.094   2.209  17.213
 4502SOL     OW25384   3.659   0.898   4.838
 4502SOL    HW125385   3.599   0.956   4.790
 4502SOL    HW225386   3.700   0.845   4.770
 4503SOL     OW25387   3.662   2.514  20.541
 4503SOL    HW125388   3.745   2.524  20.495
 4503SOL    HW225389   3.668   2.573  20.616
 4504SOL     OW25390   1.005   4.563   2.042
 4504SOL    HW125391   0.941   4.546   1.972
 4504SOL    HW225392   0.955   4.606   2.111
 4505SOL     OW25393   0.037   3.107  19.167
 4505SOL    HW125394   0.056   3.024  19.124
 4505SOL    HW225395   4.736   3.096  19.203
 4506SOL     OW25396   4.272   4.182  19.749
 4506SOL    HW125397   4.261   4.167  19.656
 4506SOL    HW225398   4.366   4.188  19.762
 4507SOL     OW25399   1.132   1.790   4.973
 4507SOL    HW125400   1.148   1.696   4.965
 4507SOL    HW225401   1.037   1.799   4.964
 4508SOL     OW25402   3.897   0.631  17.180
 4508SOL    HW125403   3.939   0.710  17.147
 4508SOL    HW225404   3.842   0.601  17.108
 4509SOL     OW25405   4.095   4.014   3.687
 4509SOL    HW125406   4.125   4.105   3.683
 4509SOL    HW225407   4.092   3.986   3.596
 4510SOL     OW25408   2.966   2.432  15.838
 4510SOL    HW125409   2.881   2.471  15.860
 4510SOL    HW225410   2.996   2.392  15.919
 4511SOL     OW25411   0.824   1.746   4.383
 4511SOL    HW125412   0.835   1.665   4.332
 4511SOL    HW225413   0.798   1.716   4.470
 4512SOL     OW25414   3.471   3.313   6.121
 4512SOL    HW125415   3.493   3.317   6.214
 4512SOL    HW225416   3.550   3.280   6.079
 4513SOL     OW25417   4.153   4.179  18.234
 4513SOL    HW125418   4.136   4.086  18.251
 4513SOL    HW225419   4.068   4.221  18.249
 4514SOL     OW25420   1.092   1.195   1.041
 4514SOL    HW125421   0.997   1.189   1.041
 4514SOL    HW225422   1.115   1.224   1.130
 4515SOL     OW25423   0.039   4.305  16.942
 4515SOL    HW125424   0.078   4.375  16.993
 4515SOL    HW225425   4.751   4.276  16.995
 4516SOL     OW25426   4.536   0.046   7.655
 4516SOL    HW125427   4.559   4.772   7.585
 4516SOL    HW225428   4.574   0.006   7.734
 4517SOL     OW25429   0.284   4.562  19.082
 4517SOL    HW125430   0.300   4.557  18.987
 4517SOL    HW225431   0.199   4.606  19.089
 4518SOL     OW25432   1.137   1.472   6.561
 4518SOL    HW125433   1.047   1.500   6.578
 4518SOL    HW225434   1.190   1.529   6.617
 4519SOL     OW25435   2.109   2.058   3.696
 4519SOL    HW125436   2.083   2.048   3.604
 4519SOL    HW225437   2.095   2.151   3.714
 4520SOL     OW25438   0.615   1.208  16.725
 4520SOL    HW125439   0.547   1.276  16.725
 4520SOL    HW225440   0.623   1.183  16.817
 4521SOL     OW25441   3.578   1.046   0.015
 4521SOL    HW125442   3.579   1.004  21.173
 4521SOL    HW225443   3.629   1.126   0.003
 4522SOL     OW25444   2.330   2.244   0.318
 4522SOL    HW125445   2.236   2.225   0.308
 4522SOL    HW225446   2.366   2.165   0.357
 4523SOL     OW25447   4.559   2.224   5.724
 4523SOL    HW125448   4.572   2.157   5.791
 4523SOL    HW225449   4.532   2.302   5.773
 4524SOL     OW25450   1.057   3.535   4.390
 4524SOL    HW125451   0.989   3.552   4.454
 4524SOL    HW225452   1.010   3.510   4.310
 4525SOL     OW25453   3.936   2.268   2.990
 4525SOL    HW125454   3.931   2.285   3.084
 4525SOL    HW225455   3.953   2.174   2.984
 4526SOL     OW25456   0.434   2.492   2.520
 4526SOL    HW125457   0.472   2.405   2.511
 4526SOL    HW225458   0.392   2.508   2.435
 4527SOL     OW25459   0.472   1.900  18.874
 4527SOL    HW125460   0.548   1.858  18.915
 4527SOL    HW225461   0.441   1.962  18.940
 4528SOL     OW25462   3.526   3.605  12.465
 4528SOL    HW125463   3.592   3.622  12.398
 4528SOL    HW225464   3.537   3.512  12.487
 4529SOL     OW25465   3.601   2.223  16.457
 4529SOL    HW125466   3.587   2.140  16.411
 4529SOL    HW225467   3.541   2.219  16.531
 4530SOL     OW25468   2.564   2.607   2.977
 4530SOL    HW125469   2.652   2.617   3.013
 4530SOL    HW225470   2.514   2.566   3.048
 4531SOL     OW25471   4.112   0.180   0.981
 4531SOL    HW125472   4.129   0.087   0.974
 4531SOL    HW225473   4.197   0.219   0.999
 4532SOL     OW25474   1.803   1.645   5.947
 4532SOL    HW125475   1.783   1.555   5.973
 4532SOL    HW225476   1.746   1.662   5.872
 4533SOL     OW25477   3.338   2.756   3.419
 4533SOL    HW125478   3.265   2.805   3.457
 4533SOL    HW225479   3.416   2.798   3.455
 4534SOL     OW25480   2.455   4.664   0.810
 4534SOL    HW125481   2.462   4.694   0.720
 4534SOL    HW225482   2.546   4.648   0.837
 4535SOL     OW25483   3.132   2.734  17.961
 4535SOL    HW125484   3.087   2.814  17.934
 4535SOL    HW225485   3.157   2.691  17.880
 4536SOL     OW25486   4.107   4.284   3.454
 4536SOL    HW125487   4.027   4.281   3.507
 4536SOL    HW225488   4.175   4.254   3.513
 4537SOL     OW25489   1.866   1.129  17.318
 4537SOL    HW125490   1.800   1.079  17.270
 4537SOL    HW225491   1.927   1.160  17.252
 4538SOL     OW25492   3.373   0.444   6.748
 4538SOL    HW125493   3.321   0.418   6.672
 4538SOL    HW225494   3.317   0.425   6.823
 4539SOL     OW25495   4.502   4.123  15.458
 4539SOL    HW125496   4.557   4.170  15.521
 4539SOL    HW225497   4.439   4.189  15.428
 4540SOL     OW25498   3.686   1.966   2.891
 4540SOL    HW125499   3.699   1.992   2.800
 4540SOL    HW225500   3.603   2.008   2.916
 4541SOL     OW25501   3.038   3.752   1.831
 4541SOL    HW125502   2.949   3.740   1.799
 4541SOL    HW225503   3.035   3.722   1.922
 4542SOL     OW25504   0.464   3.161  13.805
 4542SOL    HW125505   0.552   3.196  13.793
 4542SOL    HW225506   0.409   3.237  13.824
 4543SOL     OW25507   1.744   3.470   2.460
 4543SOL    HW125508   1.796   3.423   2.526
 4543SOL    HW225509   1.798   3.545   2.436
 4544SOL     OW25510   1.448   0.326  17.899
 4544SOL    HW125511   1.410   0.293  17.981
 4544SOL    HW225512   1.373   0.348  17.845
 4545SOL     OW25513   1.554   0.007  18.869
 4545SOL    HW125514   1.466   4.756  18.861
 4545SOL    HW225515   1.613   4.719  18.873
 4546SOL     OW25516   4.704   2.199   0.966
 4546SOL    HW125517   4.746   2.122   0.927
 4546SOL    HW225518   4.610   2.181   0.956
 4547SOL     OW25519   3.151   0.858   0.206
 4547SOL    HW125520   3.088   0.789   0.228
 4547SOL    HW225521   3.211   0.816   0.145
 4548SOL     OW25522   3.054   2.780   3.022
 4548SOL    HW125523   3.014   2.780   2.935
 4548SOL    HW225524   3.057   2.687   3.046
 4549SOL     OW25525   1.478   3.539  17.874
 4549SOL    HW125526   1.395   3.578  17.903
 4549SOL    HW225527   1.478   3.451  17.912
 4550SOL     OW25528   0.310   0.233  13.451
 4550SOL    HW125529   0.327   0.312  13.400
 4550SOL    HW225530   0.341   0.254  13.539
 4551SOL     OW25531   4.327   2.435  18.164
 4551SOL    HW125532   4.375   2.497  18.109
 4551SOL    HW225533   4.245   2.480  18.184
 4552SOL     OW25534   3.164   0.336   6.589
 4552SOL    HW125535   3.151   0.263   6.650
 4552SOL    HW225536   3.085   0.336   6.536
 4553SOL     OW25537   4.184   1.442  15.000
 4553SOL    HW125538   4.176   1.438  15.095
 4553SOL    HW225539   4.143   1.525  14.976
 4554SOL     OW25540   1.830   0.130   2.212
 4554SOL    HW125541   1.741   0.147   2.244
 4554SOL    HW225542   1.818   0.067   2.141
 4555SOL     OW25543   2.895   0.209  20.088
 4555SOL    HW125544   2.831   0.138  20.081
 4555SOL    HW225545   2.844   0.289  20.076
 4556SOL     OW25546   0.269   2.013  18.712
 4556SOL    HW125547   0.232   1.944  18.656
 4556SOL    HW225548   0.345   1.971  18.752
 4557SOL     OW25549   2.529   1.065   0.103
 4557SOL    HW125550   2.522   1.013   0.023
 4557SOL    HW225551   2.617   1.050   0.135
 4558SOL     OW25552   1.878   0.786  18.283
 4558SOL    HW125553   1.971   0.775  18.301
 4558SOL    HW225554   1.861   0.730  18.207
 4559SOL     OW25555   0.454   2.426  21.029
 4559SOL    HW125556   0.458   2.488  20.957
 4559SOL    HW225557   0.512   2.463  21.096
 4560SOL     OW25558   3.741   1.212   8.002
 4560SOL    HW125559   3.721   1.174   8.088
 4560SOL    HW225560   3.738   1.137   7.942
 4561SOL     OW25561   2.759   3.316   6.198
 4561SOL    HW125562   2.814   3.254   6.244
 4561SOL    HW225563   2.671   3.279   6.202
 4562SOL     OW25564   0.933   4.085   2.741
 4562SOL    HW125565   0.857   4.140   2.760
 4562SOL    HW225566   0.971   4.123   2.662
 4563SOL     OW25567   1.847   1.850   2.749
 4563SOL    HW125568   1.878   1.812   2.667
 4563SOL    HW225569   1.926   1.864   2.801
 4564SOL     OW25570   2.647   4.154   1.910
 4564SOL    HW125571   2.722   4.213   1.913
 4564SOL    HW225572   2.664   4.097   1.835
 4565SOL     OW25573   1.248   4.237  20.171
 4565SOL    HW125574   1.257   4.246  20.266
 4565SOL    HW225575   1.225   4.145  20.157
 4566SOL     OW25576   2.081   0.056   2.838
 4566SOL    HW125577   2.013   0.106   2.793
 4566SOL    HW225578   2.035   4.767   2.873
 4567SOL     OW25579   3.969   1.715  15.750
 4567SOL    HW125580   4.038   1.746  15.692
 4567SOL    HW225581   3.980   1.767  15.830
 4568SOL     OW25582   3.602   0.766  16.632
 4568SOL    HW125583   3.675   0.739  16.577
 4568SOL    HW225584   3.606   0.707  16.707
 4569SOL     OW25585   1.184   4.116   2.940
 4569SOL    HW125586   1.159   4.061   3.015
 4569SOL    HW225587   1.103   4.126   2.890
 4570SOL     OW25588   3.045   2.284   1.796
 4570SOL    HW125589   3.071   2.348   1.729
 4570SOL    HW225590   2.950   2.280   1.789
 4571SOL     OW25591   0.465   0.974   1.585
 4571SOL    HW125592   0.535   0.944   1.527
 4571SOL    HW225593   0.412   1.033   1.532
 4572SOL     OW25594   0.322   2.699  21.228
 4572SOL    HW125595   0.307   2.768  21.164
 4572SOL    HW225596   0.399   2.728   0.033
 4573SOL     OW25597   3.803   3.337   6.904
 4573SOL    HW125598   3.763   3.378   6.827
 4573SOL    HW225599   3.752   3.370   6.978
 4574SOL     OW25600   3.549   2.906   3.501
 4574SOL    HW125601   3.547   2.999   3.522
 4574SOL    HW225602   3.589   2.865   3.578
 4575SOL     OW25603   1.589   4.176  20.590
 4575SOL    HW125604   1.600   4.269  20.567
 4575SOL    HW225605   1.661   4.132  20.546
 4576SOL     OW25606   1.682   0.540  20.222
 4576SOL    HW125607   1.719   0.586  20.146
 4576SOL    HW225608   1.612   0.597  20.253
 4577SOL     OW25609   2.134   4.068  15.944
 4577SOL    HW125610   2.059   4.009  15.944
 4577SOL    HW225611   2.178   4.052  16.027
 4578SOL     OW25612   2.181   0.818  14.348
 4578SOL    HW125613   2.270   0.804  14.314
 4578SOL    HW225614   2.183   0.907  14.384
 4579SOL     OW25615   3.939   0.843  20.939
 4579SOL    HW125616   3.854   0.883  20.952
 4579SOL    HW225617   3.960   0.858  20.847
 4580SOL     OW25618   0.830   2.581   5.088
 4580SOL    HW125619   0.830   2.606   5.181
 4580SOL    HW225620   0.739   2.587   5.061
 4581SOL     OW25621   3.698   3.470   7.120
 4581SOL    HW125622   3.606   3.464   7.147
 4581SOL    HW225623   3.747   3.461   7.202
 4582SOL     OW25624   0.804   1.646  13.995
 4582SOL    HW125625   0.803   1.551  13.984
 4582SOL    HW225626   0.712   1.671  13.986
 4583SOL     OW25627   0.012   3.856  18.759
 4583SOL    HW125628   0.055   3.844  18.844
 4583SOL    HW225629   4.743   3.780  18.748
 4584SOL     OW25630   4.347   4.740  16.307
 4584SOL    HW125631   4.355   0.048  16.296
 4584SOL    HW225632   4.253   4.725  16.321
 4585SOL     OW25633   2.283   3.541   4.921
 4585SOL    HW125634   2.221   3.521   4.851
 4585SOL    HW225635   2.302   3.635   4.910
 4586SOL     OW25636   1.678   4.099  13.817
 4586SOL    HW125637   1.594   4.053  13.813
 4586SOL    HW225638   1.740   4.033  13.847
 4587SOL     OW25639   1.372   2.347  20.680
 4587SOL    HW125640   1.367   2.262  20.637
 4587SOL    HW225641   1.339   2.410  20.616
 4588SOL     OW25642   1.521   4.772  13.728
 4588SOL    HW125643   1.473   0.048  13.782
 4588SOL    HW225644   1.524   0.026  13.641
 4589SOL     OW25645   4.057   4.451  18.536
 4589SOL    HW125646   4.087   4.406  18.457
 4589SOL    HW225647   3.999   4.520  18.504
 4590SOL     OW25648   0.758   3.876   3.932
 4590SOL    HW125649   0.713   3.801   3.894
 4590SOL    HW225650   0.850   3.852   3.930
 4591SOL     OW25651   0.103   3.626  18.022
 4591SOL    HW125652   0.104   3.531  18.030
 4591SOL    HW225653   0.157   3.656  18.095
 4592SOL     OW25654   0.726   2.005   0.440
 4592SOL    HW125655   0.700   1.920   0.477
 4592SOL    HW225656   0.668   2.068   0.483
 4593SOL     OW25657   2.624   4.606  14.736
 4593SOL    HW125658   2.719   4.601  14.752
 4593SOL    HW225659   2.586   4.622  14.822
 4594SOL     OW25660   1.418   1.865   3.827
 4594SOL    HW125661   1.420   1.804   3.900
 4594SOL    HW225662   1.432   1.810   3.749
 4595SOL     OW25663   2.947   3.627  16.897
 4595SOL    HW125664   3.010   3.570  16.940
 4595SOL    HW225665   2.988   3.649  16.814
 4596SOL     OW25666   4.620   4.744  18.898
 4596SOL    HW125667   4.675   4.669  18.876
 4596SOL    HW225668   4.561   4.712  18.966
 4597SOL     OW25669   1.530   0.884  18.171
 4597SOL    HW125670   1.447   0.869  18.216
 4597SOL    HW225671   1.554   0.974  18.194
 4598SOL     OW25672   0.957   1.165  20.718
 4598SOL    HW125673   1.044   1.184  20.684
 4598SOL    HW225674   0.913   1.120  20.646
 4599SOL     OW25675   4.454   1.273   3.959
 4599SOL    HW125676   4.407   1.356   3.955
 4599SOL    HW225677   4.536   1.288   3.912
 4600SOL     OW25678   1.795   3.826  17.382
 4600SOL    HW125679   1.859   3.897  17.381
 4600SOL    HW225680   1.713   3.868  17.409
 4601SOL     OW25681   0.334   3.184   0.499
 4601SOL    HW125682   0.370   3.270   0.520
 4601SOL    HW225683   0.364   3.167   0.409
 4602SOL     OW25684   4.385   2.301   1.926
 4602SOL    HW125685   4.437   2.227   1.955
 4602SOL    HW225686   4.445   2.375   1.927
 4603SOL     OW25687   0.937   4.019   5.571
 4603SOL    HW125688   0.901   4.106   5.554
 4603SOL    HW225689   1.027   4.024   5.538
 4604SOL     OW25690   3.027   1.142   4.416
 4604SOL    HW125691   3.005   1.217   4.360
 4604SOL    HW225692   3.118   1.121   4.393
 4605SOL     OW25693   2.323   0.870   8.227
 4605SOL    HW125694   2.374   0.900   8.152
 4605SOL    HW225695   2.353   0.780   8.242
 4606SOL     OW25696   1.672   4.158   0.817
 4606SOL    HW125697   1.629   4.242   0.800
 4606SOL    HW225698   1.656   4.143   0.910
 4607SOL     OW25699   0.531   1.712  17.420
 4607SOL    HW125700   0.525   1.622  17.452
 4607SOL    HW225701   0.583   1.705  17.340
 4608SOL     OW25702   3.961   4.519  13.865
 4608SOL    HW125703   3.944   4.432  13.899
 4608SOL    HW225704   3.981   4.572  13.942
 4609SOL     OW25705   3.338   0.153  19.984
 4609SOL    HW125706   3.395   0.185  20.054
 4609SOL    HW225707   3.263   0.212  19.985
 4610SOL     OW25708   3.804   0.037  20.692
 4610SOL    HW125709   3.804   4.745  20.746
 4610SOL    HW225710   3.826   0.108  20.753
 4611SOL     OW25711   1.516   0.075  15.459
 4611SOL    HW125712   1.445   0.011  15.464
 4611SOL    HW225713   1.590   0.032  15.502
 4612SOL     OW25714   0.109   0.160   3.540
 4612SOL    HW125715   0.140   0.077   3.506
 4612SOL    HW225716   0.126   0.155   3.634
 4613SOL     OW25717   1.672   0.531   4.288
 4613SOL    HW125718   1.631   0.516   4.203
 4613SOL    HW225719   1.599   0.553   4.346
 4614SOL     OW25720   2.183   2.453   0.851
 4614SOL    HW125721   2.238   2.463   0.773
 4614SOL    HW225722   2.243   2.463   0.925
 4615SOL     OW25723   0.021   4.110  13.741
 4615SOL    HW125724   0.086   4.049  13.706
 4615SOL    HW225725   4.729   4.058  13.754
 4616SOL     OW25726   4.549   1.493   0.427
 4616SOL    HW125727   4.633   1.447   0.430
 4616SOL    HW225728   4.541   1.535   0.512
 4617SOL     OW25729   0.596   3.490   1.869
 4617SOL    HW125730   0.530   3.425   1.894
 4617SOL    HW225731   0.679   3.453   1.900
 4618SOL     OW25732   1.746   4.771  15.617
 4618SOL    HW125733   1.837   0.007  15.600
 4618SOL    HW225734   1.727   0.024  15.702
 4619SOL     OW25735   3.310   2.366   5.524
 4619SOL    HW125736   3.329   2.301   5.457
 4619SOL    HW225737   3.315   2.450   5.478
 4620SOL     OW25738   0.794   1.933  20.648
 4620SOL    HW125739   0.770   2.007  20.704
 4620SOL    HW225740   0.889   1.940  20.638
 4621SOL     OW25741   3.603   0.797  17.835
 4621SOL    HW125742   3.680   0.822  17.886
 4621SOL    HW225743   3.628   0.810  17.744
 4622SOL     OW25744   1.727   4.244  16.152
 4622SOL    HW125745   1.665   4.293  16.206
 4622SOL    HW225746   1.703   4.266  16.062
 4623SOL     OW25747   0.251   2.093   0.537
 4623SOL    HW125748   0.346   2.094   0.523
 4623SOL    HW225749   0.232   2.003   0.564
 4624SOL     OW25750   0.253   2.553  20.031
 4624SOL    HW125751   0.274   2.588  19.944
 4624SOL    HW225752   0.280   2.621  20.092
 4625SOL     OW25753   4.579   2.482   1.768
 4625SOL    HW125754   4.563   2.568   1.730
 4625SOL    HW225755   4.674   2.480   1.783
 4626SOL     OW25756   2.797   1.278   2.422
 4626SOL    HW125757   2.771   1.268   2.331
 4626SOL    HW225758   2.884   1.238   2.426
 4627SOL     OW25759   2.173   0.711   3.501
 4627SOL    HW125760   2.127   0.629   3.483
 4627SOL    HW225761   2.262   0.696   3.470
 4628SOL     OW25762   3.846   1.353   4.392
 4628SOL    HW125763   3.917   1.325   4.334
 4628SOL    HW225764   3.888   1.370   4.476
 4629SOL     OW25765   3.304   3.672  18.073
 4629SOL    HW125766   3.259   3.589  18.058
 4629SOL    HW225767   3.321   3.673  18.167
 4630SOL     OW25768   0.875   4.302  18.593
 4630SOL    HW125769   0.944   4.246  18.559
 4630SOL    HW225770   0.831   4.335  18.515
 4631SOL     OW25771   3.652   3.733   2.035
 4631SOL    HW125772   3.688   3.675   1.969
 4631SOL    HW225773   3.563   3.701   2.049
 4632SOL     OW25774   4.645   3.248  17.600
 4632SOL    HW125775   4.579   3.316  17.585
 4632SOL    HW225776   4.715   3.269  17.539
 4633SOL     OW25777   0.492   4.582   9.053
 4633SOL    HW125778   0.480   4.519   9.124
 4633SOL    HW225779   0.433   4.654   9.073
 4634SOL     OW25780   3.352   3.482  16.232
 4634SOL    HW125781   3.386   3.415  16.291
 4634SOL    HW225782   3.429   3.518  16.188
 4635SOL     OW25783   3.624   0.883  20.564
 4635SOL    HW125784   3.636   0.925  20.649
 4635SOL    HW225785   3.530   0.882  20.550
 4636SOL     OW25786   0.641   3.918   5.519
 4636SOL    HW125787   0.692   3.850   5.475
 4636SOL    HW225788   0.691   3.938   5.598
 4637SOL     OW25789   4.591   1.418   1.050
 4637SOL    HW125790   4.554   1.499   1.086
 4637SOL    HW225791   4.518   1.356   1.049
 4638SOL     OW25792   2.788   2.474   2.308
 4638SOL    HW125793   2.818   2.385   2.291
 4638SOL    HW225794   2.858   2.514   2.359
 4639SOL     OW25795   1.226   3.914   0.448
 4639SOL    HW125796   1.292   3.966   0.495
 4639SOL    HW225797   1.156   3.902   0.512
 4640SOL     OW25798   4.436   0.440   3.485
 4640SOL    HW125799   4.504   0.374   3.499
 4640SOL    HW225800   4.449   0.469   3.394
 4641SOL     OW25801   1.490   0.765   9.030
 4641SOL    HW125802   1.473   0.675   9.005
 4641SOL    HW225803   1.581   0.780   9.003
 4642SOL     OW25804   1.298   3.803  18.126
 4642SOL    HW125805   1.274   3.853  18.204
 4642SOL    HW225806   1.257   3.850  18.053
 4643SOL     OW25807   0.504   4.618   0.052
 4643SOL    HW125808   0.436   4.676   0.018
 4643SOL    HW225809   0.485   4.613   0.146
 4644SOL     OW25810   3.494   2.604   2.556
 4644SOL    HW125811   3.560   2.566   2.614
 4644SOL    HW225812   3.412   2.595   2.603
 4645SOL     OW25813   1.609   1.910  16.712
 4645SOL    HW125814   1.581   1.869  16.794
 4645SOL    HW225815   1.577   2.000  16.719
 4646SOL     OW25816   1.950   2.728   1.115
 4646SOL    HW125817   1.916   2.670   1.046
 4646SOL    HW225818   1.983   2.669   1.182
 4647SOL     OW25819   0.516   1.222   8.933
 4647SOL    HW125820   0.571   1.183   8.865
 4647SOL    HW225821   0.575   1.235   9.007
 4648SOL     OW25822   3.586   1.552   5.061
 4648SOL    HW125823   3.591   1.467   5.106
 4648SOL    HW225824   3.530   1.605   5.118
 4649SOL     OW25825   2.648   3.641   0.552
 4649SOL    HW125826   2.632   3.712   0.614
 4649SOL    HW225827   2.714   3.675   0.492
 4650SOL     OW25828   1.493   0.655   4.487
 4650SOL    HW125829   1.409   0.687   4.521
 4650SOL    HW225830   1.557   0.686   4.551
 4651SOL     OW25831   3.245   2.879  16.731
 4651SOL    HW125832   3.235   2.785  16.742
 4651SOL    HW225833   3.236   2.915  16.820
 4652SOL     OW25834   0.774   1.077   4.517
 4652SOL    HW125835   0.845   1.053   4.577
 4652SOL    HW225836   0.696   1.039   4.556
 4653SOL     OW25837   2.452   0.324   4.939
 4653SOL    HW125838   2.398   0.253   4.904
 4653SOL    HW225839   2.526   0.329   4.878
 4654SOL     OW25840   3.487   3.725  15.864
 4654SOL    HW125841   3.514   3.673  15.789
 4654SOL    HW225842   3.546   3.800  15.865
 4655SOL     OW25843   3.573   3.359   0.561
 4655SOL    HW125844   3.626   3.305   0.620
 4655SOL    HW225845   3.513   3.406   0.619
 4656SOL     OW25846   0.371   1.297  19.657
 4656SOL    HW125847   0.458   1.332  19.671
 4656SOL    HW225848   0.349   1.252  19.739
 4657SOL     OW25849   4.633   4.164   4.996
 4657SOL    HW125850   4.677   4.141   4.914
 4657SOL    HW225851   4.615   4.079   5.037
 4658SOL     OW25852   4.369   0.093  20.775
 4658SOL    HW125853   4.377   0.033  20.702
 4658SOL    HW225854   4.275   0.111  20.781
 4659SOL     OW25855   2.583   3.147  18.078
 4659SOL    HW125856   2.580   3.097  17.997
 4659SOL    HW225857   2.675   3.168  18.090
 4660SOL     OW25858   4.130   3.565   2.296
 4660SOL    HW125859   4.054   3.572   2.238
 4660SOL    HW225860   4.171   3.652   2.292
 4661SOL     OW25861   1.150   3.752   6.014
 4661SOL    HW125862   1.112   3.818   5.956
 4661SOL    HW225863   1.083   3.684   6.021
 4662SOL     OW25864   0.031   2.216  16.758
 4662SOL    HW125865   4.756   2.158  16.714
 4662SOL    HW225866   0.104   2.224  16.697
 4663SOL     OW25867   2.781   1.657  20.572
 4663SOL    HW125868   2.702   1.643  20.624
 4663SOL    HW225869   2.777   1.589  20.504
 4664SOL     OW25870   4.133   1.311   4.254
 4664SOL    HW125871   4.138   1.305   4.159
 4664SOL    HW225872   4.165   1.399   4.275
 4665SOL     OW25873   0.835   4.003  13.965
 4665SOL    HW125874   0.763   3.940  13.976
 4665SOL    HW225875   0.817   4.047  13.882
 4666SOL     OW25876   2.207   3.164   3.886
 4666SOL    HW125877   2.120   3.137   3.916
 4666SOL    HW225878   2.195   3.253   3.854
 4667SOL     OW25879   2.945   0.897   1.068
 4667SOL    HW125880   2.988   0.864   1.147
 4667SOL    HW225881   2.998   0.973   1.042
 4668SOL     OW25882   4.495   0.083  14.027
 4668SOL    HW125883   4.402   0.069  14.045
 4668SOL    HW225884   4.541   0.036  14.097
 4669SOL     OW25885   4.059   1.155   5.707
 4669SOL    HW125886   4.045   1.065   5.677
 4669SOL    HW225887   4.154   1.167   5.702
 4670SOL     OW25888   1.169   0.246  13.327
 4670SOL    HW125889   1.193   0.321  13.381
 4670SOL    HW225890   1.087   0.214  13.365
 4671SOL     OW25891   0.752   4.524  12.873
 4671SOL    HW125892   0.847   4.526  12.876
 4671SOL    HW225893   0.728   4.598  12.817
 4672SOL     OW25894   3.648   0.228   4.165
 4672SOL    HW125895   3.710   0.210   4.235
 4672SOL    HW225896   3.574   0.170   4.183
 4673SOL     OW25897   3.060   0.381   2.036
 4673SOL    HW125898   3.071   0.356   1.945
 4673SOL    HW225899   3.149   0.385   2.071
 4674SOL     OW25900   3.759   3.893   3.415
 4674SOL    HW125901   3.851   3.916   3.424
 4674SOL    HW225902   3.758   3.828   3.345
 4675SOL     OW25903   3.271   0.098   3.197
 4675SOL    HW125904   3.252   0.014   3.238
 4675SOL    HW225905   3.252   0.163   3.265
 4676SOL     OW25906   1.366   2.584  20.861
 4676SOL    HW125907   1.355   2.529  20.783
 4676SOL    HW225908   1.434   2.647  20.837
 4677SOL     OW25909   3.775   4.245  17.302
 4677SOL    HW125910   3.742   4.327  17.340
 4677SOL    HW225911   3.697   4.202  17.267
 4678SOL     OW25912   0.162   1.133  18.095
 4678SOL    HW125913   0.162   1.046  18.056
 4678SOL    HW225914   0.199   1.121  18.183
 4679SOL     OW25915   4.157   1.720  18.780
 4679SOL    HW125916   4.224   1.786  18.762
 4679SOL    HW225917   4.083   1.770  18.815
 4680SOL     OW25918   2.949   4.525   4.187
 4680SOL    HW125919   2.925   4.481   4.105
 4680SOL    HW225920   2.931   4.461   4.255
 4681SOL     OW25921   3.294   2.994  20.594
 4681SOL    HW125922   3.247   3.040  20.524
 4681SOL    HW225923   3.380   3.035  20.595
 4682SOL     OW25924   1.925   2.631   4.396
 4682SOL    HW125925   1.854   2.692   4.417
 4682SOL    HW225926   1.967   2.671   4.319
 4683SOL     OW25927   2.681   4.102  20.177
 4683SOL    HW125928   2.769   4.113  20.141
 4683SOL    HW225929   2.636   4.183  20.154
 4684SOL     OW25930   3.883   3.755  20.758
 4684SOL    HW125931   3.900   3.834  20.707
 4684SOL    HW225932   3.798   3.771  20.799
 4685SOL     OW25933   3.592   2.001  18.694
 4685SOL    HW125934   3.525   2.062  18.665
 4685SOL    HW225935   3.672   2.030  18.648
 4686SOL     OW25936   2.998   0.403  18.623
 4686SOL    HW125937   3.038   0.432  18.705
 4686SOL    HW225938   3.030   0.313  18.612
 4687SOL     OW25939   1.045   1.655   3.980
 4687SOL    HW125940   1.019   1.642   3.889
 4687SOL    HW225941   1.126   1.604   3.990
 4688SOL     OW25942   3.400   0.585   5.746
 4688SOL    HW125943   3.375   0.590   5.838
 4688SOL    HW225944   3.318   0.594   5.698
 4689SOL     OW25945   1.666   4.779  14.377
 4689SOL    HW125946   1.753   4.743  14.395
 4689SOL    HW225947   1.677   0.043  14.297
 4690SOL     OW25948   2.224   2.321  20.567
 4690SOL    HW125949   2.266   2.241  20.596
 4690SOL    HW225950   2.164   2.345  20.638
 4691SOL     OW25951   1.907   1.533   3.017
 4691SOL    HW125952   1.936   1.491   2.936
 4691SOL    HW225953   1.837   1.592   2.990
 4692SOL     OW25954   2.550   2.685   5.477
 4692SOL    HW125955   2.638   2.681   5.514
 4692SOL    HW225956   2.537   2.778   5.458
 4693SOL     OW25957   0.908   3.460  16.554
 4693SOL    HW125958   0.986   3.489  16.506
 4693SOL    HW225959   0.849   3.428  16.486
 4694SOL     OW25960   0.121   3.841  16.760
 4694SOL    HW125961   0.205   3.800  16.738
 4694SOL    HW225962   0.134   3.874  16.849
 4695SOL     OW25963   0.655   1.008  17.317
 4695SOL    HW125964   0.576   0.954  17.315
 4695SOL    HW225965   0.709   0.975  17.245
 4696SOL     OW25966   3.853   0.200   5.960
 4696SOL    HW125967   3.853   0.110   5.928
 4696SOL    HW225968   3.831   0.253   5.884
 4697SOL     OW25969   2.559   3.960   1.272
 4697SOL    HW125970   2.570   4.055   1.276
 4697SOL    HW225971   2.647   3.926   1.259
 4698SOL     OW25972   4.665   1.520   4.542
 4698SOL    HW125973   4.589   1.574   4.520
 4698SOL    HW225974   4.704   1.562   4.618
 4699SOL     OW25975   0.882   3.917  18.852
 4699SOL    HW125976   0.859   3.830  18.818
 4699SOL    HW225977   0.977   3.917  18.855
 4700SOL     OW25978   3.384   2.554   2.886
 4700SOL    HW125979   3.451   2.487   2.896
 4700SOL    HW225980   3.359   2.576   2.976
 4701SOL     OW25981   3.327   1.954   0.556
 4701SOL    HW125982   3.289   1.899   0.487
 4701SOL    HW225983   3.346   2.037   0.513
 4702SOL     OW25984   2.593   0.052   6.390
 4702SOL    HW125985   2.585   0.048   6.485
 4702SOL    HW225986   2.525   0.113   6.362
 4703SOL     OW25987   0.768   0.772  21.069
 4703SOL    HW125988   0.855   0.764  21.030
 4703SOL    HW225989   0.708   0.744  21.000
 4704SOL     OW25990   3.285   4.678   2.194
 4704SOL    HW125991   3.367   4.631   2.184
 4704SOL    HW225992   3.293   4.724   2.277
 4705SOL     OW25993   4.255   1.922   3.089
 4705SOL    HW125994   4.171   1.945   3.049
 4705SOL    HW225995   4.284   2.003   3.132
 4706SOL     OW25996   4.238   1.677   7.847
 4706SOL    HW125997   4.219   1.583   7.840
 4706SOL    HW225998   4.275   1.701   7.762
 4707SOL     OW25999   2.232   2.177   5.884
 4707SOL    HW126000   2.219   2.151   5.975
 4707SOL    HW226001   2.287   2.255   5.889
 4708SOL     OW26002   4.762   0.299   1.472
 4708SOL    HW126003   4.681   0.348   1.489
 4708SOL    HW226004   4.780   0.254   1.554
 4709SOL     OW26005   3.324   1.383   5.824
 4709SOL    HW126006   3.321   1.295   5.787
 4709SOL    HW226007   3.338   1.440   5.748
 4710SOL     OW26008   1.368   0.395  13.193
 4710SOL    HW126009   1.423   0.460  13.150
 4710SOL    HW226010   1.300   0.446  13.236
 4711SOL     OW26011   4.030   3.406  17.039
 4711SOL    HW126012   3.938   3.378  17.037
 4711SOL    HW226013   4.026   3.498  17.068
 4712SOL     OW26014   3.999   2.726   0.374
 4712SOL    HW126015   4.066   2.679   0.423
 4712SOL    HW226016   3.954   2.780   0.439
 4713SOL     OW26017   1.741   3.430   0.580
 4713SOL    HW126018   1.682   3.425   0.505
 4713SOL    HW226019   1.829   3.429   0.543
 4714SOL     OW26020   1.179   1.139  15.852
 4714SOL    HW126021   1.256   1.083  15.863
 4714SOL    HW226022   1.111   1.079  15.819
 4715SOL     OW26023   0.093   0.305  20.545
 4715SOL    HW126024   0.106   0.267  20.459
 4715SOL    HW226025   0.071   0.231  20.602
 4716SOL     OW26026   3.095   4.774   7.198
 4716SOL    HW126027   3.145   4.736   7.270
 4716SOL    HW226028   3.148   4.757   7.121
 4717SOL     OW26029   2.696   2.800   8.126
 4717SOL    HW126030   2.611   2.777   8.087
 4717SOL    HW226031   2.717   2.726   8.183
 4718SOL     OW26032   2.059   0.355  18.856
 4718SOL    HW126033   2.050   0.280  18.914
 4718SOL    HW226034   2.050   0.319  18.768
 4719SOL     OW26035   1.940   2.896   5.142
 4719SOL    HW126036   1.882   2.841   5.194
 4719SOL    HW226037   1.946   2.851   5.057
 4720SOL     OW26038   4.414   3.858  16.863
 4720SOL    HW126039   4.505   3.866  16.833
 4720SOL    HW226040   4.412   3.907  16.945
 4721SOL     OW26041   3.626   0.778  18.514
 4721SOL    HW126042   3.677   0.729  18.448
 4721SOL    HW226043   3.543   0.731  18.519
 4722SOL     OW26044   0.748   1.111   1.508
 4722SOL    HW126045   0.681   1.168   1.470
 4722SOL    HW226046   0.800   1.169   1.564
 4723SOL     OW26047   0.240   3.284  14.952
 4723SOL    HW126048   0.159   3.323  14.917
 4723SOL    HW226049   0.305   3.354  14.945
 4724SOL     OW26050   0.271   2.253  14.357
 4724SOL    HW126051   0.197   2.201  14.324
 4724SOL    HW226052   0.323   2.190  14.407
 4725SOL     OW26053   0.864   1.754  15.853
 4725SOL    HW126054   0.773   1.725  15.845
 4725SOL    HW226055   0.895   1.715  15.935
 4726SOL     OW26056   2.952   2.386  18.484
 4726SOL    HW126057   2.870   2.374  18.436
 4726SOL    HW226058   2.925   2.409  18.573
 4727SOL     OW26059   0.278   4.226  20.085
 4727SOL    HW126060   0.201   4.283  20.090
 4727SOL    HW226061   0.271   4.170  20.162
 4728SOL     OW26062   3.505   4.019   4.500
 4728SOL    HW126063   3.503   3.934   4.456
 4728SOL    HW226064   3.594   4.027   4.533
 4729SOL     OW26065   4.318   2.280   0.366
 4729SOL    HW126066   4.413   2.276   0.375
 4729SOL    HW226067   4.286   2.288   0.456
 4730SOL     OW26068   4.540   1.053   7.313
 4730SOL    HW126069   4.450   1.083   7.327
 4730SOL    HW226070   4.594   1.111   7.368
 4731SOL     OW26071   1.730   0.543  17.293
 4731SOL    HW126072   1.705   0.632  17.269
 4731SOL    HW226073   1.817   0.552  17.332
 4732SOL     OW26074   1.240   2.456  21.175
 4732SOL    HW126075   1.286   2.400  21.113
 4732SOL    HW226076   1.161   2.406  21.198
 4733SOL     OW26077   2.765   0.726   0.218
 4733SOL    HW126078   2.840   0.696   0.270
 4733SOL    HW226079   2.765   0.668   0.142
 4734SOL     OW26080   1.968   2.822  19.130
 4734SOL    HW126081   1.932   2.874  19.201
 4734SOL    HW226082   1.988   2.737  19.170
 4735SOL     OW26083   1.647   2.139   6.968
 4735SOL    HW126084   1.632   2.055   7.010
 4735SOL    HW226085   1.561   2.166   6.936
 4736SOL     OW26086   3.587   0.189   7.792
 4736SOL    HW126087   3.556   0.203   7.702
 4736SOL    HW226088   3.667   0.243   7.798
 4737SOL     OW26089   3.356   4.339  19.506
 4737SOL    HW126090   3.267   4.356  19.473
 4737SOL    HW226091   3.342   4.300  19.592
 4738SOL     OW26092   4.413   1.049   2.606
 4738SOL    HW126093   4.439   1.047   2.699
 4738SOL    HW226094   4.460   0.975   2.567
 4739SOL     OW26095   0.737   2.601   0.554
 4739SOL    HW126096   0.683   2.680   0.557
 4739SOL    HW226097   0.811   2.626   0.498
 4740SOL     OW26098   4.579   3.629   3.140
 4740SOL    HW126099   4.565   3.548   3.189
 4740SOL    HW226100   4.557   3.698   3.202
 4741SOL     OW26101   0.083   3.793  16.028
 4741SOL    HW126102   0.167   3.789  15.981
 4741SOL    HW226103   0.093   3.732  16.101
 4742SOL     OW26104   4.165   3.445   2.570
 4742SOL    HW126105   4.140   3.464   2.480
 4742SOL    HW226106   4.245   3.394   2.562
 4743SOL     OW26107   3.078   2.865   5.527
 4743SOL    HW126108   3.137   2.940   5.534
 4743SOL    HW226109   2.994   2.897   5.560
 4744SOL     OW26110   2.264   3.346  20.804
 4744SOL    HW126111   2.175   3.378  20.818
 4744SOL    HW226112   2.318   3.397  20.864
 4745SOL     OW26113   4.704   4.083  17.176
 4745SOL    HW126114   4.644   4.107  17.105
 4745SOL    HW226115   4.738   4.166  17.209
 4746SOL     OW26116   1.224   0.778  16.974
 4746SOL    HW126117   1.296   0.762  17.035
 4746SOL    HW226118   1.190   0.864  16.998
 4747SOL     OW26119   1.210   4.623  20.055
 4747SOL    HW126120   1.225   4.705  20.101
 4747SOL    HW226121   1.296   4.579  20.057
 4748SOL     OW26122   2.218   3.165   2.663
 4748SOL    HW126123   2.265   3.117   2.595
 4748SOL    HW226124   2.177   3.098   2.717
 4749SOL     OW26125   2.455   3.684  16.069
 4749SOL    HW126126   2.514   3.722  16.004
 4749SOL    HW226127   2.407   3.617  16.021
 4750SOL     OW26128   3.975   0.258   4.077
 4750SOL    HW126129   4.054   0.231   4.031
 4750SOL    HW226130   3.923   0.179   4.086
 4751SOL     OW26131   4.559   4.454  20.451
 4751SOL    HW126132   4.588   4.363  20.448
 4751SOL    HW226133   4.593   4.493  20.370
 4752SOL     OW26134   1.303   4.339   6.254
 4752SOL    HW126135   1.331   4.259   6.209
 4752SOL    HW226136   1.228   4.313   6.307
 4753SOL     OW26137   1.311   0.911  15.795
 4753SOL    HW126138   1.350   0.885  15.711
 4753SOL    HW226139   1.379   0.893  15.860
 4754SOL     OW26140   4.136   4.178   3.023
 4754SOL    HW126141   4.224   4.182   2.985
 4754SOL    HW226142   4.149   4.193   3.117
 4755SOL     OW26143   4.196   0.707   1.641
 4755SOL    HW126144   4.165   0.623   1.608
 4755SOL    HW226145   4.285   0.689   1.672
 4756SOL     OW26146   3.657   0.379  15.591
 4756SOL    HW126147   3.676   0.321  15.518
 4756SOL    HW226148   3.716   0.453  15.579
 4757SOL     OW26149   3.215   0.566   4.425
 4757SOL    HW126150   3.162   0.545   4.502
 4757SOL    HW226151   3.173   0.517   4.354
 4758SOL     OW26152   0.110   0.755   4.480
 4758SOL    HW126153   0.036   0.709   4.439
 4758SOL    HW226154   0.081   0.846   4.486
 4759SOL     OW26155   1.698   2.159  17.309
 4759SOL    HW126156   1.762   2.230  17.316
 4759SOL    HW226157   1.667   2.164  17.218
 4760SOL     OW26158   3.085   0.244   8.766
 4760SOL    HW126159   3.180   0.238   8.765
 4760SOL    HW226160   3.058   0.209   8.681
 4761SOL     OW26161   1.104   1.393   8.554
 4761SOL    HW126162   1.075   1.480   8.528
 4761SOL    HW226163   1.042   1.333   8.511
 4762SOL     OW26164   4.096   3.367  11.164
 4762SOL    HW126165   4.078   3.278  11.132
 4762SOL    HW226166   4.017   3.389  11.215
 4763SOL     OW26167   3.669   0.515   9.945
 4763SOL    HW126168   3.587   0.482   9.981
 4763SOL    HW226169   3.710   0.563  10.017
 4764SOL     OW26170   3.746   1.013  11.465
 4764SOL    HW126171   3.795   0.934  11.486
 4764SOL    HW226172   3.814   1.079  11.446
 4765SOL     OW26173   4.252   0.429   8.187
 4765SOL    HW126174   4.234   0.463   8.100
 4765SOL    HW226175   4.348   0.429   8.194
 4766SOL     OW26176   4.488   0.278   8.774
 4766SOL    HW126177   4.554   0.213   8.797
 4766SOL    HW226178   4.458   0.252   8.687
 4767SOL     OW26179   3.611   2.722  10.224
 4767SOL    HW126180   3.590   2.636  10.186
 4767SOL    HW226181   3.565   2.722  10.308
 4768SOL     OW26182   4.228   0.633   9.416
 4768SOL    HW126183   4.172   0.661   9.488
 4768SOL    HW226184   4.206   0.693   9.344
 4769SOL     OW26185   4.316   0.327   9.836
 4769SOL    HW126186   4.404   0.312   9.871
 4769SOL    HW226187   4.329   0.349   9.744
 4770SOL     OW26188   3.106   1.453  11.458
 4770SOL    HW126189   3.156   1.417  11.532
 4770SOL    HW226190   3.134   1.402  11.382
 4771SOL     OW26191   3.927   1.544  10.618
 4771SOL    HW126192   4.006   1.491  10.625
 4771SOL    HW226193   3.956   1.626  10.578
 4772SOL     OW26194   0.022   0.760   8.429
 4772SOL    HW126195   4.765   0.728   8.508
 4772SOL    HW226196   0.095   0.700   8.416
 4773SOL     OW26197   3.540   1.002   9.346
 4773SOL    HW126198   3.601   0.975   9.277
 4773SOL    HW226199   3.538   1.097   9.341
 4774SOL     OW26200   3.239   4.384   8.937
 4774SOL    HW126201   3.153   4.346   8.921
 4774SOL    HW226202   3.221   4.468   8.978
 4775SOL     OW26203   3.573   2.188  10.119
 4775SOL    HW126204   3.528   2.151  10.195
 4775SOL    HW226205   3.591   2.279  10.143
 4776SOL     OW26206   0.650   4.270  12.896
 4776SOL    HW126207   0.657   4.362  12.869
 4776SOL    HW226208   0.739   4.246  12.923
 4777SOL     OW26209   2.942   0.782  12.289
 4777SOL    HW126210   2.899   0.780  12.204
 4777SOL    HW226211   2.937   0.874  12.316
 4778SOL     OW26212   0.084   0.625  11.118
 4778SOL    HW126213   0.054   0.676  11.193
 4778SOL    HW226214   0.143   0.559  11.156
 4779SOL     OW26215   2.794   1.874  12.267
 4779SOL    HW126216   2.885   1.886  12.291
 4779SOL    HW226217   2.758   1.963  12.260
 4780SOL     OW26218   4.391   1.476  12.441
 4780SOL    HW126219   4.436   1.561  12.445
 4780SOL    HW226220   4.349   1.467  12.527
 4781SOL     OW26221   3.621   2.506  10.037
 4781SOL    HW126222   3.538   2.495   9.990
 4781SOL    HW226223   3.686   2.519   9.968
 4782SOL     OW26224   3.230   0.921  13.738
 4782SOL    HW126225   3.236   0.902  13.832
 4782SOL    HW226226   3.161   0.987  13.731
 4783SOL     OW26227   3.349   2.147  11.029
 4783SOL    HW126228   3.359   2.226  11.083
 4783SOL    HW226229   3.407   2.162  10.954
 4784SOL     OW26230   0.795   1.297  10.956
 4784SOL    HW126231   0.841   1.380  10.968
 4784SOL    HW226232   0.776   1.293  10.862
 4785SOL     OW26233   3.695   0.528  11.890
 4785SOL    HW126234   3.726   0.507  11.978
 4785SOL    HW226235   3.765   0.581  11.852
 4786SOL     OW26236   3.592   1.166  12.209
 4786SOL    HW126237   3.544   1.248  12.225
 4786SOL    HW226238   3.534   1.115  12.152
 4787SOL     OW26239   4.024   1.011  11.582
 4787SOL    HW126240   4.011   1.052  11.496
 4787SOL    HW226241   4.047   1.083  11.640
 4788SOL     OW26242   3.662   3.321  12.248
 4788SOL    HW126243   3.638   3.303  12.157
 4788SOL    HW226244   3.667   3.416  12.252
 4789SOL     OW26245   0.140   0.278  11.349
 4789SOL    HW126246   0.053   0.240  11.362
 4789SOL    HW226247   0.164   0.312  11.435
 4790SOL     OW26248   3.250   0.678  12.601
 4790SOL    HW126249   3.286   0.766  12.614
 4790SOL    HW226250   3.157   0.686  12.621
 4791SOL     OW26251   2.920   0.513  10.489
 4791SOL    HW126252   2.897   0.499  10.580
 4791SOL    HW226253   2.870   0.447  10.441
 4792SOL     OW26254   2.212   2.387  11.532
 4792SOL    HW126255   2.295   2.406  11.575
 4792SOL    HW226256   2.195   2.464  11.477
 4793SOL     OW26257   3.311   2.257  11.353
 4793SOL    HW126258   3.314   2.162  11.360
 4793SOL    HW226259   3.341   2.289  11.438
 4794SOL     OW26260   3.563   0.100  11.026
 4794SOL    HW126261   3.657   0.101  11.013
 4794SOL    HW226262   3.530   0.036  10.962
 4795SOL     OW26263   2.622   2.837  13.272
 4795SOL    HW126264   2.608   2.903  13.341
 4795SOL    HW226265   2.627   2.754  13.320
 4796SOL     OW26266   0.749   2.244  16.039
 4796SOL    HW126267   0.677   2.183  16.024
 4796SOL    HW226268   0.828   2.193  16.025
 4797SOL     OW26269   1.454   0.264  15.901
 4797SOL    HW126270   1.363   0.245  15.920
 4797SOL    HW226271   1.466   0.237  15.810
 4798SOL     OW26272   2.129   3.505  20.258
 4798SOL    HW126273   2.204   3.447  20.268
 4798SOL    HW226274   2.083   3.500  20.342
 4799SOL     OW26275   3.057   0.440  13.741
 4799SOL    HW126276   3.011   0.520  13.713
 4799SOL    HW226277   3.010   0.412  13.819
 4800SOL     OW26278   4.494   0.091  17.538
 4800SOL    HW126279   4.587   0.098  17.516
 4800SOL    HW226280   4.472   0.176  17.576
 4801SOL     OW26281   0.382   0.579  15.780
 4801SOL    HW126282   0.295   0.548  15.806
 4801SOL    HW226283   0.392   0.662  15.826
 4802SOL     OW26284   1.080   1.936  14.217
 4802SOL    HW126285   1.069   1.841  14.213
 4802SOL    HW226286   1.039   1.962  14.300
 4803SOL     OW26287   2.306   0.531   1.146
 4803SOL    HW126288   2.381   0.490   1.103
 4803SOL    HW226289   2.318   0.625   1.129
 4804SOL     OW26290   1.839   2.587  19.617
 4804SOL    HW126291   1.823   2.597  19.523
 4804SOL    HW226292   1.780   2.650  19.658
 4805SOL     OW26293   1.977   4.675  20.379
 4805SOL    HW126294   1.938   4.761  20.390
 4805SOL    HW226295   2.024   4.681  20.295
 4806SOL     OW26296   2.697   3.938   4.079
 4806SOL    HW126297   2.700   4.013   4.139
 4806SOL    HW226298   2.787   3.927   4.050
 4807SOL     OW26299   2.606   1.395  18.991
 4807SOL    HW126300   2.602   1.360  18.902
 4807SOL    HW226301   2.590   1.489  18.981
 4808SOL     OW26302   1.122   1.939  12.216
 4808SOL    HW126303   1.045   1.901  12.174
 4808SOL    HW226304   1.196   1.902  12.168
 4809SOL     OW26305   4.588   0.345   6.363
 4809SOL    HW126306   4.657   0.361   6.299
 4809SOL    HW226307   4.528   0.285   6.320
 4810SOL     OW26308   1.568   3.849   2.986
 4810SOL    HW126309   1.639   3.838   2.923
 4810SOL    HW226310   1.544   3.760   3.011
 4811SOL     OW26311   0.341   2.898   1.337
 4811SOL    HW126312   0.276   2.946   1.387
 4811SOL    HW226313   0.368   2.958   1.268
 4812SOL     OW26314   1.249   0.328   0.174
 4812SOL    HW126315   1.238   0.402   0.115
 4812SOL    HW226316   1.322   0.278   0.137
 4813SOL     OW26317   0.637   0.951  19.801
 4813SOL    HW126318   0.553   0.924  19.837
 4813SOL    HW226319   0.620   0.962  19.707
 4814SOL     OW26320   3.860   1.501   2.796
 4814SOL    HW126321   3.817   1.423   2.760
 4814SOL    HW226322   3.789   1.550   2.837
 4815SOL     OW26323   2.119   2.595   2.050
 4815SOL    HW126324   2.115   2.643   2.133
 4815SOL    HW226325   2.202   2.548   2.053
 4816SOL     OW26326   3.952   1.935  15.920
 4816SOL    HW126327   3.939   2.012  15.976
 4816SOL    HW226328   3.940   1.968  15.831
 4817SOL     OW26329   3.954   4.460   4.548
 4817SOL    HW126330   3.986   4.377   4.582
 4817SOL    HW226331   3.976   4.524   4.616
 4818SOL     OW26332   3.636   1.247  14.908
 4818SOL    HW126333   3.726   1.273  14.928
 4818SOL    HW226334   3.599   1.220  14.991
 4819SOL     OW26335   1.898   2.042  16.191
 4819SOL    HW126336   1.922   2.119  16.140
 4819SOL    HW226337   1.978   1.990  16.195
 4820SOL     OW26338   3.814   2.826   7.873
 4820SOL    HW126339   3.725   2.795   7.883
 4820SOL    HW226340   3.831   2.823   7.779
 4821SOL     OW26341   2.759   3.189   3.653
 4821SOL    HW126342   2.724   3.183   3.742
 4821SOL    HW226343   2.681   3.191   3.597
 4822SOL     OW26344   1.205   4.265   1.110
 4822SOL    HW126345   1.152   4.345   1.120
 4822SOL    HW226346   1.142   4.194   1.117
 4823SOL     OW26347   3.311   1.793   0.314
 4823SOL    HW126348   3.366   1.857   0.269
 4823SOL    HW226349   3.334   1.710   0.273
 4824SOL     OW26350   4.130   1.746   5.496
 4824SOL    HW126351   4.058   1.769   5.555
 4824SOL    HW226352   4.202   1.722   5.554
 4825SOL     OW26353   4.314   0.049  11.586
 4825SOL    HW126354   4.221   0.032  11.569
 4825SOL    HW226355   4.337   0.117  11.522
 4826SOL     OW26356   4.765   3.597  20.008
 4826SOL    HW126357   4.685   3.649  20.002
 4826SOL    HW226358   0.048   3.661  20.023
 4827SOL     OW26359   4.249   0.495  18.764
 4827SOL    HW126360   4.153   0.499  18.754
 4827SOL    HW226361   4.275   0.587  18.773
 4828SOL     OW26362   0.568   3.956   4.878
 4828SOL    HW126363   0.650   3.930   4.836
 4828SOL    HW226364   0.500   3.931   4.815
 4829SOL     OW26365   3.600   4.734   1.877
 4829SOL    HW126366   3.551   4.771   1.802
 4829SOL    HW226367   3.692   4.750   1.855
 4830SOL     OW26368   2.387   2.199   0.855
 4830SOL    HW126369   2.425   2.264   0.796
 4830SOL    HW226370   2.347   2.135   0.797
 4831SOL     OW26371   2.734   2.753  12.874
 4831SOL    HW126372   2.766   2.833  12.914
 4831SOL    HW226373   2.660   2.727  12.930
 4832SOL     OW26374   4.152   2.140  20.619
 4832SOL    HW126375   4.197   2.098  20.547
 4832SOL    HW226376   4.059   2.137  20.594
 4833SOL     OW26377   1.810   0.635  18.077
 4833SOL    HW126378   1.859   0.554  18.095
 4833SOL    HW226379   1.718   0.608  18.082
 4834SOL     OW26380   2.324   1.684  16.158
 4834SOL    HW126381   2.229   1.676  16.158
 4834SOL    HW226382   2.355   1.608  16.109
 4835SOL     OW26383   2.221   3.174   4.544
 4835SOL    HW126384   2.286   3.185   4.613
 4835SOL    HW226385   2.202   3.080   4.544
 4836SOL     OW26386   0.852   1.067  20.171
 4836SOL    HW126387   0.774   1.015  20.191
 4836SOL    HW226388   0.855   1.068  20.075
 4837SOL     OW26389   1.059   4.646  18.050
 4837SOL    HW126390   0.963   4.655  18.047
 4837SOL    HW226391   1.086   4.653  17.959
 4838SOL     OW26392   0.442   0.124   3.450
 4838SOL    HW126393   0.371   0.066   3.423
 4838SOL    HW226394   0.511   0.066   3.480
 4839SOL     OW26395   1.958   4.664   3.002
 4839SOL    HW126396   1.989   4.625   3.084
 4839SOL    HW226397   1.929   4.589   2.950
 4840SOL     OW26398   4.342   3.326   0.655
 4840SOL    HW126399   4.346   3.372   0.571
 4840SOL    HW226400   4.412   3.262   0.651
 4841SOL     OW26401   2.818   0.671  21.203
 4841SOL    HW126402   2.775   0.599  21.156
 4841SOL    HW226403   2.773   0.750  21.173
 4842SOL     OW26404   1.505   3.374  15.868
 4842SOL    HW126405   1.592   3.412  15.879
 4842SOL    HW226406   1.448   3.429  15.922
 4843SOL     OW26407   1.152   2.066   2.473
 4843SOL    HW126408   1.155   2.139   2.412
 4843SOL    HW226409   1.179   2.104   2.557
 4844SOL     OW26410   1.433   3.518   2.138
 4844SOL    HW126411   1.386   3.543   2.059
 4844SOL    HW226412   1.514   3.569   2.135
 4845SOL     OW26413   0.116   1.601  20.078
 4845SOL    HW126414   0.097   1.530  20.140
 4845SOL    HW226415   0.204   1.582  20.046
 4846SOL     OW26416   4.407   4.779   4.051
 4846SOL    HW126417   4.431   4.721   3.979
 4846SOL    HW226418   4.344   4.728   4.103
 4847SOL     OW26419   1.194   0.784   0.007
 4847SOL    HW126420   1.211   0.815   0.096
 4847SOL    HW226421   1.151   0.858  21.208
 4848SOL     OW26422   0.385   1.574   5.309
 4848SOL    HW126423   0.315   1.509   5.313
 4848SOL    HW226424   0.428   1.567   5.394
 4849SOL     OW26425   2.594   4.768   7.329
 4849SOL    HW126426   2.526   0.004   7.267
 4849SOL    HW226427   2.571   0.030   7.408
 4850SOL     OW26428   2.562   3.881   8.214
 4850SOL    HW126429   2.506   3.836   8.152
 4850SOL    HW226430   2.502   3.930   8.270
 4851SOL     OW26431   3.820   3.412   2.516
 4851SOL    HW126432   3.901   3.455   2.486
 4851SOL    HW226433   3.823   3.421   2.611
 4852SOL     OW26434   0.178   1.474  15.565
 4852SOL    HW126435   0.156   1.384  15.543
 4852SOL    HW226436   0.116   1.527  15.515
 4853SOL     OW26437   2.760   4.023  15.368
 4853SOL    HW126438   2.748   4.111  15.404
 4853SOL    HW226439   2.795   4.038  15.280
 4854SOL     OW26440   3.380   3.477  19.444
 4854SOL    HW126441   3.411   3.484  19.534
 4854SOL    HW226442   3.289   3.506  19.447
 4855SOL     OW26443   0.488   2.946  19.246
 4855SOL    HW126444   0.412   2.977  19.297
 4855SOL    HW226445   0.452   2.926  19.160
 4856SOL     OW26446   0.184   0.543  19.817
 4856SOL    HW126447   0.095   0.521  19.844
 4856SOL    HW226448   0.183   0.638  19.805
 4857SOL     OW26449   1.956   1.696  20.746
 4857SOL    HW126450   1.915   1.627  20.798
 4857SOL    HW226451   1.942   1.669  20.655
 4858SOL     OW26452   0.158   0.253   6.122
 4858SOL    HW126453   0.182   0.255   6.030
 4858SOL    HW226454   0.194   0.171   6.155
 4859SOL     OW26455   3.423   0.391   2.415
 4859SOL    HW126456   3.353   0.405   2.480
 4859SOL    HW226457   3.407   0.456   2.348
 4860SOL     OW26458   4.241   2.604  15.561
 4860SOL    HW126459   4.150   2.616  15.532
 4860SOL    HW226460   4.272   2.529  15.510
 4861SOL     OW26461   1.337   3.215   0.273
 4861SOL    HW126462   1.359   3.175   0.357
 4861SOL    HW226463   1.410   3.194   0.216
 4862SOL     OW26464   3.664   4.411   6.081
 4862SOL    HW126465   3.569   4.416   6.070
 4862SOL    HW226466   3.694   4.501   6.070
 4863SOL     OW26467   2.336   1.485   2.219
 4863SOL    HW126468   2.298   1.554   2.164
 4863SOL    HW226469   2.341   1.524   2.306
 4864SOL     OW26470   0.922   0.969   3.029
 4864SOL    HW126471   0.915   0.961   2.934
 4864SOL    HW226472   0.926   1.063   3.046
 4865SOL     OW26473   1.054   3.777   1.093
 4865SOL    HW126474   0.997   3.700   1.101
 4865SOL    HW226475   1.072   3.802   1.183
 4866SOL     OW26476   0.249   1.284   4.948
 4866SOL    HW126477   0.250   1.265   4.855
 4866SOL    HW226478   0.336   1.259   4.980
 4867SOL     OW26479   2.561   3.520  17.980
 4867SOL    HW126480   2.495   3.539  17.913
 4867SOL    HW226481   2.515   3.533  18.063
 4868SOL     OW26482   2.076   3.755   2.689
 4868SOL    HW126483   2.152   3.744   2.746
 4868SOL    HW226484   2.062   3.668   2.651
 4869SOL     OW26485   4.477   1.504  19.185
 4869SOL    HW126486   4.529   1.552  19.249
 4869SOL    HW226487   4.429   1.572  19.138
 4870SOL     OW26488   0.337   0.298   4.651
 4870SOL    HW126489   0.348   0.302   4.746
 4870SOL    HW226490   0.316   0.388   4.625
 4871SOL     OW26491   1.599   1.470   1.953
 4871SOL    HW126492   1.573   1.557   1.924
 4871SOL    HW226493   1.647   1.433   1.879
 4872SOL     OW26494   4.445   1.219  20.932
 4872SOL    HW126495   4.481   1.142  20.887
 4872SOL    HW226496   4.516   1.250  20.988
 4873SOL     OW26497   1.151   0.428   3.780
 4873SOL    HW126498   1.095   0.363   3.824
 4873SOL    HW226499   1.114   0.435   3.692
 4874SOL     OW26500   4.124   0.398  14.400
 4874SOL    HW126501   4.100   0.385  14.308
 4874SOL    HW226502   4.176   0.479  14.400
 4875SOL     OW26503   0.461   1.857  16.828
 4875SOL    HW126504   0.471   1.921  16.758
 4875SOL    HW226505   0.513   1.781  16.800
 4876SOL     OW26506   2.863   4.533  15.687
 4876SOL    HW126507   2.892   4.497  15.771
 4876SOL    HW226508   2.782   4.485  15.667
 4877SOL     OW26509   0.504   2.688   6.913
 4877SOL    HW126510   0.430   2.638   6.948
 4877SOL    HW226511   0.464   2.768   6.879
 4878SOL     OW26512   1.841   4.157   8.735
 4878SOL    HW126513   1.792   4.087   8.779
 4878SOL    HW226514   1.932   4.127   8.739
 4879SOL     OW26515   2.641   4.306  13.682
 4879SOL    HW126516   2.693   4.225  13.678
 4879SOL    HW226517   2.558   4.284  13.640
 4880SOL     OW26518   1.485   3.819  16.038
 4880SOL    HW126519   1.428   3.897  16.043
 4880SOL    HW226520   1.539   3.825  16.117
 4881SOL     OW26521   0.487   2.273  20.816
 4881SOL    HW126522   0.402   2.245  20.781
 4881SOL    HW226523   0.466   2.313  20.900
 4882SOL     OW26524   1.875   2.568  21.153
 4882SOL    HW126525   1.870   2.531  21.065
 4882SOL    HW226526   1.784   2.572  21.183
 4883SOL     OW26527   2.455   3.140   1.270
 4883SOL    HW126528   2.380   3.153   1.212
 4883SOL    HW226529   2.531   3.161   1.216
 4884SOL     OW26530   4.266   0.883   5.244
 4884SOL    HW126531   4.328   0.945   5.282
 4884SOL    HW226532   4.184   0.931   5.239
 4885SOL     OW26533   2.709   2.251   5.687
 4885SOL    HW126534   2.703   2.291   5.774
 4885SOL    HW226535   2.777   2.184   5.696
 4886SOL     OW26536   4.097   2.409  17.893
 4886SOL    HW126537   4.023   2.393  17.834
 4886SOL    HW226538   4.061   2.465  17.962
 4887SOL     OW26539   2.379   2.169   6.552
 4887SOL    HW126540   2.352   2.144   6.464
 4887SOL    HW226541   2.306   2.221   6.586
 4888SOL     OW26542   0.137   0.806   5.553
 4888SOL    HW126543   0.189   0.740   5.599
 4888SOL    HW226544   0.151   0.788   5.460
 4889SOL     OW26545   1.524   4.536  17.611
 4889SOL    HW126546   1.450   4.555  17.553
 4889SOL    HW226547   1.568   4.621  17.623
 4890SOL     OW26548   3.459   1.285  20.545
 4890SOL    HW126549   3.499   1.229  20.479
 4890SOL    HW226550   3.425   1.360  20.495
 4891SOL     OW26551   2.939   1.149   5.270
 4891SOL    HW126552   2.966   1.137   5.179
 4891SOL    HW226553   2.922   1.242   5.278
 4892SOL     OW26554   2.098   4.040  16.584
 4892SOL    HW126555   2.051   4.080  16.657
 4892SOL    HW226556   2.051   3.958  16.568
 4893SOL     OW26557   3.713   0.031   2.173
 4893SOL    HW126558   3.643   4.787   2.115
 4893SOL    HW226559   3.716   4.753   2.244
 4894SOL     OW26560   4.627   4.589  16.996
 4894SOL    HW126561   4.643   4.498  17.020
 4894SOL    HW226562   4.532   4.600  17.007
 4895SOL     OW26563   2.498   2.188  21.132
 4895SOL    HW126564   2.529   2.198  21.222
 4895SOL    HW226565   2.425   2.127  21.138
 4896SOL     OW26566   0.299   1.726  15.038
 4896SOL    HW126567   0.216   1.678  15.034
 4896SOL    HW226568   0.273   1.817  15.049
 4897SOL     OW26569   2.057   2.345  20.344
 4897SOL    HW126570   1.979   2.332  20.398
 4897SOL    HW226571   2.131   2.327  20.402
 4898SOL     OW26572   4.056   1.877  17.572
 4898SOL    HW126573   4.139   1.835  17.551
 4898SOL    HW226574   4.079   1.948  17.631
 4899SOL     OW26575   2.100   0.632  17.848
 4899SOL    HW126576   2.014   0.666  17.873
 4899SOL    HW226577   2.163   0.688  17.895
 4900SOL     OW26578   1.915   2.292  18.653
 4900SOL    HW126579   1.847   2.281  18.587
 4900SOL    HW226580   1.947   2.204  18.671
 4901SOL     OW26581   0.690   3.501  15.497
 4901SOL    HW126582   0.634   3.563  15.452
 4901SOL    HW226583   0.668   3.511  15.590
 4902SOL     OW26584   2.684   0.541   5.268
 4902SOL    HW126585   2.717   0.473   5.209
 4902SOL    HW226586   2.626   0.594   5.213
 4903SOL     OW26587   1.007   2.348  17.252
 4903SOL    HW126588   1.060   2.390  17.319
 4903SOL    HW226589   1.029   2.255  17.258
 4904SOL     OW26590   4.190   2.654   0.738
 4904SOL    HW126591   4.224   2.578   0.786
 4904SOL    HW226592   4.156   2.712   0.806
 4905SOL     OW26593   0.203   3.539  20.312
 4905SOL    HW126594   0.108   3.529  20.315
 4905SOL    HW226595   0.233   3.471  20.252
 4906SOL     OW26596   1.967   1.553   4.071
 4906SOL    HW126597   2.054   1.590   4.058
 4906SOL    HW226598   1.976   1.496   4.147
 4907SOL     OW26599   4.463   1.378  19.910
 4907SOL    HW126600   4.457   1.430  19.990
 4907SOL    HW226601   4.416   1.429  19.844
 4908SOL     OW26602   1.436   3.525  20.192
 4908SOL    HW126603   1.450   3.618  20.211
 4908SOL    HW226604   1.515   3.483  20.226
 4909SOL     OW26605   3.651   2.331   4.490
 4909SOL    HW126606   3.662   2.249   4.538
 4909SOL    HW226607   3.741   2.358   4.469
 4910SOL     OW26608   0.646   4.501  13.539
 4910SOL    HW126609   0.602   4.532  13.459
 4910SOL    HW226610   0.591   4.429  13.570
 4911SOL     OW26611   2.396   0.878  19.557
 4911SOL    HW126612   2.380   0.783  19.556
 4911SOL    HW226613   2.370   0.905  19.645
 4912SOL     OW26614   2.451   0.639   0.023
 4912SOL    HW126615   2.365   0.625  21.228
 4912SOL    HW226616   2.495   0.554   0.014
 4913SOL     OW26617   1.016   1.958  20.187
 4913SOL    HW126618   0.934   1.917  20.213
 4913SOL    HW226619   1.061   1.891  20.136
 4914SOL     OW26620   1.563   3.941  21.133
 4914SOL    HW126621   1.521   3.948  21.219
 4914SOL    HW226622   1.633   4.007  21.135
 4915SOL     OW26623   3.458   0.179   5.215
 4915SOL    HW126624   3.379   0.154   5.263
 4915SOL    HW226625   3.435   0.264   5.175
 4916SOL     OW26626   3.797   1.496   6.968
 4916SOL    HW126627   3.709   1.499   7.007
 4916SOL    HW226628   3.856   1.484   7.042
 4917SOL     OW26629   0.828   2.781  18.020
 4917SOL    HW126630   0.838   2.781  18.115
 4917SOL    HW226631   0.810   2.872  17.997
 4918SOL     OW26632   2.822   3.623  17.377
 4918SOL    HW126633   2.910   3.601  17.346
 4918SOL    HW226634   2.782   3.538  17.396
 4919SOL     OW26635   0.889   0.488  13.975
 4919SOL    HW126636   0.956   0.556  13.971
 4919SOL    HW226637   0.919   0.421  13.914
 4920SOL     OW26638   2.853   1.656   3.572
 4920SOL    HW126639   2.854   1.710   3.493
 4920SOL    HW226640   2.930   1.684   3.621
 4921SOL     OW26641   4.204   1.679   5.925
 4921SOL    HW126642   4.146   1.754   5.921
 4921SOL    HW226643   4.240   1.681   6.014
 4922SOL     OW26644   4.223   2.227  19.350
 4922SOL    HW126645   4.281   2.193  19.282
 4922SOL    HW226646   4.208   2.318  19.325
 4923SOL     OW26647   2.909   1.020  17.780
 4923SOL    HW126648   2.922   0.935  17.738
 4923SOL    HW226649   2.945   1.083  17.718
 4924SOL     OW26650   2.847   3.022  19.737
 4924SOL    HW126651   2.810   2.974  19.663
 4924SOL    HW226652   2.798   2.990  19.813
 4925SOL     OW26653   1.335   2.055  15.886
 4925SOL    HW126654   1.388   2.057  15.806
 4925SOL    HW226655   1.308   1.963  15.894
 4926SOL     OW26656   4.119   0.810  19.793
 4926SOL    HW126657   4.099   0.862  19.870
 4926SOL    HW226658   4.050   0.743  19.790
 4927SOL     OW26659   4.263   0.731  19.252
 4927SOL    HW126660   4.194   0.665  19.264
 4927SOL    HW226661   4.268   0.775  19.337
 4928SOL     OW26662   1.662   3.535  16.946
 4928SOL    HW126663   1.697   3.580  17.023
 4928SOL    HW226664   1.577   3.501  16.974
 4929SOL     OW26665   4.451   0.314  18.638
 4929SOL    HW126666   4.401   0.321  18.719
 4929SOL    HW226667   4.435   0.398  18.594
 4930SOL     OW26668   1.569   4.157   4.102
 4930SOL    HW126669   1.561   4.141   4.196
 4930SOL    HW226670   1.482   4.137   4.067
 4931SOL     OW26671   2.010   2.869   0.171
 4931SOL    HW126672   1.943   2.878   0.103
 4931SOL    HW226673   1.974   2.806   0.232
 4932SOL     OW26674   3.900   2.185   1.131
 4932SOL    HW126675   3.931   2.145   1.212
 4932SOL    HW226676   3.961   2.154   1.064
 4933SOL     OW26677   0.388   2.020  14.480
 4933SOL    HW126678   0.433   1.955  14.426
 4933SOL    HW226679   0.411   1.997  14.570
 4934SOL     OW26680   4.476   0.013   0.094
 4934SOL    HW126681   4.465   4.749   0.013
 4934SOL    HW226682   4.548   0.074   0.075
 4935SOL     OW26683   4.498   0.685   3.233
 4935SOL    HW126684   4.574   0.728   3.194
 4935SOL    HW226685   4.472   0.619   3.169
 4936SOL     OW26686   0.656   1.975   2.436
 4936SOL    HW126687   0.568   1.964   2.401
 4936SOL    HW226688   0.714   1.971   2.360
 4937SOL     OW26689   2.562   0.645   5.961
 4937SOL    HW126690   2.574   0.737   5.984
 4937SOL    HW226691   2.605   0.597   6.031
 4938SOL     OW26692   4.364   1.755  21.098
 4938SOL    HW126693   4.282   1.804  21.091
 4938SOL    HW226694   4.341   1.665  21.073
 4939SOL     OW26695   4.534   1.817   6.670
 4939SOL    HW126696   4.570   1.824   6.758
 4939SOL    HW226697   4.443   1.790   6.684
 4940SOL     OW26698   4.588   0.209   5.257
 4940SOL    HW126699   4.560   0.122   5.286
 4940SOL    HW226700   4.589   0.262   5.337
 4941SOL     OW26701   4.416   1.001  17.344
 4941SOL    HW126702   4.357   0.965  17.411
 4941SOL    HW226703   4.483   0.933  17.334
 4942SOL     OW26704   3.837   0.327   7.736
 4942SOL    HW126705   3.876   0.250   7.695
 4942SOL    HW226706   3.854   0.398   7.674
 4943SOL     OW26707   3.608   3.884  17.155
 4943SOL    HW126708   3.569   3.951  17.211
 4943SOL    HW226709   3.535   3.851  17.102
 4944SOL     OW26710   2.054   4.494   3.224
 4944SOL    HW126711   2.139   4.515   3.264
 4944SOL    HW226712   2.064   4.404   3.191
 4945SOL     OW26713   2.395   0.355  19.464
 4945SOL    HW126714   2.352   0.439  19.477
 4945SOL    HW226715   2.485   0.377  19.439
 4946SOL     OW26716   2.342   2.601  20.226
 4946SOL    HW126717   2.427   2.560  20.209
 4946SOL    HW226718   2.311   2.628  20.140
 4947SOL     OW26719   0.391   1.021   3.005
 4947SOL    HW126720   0.375   0.986   2.917
 4947SOL    HW226721   0.470   0.976   3.035
 4948SOL     OW26722   3.442   3.032   4.923
 4948SOL    HW126723   3.386   3.013   4.998
 4948SOL    HW226724   3.448   3.127   4.921
 4949SOL     OW26725   4.525   3.016   1.807
 4949SOL    HW126726   4.503   3.109   1.820
 4949SOL    HW226727   4.596   2.999   1.868
 4950SOL     OW26728   2.017   1.434  15.692
 4950SOL    HW126729   2.004   1.521  15.652
 4950SOL    HW226730   1.949   1.379  15.653
 4951SOL     OW26731   1.571   0.753   7.800
 4951SOL    HW126732   1.479   0.735   7.781
 4951SOL    HW226733   1.616   0.733   7.719
 4952SOL     OW26734   1.699   0.809   3.516
 4952SOL    HW126735   1.744   0.839   3.437
 4952SOL    HW226736   1.686   0.888   3.567
 4953SOL     OW26737   4.334   4.378   2.822
 4953SOL    HW126738   4.400   4.427   2.772
 4953SOL    HW226739   4.375   4.294   2.841
 4954SOL     OW26740   0.231   1.588  16.734
 4954SOL    HW126741   0.176   1.628  16.667
 4954SOL    HW226742   0.303   1.651  16.747
 4955SOL     OW26743   4.132   4.092  19.966
 4955SOL    HW126744   4.198   4.038  20.011
 4955SOL    HW226745   4.183   4.155  19.916
 4956SOL     OW26746   4.286   4.360   5.483
 4956SOL    HW126747   4.194   4.370   5.509
 4956SOL    HW226748   4.283   4.294   5.413
 4957SOL     OW26749   4.513   2.225  18.188
 4957SOL    HW126750   4.438   2.285  18.194
 4957SOL    HW226751   4.585   2.280  18.159
 4958SOL     OW26752   2.090   4.138  18.481
 4958SOL    HW126753   2.087   4.208  18.417
 4958SOL    HW226754   2.107   4.182  18.565
 4959SOL     OW26755   2.535   1.621   0.268
 4959SOL    HW126756   2.464   1.556   0.267
 4959SOL    HW226757   2.527   1.664   0.353
 4960SOL     OW26758   4.090   0.134  21.116
 4960SOL    HW126759   4.166   0.191  21.110
 4960SOL    HW226760   4.060   0.143  21.206
 4961SOL     OW26761   2.542   1.612   4.751
 4961SOL    HW126762   2.518   1.578   4.664
 4961SOL    HW226763   2.606   1.681   4.733
 4962SOL     OW26764   4.568   0.390   8.460
 4962SOL    HW126765   4.515   0.310   8.460
 4962SOL    HW226766   4.656   0.361   8.435
 4963SOL     OW26767   1.170   4.248   5.346
 4963SOL    HW126768   1.256   4.261   5.386
 4963SOL    HW226769   1.123   4.192   5.407
 4964SOL     OW26770   2.177   1.397  19.270
 4964SOL    HW126771   2.166   1.473  19.212
 4964SOL    HW226772   2.270   1.397  19.293
 4965SOL     OW26773   2.220   3.988   2.733
 4965SOL    HW126774   2.148   3.936   2.697
 4965SOL    HW226775   2.246   4.046   2.661
 4966SOL     OW26776   2.654   2.856   3.590
 4966SOL    HW126777   2.560   2.844   3.572
 4966SOL    HW226778   2.681   2.775   3.632
 4967SOL     OW26779   3.254   2.636   6.494
 4967SOL    HW126780   3.294   2.567   6.547
 4967SOL    HW226781   3.183   2.592   6.448
 4968SOL     OW26782   3.263   4.137   4.532
 4968SOL    HW126783   3.290   4.223   4.500
 4968SOL    HW226784   3.339   4.081   4.516
 4969SOL     OW26785   1.135   2.308   5.508
 4969SOL    HW126786   1.230   2.300   5.497
 4969SOL    HW226787   1.105   2.220   5.528
 4970SOL     OW26788   3.614   1.793  15.184
 4970SOL    HW126789   3.551   1.865  15.182
 4970SOL    HW226790   3.670   1.812  15.259
 4971SOL     OW26791   3.793   4.308  16.451
 4971SOL    HW126792   3.770   4.339  16.364
 4971SOL    HW226793   3.818   4.387  16.499
 4972SOL     OW26794   3.340   2.573  14.878
 4972SOL    HW126795   3.317   2.505  14.815
 4972SOL    HW226796   3.310   2.654  14.837
 4973SOL     OW26797   0.125   3.243  20.172
 4973SOL    HW126798   0.204   3.270  20.124
 4973SOL    HW226799   0.058   3.304  20.141
 4974SOL     OW26800   2.970   4.034   2.037
 4974SOL    HW126801   2.908   3.964   2.057
 4974SOL    HW226802   2.999   4.015   1.948
 4975SOL     OW26803   2.071   0.051  13.756
 4975SOL    HW126804   2.147   0.002  13.786
 4975SOL    HW226805   2.014   0.057  13.833
 4976SOL     OW26806   0.951   0.891  13.793
 4976SOL    HW126807   0.935   0.912  13.885
 4976SOL    HW226808   0.953   0.976  13.749
 4977SOL     OW26809   0.090   3.880   1.356
 4977SOL    HW126810   0.124   3.969   1.366
 4977SOL    HW226811   0.157   3.824   1.395
 4978SOL     OW26812   3.379   2.193   0.454
 4978SOL    HW126813   3.364   2.210   0.547
 4978SOL    HW226814   3.319   2.251   0.408
 4979SOL     OW26815   1.853   1.375   3.236
 4979SOL    HW126816   1.933   1.380   3.289
 4979SOL    HW226817   1.858   1.451   3.179
 4980SOL     OW26818   1.435   1.684   6.071
 4980SOL    HW126819   1.446   1.589   6.072
 4980SOL    HW226820   1.355   1.700   6.121
 4981SOL     OW26821   0.837   4.701  16.108
 4981SOL    HW126822   0.790   4.757  16.046
 4981SOL    HW226823   0.828   4.745  16.192
 4982SOL     OW26824   3.558   0.771  15.875
 4982SOL    HW126825   3.510   0.738  15.951
 4982SOL    HW226826   3.561   0.698  15.814
 4983SOL     OW26827   1.759   4.528   0.747
 4983SOL    HW126828   1.854   4.539   0.758
 4983SOL    HW226829   1.722   4.609   0.782
 4984SOL     OW26830   2.890   0.918   1.821
 4984SOL    HW126831   2.943   0.840   1.805
 4984SOL    HW226832   2.811   0.884   1.864
 4985SOL     OW26833   1.709   0.789   1.749
 4985SOL    HW126834   1.658   0.826   1.677
 4985SOL    HW226835   1.774   0.732   1.707
 4986SOL     OW26836   3.192   1.305   6.658
 4986SOL    HW126837   3.287   1.291   6.662
 4986SOL    HW226838   3.170   1.344   6.743
 4987SOL     OW26839   4.423   0.489   2.660
 4987SOL    HW126840   4.473   0.557   2.705
 4987SOL    HW226841   4.479   0.463   2.586
 4988SOL     OW26842   0.602   0.216  15.370
 4988SOL    HW126843   0.658   0.284  15.332
 4988SOL    HW226844   0.664   0.151  15.403
 4989SOL     OW26845   0.864   1.251   0.088
 4989SOL    HW126846   0.902   1.325   0.040
 4989SOL    HW226847   0.905   1.174   0.049
 4990SOL     OW26848   4.447   0.490  13.770
 4990SOL    HW126849   4.501   0.412  13.785
 4990SOL    HW226850   4.490   0.559  13.819
 4991SOL     OW26851   3.447   2.161  16.048
 4991SOL    HW126852   3.405   2.166  16.134
 4991SOL    HW226853   3.469   2.251  16.026
 4992SOL     OW26854   2.464   3.087  17.352
 4992SOL    HW126855   2.495   3.068  17.263
 4992SOL    HW226856   2.543   3.114  17.399
 4993SOL     OW26857   3.328   2.547   5.995
 4993SOL    HW126858   3.380   2.491   5.937
 4993SOL    HW226859   3.249   2.567   5.945
 4994SOL     OW26860   1.397   4.230   2.297
 4994SOL    HW126861   1.473   4.274   2.259
 4994SOL    HW226862   1.433   4.178   2.369
 4995SOL     OW26863   1.170   1.003  16.757
 4995SOL    HW126864   1.163   0.916  16.718
 4995SOL    HW226865   1.212   1.056  16.690
 4996SOL     OW26866   2.960   2.016   8.147
 4996SOL    HW126867   3.013   2.022   8.227
 4996SOL    HW226868   3.018   2.046   8.077
 4997SOL     OW26869   4.724   4.217   4.747
 4997SOL    HW126870   4.675   4.228   4.665
 4997SOL    HW226871   0.029   4.211   4.719
 4998SOL     OW26872   3.512   0.220  18.460
 4998SOL    HW126873   3.479   0.197  18.547
 4998SOL    HW226874   3.545   0.138  18.425
 4999SOL     OW26875   3.548   2.212   7.774
 4999SOL    HW126876   3.563   2.130   7.727
 4999SOL    HW226877   3.524   2.184   7.863
 5000SOL     OW26878   0.461   3.827   5.128
 5000SOL    HW126879   0.497   3.829   5.040
 5000SOL    HW226880   0.421   3.913   5.140
 5001SOL     OW26881   2.500   1.415  20.172
 5001SOL    HW126882   2.432   1.473  20.208
 5001SOL    HW226883   2.562   1.475  20.129
 5002SOL     OW26884   1.679   3.011   1.409
 5002SOL    HW126885   1.706   2.938   1.465
 5002SOL    HW226886   1.609   2.975   1.354
 5003SOL     OW26887   2.506   1.356   6.132
 5003SOL    HW126888   2.479   1.441   6.097
 5003SOL    HW226889   2.427   1.302   6.127
 5004SOL     OW26890   1.235   0.978  15.490
 5004SOL    HW126891   1.247   0.910  15.424
 5004SOL    HW226892   1.307   1.039  15.474
 5005SOL     OW26893   0.455   3.922  20.557
 5005SOL    HW126894   0.413   4.008  20.563
 5005SOL    HW226895   0.414   3.881  20.480
 5006SOL     OW26896   3.565   3.238  19.665
 5006SOL    HW126897   3.631   3.306  19.653
 5006SOL    HW226898   3.601   3.184  19.736
 5007SOL     OW26899   0.705   4.666  16.874
 5007SOL    HW126900   0.721   4.761  16.871
 5007SOL    HW226901   0.766   4.630  16.810
 5008SOL     OW26902   3.247   1.878   3.265
 5008SOL    HW126903   3.245   1.883   3.169
 5008SOL    HW226904   3.213   1.791   3.285
 5009SOL     OW26905   2.845   1.203   1.908
 5009SOL    HW126906   2.837   1.143   1.833
 5009SOL    HW226907   2.919   1.170   1.958
 5010SOL     OW26908   2.082   2.566  14.606
 5010SOL    HW126909   2.073   2.661  14.597
 5010SOL    HW226910   2.177   2.551  14.609
 5011SOL     OW26911   1.953   3.039  16.775
 5011SOL    HW126912   2.029   3.030  16.832
 5011SOL    HW226913   1.889   2.978  16.810
 5012SOL     OW26914   3.026   3.239   2.398
 5012SOL    HW126915   3.088   3.173   2.367
 5012SOL    HW226916   3.080   3.313   2.424
 5013SOL     OW26917   3.121   1.594   2.903
 5013SOL    HW126918   3.169   1.558   2.829
 5013SOL    HW226919   3.160   1.680   2.917
 5014SOL     OW26920   3.283   0.513  20.099
 5014SOL    HW126921   3.234   0.443  20.057
 5014SOL    HW226922   3.364   0.473  20.128
 5015SOL     OW26923   2.149   1.613   0.894
 5015SOL    HW126924   2.153   1.525   0.931
 5015SOL    HW226925   2.062   1.619   0.855
 5016SOL     OW26926   4.144   0.481   4.946
 5016SOL    HW126927   4.052   0.491   4.923
 5016SOL    HW226928   4.190   0.477   4.862
 5017SOL     OW26929   0.452   3.125  21.171
 5017SOL    HW126930   0.539   3.156  21.144
 5017SOL    HW226931   0.441   3.042  21.125
 5018SOL     OW26932   0.931   2.023   5.266
 5018SOL    HW126933   0.997   2.061   5.208
 5018SOL    HW226934   0.911   2.093   5.328
 5019SOL     OW26935   2.296   2.939  15.207
 5019SOL    HW126936   2.304   3.008  15.273
 5019SOL    HW226937   2.221   2.887  15.236
 5020SOL     OW26938   3.708   4.054  16.568
 5020SOL    HW126939   3.744   4.140  16.548
 5020SOL    HW226940   3.706   4.051  16.664
 5021SOL     OW26941   0.350   4.173   2.020
 5021SOL    HW126942   0.258   4.186   2.001
 5021SOL    HW226943   0.354   4.090   2.067
 5022SOL     OW26944   0.079   0.879   1.861
 5022SOL    HW126945   0.097   0.973   1.863
 5022SOL    HW226946   0.129   0.844   1.934
 5023SOL     OW26947   4.622   3.686  18.205
 5023SOL    HW126948   4.697   3.711  18.151
 5023SOL    HW226949   4.660   3.653  18.286
 5024SOL     OW26950   2.864   0.867   3.886
 5024SOL    HW126951   2.844   0.795   3.947
 5024SOL    HW226952   2.954   0.891   3.907
 5025SOL     OW26953   2.791   3.457  18.388
 5025SOL    HW126954   2.751   3.543  18.402
 5025SOL    HW226955   2.861   3.452  18.453
 5026SOL     OW26956   0.676   1.800  19.036
 5026SOL    HW126957   0.612   1.767  19.099
 5026SOL    HW226958   0.691   1.726  18.977
 5027SOL     OW26959   0.272   4.054  18.347
 5027SOL    HW126960   0.334   3.982  18.335
 5027SOL    HW226961   0.286   4.082  18.437
 5028SOL     OW26962   0.491   2.271  20.334
 5028SOL    HW126963   0.467   2.267  20.241
 5028SOL    HW226964   0.412   2.243  20.380
 5029SOL     OW26965   2.216   0.962  13.938
 5029SOL    HW126966   2.180   0.911  13.866
 5029SOL    HW226967   2.293   0.913  13.967
 5030SOL     OW26968   2.782   3.380  20.185
 5030SOL    HW126969   2.697   3.345  20.159
 5030SOL    HW226970   2.763   3.433  20.263
 5031SOL     OW26971   3.852   4.708   6.177
 5031SOL    HW126972   3.911   4.730   6.105
 5031SOL    HW226973   3.764   4.717   6.139
 5032SOL     OW26974   1.422   4.045  18.275
 5032SOL    HW126975   1.499   4.026  18.327
 5032SOL    HW226976   1.349   4.037  18.336
 5033SOL     OW26977   3.249   0.917   2.250
 5033SOL    HW126978   3.185   0.965   2.302
 5033SOL    HW226979   3.197   0.862   2.192
 5034SOL     OW26980   1.203   0.226   0.417
 5034SOL    HW126981   1.115   0.224   0.378
 5034SOL    HW226982   1.253   0.284   0.361
 5035SOL     OW26983   1.001   1.197  18.769
 5035SOL    HW126984   0.957   1.261  18.825
 5035SOL    HW226985   1.094   1.212  18.783
 5036SOL     OW26986   0.496   4.255  13.487
 5036SOL    HW126987   0.413   4.256  13.535
 5036SOL    HW226988   0.476   4.208  13.406
 5037SOL     OW26989   2.995   3.485   6.188
 5037SOL    HW126990   2.909   3.448   6.208
 5037SOL    HW226991   3.035   3.422   6.129
 5038SOL     OW26992   1.301   0.980   5.189
 5038SOL    HW126993   1.358   0.930   5.246
 5038SOL    HW226994   1.251   1.037   5.248
 5039SOL     OW26995   2.779   3.072  14.803
 5039SOL    HW126996   2.714   3.085  14.873
 5039SOL    HW226997   2.732   3.024  14.735
 5040SOL     OW26998   2.930   3.698  20.866
 5040SOL    HW126999   2.967   3.686  20.953
 5040SOL    HW227000   3.006   3.720  20.811
 5041SOL     OW27001   0.261   4.644  20.608
 5041SOL    HW127002   0.276   4.713  20.543
 5041SOL    HW227003   0.340   4.643  20.661
 5042SOL     OW27004   0.450   4.158   6.118
 5042SOL    HW127005   0.487   4.225   6.175
 5042SOL    HW227006   0.492   4.173   6.033
 5043SOL     OW27007   4.337   4.609  18.749
 5043SOL    HW127008   4.254   4.576  18.784
 5043SOL    HW227009   4.383   4.644  18.826
 5044SOL     OW27010   0.458   0.402   6.047
 5044SOL    HW127011   0.423   0.370   6.130
 5044SOL    HW227012   0.427   0.338   5.982
 5045SOL     OW27013   0.008   0.827   1.004
 5045SOL    HW127014   4.711   0.872   1.004
 5045SOL    HW227015   0.072   0.895   0.983
 5046SOL     OW27016   1.487   2.956   5.775
 5046SOL    HW127017   1.535   2.928   5.853
 5046SOL    HW227018   1.410   3.001   5.810
 5047SOL     OW27019   4.644   3.409   7.812
 5047SOL    HW127020   4.655   3.320   7.844
 5047SOL    HW227021   4.678   3.464   7.882
 5048SOL     OW27022   3.079   1.463   0.269
 5048SOL    HW127023   3.006   1.404   0.286
 5048SOL    HW227024   3.154   1.421   0.312
 5049SOL     OW27025   1.856   2.868   3.520
 5049SOL    HW127026   1.767   2.894   3.541
 5049SOL    HW227027   1.911   2.911   3.586
 5050SOL     OW27028   0.218   4.153  14.870
 5050SOL    HW127029   0.213   4.059  14.854
 5050SOL    HW227030   0.306   4.166  14.906
 5051SOL     OW27031   3.279   0.982  14.355
 5051SOL    HW127032   3.372   0.981  14.335
 5051SOL    HW227033   3.248   1.066  14.319
 5052SOL     OW27034   2.057   0.204   8.967
 5052SOL    HW127035   1.992   0.161   9.022
 5052SOL    HW227036   2.141   0.171   8.999
 5053SOL     OW27037   3.103   3.894  12.130
 5053SOL    HW127038   3.191   3.862  12.113
 5053SOL    HW227039   3.083   3.951  12.056
 5054SOL     OW27040   1.804   1.149   0.898
 5054SOL    HW127041   1.735   1.179   0.839
 5054SOL    HW227042   1.819   1.223   0.957
 5055SOL     OW27043   2.792   1.770  13.607
 5055SOL    HW127044   2.838   1.795  13.527
 5055SOL    HW227045   2.804   1.675  13.613
 5056SOL     OW27046   0.064   3.408  17.449
 5056SOL    HW127047   0.120   3.379  17.377
 5056SOL    HW227048   4.781   3.457  17.406
 5057SOL     OW27049   2.070   0.914   5.054
 5057SOL    HW127050   2.162   0.939   5.062
 5057SOL    HW227051   2.022   0.996   5.068
 5058SOL     OW27052   2.531   3.296  20.054
 5058SOL    HW127053   2.514   3.389  20.039
 5058SOL    HW227054   2.557   3.263  19.968
 5059SOL     OW27055   2.907   1.173  18.939
 5059SOL    HW127056   2.911   1.194  19.032
 5059SOL    HW227057   2.900   1.258  18.895
 5060SOL     OW27058   3.258   2.239  15.795
 5060SOL    HW127059   3.234   2.239  15.888
 5060SOL    HW227060   3.179   2.209  15.750
 5061SOL     OW27061   2.614   3.598   4.602
 5061SOL    HW127062   2.666   3.674   4.628
 5061SOL    HW227063   2.658   3.523   4.643
 5062SOL     OW27064   2.339   2.936   4.165
 5062SOL    HW127065   2.354   2.851   4.206
 5062SOL    HW227066   2.273   2.919   4.098
 5063SOL     OW27067   1.385   3.228  15.218
 5063SOL    HW127068   1.392   3.297  15.283
 5063SOL    HW227069   1.412   3.269  15.136
 5064SOL     OW27070   2.009   0.313   2.064
 5064SOL    HW127071   1.973   0.402   2.070
 5064SOL    HW227072   1.942   0.257   2.103
 5065SOL     OW27073   1.858   2.389   6.357
 5065SOL    HW127074   1.894   2.301   6.367
 5065SOL    HW227075   1.934   2.445   6.340
 5066SOL     OW27076   0.936   1.755  12.880
 5066SOL    HW127077   0.921   1.790  12.967
 5066SOL    HW227078   1.027   1.779  12.859
 5067SOL     OW27079   4.758   2.028   3.978
 5067SOL    HW127080   4.752   1.934   3.958
 5067SOL    HW227081   0.063   2.050   3.960
 5068SOL     OW27082   0.835   4.584  13.694
 5068SOL    HW127083   0.917   4.596  13.647
 5068SOL    HW227084   0.778   4.537  13.632
 5069SOL     OW27085   4.434   1.544   6.380
 5069SOL    HW127086   4.339   1.536   6.388
 5069SOL    HW227087   4.467   1.532   6.469
 5070SOL     OW27088   0.803   3.298  20.873
 5070SOL    HW127089   0.722   3.344  20.850
 5070SOL    HW227090   0.859   3.365  20.911
 5071SOL     OW27091   2.528   0.134   6.673
 5071SOL    HW127092   2.623   0.128   6.668
 5071SOL    HW227093   2.508   0.127   6.766
 5072SOL     OW27094   0.677   3.480   6.594
 5072SOL    HW127095   0.772   3.480   6.605
 5072SOL    HW227096   0.662   3.433   6.512
 5073SOL     OW27097   4.016   0.024   0.132
 5073SOL    HW127098   4.039   4.768   0.215
 5073SOL    HW227099   4.025   0.117   0.150
 5074SOL     OW27100   3.809   2.640   4.863
 5074SOL    HW127101   3.855   2.566   4.902
 5074SOL    HW227102   3.724   2.605   4.836
 5075SOL     OW27103   1.443   1.910   0.312
 5075SOL    HW127104   1.501   1.837   0.335
 5075SOL    HW227105   1.487   1.988   0.345
 5076SOL     OW27106   0.648   3.495  13.726
 5076SOL    HW127107   0.632   3.545  13.645
 5076SOL    HW227108   0.574   3.518  13.782
 5077SOL     OW27109   3.413   3.077  14.423
 5077SOL    HW127110   3.358   3.043  14.493
 5077SOL    HW227111   3.384   3.168  14.412
 5078SOL     OW27112   0.819   2.228  17.606
 5078SOL    HW127113   0.876   2.294  17.645
 5078SOL    HW227114   0.803   2.260  17.517
 5079SOL     OW27115   0.529   2.499  19.387
 5079SOL    HW127116   0.537   2.490  19.292
 5079SOL    HW227117   0.620   2.496  19.419
 5080SOL     OW27118   1.863   0.123  20.388
 5080SOL    HW127119   1.847   0.170  20.307
 5080SOL    HW227120   1.874   0.191  20.454
 5081SOL     OW27121   0.563   2.267   2.497
 5081SOL    HW127122   0.527   2.230   2.578
 5081SOL    HW227123   0.625   2.201   2.466
 5082SOL     OW27124   2.040   3.730  15.327
 5082SOL    HW127125   2.132   3.750  15.341
 5082SOL    HW227126   1.995   3.772  15.400
 5083SOL     OW27127   0.734   3.242   3.217
 5083SOL    HW127128   0.675   3.245   3.293
 5083SOL    HW227129   0.688   3.292   3.149
 5084SOL     OW27130   2.672   4.078  18.172
 5084SOL    HW127131   2.687   4.051  18.082
 5084SOL    HW227132   2.656   3.997  18.220
 5085SOL     OW27133   2.290   3.334   8.070
 5085SOL    HW127134   2.223   3.267   8.059
 5085SOL    HW227135   2.370   3.285   8.090
 5086SOL     OW27136   0.437   4.022  16.631
 5086SOL    HW127137   0.434   4.090  16.697
 5086SOL    HW227138   0.408   3.943  16.676
 5087SOL     OW27139   2.617   1.176   3.325
 5087SOL    HW127140   2.683   1.180   3.394
 5087SOL    HW227141   2.641   1.099   3.273
 5088SOL     OW27142   3.175   4.608   2.590
 5088SOL    HW127143   3.230   4.658   2.529
 5088SOL    HW227144   3.175   4.660   2.670
 5089SOL     OW27145   2.676   1.783  17.219
 5089SOL    HW127146   2.581   1.777  17.227
 5089SOL    HW227147   2.706   1.692  17.221
 5090SOL     OW27148   4.472   2.497  17.497
 5090SOL    HW127149   4.480   2.442  17.575
 5090SOL    HW227150   4.455   2.584  17.530
 5091SOL     OW27151   3.678   2.194  18.236
 5091SOL    HW127152   3.693   2.195  18.141
 5091SOL    HW227153   3.720   2.274  18.268
 5092SOL     OW27154   3.103   4.191   1.654
 5092SOL    HW127155   3.014   4.199   1.687
 5092SOL    HW227156   3.158   4.234   1.720
 5093SOL     OW27157   3.119   1.487  18.187
 5093SOL    HW127158   3.175   1.411  18.200
 5093SOL    HW227159   3.173   1.547  18.135
 5094SOL     OW27160   0.664   0.729  19.498
 5094SOL    HW127161   0.569   0.719  19.497
 5094SOL    HW227162   0.694   0.661  19.559
 5095SOL     OW27163   0.734   1.983  17.655
 5095SOL    HW127164   0.773   2.068  17.638
 5095SOL    HW227165   0.670   1.971  17.585
 5096SOL     OW27166   0.975   3.400  14.320
 5096SOL    HW127167   0.965   3.477  14.376
 5096SOL    HW227168   0.886   3.375  14.296
 5097SOL     OW27169   0.153   3.281  15.945
 5097SOL    HW127170   0.122   3.192  15.930
 5097SOL    HW227171   0.088   3.320  16.003
 5098SOL     OW27172   0.773   3.188  16.090
 5098SOL    HW127173   0.756   3.267  16.140
 5098SOL    HW227174   0.747   3.210  16.000
 5099SOL     OW27175   0.579   0.680   0.978
 5099SOL    HW127176   0.616   0.604   0.933
 5099SOL    HW227177   0.551   0.739   0.907
 5100SOL     OW27178   3.780   4.522  17.799
 5100SOL    HW127179   3.708   4.549  17.742
 5100SOL    HW227180   3.740   4.514  17.886
 5101SOL     OW27181   3.068   2.134   6.928
 5101SOL    HW127182   3.139   2.081   6.890
 5101SOL    HW227183   3.056   2.206   6.866
 5102SOL     OW27184   1.658   3.105   0.716
 5102SOL    HW127185   1.706   3.026   0.739
 5102SOL    HW227186   1.718   3.155   0.661
 5103SOL     OW27187   0.137   0.593   3.458
 5103SOL    HW127188   0.204   0.534   3.492
 5103SOL    HW227189   0.074   0.535   3.415
 5104SOL     OW27190   3.835   0.767   4.675
 5104SOL    HW127191   3.888   0.776   4.755
 5104SOL    HW227192   3.899   0.756   4.605
 5105SOL     OW27193   4.703   4.607   2.573
 5105SOL    HW127194   4.628   4.548   2.563
 5105SOL    HW227195   4.677   4.686   2.524
 5106SOL     OW27196   0.306   2.045  13.821
 5106SOL    HW127197   0.351   2.125  13.847
 5106SOL    HW227198   0.213   2.064  13.835
 5107SOL     OW27199   0.991   1.243  17.260
 5107SOL    HW127200   0.945   1.218  17.340
 5107SOL    HW227201   0.938   1.207  17.189
 5108SOL     OW27202   2.897   4.211   2.720
 5108SOL    HW127203   2.980   4.184   2.679
 5108SOL    HW227204   2.839   4.136   2.708
 5109SOL     OW27205   4.691   1.586   1.502
 5109SOL    HW127206   4.602   1.595   1.470
 5109SOL    HW227207   4.689   1.508   1.558
 5110SOL     OW27208   4.023   4.319   3.925
 5110SOL    HW127209   4.002   4.302   4.017
 5110SOL    HW227210   4.119   4.323   3.924
 5111SOL     OW27211   0.750   3.562   3.220
 5111SOL    HW127212   0.816   3.492   3.212
 5111SOL    HW227213   0.667   3.519   3.202
 5112SOL     OW27214   1.864   4.507   0.309
 5112SOL    HW127215   1.956   4.521   0.287
 5112SOL    HW227216   1.831   4.449   0.240
 5113SOL     OW27217   2.207   0.566  20.264
 5113SOL    HW127218   2.188   0.495  20.325
 5113SOL    HW227219   2.135   0.563  20.201
 5114SOL     OW27220   4.181   0.895  21.018
 5114SOL    HW127221   4.093   0.880  20.982
 5114SOL    HW227222   4.172   0.875  21.111
 5115SOL     OW27223   0.485   0.771   0.725
 5115SOL    HW127224   0.521   0.755   0.638
 5115SOL    HW227225   0.477   0.867   0.731
 5116SOL     OW27226   1.254   2.684   4.250
 5116SOL    HW127227   1.293   2.631   4.181
 5116SOL    HW227228   1.194   2.624   4.295
 5117SOL     OW27229   3.222   4.151   3.137
 5117SOL    HW127230   3.263   4.068   3.113
 5117SOL    HW227231   3.277   4.185   3.208
 5118SOL     OW27232   3.623   4.624  15.803
 5118SOL    HW127233   3.675   4.545  15.814
 5118SOL    HW227234   3.678   4.694  15.839
 5119SOL     OW27235   0.689   3.756   5.777
 5119SOL    HW127236   0.765   3.776   5.722
 5119SOL    HW227237   0.647   3.681   5.734
 5120SOL     OW27238   0.058   3.683   5.605
 5120SOL    HW127239   0.098   3.652   5.687
 5120SOL    HW227240   4.751   3.683   5.623
 5121SOL     OW27241   1.143   1.902  15.531
 5121SOL    HW127242   1.156   1.841  15.459
 5121SOL    HW227243   1.161   1.851  15.610
 5122SOL     OW27244   4.326   4.114   0.911
 5122SOL    HW127245   4.355   4.202   0.886
 5122SOL    HW227246   4.230   4.118   0.908
 5123SOL     OW27247   4.302   0.469  19.796
 5123SOL    HW127248   4.359   0.545  19.806
 5123SOL    HW227249   4.244   0.493  19.724
 5124SOL     OW27250   4.635   4.655  14.197
 5124SOL    HW127251   4.679   4.617  14.121
 5124SOL    HW227252   4.704   4.696  14.248
 5125SOL     OW27253   2.576   3.442  19.331
 5125SOL    HW127254   2.621   3.390  19.263
 5125SOL    HW227255   2.512   3.382  19.368
 5126SOL     OW27256   3.972   3.077   0.898
 5126SOL    HW127257   4.013   3.077   0.812
 5126SOL    HW227258   3.971   2.984   0.924
 5127SOL     OW27259   1.050   1.543  16.216
 5127SOL    HW127260   0.975   1.491  16.189
 5127SOL    HW227261   1.118   1.479  16.236
 5128SOL     OW27262   2.537   3.532   5.648
 5128SOL    HW127263   2.500   3.601   5.703
 5128SOL    HW227264   2.499   3.451   5.683
 5129SOL     OW27265   2.429   1.653   5.476
 5129SOL    HW127266   2.365   1.704   5.425
 5129SOL    HW227267   2.504   1.712   5.485
 5130SOL     OW27268   0.512   3.596   3.460
 5130SOL    HW127269   0.594   3.606   3.509
 5130SOL    HW227270   0.537   3.602   3.368
 5131SOL     OW27271   0.367   0.849  19.763
 5131SOL    HW127272   0.333   0.891  19.684
 5131SOL    HW227273   0.346   0.911  19.833
 5132SOL     OW27274   1.433   0.328  18.519
 5132SOL    HW127275   1.404   0.370  18.601
 5132SOL    HW227276   1.488   0.394  18.477
 5133SOL     OW27277   3.193   2.092   6.288
 5133SOL    HW127278   3.231   2.031   6.351
 5133SOL    HW227279   3.121   2.043   6.248
 5134SOL     OW27280   3.604   0.033  17.880
 5134SOL    HW127281   3.567   4.735  17.857
 5134SOL    HW227282   3.644   0.065  17.799
 5135SOL     OW27283   0.027   2.385  18.402
 5135SOL    HW127284   4.774   2.472  18.403
 5135SOL    HW227285   0.024   2.359  18.310
 5136SOL     OW27286   3.819   4.320  20.947
 5136SOL    HW127287   3.848   4.261  21.017
 5136SOL    HW227288   3.790   4.262  20.877
 5137SOL     OW27289   4.055   4.660   0.373
 5137SOL    HW127290   4.147   4.687   0.382
 5137SOL    HW227291   4.040   4.600   0.446
 5138SOL     OW27292   2.710   1.967   6.717
 5138SOL    HW127293   2.727   2.014   6.799
 5138SOL    HW227294   2.796   1.962   6.674
 5139SOL     OW27295   1.854   2.068   5.203
 5139SOL    HW127296   1.779   2.036   5.153
 5139SOL    HW227297   1.915   2.100   5.137
 5140SOL     OW27298   3.610   0.979  18.220
 5140SOL    HW127299   3.552   0.909  18.191
 5140SOL    HW227300   3.698   0.944  18.210
 5141SOL     OW27301   1.976   2.668   1.734
 5141SOL    HW127302   1.976   2.762   1.721
 5141SOL    HW227303   2.067   2.642   1.719
 5142SOL     OW27304   0.095   1.633   6.024
 5142SOL    HW127305   0.023   1.613   6.083
 5142SOL    HW227306   0.057   1.688   5.957
 5143SOL     OW27307   2.664   2.079  14.278
 5143SOL    HW127308   2.599   2.015  14.252
 5143SOL    HW227309   2.690   2.053  14.366
 5144SOL     OW27310   0.031   4.403   1.293
 5144SOL    HW127311   4.725   4.414   1.313
 5144SOL    HW227312   0.062   4.342   1.360
 5145SOL     OW27313   4.084   4.495  18.821
 5145SOL    HW127314   4.069   4.477  18.728
 5145SOL    HW227315   4.009   4.547  18.848
 5146SOL     OW27316   1.184   4.258  11.100
 5146SOL    HW127317   1.228   4.284  11.020
 5146SOL    HW227318   1.150   4.170  11.082
 5147SOL     OW27319   2.166   1.514  16.817
 5147SOL    HW127320   2.201   1.435  16.858
 5147SOL    HW227321   2.114   1.482  16.744
 5148SOL     OW27322   3.506   1.369  17.256
 5148SOL    HW127323   3.503   1.405  17.167
 5148SOL    HW227324   3.478   1.278  17.246
 5149SOL     OW27325   3.901   2.986  18.781
 5149SOL    HW127326   3.996   2.980  18.789
 5149SOL    HW227327   3.872   3.013  18.868
 5150SOL     OW27328   0.031   0.073   4.779
 5150SOL    HW127329   0.053   0.106   4.866
 5150SOL    HW227330   0.052   4.766   4.783
 5151SOL     OW27331   0.136   2.279   3.736
 5151SOL    HW127332   0.155   2.217   3.806
 5151SOL    HW227333   0.166   2.363   3.770
 5152SOL     OW27334   4.717   0.672  15.217
 5152SOL    HW127335   4.785   0.614  15.181
 5152SOL    HW227336   4.755   0.706  15.298
 5153SOL     OW27337   0.660   3.190   7.904
 5153SOL    HW127338   0.694   3.138   7.831
 5153SOL    HW227339   0.730   3.189   7.969
 5154SOL     OW27340   2.031   3.517   8.828
 5154SOL    HW127341   2.016   3.532   8.921
 5154SOL    HW227342   2.125   3.503   8.820
 5155SOL     OW27343   0.269   4.540  15.885
 5155SOL    HW127344   0.219   4.480  15.830
 5155SOL    HW227345   0.260   4.506  15.974
 5156SOL     OW27346   1.758   1.988  19.901
 5156SOL    HW127347   1.820   1.915  19.900
 5156SOL    HW227348   1.793   2.049  19.966
 5157SOL     OW27349   2.672   4.461  21.118
 5157SOL    HW127350   2.596   4.435  21.170
 5157SOL    HW227351   2.747   4.432  21.170
 5158SOL     OW27352   0.681   1.445  11.985
 5158SOL    HW127353   0.724   1.491  11.913
 5158SOL    HW227354   0.728   1.362  11.992
 5159SOL     OW27355   3.833   1.875   6.190
 5159SOL    HW127356   3.788   1.958   6.178
 5159SOL    HW227357   3.763   1.811   6.204
 5160SOL     OW27358   2.920   2.976  20.449
 5160SOL    HW127359   2.836   2.960  20.492
 5160SOL    HW227360   2.930   3.071  20.451
 5161SOL     OW27361   4.446   2.960  17.498
 5161SOL    HW127362   4.352   2.980  17.496
 5161SOL    HW227363   4.487   3.038  17.535
 5162SOL     OW27364   0.421   0.118  20.928
 5162SOL    HW127365   0.468   0.168  20.862
 5162SOL    HW227366   0.478   0.044  20.948
 5163SOL     OW27367   1.458   0.081  18.409
 5163SOL    HW127368   1.457   0.091  18.314
 5163SOL    HW227369   1.456   0.170  18.443
 5164SOL     OW27370   0.480   2.807   2.383
 5164SOL    HW127371   0.539   2.733   2.369
 5164SOL    HW227372   0.395   2.767   2.398
 5165SOL     OW27373   2.396   4.227   1.243
 5165SOL    HW127374   2.389   4.186   1.157
 5165SOL    HW227375   2.305   4.239   1.271
 5166SOL     OW27376   4.378   1.891   0.992
 5166SOL    HW127377   4.336   1.868   0.909
 5166SOL    HW227378   4.389   1.808   1.038
 5167SOL     OW27379   3.114   0.495  16.759
 5167SOL    HW127380   3.210   0.499  16.764
 5167SOL    HW227381   3.095   0.405  16.733
 5168SOL     OW27382   3.402   2.742  16.271
 5168SOL    HW127383   3.422   2.698  16.188
 5168SOL    HW227384   3.324   2.696  16.304
 5169SOL     OW27385   2.778   1.534   7.913
 5169SOL    HW127386   2.871   1.522   7.892
 5169SOL    HW227387   2.771   1.626   7.939
 5170SOL     OW27388   1.558   4.150   5.166
 5170SOL    HW127389   1.598   4.147   5.253
 5170SOL    HW227390   1.557   4.242   5.143
 5171SOL     OW27391   0.803   2.474   2.393
 5171SOL    HW127392   0.792   2.557   2.439
 5171SOL    HW227393   0.853   2.419   2.453
 5172SOL     OW27394   4.145   4.280   1.560
 5172SOL    HW127395   4.210   4.264   1.628
 5172SOL    HW227396   4.078   4.334   1.603
 5173SOL     OW27397   2.187   1.861   6.497
 5173SOL    HW127398   2.173   1.791   6.560
 5173SOL    HW227399   2.105   1.866   6.448
 5174SOL     OW27400   2.063   2.201   4.064
 5174SOL    HW127401   1.985   2.162   4.024
 5174SOL    HW227402   2.131   2.134   4.053
 5175SOL     OW27403   3.414   4.113  19.028
 5175SOL    HW127404   3.466   4.038  18.998
 5175SOL    HW227405   3.371   4.082  19.107
 5176SOL     OW27406   4.240   0.833  20.104
 5176SOL    HW127407   4.280   0.908  20.148
 5176SOL    HW227408   4.311   0.796  20.050
 5177SOL     OW27409   0.517   2.665  20.857
 5177SOL    HW127410   0.578   2.625  20.795
 5177SOL    HW227411   0.560   2.746  20.885
 5178SOL     OW27412   0.205   1.641   0.001
 5178SOL    HW127413   0.194   1.672   0.091
 5178SOL    HW227414   0.279   1.580   0.006
 5179SOL     OW27415   3.850   0.943   6.880
 5179SOL    HW127416   3.822   0.852   6.872
 5179SOL    HW227417   3.891   0.963   6.796
 5180SOL     OW27418   4.539   3.178   1.047
 5180SOL    HW127419   4.445   3.180   1.065
 5180SOL    HW227420   4.567   3.269   1.054
 5181SOL     OW27421   3.569   4.215   4.964
 5181SOL    HW127422   3.613   4.173   5.038
 5181SOL    HW227423   3.492   4.257   5.002
 5182SOL     OW27424   4.239   4.142   2.269
 5182SOL    HW127425   4.325   4.125   2.230
 5182SOL    HW227426   4.193   4.197   2.205
 5183SOL     OW27427   4.681   1.514  12.098
 5183SOL    HW127428   4.619   1.441  12.103
 5183SOL    HW227429   4.757   1.485  12.148
 5184SOL     OW27430   0.859   0.410  10.991
 5184SOL    HW127431   0.864   0.423  10.897
 5184SOL    HW227432   0.926   0.468  11.027
 5185SOL     OW27433   3.164   1.458   7.075
 5185SOL    HW127434   3.112   1.384   7.045
 5185SOL    HW227435   3.219   1.480   7.000
 5186SOL     OW27436   3.643   1.450   0.247
 5186SOL    HW127437   3.719   1.393   0.253
 5186SOL    HW227438   3.652   1.495   0.163
 5187SOL     OW27439   4.653   1.216  16.087
 5187SOL    HW127440   4.574   1.224  16.033
 5187SOL    HW227441   4.632   1.148  16.150
 5188SOL     OW27442   1.126   1.892   0.912
 5188SOL    HW127443   1.212   1.896   0.869
 5188SOL    HW227444   1.146   1.867   1.002
 5189SOL     OW27445   3.508   1.223  18.941
 5189SOL    HW127446   3.561   1.302  18.936
 5189SOL    HW227447   3.572   1.151  18.938
 5190SOL     OW27448   2.934   2.541  19.054
 5190SOL    HW127449   2.960   2.451  19.075
 5190SOL    HW227450   2.863   2.531  18.990
 5191SOL     OW27451   2.133   2.131   6.159
 5191SOL    HW127452   2.087   2.175   6.230
 5191SOL    HW227453   2.210   2.093   6.200
 5192SOL     OW27454   3.348   2.932  12.174
 5192SOL    HW127455   3.399   2.943  12.094
 5192SOL    HW227456   3.284   3.003  12.172
 5193SOL     OW27457   4.128   2.235  19.875
 5193SOL    HW127458   4.041   2.208  19.903
 5193SOL    HW227459   4.141   2.192  19.791
 5194SOL     OW27460   1.871   4.772   6.022
 5194SOL    HW127461   1.790   4.736   5.984
 5194SOL    HW227462   1.842   0.061   6.073
 5195SOL     OW27463   1.440   0.365  20.014
 5195SOL    HW127464   1.464   0.457  20.028
 5195SOL    HW227465   1.385   0.367  19.935
 5196SOL     OW27466   4.605   3.403   4.692
 5196SOL    HW127467   4.641   3.453   4.618
 5196SOL    HW227468   4.676   3.346   4.719
 5197SOL     OW27469   1.201   1.925   2.879
 5197SOL    HW127470   1.185   1.831   2.889
 5197SOL    HW227471   1.154   1.965   2.951
 5198SOL     OW27472   4.765   3.585  15.772
 5198SOL    HW127473   0.068   3.553  15.776
 5198SOL    HW227474   4.721   3.525  15.712
 5199SOL     OW27475   2.306   1.729  16.865
 5199SOL    HW127476   2.247   1.654  16.855
 5199SOL    HW227477   2.326   1.756  16.776
 5200SOL     OW27478   4.585   2.767   3.259
 5200SOL    HW127479   4.623   2.725   3.182
 5200SOL    HW227480   4.651   2.756   3.327
 5201SOL     OW27481   2.590   2.496   0.917
 5201SOL    HW127482   2.589   2.406   0.887
 5201SOL    HW227483   2.525   2.541   0.862
 5202SOL     OW27484   4.107   2.055  18.129
 5202SOL    HW127485   4.159   2.020  18.201
 5202SOL    HW227486   4.167   2.113  18.082
 5203SOL     OW27487   3.094   3.139   2.707
 5203SOL    HW127488   3.168   3.083   2.728
 5203SOL    HW227489   3.085   3.132   2.612
 5204SOL     OW27490   1.310   4.518  18.915
 5204SOL    HW127491   1.240   4.567  18.958
 5204SOL    HW227492   1.330   4.569  18.837
 5205SOL     OW27493   3.227   1.600   8.263
 5205SOL    HW127494   3.293   1.644   8.316
 5205SOL    HW227495   3.151   1.658   8.267
 5206SOL     OW27496   4.253   4.493   7.902
 5206SOL    HW127497   4.315   4.505   7.974
 5206SOL    HW227498   4.290   4.421   7.850
 5207SOL     OW27499   2.257   2.877  20.848
 5207SOL    HW127500   2.223   2.863  20.936
 5207SOL    HW227501   2.214   2.809  20.795
 5208SOL     OW27502   0.464   1.362  16.011
 5208SOL    HW127503   0.543   1.355  15.956
 5208SOL    HW227504   0.402   1.409  15.956
 5209SOL     OW27505   0.842   4.214  20.594
 5209SOL    HW127506   0.759   4.215  20.642
 5209SOL    HW227507   0.881   4.129  20.614
 5210SOL     OW27508   0.649   2.007   3.410
 5210SOL    HW127509   0.657   2.071   3.481
 5210SOL    HW227510   0.615   2.057   3.336
 5211SOL     OW27511   3.108   0.114   3.572
 5211SOL    HW127512   3.142   0.136   3.486
 5211SOL    HW227513   3.026   0.067   3.555
 5212SOL     OW27514   1.319   1.719   2.538
 5212SOL    HW127515   1.342   1.751   2.451
 5212SOL    HW227516   1.364   1.778   2.598
 5213SOL     OW27517   3.301   1.443  20.811
 5213SOL    HW127518   3.384   1.490  20.802
 5213SOL    HW227519   3.298   1.416  20.903
 5214SOL     OW27520   3.267   0.525  15.848
 5214SOL    HW127521   3.248   0.437  15.880
 5214SOL    HW227522   3.221   0.583  15.909
 5215SOL     OW27523   2.103   0.167   4.236
 5215SOL    HW127524   2.049   0.228   4.186
 5215SOL    HW227525   2.154   0.223   4.294
 5216SOL     OW27526   1.819   4.303  16.920
 5216SOL    HW127527   1.807   4.336  17.009
 5216SOL    HW227528   1.730   4.290  16.887
 5217SOL     OW27529   0.159   3.282  18.893
 5217SOL    HW127530   0.097   3.309  18.960
 5217SOL    HW227531   0.110   3.220  18.839
 5218SOL     OW27532   4.187   3.537   4.840
 5218SOL    HW127533   4.214   3.487   4.763
 5218SOL    HW227534   4.260   3.527   4.902
 5219SOL     OW27535   3.009   4.248  13.091
 5219SOL    HW127536   3.054   4.255  13.007
 5219SOL    HW227537   2.960   4.329  13.099
 5220SOL     OW27538   3.842   2.666   0.906
 5220SOL    HW127539   3.837   2.597   0.972
 5220SOL    HW227540   3.752   2.678   0.876
 5221SOL     OW27541   0.061   3.677  14.195
 5221SOL    HW127542   0.127   3.746  14.193
 5221SOL    HW227543   4.776   3.713  14.247
 5222SOL     OW27544   1.745   1.180   1.998
 5222SOL    HW127545   1.806   1.111   1.972
 5222SOL    HW227546   1.779   1.259   1.956
 5223SOL     OW27547   4.327   1.313   1.116
 5223SOL    HW127548   4.280   1.258   1.179
 5223SOL    HW227549   4.274   1.309   1.037
 5224SOL     OW27550   1.346   2.663   2.689
 5224SOL    HW127551   1.418   2.617   2.647
 5224SOL    HW227552   1.304   2.597   2.745
 5225SOL     OW27553   2.771   1.535  16.544
 5225SOL    HW127554   2.718   1.612  16.565
 5225SOL    HW227555   2.838   1.568  16.483
 5226SOL     OW27556   2.263   4.440   2.001
 5226SOL    HW127557   2.168   4.434   2.006
 5226SOL    HW227558   2.283   4.428   1.908
 5227SOL     OW27559   1.640   1.843   2.071
 5227SOL    HW127560   1.691   1.817   2.147
 5227SOL    HW227561   1.573   1.902   2.106
 5228SOL     OW27562   3.365   4.261  14.964
 5228SOL    HW127563   3.380   4.352  14.987
 5228SOL    HW227564   3.400   4.211  15.038
 5229SOL     OW27565   2.530   1.209   6.579
 5229SOL    HW127566   2.465   1.232   6.645
 5229SOL    HW227567   2.485   1.219   6.495
 5230SOL     OW27568   2.132   1.103  20.461
 5230SOL    HW127569   2.188   1.157  20.517
 5230SOL    HW227570   2.179   1.021  20.452
 5231SOL     OW27571   4.244   3.053  19.766
 5231SOL    HW127572   4.328   3.010  19.777
 5231SOL    HW227573   4.248   3.094  19.680
 5232SOL     OW27574   1.654   0.535  15.619
 5232SOL    HW127575   1.719   0.541  15.690
 5232SOL    HW227576   1.632   0.442  15.616
 5233SOL     OW27577   2.143   0.768   5.296
 5233SOL    HW127578   2.079   0.782   5.226
 5233SOL    HW227579   2.116   0.685   5.336
 5234SOL     OW27580   0.603   4.389   4.433
 5234SOL    HW127581   0.634   4.328   4.501
 5234SOL    HW227582   0.520   4.422   4.467
 5235SOL     OW27583   0.523   2.046   5.408
 5235SOL    HW127584   0.509   1.959   5.444
 5235SOL    HW227585   0.475   2.046   5.325
 5236SOL     OW27586   0.281   1.730   2.723
 5236SOL    HW127587   0.267   1.664   2.791
 5236SOL    HW227588   0.360   1.777   2.750
 5237SOL     OW27589   0.765   2.976  19.288
 5237SOL    HW127590   0.674   2.951  19.273
 5237SOL    HW227591   0.809   2.894  19.312
 5238SOL     OW27592   3.988   3.518   1.085
 5238SOL    HW127593   3.980   3.541   0.993
 5238SOL    HW227594   3.948   3.431   1.092
 5239SOL     OW27595   2.345   2.923  14.915
 5239SOL    HW127596   2.397   2.984  14.968
 5239SOL    HW227597   2.296   2.872  14.978
 5240SOL     OW27598   3.839   2.150  19.049
 5240SOL    HW127599   3.878   2.072  19.010
 5240SOL    HW227600   3.745   2.141  19.034
 5241SOL     OW27601   2.642   3.435   1.716
 5241SOL    HW127602   2.679   3.395   1.796
 5241SOL    HW227603   2.549   3.444   1.735
 5242SOL     OW27604   1.481   0.790   9.320
 5242SOL    HW127605   1.536   0.717   9.347
 5242SOL    HW227606   1.484   0.788   9.224
 5243SOL     OW27607   0.192   0.579   5.168
 5243SOL    HW127608   0.264   0.623   5.124
 5243SOL    HW227609   0.126   0.567   5.100
 5244SOL     OW27610   3.295   3.069  14.750
 5244SOL    HW127611   3.275   3.059  14.843
 5244SOL    HW227612   3.267   3.158  14.728
 5245SOL     OW27613   1.950   0.146   5.337
 5245SOL    HW127614   1.921   0.074   5.393
 5245SOL    HW227615   1.987   0.210   5.398
 5246SOL     OW27616   2.819   1.223   1.345
 5246SOL    HW127617   2.738   1.273   1.350
 5246SOL    HW227618   2.868   1.262   1.273
 5247SOL     OW27619   3.940   4.454  19.887
 5247SOL    HW127620   3.954   4.422  19.976
 5247SOL    HW227621   3.877   4.525  19.896
 5248SOL     OW27622   0.300   3.585   0.621
 5248SOL    HW127623   0.232   3.652   0.623
 5248SOL    HW227624   0.277   3.529   0.547
 5249SOL     OW27625   4.306   1.734   2.647
 5249SOL    HW127626   4.240   1.667   2.632
 5249SOL    HW227627   4.293   1.797   2.576
 5250SOL     OW27628   0.560   2.380  18.706
 5250SOL    HW127629   0.579   2.454  18.648
 5250SOL    HW227630   0.489   2.333  18.663
 5251SOL     OW27631   1.783   1.989  17.682
 5251SOL    HW127632   1.739   1.957  17.604
 5251SOL    HW227633   1.712   2.011  17.742
 5252SOL     OW27634   2.246   2.562   2.594
 5252SOL    HW127635   2.327   2.537   2.637
 5252SOL    HW227636   2.242   2.508   2.515
 5253SOL     OW27637   1.215   3.371   2.196
 5253SOL    HW127638   1.284   3.436   2.189
 5253SOL    HW227639   1.135   3.419   2.175
 5254SOL     OW27640   3.933   1.005  15.707
 5254SOL    HW127641   3.900   0.987  15.795
 5254SOL    HW227642   3.940   1.101  15.703
 5255SOL     OW27643   4.612   1.669   7.658
 5255SOL    HW127644   4.544   1.700   7.718
 5255SOL    HW227645   4.693   1.670   7.710
 5256SOL     OW27646   4.297   0.634   5.389
 5256SOL    HW127647   4.202   0.643   5.398
 5256SOL    HW227648   4.325   0.717   5.350
 5257SOL     OW27649   4.314   0.912  16.109
 5257SOL    HW127650   4.324   1.007  16.109
 5257SOL    HW227651   4.236   0.895  16.162
 5258SOL     OW27652   2.089   3.340   4.173
 5258SOL    HW127653   2.103   3.267   4.112
 5258SOL    HW227654   2.121   3.417   4.125
 5259SOL     OW27655   0.576   0.847  12.643
 5259SOL    HW127656   0.635   0.779  12.609
 5259SOL    HW227657   0.550   0.897  12.566
 5260SOL     OW27658   3.359   0.436   7.125
 5260SOL    HW127659   3.264   0.424   7.119
 5260SOL    HW227660   3.380   0.498   7.056
 5261SOL     OW27661   1.984   0.163  13.518
 5261SOL    HW127662   2.026   0.133  13.599
 5261SOL    HW227663   1.997   0.258  13.518
 5262SOL     OW27664   0.801   2.669  16.494
 5262SOL    HW127665   0.788   2.628  16.408
 5262SOL    HW227666   0.740   2.624  16.552
 5263SOL     OW27667   1.426   3.604   1.851
 5263SOL    HW127668   1.508   3.556   1.837
 5263SOL    HW227669   1.367   3.570   1.784
 5264SOL     OW27670   0.370   0.892   5.878
 5264SOL    HW127671   0.455   0.922   5.909
 5264SOL    HW227672   0.366   0.800   5.901
 5265SOL     OW27673   0.301   3.126   2.097
 5265SOL    HW127674   0.217   3.082   2.111
 5265SOL    HW227675   0.360   3.055   2.070
 5266SOL     OW27676   3.418   3.169  17.633
 5266SOL    HW127677   3.504   3.190  17.598
 5266SOL    HW227678   3.397   3.244  17.690
 5267SOL     OW27679   4.783   0.597  15.669
 5267SOL    HW127680   4.769   0.571  15.578
 5267SOL    HW227681   0.042   0.523  15.708
 5268SOL     OW27682   2.049   3.406  17.112
 5268SOL    HW127683   2.009   3.430  17.195
 5268SOL    HW227684   1.977   3.368  17.061
 5269SOL     OW27685   0.898   0.855  18.754
 5269SOL    HW127686   0.852   0.774  18.735
 5269SOL    HW227687   0.913   0.894  18.668
 5270SOL     OW27688   3.292   0.008  19.735
 5270SOL    HW127689   3.346   0.070  19.686
 5270SOL    HW227690   3.293   0.041  19.825
 5271SOL     OW27691   4.031   3.209   0.094
 5271SOL    HW127692   4.123   3.185   0.081
 5271SOL    HW227693   3.985   3.167   0.022
 5272SOL     OW27694   4.441   4.491   2.599
 5272SOL    HW127695   4.355   4.534   2.595
 5272SOL    HW227696   4.429   4.409   2.552
 5273SOL     OW27697   2.695   2.397   5.936
 5273SOL    HW127698   2.707   2.322   5.994
 5273SOL    HW227699   2.639   2.457   5.985
 5274SOL     OW27700   3.806   2.724   7.109
 5274SOL    HW127701   3.847   2.789   7.053
 5274SOL    HW227702   3.852   2.731   7.193
 5275SOL     OW27703   2.746   1.051  14.877
 5275SOL    HW127704   2.831   1.087  14.854
 5275SOL    HW227705   2.765   0.963  14.910
 5276SOL     OW27706   1.430   4.702  17.251
 5276SOL    HW127707   1.513   4.669  17.215
 5276SOL    HW227708   1.424   0.005  17.219
 5277SOL     OW27709   1.277   0.399  19.109
 5277SOL    HW127710   1.350   0.355  19.067
 5277SOL    HW227711   1.205   0.337  19.105
 5278SOL     OW27712   1.151   4.771   3.952
 5278SOL    HW127713   1.231   0.009   3.906
 5278SOL    HW227714   1.181   4.715   4.023
 5279SOL     OW27715   2.593   1.608   4.292
 5279SOL    HW127716   2.627   1.609   4.203
 5279SOL    HW227717   2.671   1.615   4.347
 5280SOL     OW27718   3.956   1.735  19.193
 5280SOL    HW127719   3.906   1.655  19.207
 5280SOL    HW227720   4.014   1.740  19.269
 5281SOL     OW27721   0.893   1.892  12.046
 5281SOL    HW127722   0.859   1.931  11.965
 5281SOL    HW227723   0.825   1.832  12.074
 5282SOL     OW27724   2.032   4.580  17.631
 5282SOL    HW127725   1.955   4.561  17.684
 5282SOL    HW227726   2.080   4.648  17.679
 5283SOL     OW27727   2.794   0.265   3.949
 5283SOL    HW127728   2.747   0.189   3.915
 5283SOL    HW227729   2.806   0.246   4.042
 5284SOL     OW27730   2.630   2.300   3.017
 5284SOL    HW127731   2.564   2.231   3.023
 5284SOL    HW227732   2.600   2.368   3.078
 5285SOL     OW27733   3.690   3.843  19.536
 5285SOL    HW127734   3.661   3.769  19.484
 5285SOL    HW227735   3.783   3.853  19.515
 5286SOL     OW27736   1.214   3.299  16.595
 5286SOL    HW127737   1.277   3.263  16.533
 5286SOL    HW227738   1.134   3.248  16.580
 5287SOL     OW27739   3.456   0.049   2.788
 5287SOL    HW127740   3.494   0.062   2.875
 5287SOL    HW227741   3.371   0.009   2.805
 5288SOL     OW27742   4.481   4.086  14.043
 5288SOL    HW127743   4.473   4.173  14.003
 5288SOL    HW227744   4.528   4.034  13.978
 5289SOL     OW27745   3.518   0.212  20.896
 5289SOL    HW127746   3.587   0.257  20.944
 5289SOL    HW227747   3.503   0.132  20.947
 5290SOL     OW27748   4.366   4.131   1.176
 5290SOL    HW127749   4.384   4.134   1.082
 5290SOL    HW227750   4.411   4.052   1.206
 5291SOL     OW27751   2.650   4.205  14.673
 5291SOL    HW127752   2.611   4.283  14.633
 5291SOL    HW227753   2.575   4.151  14.699
 5292SOL     OW27754   0.652   0.201   6.525
 5292SOL    HW127755   0.668   0.109   6.503
 5292SOL    HW227756   0.736   0.244   6.510
 5293SOL     OW27757   1.058   0.872   4.894
 5293SOL    HW127758   1.001   0.882   4.970
 5293SOL    HW227759   1.091   0.782   4.900
 5294SOL     OW27760   2.509   4.330   2.279
 5294SOL    HW127761   2.526   4.249   2.327
 5294SOL    HW227762   2.415   4.329   2.262
 5295SOL     OW27763   1.729   1.175   5.458
 5295SOL    HW127764   1.819   1.144   5.458
 5295SOL    HW227765   1.725   1.239   5.388
 5296SOL     OW27766   2.095   4.339  20.847
 5296SOL    HW127767   2.153   4.370  20.778
 5296SOL    HW227768   2.147   4.345  20.927
 5297SOL     OW27769   3.226   1.249  17.826
 5297SOL    HW127770   3.307   1.297  17.841
 5297SOL    HW227771   3.190   1.287  17.746
 5298SOL     OW27772   1.425   1.789   5.810
 5298SOL    HW127773   1.515   1.769   5.787
 5298SOL    HW227774   1.409   1.741   5.891
 5299SOL     OW27775   2.450   2.577   1.550
 5299SOL    HW127776   2.466   2.596   1.642
 5299SOL    HW227777   2.492   2.650   1.503
 5300SOL     OW27778   0.517   3.249  19.818
 5300SOL    HW127779   0.554   3.164  19.796
 5300SOL    HW227780   0.442   3.258  19.760
 5301SOL     OW27781   0.433   4.064  19.936
 5301SOL    HW127782   0.476   4.001  19.994
 5301SOL    HW227783   0.390   4.125  19.995
 5302SOL     OW27784   2.278   1.899  13.635
 5302SOL    HW127785   2.296   1.994  13.635
 5302SOL    HW227786   2.247   1.881  13.724
 5303SOL     OW27787   1.864   3.952  20.708
 5303SOL    HW127788   1.921   3.959  20.632
 5303SOL    HW227789   1.845   4.043  20.732
 5304SOL     OW27790   4.406   3.894   1.457
 5304SOL    HW127791   4.389   3.863   1.368
 5304SOL    HW227792   4.401   3.816   1.511
 5305SOL     OW27793   4.027   0.736   5.962
 5305SOL    HW127794   4.081   0.813   5.980
 5305SOL    HW227795   3.974   0.725   6.040
 5306SOL     OW27796   0.510   0.533  19.024
 5306SOL    HW127797   0.529   0.536  19.118
 5306SOL    HW227798   0.581   0.584  18.985
 5307SOL     OW27799   0.732   2.912   3.788
 5307SOL    HW127800   0.771   2.844   3.734
 5307SOL    HW227801   0.638   2.901   3.776
 5308SOL     OW27802   0.094   2.711   2.079
 5308SOL    HW127803   0.031   2.714   2.007
 5308SOL    HW227804   0.154   2.639   2.056
 5309SOL     OW27805   0.265   1.413  14.941
 5309SOL    HW127806   0.251   1.406  15.035
 5309SOL    HW227807   0.197   1.474  14.911
 5310SOL     OW27808   0.451   2.410   9.421
 5310SOL    HW127809   0.386   2.473   9.389
 5310SOL    HW227810   0.532   2.460   9.426
 5311SOL     OW27811   2.789   4.636   5.388
 5311SOL    HW127812   2.829   4.698   5.328
 5311SOL    HW227813   2.787   4.682   5.472
 5312SOL     OW27814   2.405   2.838   3.489
 5312SOL    HW127815   2.362   2.909   3.441
 5312SOL    HW227816   2.434   2.776   3.422
 5313SOL     OW27817   2.286   3.949  20.913
 5313SOL    HW127818   2.278   3.936  20.819
 5313SOL    HW227819   2.341   4.027  20.922
 5314SOL     OW27820   3.638   4.001  16.244
 5314SOL    HW127821   3.658   4.000  16.337
 5314SOL    HW227822   3.723   4.001  16.200
 5315SOL     OW27823   0.191   2.083  16.261
 5315SOL    HW127824   0.220   2.175  16.262
 5315SOL    HW227825   0.188   2.061  16.168
 5316SOL     OW27826   0.573   4.426  16.976
 5316SOL    HW127827   0.592   4.516  16.948
 5316SOL    HW227828   0.527   4.387  16.901
 5317SOL     OW27829   0.157   0.017  18.661
 5317SOL    HW127830   0.064   4.784  18.672
 5317SOL    HW227831   0.165   0.109  18.685
 5318SOL     OW27832   2.961   0.721  12.633
 5318SOL    HW127833   2.933   0.659  12.566
 5318SOL    HW227834   2.891   0.719  12.698
 5319SOL     OW27835   1.233   1.307   4.486
 5319SOL    HW127836   1.245   1.216   4.458
 5319SOL    HW227837   1.247   1.305   4.580
 5320SOL     OW27838   1.491   0.288  15.628
 5320SOL    HW127839   1.407   0.328  15.607
 5320SOL    HW227840   1.493   0.206  15.580
 5321SOL     OW27841   2.238   0.561   4.117
 5321SOL    HW127842   2.222   0.618   4.192
 5321SOL    HW227843   2.213   0.615   4.041
 5322SOL     OW27844   4.269   4.468   8.502
 5322SOL    HW127845   4.318   4.447   8.582
 5322SOL    HW227846   4.311   4.417   8.433
 5323SOL     OW27847   3.556   4.018   2.399
 5323SOL    HW127848   3.633   3.984   2.445
 5323SOL    HW227849   3.562   4.113   2.411
 5324SOL     OW27850   1.593   1.668   7.395
 5324SOL    HW127851   1.575   1.655   7.488
 5324SOL    HW227852   1.519   1.626   7.350
 5325SOL     OW27853   3.253   4.767  13.949
 5325SOL    HW127854   3.248   0.068  13.911
 5325SOL    HW227855   3.190   4.715  13.898
 5326SOL     OW27856   4.391   1.568  20.814
 5326SOL    HW127857   4.472   1.606  20.848
 5326SOL    HW227858   4.360   1.632  20.750
 5327SOL     OW27859   3.477   1.523  19.831
 5327SOL    HW127860   3.390   1.491  19.856
 5327SOL    HW227861   3.460   1.604  19.785
 5328SOL     OW27862   4.596   4.713   0.669
 5328SOL    HW127863   4.617   4.621   0.654
 5328SOL    HW227864   4.577   4.718   0.763
 5329SOL     OW27865   3.052   0.483   4.644
 5329SOL    HW127866   3.046   0.560   4.700
 5329SOL    HW227867   3.010   0.413   4.694
 5330SOL     OW27868   3.156   1.614   3.322
 5330SOL    HW127869   3.167   1.635   3.414
 5330SOL    HW227870   3.235   1.564   3.299
 5331SOL     OW27871   0.133   0.429  18.339
 5331SOL    HW127872   0.069   0.399  18.404
 5331SOL    HW227873   0.218   0.401  18.373
 5332SOL     OW27874   1.867   2.143   2.011
 5332SOL    HW127875   1.948   2.188   2.032
 5332SOL    HW227876   1.799   2.195   2.052
 5333SOL     OW27877   2.792   0.648  18.673
 5333SOL    HW127878   2.844   0.682  18.600
 5333SOL    HW227879   2.851   0.588  18.719
 5334SOL     OW27880   4.266   1.502   2.851
 5334SOL    HW127881   4.333   1.564   2.880
 5334SOL    HW227882   4.186   1.533   2.893
 5335SOL     OW27883   3.768   4.023  18.697
 5335SOL    HW127884   3.749   4.061  18.782
 5335SOL    HW227885   3.780   4.099  18.639
 5336SOL     OW27886   2.092   1.048  18.965
 5336SOL    HW127887   2.053   1.106  19.030
 5336SOL    HW227888   2.022   1.036  18.900
 5337SOL     OW27889   2.421   4.655  16.607
 5337SOL    HW127890   2.368   4.617  16.677
 5337SOL    HW227891   2.372   4.733  16.580
 5338SOL     OW27892   1.843   1.937  20.774
 5338SOL    HW127893   1.869   1.846  20.763
 5338SOL    HW227894   1.828   1.947  20.868
 5339SOL     OW27895   2.719   2.917   1.198
 5339SOL    HW127896   2.722   2.944   1.290
 5339SOL    HW227897   2.765   2.986   1.151
 5340SOL     OW27898   4.400   3.573   8.077
 5340SOL    HW127899   4.352   3.633   8.021
 5340SOL    HW227900   4.430   3.627   8.150
 5341SOL     OW27901   2.981   2.468  19.608
 5341SOL    HW127902   3.019   2.388  19.573
 5341SOL    HW227903   2.913   2.439  19.669
 5342SOL     OW27904   3.814   3.747   3.173
 5342SOL    HW127905   3.738   3.771   3.121
 5342SOL    HW227906   3.885   3.800   3.138
 5343SOL     OW27907   1.007   0.567  19.813
 5343SOL    HW127908   1.088   0.590  19.857
 5343SOL    HW227909   0.939   0.617  19.859
 5344SOL     OW27910   4.612   0.600  20.624
 5344SOL    HW127911   4.531   0.551  20.619
 5344SOL    HW227912   4.638   0.596  20.716
 5345SOL     OW27913   1.695   1.324  16.368
 5345SOL    HW127914   1.698   1.387  16.440
 5345SOL    HW227915   1.658   1.373  16.295
 5346SOL     OW27916   1.839   1.594  19.469
 5346SOL    HW127917   1.915   1.537  19.461
 5346SOL    HW227918   1.766   1.535  19.487
 5347SOL     OW27919   0.941   4.346   6.181
 5347SOL    HW127920   0.972   4.256   6.187
 5347SOL    HW227921   0.997   4.395   6.242
 5348SOL     OW27922   1.826   1.067   5.885
 5348SOL    HW127923   1.886   1.140   5.871
 5348SOL    HW227924   1.884   0.990   5.893
 5349SOL     OW27925   0.755   2.033  18.755
 5349SOL    HW127926   0.709   1.999  18.678
 5349SOL    HW227927   0.774   1.956  18.808
 5350SOL     OW27928   3.389   4.763   2.491
 5350SOL    HW127929   3.477   4.735   2.467
 5350SOL    HW227930   3.402   0.057   2.540
 5351SOL     OW27931   0.718   3.032  19.786
 5351SOL    HW127932   0.756   3.047  19.699
 5351SOL    HW227933   0.711   2.937  19.793
 5352SOL     OW27934   2.671   0.456  18.181
 5352SOL    HW127935   2.741   0.399  18.149
 5352SOL    HW227936   2.629   0.405  18.251
 5353SOL     OW27937   4.551   3.207  18.983
 5353SOL    HW127938   4.582   3.202  18.892
 5353SOL    HW227939   4.512   3.121  19.000
 5354SOL     OW27940   1.077   1.633   3.697
 5354SOL    HW127941   1.097   1.540   3.697
 5354SOL    HW227942   0.994   1.640   3.651
 5355SOL     OW27943   3.006   1.226  19.213
 5355SOL    HW127944   2.987   1.313  19.248
 5355SOL    HW227945   3.102   1.223  19.208
 5356SOL     OW27946   1.221   3.761   4.345
 5356SOL    HW127947   1.178   3.842   4.372
 5356SOL    HW227948   1.152   3.694   4.353
 5357SOL     OW27949   1.486   1.036   2.005
 5357SOL    HW127950   1.564   1.066   1.959
 5357SOL    HW227951   1.506   0.946   2.029
 5358SOL     OW27952   4.054   0.309   0.168
 5358SOL    HW127953   4.055   0.405   0.159
 5358SOL    HW227954   4.146   0.286   0.181
 5359SOL     OW27955   0.936   2.606   6.237
 5359SOL    HW127956   0.923   2.680   6.295
 5359SOL    HW227957   0.931   2.529   6.294
 5360SOL     OW27958   2.825   3.266   4.592
 5360SOL    HW127959   2.856   3.230   4.675
 5360SOL    HW227960   2.862   3.354   4.588
 5361SOL     OW27961   1.855   1.737   0.587
 5361SOL    HW127962   1.849   1.788   0.667
 5361SOL    HW227963   1.939   1.762   0.548
 5362SOL     OW27964   4.725   1.053   4.201
 5362SOL    HW127965   0.016   1.093   4.239
 5362SOL    HW227966   4.759   1.001   4.128
 5363SOL     OW27967   3.402   4.068  20.929
 5363SOL    HW127968   3.337   4.007  20.964
 5363SOL    HW227969   3.478   4.058  20.987
 5364SOL     OW27970   1.679   4.535   1.748
 5364SOL    HW127971   1.626   4.457   1.730
 5364SOL    HW227972   1.670   4.589   1.670
 5365SOL     OW27973   2.417   3.779   1.065
 5365SOL    HW127974   2.465   3.861   1.081
 5365SOL    HW227975   2.330   3.795   1.100
 5366SOL     OW27976   3.212   3.894  18.670
 5366SOL    HW127977   3.209   3.819  18.610
 5366SOL    HW227978   3.171   3.966  18.621
 5367SOL     OW27979   1.552   3.870   1.131
 5367SOL    HW127980   1.506   3.953   1.142
 5367SOL    HW227981   1.572   3.866   1.037
 5368SOL     OW27982   3.771   1.944   1.957
 5368SOL    HW127983   3.826   1.973   1.884
 5368SOL    HW227984   3.781   1.849   1.959
 5369SOL     OW27985   3.310   2.136  17.658
 5369SOL    HW127986   3.311   2.223  17.698
 5369SOL    HW227987   3.355   2.147  17.574
 5370SOL     OW27988   2.965   3.084   0.117
 5370SOL    HW127989   2.961   3.090   0.022
 5370SOL    HW227990   2.882   3.120   0.148
 5371SOL     OW27991   1.070   3.415  13.878
 5371SOL    HW127992   1.010   3.486  13.858
 5371SOL    HW227993   1.155   3.446  13.847
 5372SOL     OW27994   1.789   3.801   6.454
 5372SOL    HW127995   1.759   3.746   6.527
 5372SOL    HW227996   1.822   3.739   6.389
 5373SOL     OW27997   3.204   2.896   6.544
 5373SOL    HW127998   3.227   2.804   6.538
 5373SOL    HW227999   3.110   2.900   6.527
 5374SOL     OW28000   0.928   0.255   5.296
 5374SOL    HW128001   0.947   0.247   5.202
 5374SOL    HW228002   0.842   0.296   5.301
 5375SOL     OW28003   0.018   2.628   8.292
 5375SOL    HW128004   4.747   2.632   8.369
 5375SOL    HW228005   0.085   2.694   8.310
 5376SOL     OW28006   0.389   2.274  16.058
 5376SOL    HW128007   0.327   2.207  16.027
 5376SOL    HW228008   0.465   2.264  16.001
 5377SOL     OW28009   2.105   1.209   3.096
 5377SOL    HW128010   2.092   1.143   3.165
 5377SOL    HW228011   2.194   1.194   3.066
 5378SOL     OW28012   1.184   3.017  20.029
 5378SOL    HW128013   1.244   2.942  20.037
 5378SOL    HW228014   1.222   3.071  19.961
 5379SOL     OW28015   3.023   4.576  12.816
 5379SOL    HW128016   3.111   4.612  12.803
 5379SOL    HW228017   2.992   4.616  12.897
 5380SOL     OW28018   1.380   4.407   3.623
 5380SOL    HW128019   1.425   4.327   3.595
 5380SOL    HW228020   1.430   4.437   3.699
 5381SOL     OW28021   1.120   3.301  18.185
 5381SOL    HW128022   1.212   3.326  18.190
 5381SOL    HW228023   1.075   3.362  18.244
 5382SOL     OW28024   2.612   1.894   4.343
 5382SOL    HW128025   2.629   1.972   4.396
 5382SOL    HW228026   2.643   1.821   4.398
 5383SOL     OW28027   1.366   1.361   3.487
 5383SOL    HW128028   1.442   1.396   3.442
 5383SOL    HW228029   1.292   1.380   3.429
 5384SOL     OW28030   0.739   1.500   0.612
 5384SOL    HW128031   0.715   1.434   0.678
 5384SOL    HW228032   0.825   1.473   0.581
 5385SOL     OW28033   2.126   2.729   5.547
 5385SOL    HW128034   2.170   2.813   5.536
 5385SOL    HW228035   2.037   2.752   5.576
 5386SOL     OW28036   2.714   2.622   3.717
 5386SOL    HW128037   2.671   2.541   3.745
 5386SOL    HW228038   2.803   2.595   3.695
 5387SOL     OW28039   0.034   4.355  14.875
 5387SOL    HW128040   0.091   4.404  14.934
 5387SOL    HW228041   0.087   4.281  14.845
 5388SOL     OW28042   0.298   3.000   3.777
 5388SOL    HW128043   0.337   2.935   3.718
 5388SOL    HW228044   0.208   2.971   3.789
 5389SOL     OW28045   0.443   4.511   2.880
 5389SOL    HW128046   0.446   4.599   2.916
 5389SOL    HW228047   0.350   4.493   2.870
 5390SOL     OW28048   3.309   2.854   7.101
 5390SOL    HW128049   3.331   2.890   7.015
 5390SOL    HW228050   3.278   2.929   7.151
 5391SOL     OW28051   1.758   1.397   3.703
 5391SOL    HW128052   1.717   1.390   3.789
 5391SOL    HW228053   1.851   1.404   3.722
 5392SOL     OW28054   3.821   1.732  12.516
 5392SOL    HW128055   3.842   1.660  12.458
 5392SOL    HW228056   3.886   1.799  12.496
 5393SOL     OW28057   0.426   4.538   1.108
 5393SOL    HW128058   0.446   4.534   1.014
 5393SOL    HW228059   0.423   4.447   1.135
 5394SOL     OW28060   1.121   3.883   3.943
 5394SOL    HW128061   1.216   3.885   3.929
 5394SOL    HW228062   1.103   3.961   3.994
 5395SOL     OW28063   0.709   0.141   0.261
 5395SOL    HW128064   0.665   0.198   0.323
 5395SOL    HW228065   0.709   0.055   0.303
 5396SOL     OW28066   4.754   2.602   5.082
 5396SOL    HW128067   0.009   2.650   5.154
 5396SOL    HW228068   4.722   2.670   5.024
 5397SOL     OW28069   1.445   2.331   4.919
 5397SOL    HW128070   1.462   2.270   4.846
 5397SOL    HW228071   1.531   2.343   4.959
 5398SOL     OW28072   2.480   3.867  17.812
 5398SOL    HW128073   2.560   3.888  17.861
 5398SOL    HW228074   2.409   3.894  17.870
 5399SOL     OW28075   0.878   2.436   0.113
 5399SOL    HW128076   0.865   2.360   0.169
 5399SOL    HW228077   0.935   2.406   0.043
 5400SOL     OW28078   1.764   2.832   2.829
 5400SOL    HW128079   1.783   2.805   2.739
 5400SOL    HW228080   1.822   2.778   2.883
 5401SOL     OW28081   0.651   4.704  20.909
 5401SOL    HW128082   0.674   4.660  20.990
 5401SOL    HW228083   0.735   4.725  20.868
 5402SOL     OW28084   0.364   3.274  16.956
 5402SOL    HW128085   0.363   3.357  16.908
 5402SOL    HW228086   0.449   3.235  16.935
 5403SOL     OW28087   4.375   2.115  17.478
 5403SOL    HW128088   4.343   2.199  17.512
 5403SOL    HW228089   4.370   2.056  17.553
 5404SOL     OW28090   4.214   3.609   2.980
 5404SOL    HW128091   4.153   3.617   2.906
 5404SOL    HW228092   4.253   3.696   2.988
 5405SOL     OW28093   2.947   1.838   3.377
 5405SOL    HW128094   2.998   1.808   3.302
 5405SOL    HW228095   3.009   1.888   3.430
 5406SOL     OW28096   1.446   0.741   3.944
 5406SOL    HW128097   1.409   0.655   3.924
 5406SOL    HW228098   1.422   0.795   3.869
 5407SOL     OW28099   4.214   0.641  18.156
 5407SOL    HW128100   4.264   0.594  18.222
 5407SOL    HW228101   4.252   0.614  18.073
 5408SOL     OW28102   0.954   0.462   4.463
 5408SOL    HW128103   0.991   0.378   4.490
 5408SOL    HW228104   1.016   0.528   4.496
 5409SOL     OW28105   0.778   1.912  11.807
 5409SOL    HW128106   0.802   1.902  11.715
 5409SOL    HW228107   0.702   1.971  11.805
 5410SOL     OW28108   2.335   3.746  16.710
 5410SOL    HW128109   2.402   3.761  16.776
 5410SOL    HW228110   2.317   3.652  16.715
 5411SOL     OW28111   4.738   4.298   2.248
 5411SOL    HW128112   4.695   4.371   2.204
 5411SOL    HW228113   0.018   4.268   2.186
 5412SOL     OW28114   3.111   3.828  13.190
 5412SOL    HW128115   3.024   3.787  13.191
 5412SOL    HW228116   3.125   3.851  13.098
 5413SOL     OW28117   2.318   2.889  20.473
 5413SOL    HW128118   2.254   2.827  20.508
 5413SOL    HW228119   2.401   2.862  20.512
 5414SOL     OW28120   2.215   4.561  16.762
 5414SOL    HW128121   2.121   4.568  16.780
 5414SOL    HW228122   2.233   4.467  16.770
 5415SOL     OW28123   4.463   1.271   6.328
 5415SOL    HW128124   4.539   1.265   6.386
 5415SOL    HW228125   4.463   1.361   6.297
 5416SOL     OW28126   0.846   0.035  17.905
 5416SOL    HW128127   0.843   0.033  18.001
 5416SOL    HW228128   0.778   4.760  17.878
 5417SOL     OW28129   3.096   4.670  16.994
 5417SOL    HW128130   3.006   4.644  17.013
 5417SOL    HW228131   3.137   4.680  17.080
 5418SOL     OW28132   3.176   3.572  19.668
 5418SOL    HW128133   3.258   3.526  19.686
 5418SOL    HW228134   3.151   3.609  19.753
 5419SOL     OW28135   3.773   2.191   2.075
 5419SOL    HW128136   3.820   2.258   2.026
 5419SOL    HW228137   3.762   2.118   2.013
 5420SOL     OW28138   0.691   1.941  21.240
 5420SOL    HW128139   0.656   1.923   0.083
 5420SOL    HW228140   0.737   1.860  21.216
 5421SOL     OW28141   0.210   1.234  16.332
 5421SOL    HW128142   0.258   1.151  16.333
 5421SOL    HW228143   0.276   1.299  16.355
 5422SOL     OW28144   3.605   2.079   4.637
 5422SOL    HW128145   3.615   2.079   4.541
 5422SOL    HW228146   3.525   2.028   4.652
 5423SOL     OW28147   2.166   1.704   5.073
 5423SOL    HW128148   2.146   1.752   5.153
 5423SOL    HW228149   2.250   1.738   5.045
 5424SOL     OW28150   0.532   4.327  13.797
 5424SOL    HW128151   0.457   4.306  13.742
 5424SOL    HW228152   0.522   4.419  13.818
 5425SOL     OW28153   1.467   0.579  20.388
 5425SOL    HW128154   1.483   0.487  20.408
 5425SOL    HW228155   1.390   0.579  20.332
 5426SOL     OW28156   2.883   3.833  18.852
 5426SOL    HW128157   2.887   3.739  18.873
 5426SOL    HW228158   2.792   3.857  18.868
 5427SOL     OW28159   2.654   0.854  18.818
 5427SOL    HW128160   2.702   0.775  18.792
 5427SOL    HW228161   2.563   0.826  18.821
 5428SOL     OW28162   3.228   2.885   1.483
 5428SOL    HW128163   3.323   2.881   1.493
 5428SOL    HW228164   3.194   2.874   1.572
 5429SOL     OW28165   3.486   0.361  19.169
 5429SOL    HW128166   3.403   0.385  19.210
 5429SOL    HW228167   3.514   0.282  19.216
 5430SOL     OW28168   2.170   1.012   5.617
 5430SOL    HW128169   2.264   1.023   5.602
 5430SOL    HW228170   2.153   0.921   5.592
 5431SOL     OW28171   1.916   1.032   1.575
 5431SOL    HW128172   1.942   0.939   1.578
 5431SOL    HW228173   1.993   1.077   1.540
 5432SOL     OW28174   3.953   0.182  17.725
 5432SOL    HW128175   4.032   0.169  17.673
 5432SOL    HW228176   3.978   0.248  17.790
 5433SOL     OW28177   0.074   0.350   4.113
 5433SOL    HW128178   0.127   0.427   4.135
 5433SOL    HW228179   0.125   0.304   4.046
 5434SOL     OW28180   0.431   1.063   3.673
 5434SOL    HW128181   0.470   1.149   3.692
 5434SOL    HW228182   0.447   1.012   3.753
 5435SOL     OW28183   1.071   3.765   0.824
 5435SOL    HW128184   1.146   3.804   0.780
 5435SOL    HW228185   1.091   3.773   0.917
 5436SOL     OW28186   2.455   4.085  17.387
 5436SOL    HW128187   2.549   4.098  17.400
 5436SOL    HW228188   2.413   4.158  17.432
 5437SOL     OW28189   3.036   1.838  20.538
 5437SOL    HW128190   3.087   1.798  20.609
 5437SOL    HW228191   2.956   1.786  20.534
 5438SOL     OW28192   1.425   3.603  20.796
 5438SOL    HW128193   1.464   3.626  20.881
 5438SOL    HW228194   1.331   3.602  20.813
 5439SOL     OW28195   2.970   4.262   8.117
 5439SOL    HW128196   2.881   4.228   8.109
 5439SOL    HW228197   2.959   4.349   8.157
 5440SOL     OW28198   2.145   4.277   1.351
 5440SOL    HW128199   2.131   4.361   1.307
 5440SOL    HW228200   2.057   4.240   1.359
 5441SOL     OW28201   3.220   4.563   4.398
 5441SOL    HW128202   3.241   4.650   4.433
 5441SOL    HW228203   3.130   4.571   4.366
 5442SOL     OW28204   1.907   0.435  19.977
 5442SOL    HW128205   1.998   0.408  19.962
 5442SOL    HW228206   1.859   0.398  19.903
 5443SOL     OW28207   2.873   2.511   3.233
 5443SOL    HW128208   2.950   2.489   3.181
 5443SOL    HW228209   2.898   2.590   3.280
 5444SOL     OW28210   0.177   0.949   3.699
 5444SOL    HW128211   0.123   0.923   3.625
 5444SOL    HW228212   0.267   0.938   3.668
 5445SOL     OW28213   0.940   4.235   3.821
 5445SOL    HW128214   0.993   4.288   3.762
 5445SOL    HW228215   0.945   4.146   3.784
 5446SOL     OW28216   2.238   4.367  13.415
 5446SOL    HW128217   2.333   4.369  13.397
 5446SOL    HW228218   2.218   4.455  13.446
 5447SOL     OW28219   3.110   0.324   5.915
 5447SOL    HW128220   3.138   0.405   5.872
 5447SOL    HW228221   3.130   0.255   5.852
 5448SOL     OW28222   4.433   4.030  18.567
 5448SOL    HW128223   4.390   4.115  18.558
 5448SOL    HW228224   4.455   4.025  18.660
 5449SOL     OW28225   0.136   2.948   2.224
 5449SOL    HW128226   0.169   2.924   2.310
 5449SOL    HW228227   0.147   2.869   2.171
 5450SOL     OW28228   1.049   3.640   1.572
 5450SOL    HW128229   1.018   3.703   1.506
 5450SOL    HW228230   1.143   3.636   1.559
 5451SOL     OW28231   2.188   4.588  19.719
 5451SOL    HW128232   2.151   4.523  19.778
 5451SOL    HW228233   2.140   4.669  19.739
 5452SOL     OW28234   1.935   2.043   5.991
 5452SOL    HW128235   1.952   2.064   5.899
 5452SOL    HW228236   2.010   2.081   6.038
 5453SOL     OW28237   0.139   3.885  20.721
 5453SOL    HW128238   0.143   3.824  20.647
 5453SOL    HW228239   0.106   3.833  20.794
 5454SOL     OW28240   0.122   2.441  16.532
 5454SOL    HW128241   0.031   2.428  16.555
 5454SOL    HW228242   0.154   2.354  16.508
 5455SOL     OW28243   3.514   2.341  20.386
 5455SOL    HW128244   3.579   2.397  20.429
 5455SOL    HW228245   3.430   2.383  20.404
 5456SOL     OW28246   2.246   2.749   7.834
 5456SOL    HW128247   2.286   2.827   7.871
 5456SOL    HW228248   2.152   2.769   7.830
 5457SOL     OW28249   1.323   2.429   1.404
 5457SOL    HW128250   1.374   2.383   1.471
 5457SOL    HW228251   1.375   2.507   1.384
 5458SOL     OW28252   1.593   3.839   0.841
 5458SOL    HW128253   1.641   3.776   0.789
 5458SOL    HW228254   1.623   3.924   0.810
 5459SOL     OW28255   2.270   0.724   5.612
 5459SOL    HW128256   2.326   0.648   5.629
 5459SOL    HW228257   2.315   0.771   5.542
 5460SOL     OW28258   2.002   1.532   4.526
 5460SOL    HW128259   1.925   1.498   4.571
 5460SOL    HW228260   2.051   1.579   4.594
 5461SOL     OW28261   4.198   1.332   6.704
 5461SOL    HW128262   4.251   1.277   6.648
 5461SOL    HW228263   4.151   1.390   6.644
 5462SOL     OW28264   4.589   2.085   4.995
 5462SOL    HW128265   4.502   2.046   4.990
 5462SOL    HW228266   4.590   2.152   4.927
 5463SOL     OW28267   0.801   2.676   2.198
 5463SOL    HW128268   0.747   2.708   2.125
 5463SOL    HW228269   0.764   2.589   2.218
 5464SOL     OW28270   2.851   3.841   5.361
 5464SOL    HW128271   2.836   3.890   5.280
 5464SOL    HW228272   2.768   3.847   5.408
 5465SOL     OW28273   1.356   4.034   3.689
 5465SOL    HW128274   1.378   4.002   3.777
 5465SOL    HW228275   1.430   4.089   3.665
 5466SOL     OW28276   2.859   4.386   5.385
 5466SOL    HW128277   2.825   4.475   5.373
 5466SOL    HW228278   2.851   4.371   5.479
 5467SOL     OW28279   3.340   2.178  19.504
 5467SOL    HW128280   3.342   2.194  19.599
 5467SOL    HW228281   3.266   2.230  19.473
 5468SOL     OW28282   1.710   0.566  19.465
 5468SOL    HW128283   1.641   0.532  19.522
 5468SOL    HW228284   1.758   0.488  19.436
 5469SOL     OW28285   0.028   0.048   3.195
 5469SOL    HW128286   4.721   0.069   3.197
 5469SOL    HW228287   0.033   4.756   3.141
 5470SOL     OW28288   0.378   2.257   0.230
 5470SOL    HW128289   0.343   2.341   0.200
 5470SOL    HW228290   0.346   2.194   0.165
 5471SOL     OW28291   4.394   2.045  14.405
 5471SOL    HW128292   4.472   2.054  14.460
 5471SOL    HW228293   4.416   2.093  14.325
 5472SOL     OW28294   0.428   4.384  21.191
 5472SOL    HW128295   0.436   4.466  21.240
 5472SOL    HW228296   0.515   4.345  21.196
 5473SOL     OW28297   0.597   3.377   2.983
 5473SOL    HW128298   0.618   3.335   2.900
 5473SOL    HW228299   0.575   3.467   2.960
 5474SOL     OW28300   1.653   1.367   4.701
 5474SOL    HW128301   1.735   1.324   4.677
 5474SOL    HW228302   1.679   1.454   4.730
 5475SOL     OW28303   2.014   0.756  15.798
 5475SOL    HW128304   2.094   0.712  15.768
 5475SOL    HW228305   1.966   0.775  15.718
 5476SOL     OW28306   2.169   2.451  19.352
 5476SOL    HW128307   2.188   2.524  19.293
 5476SOL    HW228308   2.074   2.438  19.344
 5477SOL     OW28309   3.263   1.539  16.118
 5477SOL    HW128310   3.344   1.576  16.155
 5477SOL    HW228311   3.255   1.454  16.160
 5478SOL     OW28312   4.240   3.290  19.927
 5478SOL    HW128313   4.223   3.212  19.875
 5478SOL    HW228314   4.306   3.263  19.991
 5479SOL     OW28315   1.690   1.739   1.286
 5479SOL    HW128316   1.677   1.720   1.193
 5479SOL    HW228317   1.781   1.769   1.291
 5480SOL     OW28318   3.719   1.991   9.651
 5480SOL    HW128319   3.729   2.054   9.722
 5480SOL    HW228320   3.809   1.963   9.631
 5481SOL     OW28321   0.194   1.002  20.838
 5481SOL    HW128322   0.141   0.924  20.855
 5481SOL    HW228323   0.131   1.068  20.809
 5482SOL     OW28324   2.850   2.244   0.891
 5482SOL    HW128325   2.883   2.215   0.976
 5482SOL    HW228326   2.919   2.301   0.857
 5483SOL     OW28327   2.014   1.689  14.234
 5483SOL    HW128328   1.971   1.725  14.157
 5483SOL    HW228329   2.063   1.762  14.271
 5484SOL     OW28330   3.192   0.079   1.969
 5484SOL    HW128331   3.135   0.052   2.041
 5484SOL    HW228332   3.273   0.030   1.984
 5485SOL     OW28333   3.764   0.992   3.770
 5485SOL    HW128334   3.813   1.012   3.850
 5485SOL    HW228335   3.815   0.923   3.728
 5486SOL     OW28336   3.096   2.931   3.456
 5486SOL    HW128337   3.112   2.968   3.369
 5486SOL    HW228338   3.065   3.005   3.509
 5487SOL     OW28339   1.486   0.893   1.255
 5487SOL    HW128340   1.578   0.903   1.230
 5487SOL    HW228341   1.443   0.860   1.176
 5488SOL     OW28342   0.223   1.760  18.629
 5488SOL    HW128343   0.314   1.757  18.598
 5488SOL    HW228344   0.174   1.711  18.563
 5489SOL     OW28345   4.305   3.245   0.304
 5489SOL    HW128346   4.275   3.321   0.354
 5489SOL    HW228347   4.366   3.282   0.239
 5490SOL     OW28348   3.607   2.295   1.592
 5490SOL    HW128349   3.533   2.348   1.560
 5490SOL    HW228350   3.593   2.289   1.686
 5491SOL     OW28351   4.688   0.995   5.315
 5491SOL    HW128352   4.611   1.052   5.304
 5491SOL    HW228353   4.675   0.926   5.250
 5492SOL     OW28354   3.631   0.175   0.756
 5492SOL    HW128355   3.568   0.122   0.708
 5492SOL    HW228356   3.716   0.152   0.717
 5493SOL     OW28357   4.772   0.807  18.041
 5493SOL    HW128358   4.765   0.809  17.946
 5493SOL    HW228359   4.694   0.852  18.072
 5494SOL     OW28360   1.637   4.620  17.101
 5494SOL    HW128361   1.718   4.574  17.080
 5494SOL    HW228362   1.594   4.632  17.017
 5495SOL     OW28363   2.651   2.711   6.883
 5495SOL    HW128364   2.734   2.683   6.843
 5495SOL    HW228365   2.625   2.638   6.938
 5496SOL     OW28366   1.401   3.922   2.750
 5496SOL    HW128367   1.350   3.998   2.778
 5496SOL    HW228368   1.442   3.890   2.830
 5497SOL     OW28369   3.950   1.833   6.564
 5497SOL    HW128370   3.872   1.820   6.509
 5497SOL    HW228371   3.930   1.785   6.645
 5498SOL     OW28372   3.494   3.933  16.859
 5498SOL    HW128373   3.472   3.953  16.768
 5498SOL    HW228374   3.430   3.983  16.910
 5499SOL     OW28375   4.780   4.711  16.800
 5499SOL    HW128376   4.702   4.740  16.752
 5499SOL    HW228377   4.746   4.661  16.874
 5500SOL     OW28378   0.790   1.374  15.373
 5500SOL    HW128379   0.815   1.440  15.308
 5500SOL    HW228380   0.834   1.294  15.344
 5501SOL     OW28381   4.342   3.281  15.577
 5501SOL    HW128382   4.287   3.203  15.573
 5501SOL    HW228383   4.324   3.327  15.494
 5502SOL     OW28384   0.047   1.717  17.041
 5502SOL    HW128385   4.767   1.754  17.099
 5502SOL    HW228386   0.019   1.742  16.953
 5503SOL     OW28387   2.494   1.023  17.905
 5503SOL    HW128388   2.456   1.109  17.924
 5503SOL    HW228389   2.550   1.004  17.980
 5504SOL     OW28390   0.883   4.044  16.436
 5504SOL    HW128391   0.917   3.998  16.513
 5504SOL    HW228392   0.820   4.107  16.471
 5505SOL     OW28393   0.195   3.114   2.579
 5505SOL    HW128394   0.274   3.100   2.632
 5505SOL    HW228395   0.132   3.153   2.639
 5506SOL     OW28396   3.761   0.627   0.498
 5506SOL    HW128397   3.759   0.572   0.576
 5506SOL    HW228398   3.844   0.606   0.455
 5507SOL     OW28399   0.376   3.265   5.515
 5507SOL    HW128400   0.286   3.291   5.498
 5507SOL    HW228401   0.429   3.338   5.484
 5508SOL     OW28402   1.856   2.175  20.081
 5508SOL    HW128403   1.946   2.189  20.112
 5508SOL    HW228404   1.810   2.256  20.105
 5509SOL     OW28405   4.257   4.716   5.189
 5509SOL    HW128406   4.183   4.656   5.183
 5509SOL    HW228407   4.282   4.714   5.282
 5510SOL     OW28408   0.383   3.506  16.798
 5510SOL    HW128409   0.438   3.472  16.727
 5510SOL    HW228410   0.445   3.534  16.865
 5511SOL     OW28411   0.002   4.657   0.117
 5511SOL    HW128412   0.053   4.583   0.150
 5511SOL    HW228413   0.019   4.728   0.180
 5512SOL     OW28414   3.652   3.038  19.843
 5512SOL    HW128415   3.689   2.952  19.860
 5512SOL    HW228416   3.581   3.047  19.907
 5513SOL     OW28417   3.734   3.006   9.283
 5513SOL    HW128418   3.765   2.916   9.272
 5513SOL    HW228419   3.645   3.006   9.247
 5514SOL     OW28420   2.543   4.269   0.039
 5514SOL    HW128421   2.517   4.198   0.098
 5514SOL    HW228422   2.494   4.345   0.070
 5515SOL     OW28423   2.279   3.687  19.503
 5515SOL    HW128424   2.245   3.776  19.503
 5515SOL    HW228425   2.316   3.675  19.416
 5516SOL     OW28426   1.437   2.504   5.719
 5516SOL    HW128427   1.350   2.529   5.749
 5516SOL    HW228428   1.433   2.408   5.710
 5517SOL     OW28429   2.856   0.629  20.102
 5517SOL    HW128430   2.871   0.719  20.131
 5517SOL    HW228431   2.852   0.635  20.007
 5518SOL     OW28432   1.388   3.447  18.182
 5518SOL    HW128433   1.463   3.441  18.241
 5518SOL    HW228434   1.404   3.381  18.114
 5519SOL     OW28435   3.897   0.058  14.475
 5519SOL    HW128436   3.920   0.078  14.385
 5519SOL    HW228437   3.861   0.140  14.510
 5520SOL     OW28438   4.371   2.336   1.289
 5520SOL    HW128439   4.436   2.269   1.267
 5520SOL    HW228440   4.341   2.313   1.377
 5521SOL     OW28441   1.171   1.764   1.773
 5521SOL    HW128442   1.251   1.816   1.769
 5521SOL    HW228443   1.144   1.754   1.682
 5522SOL     OW28444   0.798   2.931   2.867
 5522SOL    HW128445   0.874   2.989   2.859
 5522SOL    HW228446   0.804   2.872   2.792
 5523SOL     OW28447   4.239   2.174   2.807
 5523SOL    HW128448   4.216   2.259   2.845
 5523SOL    HW228449   4.161   2.121   2.817
 5524SOL     OW28450   3.162   1.287  17.159
 5524SOL    HW128451   3.162   1.237  17.241
 5524SOL    HW228452   3.165   1.379  17.186
 5525SOL     OW28453   3.169   0.167   7.417
 5525SOL    HW128454   3.145   0.239   7.359
 5525SOL    HW228455   3.135   0.088   7.374
 5526SOL     OW28456   3.420   3.529  18.658
 5526SOL    HW128457   3.494   3.497  18.710
 5526SOL    HW228458   3.361   3.454  18.654
 5527SOL     OW28459   4.213   1.380  20.879
 5527SOL    HW128460   4.284   1.435  20.846
 5527SOL    HW228461   4.258   1.308  20.923
 5528SOL     OW28462   3.867   4.001  20.042
 5528SOL    HW128463   3.961   4.016  20.047
 5528SOL    HW228464   3.846   4.014  19.949
 5529SOL     OW28465   4.070   1.753   4.610
 5529SOL    HW128466   4.000   1.814   4.634
 5529SOL    HW228467   4.060   1.743   4.515
 5530SOL     OW28468   1.678   0.839   2.259
 5530SOL    HW128469   1.666   0.809   2.169
 5530SOL    HW228470   1.761   0.886   2.258
 5531SOL     OW28471   4.724   1.645   2.001
 5531SOL    HW128472   4.730   1.731   1.960
 5531SOL    HW228473   4.738   1.661   2.094
 5532SOL     OW28474   3.624   1.524  17.478
 5532SOL    HW128475   3.614   1.488  17.566
 5532SOL    HW228476   3.576   1.463  17.422
 5533SOL     OW28477   4.482   3.004   3.732
 5533SOL    HW128478   4.483   3.003   3.827
 5533SOL    HW228479   4.427   2.929   3.708
 5534SOL     OW28480   1.472   0.626  13.075
 5534SOL    HW128481   1.445   0.607  12.985
 5534SOL    HW228482   1.460   0.721  13.083
 5535SOL     OW28483   4.507   3.039   4.914
 5535SOL    HW128484   4.488   2.997   4.830
 5535SOL    HW228485   4.421   3.066   4.947
 5536SOL     OW28486   1.895   4.408  12.367
 5536SOL    HW128487   1.918   4.500  12.355
 5536SOL    HW228488   1.892   4.373  12.277
 5537SOL     OW28489   3.767   4.620  16.956
 5537SOL    HW128490   3.745   4.531  16.929
 5537SOL    HW228491   3.683   4.656  16.986
 5538SOL     OW28492   0.942   4.550  20.777
 5538SOL    HW128493   0.864   4.495  20.765
 5538SOL    HW228494   1.015   4.487  20.779
 5539SOL     OW28495   3.546   1.219  15.165
 5539SOL    HW128496   3.553   1.307  15.201
 5539SOL    HW228497   3.460   1.189  15.195
 5540SOL     OW28498   0.401   3.084  14.842
 5540SOL    HW128499   0.391   3.174  14.874
 5540SOL    HW228500   0.312   3.051  14.831
 5541SOL     OW28501   4.045   3.666   3.450
 5541SOL    HW128502   4.066   3.641   3.540
 5541SOL    HW228503   3.963   3.620   3.431
 5542SOL     OW28504   3.999   2.344   3.767
 5542SOL    HW128505   4.069   2.293   3.726
 5542SOL    HW228506   3.979   2.297   3.848
 5543SOL     OW28507   1.934   0.888  17.701
 5543SOL    HW128508   1.895   0.891  17.789
 5543SOL    HW228509   2.016   0.937  17.710
 5544SOL     OW28510   1.632   0.704  20.563
 5544SOL    HW128511   1.562   0.700  20.497
 5544SOL    HW228512   1.706   0.743  20.517
 5545SOL     OW28513   4.622   2.450  16.551
 5545SOL    HW128514   4.543   2.395  16.549
 5545SOL    HW228515   4.600   2.524  16.494
 5546SOL     OW28516   1.766   2.545  15.359
 5546SOL    HW128517   1.840   2.568  15.415
 5546SOL    HW228518   1.694   2.599  15.390
 5547SOL     OW28519   2.316   2.911   8.306
 5547SOL    HW128520   2.351   2.893   8.219
 5547SOL    HW228521   2.368   2.985   8.338
 5548SOL     OW28522   0.663   2.013   4.801
 5548SOL    HW128523   0.584   2.066   4.797
 5548SOL    HW228524   0.733   2.071   4.771
 5549SOL     OW28525   3.131   1.621   0.049
 5549SOL    HW128526   3.106   1.575   0.129
 5549SOL    HW228527   3.062   1.599  21.231
 5550SOL     OW28528   2.699   3.220   0.025
 5550SOL    HW128529   2.675   3.312   0.018
 5550SOL    HW228530   2.616   3.173   0.035
 5551SOL     OW28531   2.434   3.368   5.063
 5551SOL    HW128532   2.388   3.292   5.028
 5551SOL    HW228533   2.380   3.443   5.037
 5552SOL     OW28534   0.363   2.282   5.466
 5552SOL    HW128535   0.419   2.339   5.517
 5552SOL    HW228536   0.423   2.228   5.414
 5553SOL     OW28537   0.480   4.735  17.114
 5553SOL    HW128538   0.432   4.761  17.193
 5553SOL    HW228539   0.416   4.742  17.043
 5554SOL     OW28540   4.531   4.281  19.344
 5554SOL    HW128541   4.611   4.314  19.383
 5554SOL    HW228542   4.560   4.237  19.263
 5555SOL     OW28543   2.178   4.055   3.737
 5555SOL    HW128544   2.147   4.002   3.665
 5555SOL    HW228545   2.241   4.116   3.697
 5556SOL     OW28546   2.381   1.656  19.852
 5556SOL    HW128547   2.310   1.595  19.831
 5556SOL    HW228548   2.373   1.671  19.946
 5557SOL     OW28549   4.024   1.746  19.822
 5557SOL    HW128550   3.937   1.707  19.819
 5557SOL    HW228551   4.047   1.761  19.730
 5558SOL     OW28552   1.529   3.011  17.225
 5558SOL    HW128553   1.604   3.041  17.174
 5558SOL    HW228554   1.456   3.065  17.195
 5559SOL     OW28555   4.751   0.418  17.402
 5559SOL    HW128556   4.764   0.324  17.413
 5559SOL    HW228557   0.033   0.458  17.455
 5560SOL     OW28558   4.276   1.052   2.366
 5560SOL    HW128559   4.323   1.028   2.447
 5560SOL    HW228560   4.339   1.104   2.317
 5561SOL     OW28561   1.004   3.136   2.913
 5561SOL    HW128562   1.006   3.132   3.009
 5561SOL    HW228563   1.096   3.141   2.888
 5562SOL     OW28564   2.649   0.185   6.119
 5562SOL    HW128565   2.658   0.132   6.198
 5562SOL    HW228566   2.714   0.255   6.129
 5563SOL     OW28567   0.162   3.064   2.912
 5563SOL    HW128568   0.189   3.073   3.003
 5563SOL    HW228569   0.118   3.146   2.891
 5564SOL     OW28570   1.282   0.283  18.147
 5564SOL    HW128571   1.264   0.374  18.173
 5564SOL    HW228572   1.208   0.233  18.182
 5565SOL     OW28573   0.998   0.575   2.217
 5565SOL    HW128574   0.966   0.511   2.153
 5565SOL    HW228575   1.078   0.609   2.178
 5566SOL     OW28576   4.440   4.338  17.706
 5566SOL    HW128577   4.506   4.289  17.755
 5566SOL    HW228578   4.381   4.271  17.672
 5567SOL     OW28579   1.910   3.788  18.527
 5567SOL    HW128580   1.992   3.832  18.549
 5567SOL    HW228581   1.905   3.792  18.432
 5568SOL     OW28582   4.157   0.780   4.730
 5568SOL    HW128583   4.184   0.688   4.723
 5568SOL    HW228584   4.162   0.813   4.641
 5569SOL     OW28585   2.586   4.236   5.593
 5569SOL    HW128586   2.593   4.263   5.501
 5569SOL    HW228587   2.518   4.169   5.594
 5570SOL     OW28588   0.355   2.764   2.925
 5570SOL    HW128589   0.290   2.760   2.995
 5570SOL    HW228590   0.427   2.708   2.955
 5571SOL     OW28591   3.158   0.724   2.084
 5571SOL    HW128592   3.088   0.786   2.062
 5571SOL    HW228593   3.181   0.683   2.001
 5572SOL     OW28594   2.252   0.095  18.730
 5572SOL    HW128595   2.346   0.096  18.747
 5572SOL    HW228596   2.245   0.093  18.634
 5573SOL     OW28597   2.970   2.370   7.584
 5573SOL    HW128598   3.061   2.374   7.613
 5573SOL    HW228599   2.975   2.371   7.489
 5574SOL     OW28600   1.658   1.566   2.836
 5574SOL    HW128601   1.565   1.579   2.850
 5574SOL    HW228602   1.663   1.522   2.751
 5575SOL     OW28603   0.312   2.331  19.182
 5575SOL    HW128604   0.312   2.261  19.247
 5575SOL    HW228605   0.299   2.411  19.233
 5576SOL     OW28606   4.133   1.096  19.616
 5576SOL    HW128607   4.188   1.138  19.550
 5576SOL    HW228608   4.190   1.090  19.693
 5577SOL     OW28609   1.183   1.400   4.228
 5577SOL    HW128610   1.182   1.310   4.198
 5577SOL    HW228611   1.208   1.394   4.321
 5578SOL     OW28612   4.515   3.242  20.991
 5578SOL    HW128613   4.465   3.243  20.910
 5578SOL    HW228614   4.511   3.151  21.020
 5579SOL     OW28615   4.342   0.196  16.168
 5579SOL    HW128616   4.248   0.191  16.148
 5579SOL    HW228617   4.366   0.286  16.147
 5580SOL     OW28618   1.866   1.290   4.574
 5580SOL    HW128619   1.927   1.217   4.587
 5580SOL    HW228620   1.817   1.267   4.495
 5581SOL     OW28621   4.685   4.132  17.493
 5581SOL    HW128622   4.688   4.102  17.584
 5581SOL    HW228623   4.777   4.137  17.467
 5582SOL     OW28624   1.214   1.437  12.877
 5582SOL    HW128625   1.230   1.439  12.783
 5582SOL    HW228626   1.118   1.438  12.885
 5583SOL     OW28627   2.263   0.033  14.313
 5583SOL    HW128628   2.318   4.741  14.313
 5583SOL    HW228629   2.224   0.034  14.226
 5584SOL     OW28630   1.758   0.161  18.857
 5584SOL    HW128631   1.680   0.107  18.842
 5584SOL    HW228632   1.804   0.116  18.928
 5585SOL     OW28633   1.125   4.157   5.071
 5585SOL    HW128634   1.147   4.186   5.160
 5585SOL    HW228635   1.184   4.206   5.014
 5586SOL     OW28636   1.563   2.991   2.651
 5586SOL    HW128637   1.589   2.977   2.742
 5586SOL    HW228638   1.624   2.937   2.600
 5587SOL     OW28639   1.993   4.025  17.322
 5587SOL    HW128640   1.930   4.056  17.256
 5587SOL    HW228641   2.077   4.059  17.292
 5588SOL     OW28642   2.606   1.746  16.637
 5588SOL    HW128643   2.588   1.829  16.679
 5588SOL    HW228644   2.567   1.754  16.550
 5589SOL     OW28645   0.970   0.705   1.193
 5589SOL    HW128646   0.950   0.795   1.219
 5589SOL    HW228647   0.965   0.706   1.098
 5590SOL     OW28648   2.558   0.426  17.915
 5590SOL    HW128649   2.607   0.426  17.997
 5590SOL    HW228650   2.571   0.339  17.878
 5591SOL     OW28651   2.651   4.286  18.363
 5591SOL    HW128652   2.664   4.236  18.283
 5591SOL    HW228653   2.591   4.233  18.415
 5592SOL     OW28654   3.939   4.693   2.050
 5592SOL    HW128655   3.952   4.602   2.074
 5592SOL    HW228656   3.876   4.726   2.114
 5593SOL     OW28657   3.137   2.700  19.168
 5593SOL    HW128658   3.062   2.664  19.120
 5593SOL    HW228659   3.176   2.624  19.211
 5594SOL     OW28660   1.832   2.173   5.625
 5594SOL    HW128661   1.761   2.199   5.567
 5594SOL    HW228662   1.843   2.248   5.684
 5595SOL     OW28663   3.309   3.812   6.024
 5595SOL    HW128664   3.320   3.887   6.083
 5595SOL    HW228665   3.215   3.796   6.022
 5596SOL     OW28666   0.372   3.450   5.819
 5596SOL    HW128667   0.325   3.533   5.828
 5596SOL    HW228668   0.439   3.452   5.887
 5597SOL     OW28669   3.776   1.751  16.164
 5597SOL    HW128670   3.695   1.764  16.213
 5597SOL    HW228671   3.792   1.834  16.121
 5598SOL     OW28672   2.260   3.481   0.817
 5598SOL    HW128673   2.259   3.442   0.729
 5598SOL    HW228674   2.256   3.575   0.801
 5599SOL     OW28675   0.136   0.861   4.789
 5599SOL    HW128676   0.160   0.918   4.717
 5599SOL    HW228677   0.057   0.816   4.759
 5600SOL     OW28678   2.649   2.417   1.190
 5600SOL    HW128679   2.608   2.331   1.187
 5600SOL    HW228680   2.631   2.455   1.104
 5601SOL     OW28681   0.745   2.205   5.075
 5601SOL    HW128682   0.745   2.249   5.161
 5601SOL    HW228683   0.836   2.180   5.061
 5602SOL     OW28684   1.256   3.643   0.395
 5602SOL    HW128685   1.253   3.730   0.355
 5602SOL    HW228686   1.301   3.656   0.478
 5603SOL     OW28687   2.247   3.767   3.112
 5603SOL    HW128688   2.259   3.855   3.076
 5603SOL    HW228689   2.318   3.758   3.176
 5604SOL     OW28690   0.004   3.066   4.402
 5604SOL    HW128691   4.768   3.088   4.492
 5604SOL    HW228692   0.073   3.129   4.379
 5605SOL     OW28693   3.281   0.501  17.542
 5605SOL    HW128694   3.350   0.436  17.530
 5605SOL    HW228695   3.214   0.457  17.594
 5606SOL     OW28696   1.318   3.279  17.270
 5606SOL    HW128697   1.248   3.344  17.264
 5606SOL    HW228698   1.323   3.243  17.181
 5607SOL     OW28699   1.367   0.073   5.359
 5607SOL    HW128700   1.271   0.074   5.364
 5607SOL    HW228701   1.386   0.066   5.265
 5608SOL     OW28702   4.718   0.627   6.878
 5608SOL    HW128703   4.762   0.549   6.912
 5608SOL    HW228704   4.644   0.639   6.937
 5609SOL     OW28705   2.285   4.533  14.505
 5609SOL    HW128706   2.241   4.498  14.582
 5609SOL    HW228707   2.215   4.550  14.442
 5610SOL     OW28708   1.340   4.595   5.137
 5610SOL    HW128709   1.396   4.662   5.098
 5610SOL    HW228710   1.399   4.545   5.194
 5611SOL     OW28711   2.940   0.038   4.142
 5611SOL    HW128712   2.967   4.744   4.186
 5611SOL    HW228713   2.896   0.008   4.062
 5612SOL     OW28714   2.643   0.809   1.905
 5612SOL    HW128715   2.648   0.715   1.888
 5612SOL    HW228716   2.558   0.821   1.946
 5613SOL     OW28717   1.925   3.259   3.543
 5613SOL    HW128718   1.841   3.217   3.562
 5613SOL    HW228719   1.931   3.330   3.606
 5614SOL     OW28720   4.513   3.259  18.704
 5614SOL    HW128721   4.431   3.294  18.739
 5614SOL    HW228722   4.485   3.187  18.648
 5615SOL     OW28723   4.361   2.772  15.083
 5615SOL    HW128724   4.314   2.770  14.999
 5615SOL    HW228725   4.374   2.865  15.101
 5616SOL     OW28726   3.867   4.285   1.044
 5616SOL    HW128727   3.861   4.191   1.060
 5616SOL    HW228728   3.884   4.323   1.131
 5617SOL     OW28729   3.574   4.318   2.441
 5617SOL    HW128730   3.497   4.344   2.492
 5617SOL    HW228731   3.644   4.374   2.473
 5618SOL     OW28732   1.112   0.557  18.506
 5618SOL    HW128733   1.114   0.614  18.583
 5618SOL    HW228734   1.115   0.468  18.542
 5619SOL     OW28735   1.607   2.684  19.771
 5619SOL    HW128736   1.550   2.725  19.706
 5619SOL    HW228737   1.612   2.749  19.842
 5620SOL     OW28738   2.240   3.601   6.000
 5620SOL    HW128739   2.257   3.614   6.093
 5620SOL    HW228740   2.246   3.506   5.987
 5621SOL     OW28741   0.170   3.206   6.611
 5621SOL    HW128742   0.237   3.203   6.679
 5621SOL    HW228743   0.105   3.268   6.645
 5622SOL     OW28744   0.023   2.812  16.511
 5622SOL    HW128745   4.744   2.751  16.479
 5622SOL    HW228746   0.104   2.785  16.467
 5623SOL     OW28747   3.482   2.903   1.657
 5623SOL    HW128748   3.419   2.969   1.687
 5623SOL    HW228749   3.568   2.946   1.666
 5624SOL     OW28750   0.606   2.258   0.045
 5624SOL    HW128751   0.533   2.275   0.104
 5624SOL    HW228752   0.678   2.230   0.103
 5625SOL     OW28753   2.108   2.116  21.148
 5625SOL    HW128754   2.151   2.134  21.065
 5625SOL    HW228755   2.176   2.076  21.203
 5626SOL     OW28756   2.891   1.507  16.789
 5626SOL    HW128757   2.984   1.498  16.766
 5626SOL    HW228758   2.845   1.505  16.706
 5627SOL     OW28759   2.813   2.072  17.554
 5627SOL    HW128760   2.745   2.098  17.492
 5627SOL    HW228761   2.849   1.991  17.516
 5628SOL     OW28762   4.491   0.087  15.979
 5628SOL    HW128763   4.445   0.111  16.059
 5628SOL    HW228764   4.581   0.116  15.994
 5629SOL     OW28765   1.249   2.452   4.056
 5629SOL    HW128766   1.156   2.431   4.058
 5629SOL    HW228767   1.281   2.416   3.973
 5630SOL     OW28768   3.031   1.019  21.015
 5630SOL    HW128769   2.961   1.055  21.069
 5630SOL    HW228770   2.994   0.937  20.980
 5631SOL     OW28771   1.128   3.618   2.737
 5631SOL    HW128772   1.204   3.643   2.789
 5631SOL    HW228773   1.157   3.541   2.687
 5632SOL     OW28774   0.178   2.753   3.125
 5632SOL    HW128775   0.186   2.784   3.216
 5632SOL    HW228776   0.084   2.757   3.107
 5633SOL     OW28777   1.864   2.450  15.752
 5633SOL    HW128778   1.837   2.490  15.835
 5633SOL    HW228779   1.785   2.407  15.719
 5634SOL     OW28780   4.777   0.764  17.776
 5634SOL    HW128781   0.043   0.686  17.793
 5634SOL    HW228782   4.738   0.749  17.690
 5635SOL     OW28783   1.705   1.041   4.829
 5635SOL    HW128784   1.689   0.974   4.896
 5635SOL    HW228785   1.619   1.078   4.810
 5636SOL     OW28786   4.159   2.912  16.332
 5636SOL    HW128787   4.080   2.867  16.362
 5636SOL    HW228788   4.127   2.978  16.270
 5637SOL     OW28789   3.641   0.853   2.384
 5637SOL    HW128790   3.604   0.934   2.348
 5637SOL    HW228791   3.610   0.784   2.326
 5638SOL     OW28792   1.786   4.324   4.422
 5638SOL    HW128793   1.857   4.345   4.362
 5638SOL    HW228794   1.706   4.339   4.370
 5639SOL     OW28795   3.944   1.517  18.638
 5639SOL    HW128796   3.861   1.480  18.667
 5639SOL    HW228797   3.965   1.585  18.702
 5640SOL     OW28798   2.636   3.004  16.526
 5640SOL    HW128799   2.687   2.923  16.537
 5640SOL    HW228800   2.702   3.073  16.525
 5641SOL     OW28801   3.147   2.554   4.788
 5641SOL    HW128802   3.123   2.555   4.881
 5641SOL    HW228803   3.080   2.500   4.746
 5642SOL     OW28804   3.534   3.565   6.866
 5642SOL    HW128805   3.458   3.542   6.920
 5642SOL    HW228806   3.596   3.603   6.928
 5643SOL     OW28807   0.684   1.368  15.843
 5643SOL    HW128808   0.756   1.311  15.816
 5643SOL    HW228809   0.654   1.410  15.762
 5644SOL     OW28810   2.563   1.069  20.762
 5644SOL    HW128811   2.602   1.073  20.850
 5644SOL    HW228812   2.636   1.048  20.704
 5645SOL     OW28813   2.661   4.700   5.653
 5645SOL    HW128814   2.594   4.730   5.715
 5645SOL    HW228815   2.698   4.622   5.694
 5646SOL     OW28816   0.427   0.336  18.218
 5646SOL    HW128817   0.422   0.379  18.304
 5646SOL    HW228818   0.465   0.250  18.236
 5647SOL     OW28819   1.319   4.515  14.280
 5647SOL    HW128820   1.242   4.569  14.260
 5647SOL    HW228821   1.303   4.483  14.369
 5648SOL     OW28822   2.827   2.208   2.236
 5648SOL    HW128823   2.848   2.232   2.146
 5648SOL    HW228824   2.890   2.140   2.258
 5649SOL     OW28825   2.661   1.618   2.554
 5649SOL    HW128826   2.725   1.684   2.527
 5649SOL    HW228827   2.591   1.668   2.595
 5650SOL     OW28828   3.248   1.360   1.965
 5650SOL    HW128829   3.307   1.284   1.961
 5650SOL    HW228830   3.304   1.435   1.945
 5651SOL     OW28831   3.603   1.970   6.448
 5651SOL    HW128832   3.622   1.883   6.412
 5651SOL    HW228833   3.592   2.026   6.372
 5652SOL     OW28834   0.049   0.839   3.455
 5652SOL    HW128835   0.094   0.757   3.479
 5652SOL    HW228836   4.743   0.817   3.456
 5653SOL     OW28837   2.585   0.341  18.400
 5653SOL    HW128838   2.519   0.410  18.404
 5653SOL    HW228839   2.624   0.339  18.487
 5654SOL     OW28840   3.654   2.173   9.117
 5654SOL    HW128841   3.695   2.087   9.117
 5654SOL    HW228842   3.715   2.229   9.070
 5655SOL     OW28843   0.589   0.989  19.526
 5655SOL    HW128844   0.544   1.036  19.456
 5655SOL    HW228845   0.616   0.907  19.486
 5656SOL     OW28846   4.123   3.581   5.957
 5656SOL    HW128847   4.139   3.606   5.866
 5656SOL    HW228848   4.210   3.567   5.994
 5657SOL     OW28849   3.867   2.444  12.502
 5657SOL    HW128850   3.828   2.530  12.492
 5657SOL    HW228851   3.795   2.382  12.488
 5658SOL     OW28852   3.705   3.760  16.799
 5658SOL    HW128853   3.665   3.673  16.806
 5658SOL    HW228854   3.637   3.820  16.829
 5659SOL     OW28855   4.208   0.967   0.422
 5659SOL    HW128856   4.227   0.876   0.447
 5659SOL    HW228857   4.139   0.994   0.483
 5660SOL     OW28858   3.075   0.571  19.183
 5660SOL    HW128859   3.115   0.508  19.243
 5660SOL    HW228860   3.139   0.642  19.176
 5661SOL     OW28861   0.185   0.486  14.888
 5661SOL    HW128862   0.142   0.422  14.831
 5661SOL    HW228863   0.152   0.571  14.858
 5662SOL     OW28864   1.138   2.140   4.366
 5662SOL    HW128865   1.073   2.087   4.319
 5662SOL    HW228866   1.151   2.093   4.448
 5663SOL     OW28867   1.463   2.593   3.311
 5663SOL    HW128868   1.371   2.569   3.324
 5663SOL    HW228869   1.459   2.686   3.288
 5664SOL     OW28870   1.558   4.050  18.024
 5664SOL    HW128871   1.569   3.956  18.011
 5664SOL    HW228872   1.520   4.058  18.112
 5665SOL     OW28873   1.518   2.950   1.801
 5665SOL    HW128874   1.438   3.002   1.797
 5665SOL    HW228875   1.496   2.870   1.753
 5666SOL     OW28876   2.022   0.265  15.648
 5666SOL    HW128877   2.110   0.301  15.659
 5666SOL    HW228878   1.987   0.259  15.737
 5667SOL     OW28879   3.715   3.357  20.720
 5667SOL    HW128880   3.733   3.423  20.787
 5667SOL    HW228881   3.797   3.309  20.711
 5668SOL     OW28882   2.797   2.417  19.796
 5668SOL    HW128883   2.712   2.434  19.757
 5668SOL    HW228884   2.783   2.343  19.856
 5669SOL     OW28885   0.173   3.606  19.791
 5669SOL    HW128886   0.127   3.686  19.817
 5669SOL    HW228887   0.116   3.565  19.727
 5670SOL     OW28888   3.357   2.370  17.790
 5670SOL    HW128889   3.367   2.464  17.800
 5670SOL    HW228890   3.371   2.335  17.878
 5671SOL     OW28891   1.409   1.315   1.147
 5671SOL    HW128892   1.332   1.350   1.192
 5671SOL    HW228893   1.469   1.389   1.139
 5672SOL     OW28894   0.334   1.566   3.854
 5672SOL    HW128895   0.365   1.482   3.887
 5672SOL    HW228896   0.379   1.631   3.909
 5673SOL     OW28897   1.579   2.001  19.716
 5673SOL    HW128898   1.625   2.030  19.637
 5673SOL    HW228899   1.644   2.012  19.786
 5674SOL     OW28900   3.534   1.542  19.313
 5674SOL    HW128901   3.515   1.455  19.276
 5674SOL    HW228902   3.478   1.601  19.264
 5675SOL     OW28903   1.248   2.736  17.383
 5675SOL    HW128904   1.192   2.800  17.339
 5675SOL    HW228905   1.255   2.663  17.321
 5676SOL     OW28906   1.841   0.214   3.343
 5676SOL    HW128907   1.755   0.255   3.353
 5676SOL    HW228908   1.903   0.283   3.367
 5677SOL     OW28909   3.592   0.537  17.603
 5677SOL    HW128910   3.561   0.448  17.587
 5677SOL    HW228911   3.619   0.537  17.695
 5678SOL     OW28912   4.740   3.460  20.257
 5678SOL    HW128913   4.667   3.397  20.261
 5678SOL    HW228914   4.727   3.504  20.173
 5679SOL     OW28915   4.249   3.048  17.155
 5679SOL    HW128916   4.286   3.089  17.076
 5679SOL    HW228917   4.210   3.121  17.203
 5680SOL     OW28918   4.598   0.542  17.996
 5680SOL    HW128919   4.616   0.625  18.041
 5680SOL    HW228920   4.681   0.518  17.956
 5681SOL     OW28921   2.485   0.644  20.819
 5681SOL    HW128922   2.564   0.621  20.772
 5681SOL    HW228923   2.417   0.650  20.752
 5682SOL     OW28924   3.927   1.908   5.064
 5682SOL    HW128925   3.999   1.960   5.028
 5682SOL    HW228926   3.970   1.845   5.123
 5683SOL     OW28927   0.134   1.013   0.493
 5683SOL    HW128928   0.147   1.088   0.435
 5683SOL    HW228929   0.220   0.970   0.496
 5684SOL     OW28930   1.304   1.163  17.437
 5684SOL    HW128931   1.337   1.117  17.513
 5684SOL    HW228932   1.277   1.249  17.470
 5685SOL     OW28933   0.514   1.429   5.774
 5685SOL    HW128934   0.490   1.349   5.726
 5685SOL    HW228935   0.594   1.405   5.821
 5686SOL     OW28936   0.181   0.286   2.587
 5686SOL    HW128937   0.259   0.263   2.537
 5686SOL    HW228938   0.214   0.335   2.663
 5687SOL     OW28939   0.628   1.051  16.954
 5687SOL    HW128940   0.659   0.963  16.935
 5687SOL    HW228941   0.537   1.039  16.981
 5688SOL     OW28942   1.054   1.018   0.647
 5688SOL    HW128943   1.095   1.011   0.734
 5688SOL    HW228944   1.052   0.927   0.615
 5689SOL     OW28945   1.090   4.076  16.264
 5689SOL    HW128946   1.018   4.066  16.325
 5689SOL    HW228947   1.102   4.171  16.256
 5690SOL     OW28948   4.779   0.678  13.050
 5690SOL    HW128949   4.780   0.743  12.980
 5690SOL    HW228950   4.748   0.598  13.009
 5691SOL     OW28951   3.207   3.317   6.034
 5691SOL    HW128952   3.234   3.313   5.943
 5691SOL    HW228953   3.289   3.317   6.084
 5692SOL     OW28954   1.633   3.473   4.227
 5692SOL    HW128955   1.555   3.482   4.173
 5692SOL    HW228956   1.627   3.545   4.291
 5693SOL     OW28957   3.113   0.059  16.236
 5693SOL    HW128958   3.096   0.143  16.279
 5693SOL    HW228959   3.206   0.060  16.216
 5694SOL     OW28960   2.348   2.020   0.047
 5694SOL    HW128961   2.381   1.932   0.029
 5694SOL    HW228962   2.332   2.021   0.141
 5695SOL     OW28963   3.461   4.199   1.851
 5695SOL    HW128964   3.434   4.127   1.908
 5695SOL    HW228965   3.552   4.215   1.873
 5696SOL     OW28966   1.818   4.783  17.274
 5696SOL    HW128967   1.753   4.783  17.205
 5696SOL    HW228968   1.901   0.013  17.230
 5697SOL     OW28969   2.197   4.241  15.742
 5697SOL    HW128970   2.146   4.197  15.810
 5697SOL    HW228971   2.242   4.170  15.696
 5698SOL     OW28972   0.481   0.261  19.259
 5698SOL    HW128973   0.427   0.219  19.326
 5698SOL    HW228974   0.425   0.265  19.182
 5699SOL     OW28975   0.941   3.603  19.021
 5699SOL    HW128976   0.847   3.615  19.033
 5699SOL    HW228977   0.950   3.511  18.998
 5700SOL     OW28978   4.285   0.125   3.002
 5700SOL    HW128979   4.376   0.154   3.015
 5700SOL    HW228980   4.293   0.044   2.951
 5701SOL     OW28981   3.033   1.551   1.661
 5701SOL    HW128982   3.061   1.460   1.650
 5701SOL    HW228983   2.999   1.556   1.750
 5702SOL     OW28984   1.736   0.108   4.385
 5702SOL    HW128985   1.662   0.168   4.395
 5702SOL    HW228986   1.802   0.140   4.447
 5703SOL     OW28987   3.742   0.500  21.243
 5703SOL    HW128988   3.733   0.441   0.073
 5703SOL    HW228989   3.823   0.548   0.015
 5704SOL     OW28990   0.832   1.050   5.249
 5704SOL    HW128991   0.814   1.142   5.269
 5704SOL    HW228992   0.757   1.002   5.285
 5705SOL     OW28993   3.221   2.342  18.465
 5705SOL    HW128994   3.126   2.355  18.476
 5705SOL    HW228995   3.234   2.248  18.475
 5706SOL     OW28996   4.405   3.151  15.795
 5706SOL    HW128997   4.329   3.178  15.846
 5706SOL    HW228998   4.398   3.200  15.713
 5707SOL     OW28999   3.082   3.433  20.411
 5707SOL    HW129000   2.998   3.392  20.391
 5707SOL    HW229001   3.132   3.429  20.330
 5708SOL     OW29002   2.091   1.825  13.911
 5708SOL    HW129003   2.108   1.914  13.940
 5708SOL    HW229004   1.997   1.813  13.925
 5709SOL     OW29005   4.505   2.741  17.670
 5709SOL    HW129006   4.503   2.796  17.749
 5709SOL    HW229007   4.500   2.803  17.598
 5710SOL     OW29008   1.223   3.328  15.698
 5710SOL    HW129009   1.132   3.297  15.692
 5710SOL    HW229010   1.216   3.423  15.693
 5711SOL     OW29011   0.406   3.655  19.409
 5711SOL    HW129012   0.428   3.747  19.421
 5711SOL    HW229013   0.492   3.612  19.400
 5712SOL     OW29014   4.622   1.208  16.640
 5712SOL    HW129015   4.706   1.164  16.630
 5712SOL    HW229016   4.586   1.174  16.721
 5713SOL     OW29017   2.281   2.703   0.050
 5713SOL    HW129018   2.221   2.777   0.040
 5713SOL    HW229019   2.225   2.625   0.046
 5714SOL     OW29020   1.448   0.610   0.739
 5714SOL    HW129021   1.370   0.566   0.707
 5714SOL    HW229022   1.466   0.569   0.824
 5715SOL     OW29023   1.824   2.562  16.016
 5715SOL    HW129024   1.767   2.631  15.981
 5715SOL    HW229025   1.896   2.609  16.058
 5716SOL     OW29026   2.880   0.017   3.540
 5716SOL    HW129027   2.863   4.738   3.607
 5716SOL    HW229028   2.834   4.772   3.462
 5717SOL     OW29029   3.003   2.035  14.446
 5717SOL    HW129030   2.913   2.003  14.439
 5717SOL    HW229031   3.004   2.087  14.526
 5718SOL     OW29032   1.577   2.793   0.563
 5718SOL    HW129033   1.483   2.795   0.582
 5718SOL    HW229034   1.612   2.726   0.622
 5719SOL     OW29035   2.528   1.004   1.025
 5719SOL    HW129036   2.496   0.915   1.043
 5719SOL    HW229037   2.533   1.045   1.112
 5720SOL     OW29038   4.588   3.026  19.276
 5720SOL    HW129039   4.651   2.978  19.330
 5720SOL    HW229040   4.538   2.957  19.232
 5721SOL     OW29041   0.508   4.528   4.879
 5721SOL    HW129042   0.530   4.535   4.972
 5721SOL    HW229043   0.459   4.447   4.872
 5722SOL     OW29044   2.530   1.561  16.948
 5722SOL    HW129045   2.570   1.516  16.873
 5722SOL    HW229046   2.484   1.635  16.909
 5723SOL     OW29047   4.721   4.234  20.385
 5723SOL    HW129048   0.028   4.226  20.366
 5723SOL    HW229049   4.679   4.234  20.299
 5724SOL     OW29050   0.053   2.135  18.496
 5724SOL    HW129051   0.020   2.222  18.473
 5724SOL    HW229052   0.096   2.105  18.416
 5725SOL     OW29053   3.074   0.585  21.217
 5725SOL    HW129054   3.124   0.666  21.231
 5725SOL    HW229055   2.982   0.612  21.222
 5726SOL     OW29056   2.299   4.279  12.439
 5726SOL    HW129057   2.255   4.210  12.488
 5726SOL    HW229058   2.240   4.355  12.446
 5727SOL     OW29059   2.710   4.700   0.134
 5727SOL    HW129060   2.770   4.678   0.062
 5727SOL    HW229061   2.741   4.647   0.207
 5728SOL     OW29062   2.736   2.700   6.560
 5728SOL    HW129063   2.668   2.755   6.599
 5728SOL    HW229064   2.788   2.670   6.634
 5729SOL     OW29065   1.912   1.033  15.695
 5729SOL    HW129066   1.989   0.987  15.659
 5729SOL    HW229067   1.841   0.969  15.687
 5730SOL     OW29068   0.454   3.326  20.559
 5730SOL    HW129069   0.365   3.344  20.531
 5730SOL    HW229070   0.491   3.272  20.490
 5731SOL     OW29071   4.172   1.706  16.463
 5731SOL    HW129072   4.264   1.697  16.440
 5731SOL    HW229073   4.124   1.687  16.382
 5732SOL     OW29074   0.000   4.356   0.167
 5732SOL    HW129075   4.718   4.301   0.131
 5732SOL    HW229076   0.055   4.378   0.091
 5733SOL     OW29077   4.018   3.555  19.235
 5733SOL    HW129078   4.058   3.603  19.163
 5733SOL    HW229079   3.924   3.569  19.224
 5734SOL     OW29080   3.864   3.345   3.578
 5734SOL    HW129081   3.813   3.269   3.550
 5734SOL    HW229082   3.859   3.406   3.505
 5735SOL     OW29083   2.307   1.216   6.411
 5735SOL    HW129084   2.305   1.126   6.442
 5735SOL    HW229085   2.317   1.209   6.316
 5736SOL     OW29086   4.167   1.397   3.189
 5736SOL    HW129087   4.219   1.475   3.171
 5736SOL    HW229088   4.103   1.394   3.118
 5737SOL     OW29089   3.024   1.601  16.381
 5737SOL    HW129090   3.100   1.649  16.349
 5737SOL    HW229091   3.057   1.550  16.455
 5738SOL     OW29092   4.762   1.207  15.817
 5738SOL    HW129093   4.675   1.182  15.788
 5738SOL    HW229094   4.755   1.212  15.913
 5739SOL     OW29095   0.440   3.646   4.615
 5739SOL    HW129096   0.416   3.738   4.614
 5739SOL    HW229097   0.483   3.631   4.531
 5740SOL     OW29098   1.208   4.167  18.920
 5740SOL    HW129099   1.268   4.221  18.971
 5740SOL    HW229100   1.121   4.192  18.949
 5741SOL     OW29101   2.714   2.639  20.788
 5741SOL    HW129102   2.712   2.595  20.873
 5741SOL    HW229103   2.645   2.596  20.737
 5742SOL     OW29104   1.322   1.713  21.210
 5742SOL    HW129105   1.314   1.719  21.114
 5742SOL    HW229106   1.396   1.769  21.231
 5743SOL     OW29107   4.227   0.508   6.063
 5743SOL    HW129108   4.178   0.589   6.051
 5743SOL    HW229109   4.189   0.448   5.999
 5744SOL     OW29110   1.548   1.423  15.247
 5744SOL    HW129111   1.551   1.392  15.156
 5744SOL    HW229112   1.637   1.410  15.280
 5745SOL     OW29113   2.368   0.321   3.255
 5745SOL    HW129114   2.379   0.388   3.188
 5745SOL    HW229115   2.446   0.329   3.310
 5746SOL     OW29116   0.728   0.390   3.613
 5746SOL    HW129117   0.655   0.369   3.555
 5746SOL    HW229118   0.806   0.371   3.561
 5747SOL     OW29119   2.091   0.127   6.856
 5747SOL    HW129120   2.106   0.033   6.847
 5747SOL    HW229121   2.156   0.156   6.920
 5748SOL     OW29122   2.847   0.337   6.042
 5748SOL    HW129123   2.867   0.337   5.949
 5748SOL    HW229124   2.932   0.343   6.085
 5749SOL     OW29125   2.951   0.990  18.225
 5749SOL    HW129126   2.911   0.903  18.221
 5749SOL    HW229127   3.019   0.988  18.158
 5750SOL     OW29128   1.682   1.092  20.018
 5750SOL    HW129129   1.719   1.177  20.041
 5750SOL    HW229130   1.671   1.047  20.102
 5751SOL     OW29131   3.127   0.442   6.884
 5751SOL    HW129132   3.046   0.441   6.834
 5751SOL    HW229133   3.145   0.534   6.900
 5752SOL     OW29134   3.121   3.698  19.907
 5752SOL    HW129135   3.039   3.653  19.926
 5752SOL    HW229136   3.135   3.755  19.982
 5753SOL     OW29137   0.524   2.680   2.088
 5753SOL    HW129138   0.499   2.608   2.030
 5753SOL    HW229139   0.488   2.655   2.174
 5754SOL     OW29140   2.329   2.111  18.801
 5754SOL    HW129141   2.270   2.182  18.824
 5754SOL    HW229142   2.279   2.031  18.819
 5755SOL     OW29143   4.454   1.575  20.110
 5755SOL    HW129144   4.365   1.593  20.140
 5755SOL    HW229145   4.504   1.653  20.133
 5756SOL     OW29146   1.882   2.900  17.886
 5756SOL    HW129147   1.810   2.910  17.823
 5756SOL    HW229148   1.954   2.951  17.848
 5757SOL     OW29149   3.693   1.702  15.657
 5757SOL    HW129150   3.710   1.791  15.688
 5757SOL    HW229151   3.778   1.659  15.663
 5758SOL     OW29152   2.037   2.423  16.788
 5758SOL    HW129153   2.110   2.482  16.808
 5758SOL    HW229154   2.042   2.411  16.693
 5759SOL     OW29155   4.426   4.613  19.056
 5759SOL    HW129156   4.375   4.544  19.013
 5759SOL    HW229157   4.372   4.638  19.132
 5760SOL     OW29158   3.274   0.434  19.330
 5760SOL    HW129159   3.285   0.513  19.383
 5760SOL    HW229160   3.235   0.370  19.389
 5761SOL     OW29161   1.320   3.989   6.893
 5761SOL    HW129162   1.408   4.012   6.923
 5761SOL    HW229163   1.326   3.896   6.870
 5762SOL     OW29164   4.429   2.028   2.082
 5762SOL    HW129165   4.431   1.959   2.016
 5762SOL    HW229166   4.481   1.994   2.154
 5763SOL     OW29167   3.588   0.303   1.040
 5763SOL    HW129168   3.596   0.321   0.946
 5763SOL    HW229169   3.495   0.315   1.059
 5764SOL     OW29170   3.859   3.520  17.341
 5764SOL    HW129171   3.894   3.578  17.409
 5764SOL    HW229172   3.773   3.555  17.320
 5765SOL     OW29173   1.055   2.626   1.095
 5765SOL    HW129174   1.042   2.560   1.027
 5765SOL    HW229175   1.008   2.703   1.063
 5766SOL     OW29176   1.557   3.281   5.561
 5766SOL    HW129177   1.469   3.241   5.559
 5766SOL    HW229178   1.580   3.282   5.654
 5767SOL     OW29179   2.638   2.346  16.880
 5767SOL    HW129180   2.730   2.326  16.866
 5767SOL    HW229181   2.604   2.369  16.794
 5768SOL     OW29182   1.780   1.747   2.289
 5768SOL    HW129183   1.816   1.752   2.378
 5768SOL    HW229184   1.753   1.656   2.279
 5769SOL     OW29185   2.803   2.672   4.568
 5769SOL    HW129186   2.779   2.765   4.560
 5769SOL    HW229187   2.722   2.629   4.595
 5770SOL     OW29188   2.466   4.535   1.655
 5770SOL    HW129189   2.394   4.598   1.654
 5770SOL    HW229190   2.427   4.455   1.691
 5771SOL     OW29191   3.654   1.936  13.473
 5771SOL    HW129192   3.602   2.008  13.510
 5771SOL    HW229193   3.738   1.941  13.519
 5772SOL     OW29194   0.399   1.077  19.275
 5772SOL    HW129195   0.484   1.110  19.246
 5772SOL    HW229196   0.341   1.153  19.273
 5773SOL     OW29197   3.847   1.377   3.254
 5773SOL    HW129198   3.897   1.375   3.173
 5773SOL    HW229199   3.904   1.422   3.316
 5774SOL     OW29200   0.504   1.813   2.815
 5774SOL    HW129201   0.567   1.827   2.885
 5774SOL    HW229202   0.555   1.821   2.734
 5775SOL     OW29203   0.714   4.390   0.487
 5775SOL    HW129204   0.789   4.332   0.499
 5775SOL    HW229205   0.745   4.457   0.426
 5776SOL     OW29206   4.271   1.544  18.184
 5776SOL    HW129207   4.189   1.538  18.234
 5776SOL    HW229208   4.242   1.552  18.092
 5777SOL     OW29209   3.101   0.858   4.002
 5777SOL    HW129210   3.081   0.844   4.094
 5777SOL    HW229211   3.133   0.773   3.972
 5778SOL     OW29212   3.017   1.568  18.962
 5778SOL    HW129213   3.108   1.543  18.973
 5778SOL    HW229214   2.975   1.540  19.044
 5779SOL     OW29215   1.974   0.654  20.135
 5779SOL    HW129216   1.901   0.706  20.101
 5779SOL    HW229217   1.954   0.564  20.108
 5780SOL     OW29218   4.084   3.846   4.101
 5780SOL    HW129219   4.068   3.940   4.114
 5780SOL    HW229220   4.065   3.807   4.187
 5781SOL     OW29221   3.547   0.337   0.491
 5781SOL    HW129222   3.499   0.338   0.574
 5781SOL    HW229223   3.579   0.247   0.483
 5782SOL     OW29224   2.366   0.075   0.571
 5782SOL    HW129225   2.281   0.069   0.615
 5782SOL    HW229226   2.396   0.165   0.590
 5783SOL     OW29227   3.235   0.241   1.584
 5783SOL    HW129228   3.322   0.261   1.619
 5783SOL    HW229229   3.239   0.148   1.561
 5784SOL     OW29230   3.861   3.924   6.766
 5784SOL    HW129231   3.944   3.940   6.721
 5784SOL    HW229232   3.804   3.885   6.699
 5785SOL     OW29233   1.577   2.608  18.065
 5785SOL    HW129234   1.483   2.625  18.057
 5785SOL    HW229235   1.583   2.529  18.119
 5786SOL     OW29236   2.835   0.100   2.641
 5786SOL    HW129237   2.838   0.012   2.678
 5786SOL    HW229238   2.925   0.118   2.613
 5787SOL     OW29239   0.502   0.065   1.065
 5787SOL    HW129240   0.511   0.022   1.151
 5787SOL    HW229241   0.419   0.111   1.070
 5788SOL     OW29242   3.112   2.530   3.101
 5788SOL    HW129243   3.144   2.491   3.020
 5788SOL    HW229244   3.191   2.548   3.152
 5789SOL     OW29245   2.900   0.656   5.653
 5789SOL    HW129246   2.839   0.585   5.676
 5789SOL    HW229247   2.865   0.691   5.571
 5790SOL     OW29248   0.907   4.462   0.081
 5790SOL    HW129249   0.954   4.379   0.072
 5790SOL    HW229250   0.977   4.528   0.086
 5791SOL     OW29251   3.612   2.878  15.231
 5791SOL    HW129252   3.544   2.938  15.262
 5791SOL    HW229253   3.581   2.850  15.145
 5792SOL     OW29254   0.559   3.645   1.466
 5792SOL    HW129255   0.565   3.550   1.459
 5792SOL    HW229256   0.595   3.665   1.552
 5793SOL     OW29257   3.797   1.069   7.126
 5793SOL    HW129258   3.887   1.099   7.134
 5793SOL    HW229259   3.791   1.031   7.038
 5794SOL     OW29260   2.700   2.908  19.542
 5794SOL    HW129261   2.673   2.973  19.477
 5794SOL    HW229262   2.621   2.894  19.595
 5795SOL     OW29263   4.776   0.030  18.233
 5795SOL    HW129264   4.693   0.048  18.188
 5795SOL    HW229265   4.749   4.783  18.318
 5796SOL     OW29266   0.433   1.304  17.050
 5796SOL    HW129267   0.455   1.274  17.138
 5796SOL    HW229268   0.449   1.399  17.052
 5797SOL     OW29269   2.893   3.118  16.507
 5797SOL    HW129270   2.969   3.113  16.565
 5797SOL    HW229271   2.930   3.127  16.420
 5798SOL     OW29272   0.681   1.574  15.659
 5798SOL    HW129273   0.765   1.529  15.646
 5798SOL    HW229274   0.672   1.630  15.582
 5799SOL     OW29275   3.447   4.169   3.681
 5799SOL    HW129276   3.425   4.237   3.745
 5799SOL    HW229277   3.533   4.195   3.649
 5800SOL     OW29278   4.358   1.344   4.524
 5800SOL    HW129279   4.448   1.343   4.492
 5800SOL    HW229280   4.306   1.368   4.447
 5801SOL     OW29281   3.025   4.304  11.742
 5801SOL    HW129282   2.950   4.357  11.768
 5801SOL    HW229283   3.000   4.266  11.657
 5802SOL     OW29284   0.088   4.352  15.844
 5802SOL    HW129285   0.123   4.269  15.879
 5802SOL    HW229286   0.010   4.327  15.796
 5803SOL     OW29287   2.996   3.170  15.478
 5803SOL    HW129288   3.017   3.155  15.386
 5803SOL    HW229289   2.912   3.216  15.476
 5804SOL     OW29290   3.118   4.700   6.094
 5804SOL    HW129291   3.080   4.675   6.178
 5804SOL    HW229292   3.149   0.003   6.108
 5805SOL     OW29293   2.100   4.778  19.412
 5805SOL    HW129294   2.051   0.053  19.358
 5805SOL    HW229295   2.140   0.045  19.481
 5806SOL     OW29296   2.656   1.132   4.105
 5806SOL    HW129297   2.613   1.218   4.111
 5806SOL    HW229298   2.669   1.118   4.012
 5807SOL     OW29299   2.646   2.355   1.612
 5807SOL    HW129300   2.570   2.367   1.555
 5807SOL    HW229301   2.611   2.360   1.701
 5808SOL     OW29302   1.635   3.857   4.825
 5808SOL    HW129303   1.640   3.809   4.907
 5808SOL    HW229304   1.654   3.948   4.848
 5809SOL     OW29305   0.915   2.097  21.180
 5809SOL    HW129306   0.934   2.035  21.109
 5809SOL    HW229307   0.860   2.048  21.241
 5810SOL     OW29308   4.316   1.899   3.583
 5810SOL    HW129309   4.360   1.966   3.635
 5810SOL    HW229310   4.354   1.816   3.612
 5811SOL     OW29311   1.765   3.824   6.113
 5811SOL    HW129312   1.706   3.750   6.127
 5811SOL    HW229313   1.841   3.805   6.169
 5812SOL     OW29314   1.123   4.406   5.635
 5812SOL    HW129315   1.041   4.368   5.605
 5812SOL    HW229316   1.128   4.382   5.728
 5813SOL     OW29317   2.168   1.650  19.100
 5813SOL    HW129318   2.162   1.617  19.010
 5813SOL    HW229319   2.126   1.736  19.096
 5814SOL     OW29320   0.380   2.894  21.037
 5814SOL    HW129321   0.472   2.874  21.025
 5814SOL    HW229322   0.343   2.890  20.949
 5815SOL     OW29323   4.007   3.761   3.872
 5815SOL    HW129324   4.009   3.837   3.814
 5815SOL    HW229325   4.047   3.793   3.953
 5816SOL     OW29326   1.814   1.679  20.079
 5816SOL    HW129327   1.827   1.716  20.167
 5816SOL    HW229328   1.719   1.667  20.073
 5817SOL     OW29329   0.019   0.506   4.983
 5817SOL    HW129330   0.038   0.478   4.893
 5817SOL    HW229331   4.722   0.552   4.977
 5818SOL     OW29332   4.052   1.605   3.340
 5818SOL    HW129333   4.097   1.689   3.327
 5818SOL    HW229334   4.108   1.541   3.295
 5819SOL     OW29335   1.880   4.237  16.645
 5819SOL    HW129336   1.889   4.238  16.740
 5819SOL    HW229337   1.794   4.275  16.629
 5820SOL     OW29338   3.749   3.070   5.140
 5820SOL    HW129339   3.820   3.126   5.172
 5820SOL    HW229340   3.793   2.992   5.106
 5821SOL     OW29341   4.723   3.649  15.043
 5821SOL    HW129342   4.640   3.604  15.032
 5821SOL    HW229343   0.000   3.592  15.000
 5822SOL     OW29344   2.394   2.114   3.003
 5822SOL    HW129345   2.425   2.127   2.914
 5822SOL    HW229346   2.323   2.051   2.996
 5823SOL     OW29347   1.856   4.374  15.876
 5823SOL    HW129348   1.863   4.429  15.954
 5823SOL    HW229349   1.835   4.436  15.806
 5824SOL     OW29350   2.424   4.004   1.492
 5824SOL    HW129351   2.457   4.010   1.402
 5824SOL    HW229352   2.358   4.073   1.498
 5825SOL     OW29353   4.026   4.207  18.921
 5825SOL    HW129354   3.983   4.252  18.848
 5825SOL    HW229355   4.024   4.269  18.993
 5826SOL     OW29356   1.700   4.239   0.236
 5826SOL    HW129357   1.606   4.255   0.246
 5826SOL    HW229358   1.737   4.256   0.322
 5827SOL     OW29359   1.160   2.010  18.020
 5827SOL    HW129360   1.224   1.955  17.977
 5827SOL    HW229361   1.092   2.024  17.955
 5828SOL     OW29362   1.847   4.112  15.763
 5828SOL    HW129363   1.844   4.199  15.803
 5828SOL    HW229364   1.892   4.058  15.827
 5829SOL     OW29365   1.777   2.781  20.527
 5829SOL    HW129366   1.814   2.710  20.475
 5829SOL    HW229367   1.735   2.839  20.464
 5830SOL     OW29368   3.180   3.067   2.288
 5830SOL    HW129369   3.231   3.113   2.222
 5830SOL    HW229370   3.129   3.003   2.238
 5831SOL     OW29371   1.504   0.288   6.245
 5831SOL    HW129372   1.538   0.199   6.247
 5831SOL    HW229373   1.562   0.337   6.303
 5832SOL     OW29374   0.938   1.725   5.523
 5832SOL    HW129375   1.011   1.668   5.501
 5832SOL    HW229376   0.921   1.774   5.442
 5833SOL     OW29377   4.067   2.436   4.777
 5833SOL    HW129378   4.044   2.346   4.755
 5833SOL    HW229379   4.155   2.431   4.814
 5834SOL     OW29380   4.631   2.113  20.265
 5834SOL    HW129381   4.715   2.105  20.219
 5834SOL    HW229382   4.566   2.118  20.195
 5835SOL     OW29383   4.613   4.698   3.571
 5835SOL    HW129384   4.670   4.701   3.494
 5835SOL    HW229385   4.532   4.658   3.538
 5836SOL     OW29386   0.367   3.913   6.350
 5836SOL    HW129387   0.440   3.914   6.288
 5836SOL    HW229388   0.395   3.853   6.419
 5837SOL     OW29389   0.244   0.108  17.829
 5837SOL    HW129390   0.206   0.116  17.916
 5837SOL    HW229391   0.338   0.123  17.843
 5838SOL     OW29392   2.084   1.945  14.360
 5838SOL    HW129393   2.158   1.951  14.301
 5838SOL    HW229394   2.043   2.031  14.356
 5839SOL     OW29395   4.494   0.779  16.562
 5839SOL    HW129396   4.475   0.787  16.656
 5839SOL    HW229397   4.422   0.825  16.519
 5840SOL     OW29398   2.179   3.236  19.932
 5840SOL    HW129399   2.204   3.147  19.905
 5840SOL    HW229400   2.206   3.241  20.024
 5841SOL     OW29401   3.202   3.842  20.134
 5841SOL    HW129402   3.173   3.911  20.194
 5841SOL    HW229403   3.244   3.777  20.191
 5842SOL     OW29404   0.604   1.017   5.940
 5842SOL    HW129405   0.568   1.096   5.899
 5842SOL    HW229406   0.695   1.014   5.910
 5843SOL     OW29407   1.686   4.721   0.916
 5843SOL    HW129408   1.655   4.758   0.999
 5843SOL    HW229409   1.778   4.747   0.911
 5844SOL     OW29410   3.803   1.759   5.335
 5844SOL    HW129411   3.880   1.713   5.300
 5844SOL    HW229412   3.825   1.776   5.426
 5845SOL     OW29413   2.334   0.687  16.684
 5845SOL    HW129414   2.383   0.749  16.630
 5845SOL    HW229415   2.388   0.675  16.762
 5846SOL     OW29416   4.722   1.483  17.248
 5846SOL    HW129417   4.710   1.570  17.210
 5846SOL    HW229418   4.715   1.497  17.342
 5847SOL     OW29419   2.743   3.380   6.538
 5847SOL    HW129420   2.703   3.376   6.624
 5847SOL    HW229421   2.671   3.402   6.479
 5848SOL     OW29422   0.097   0.831   2.819
 5848SOL    HW129423   0.059   0.913   2.849
 5848SOL    HW229424   0.159   0.806   2.888
 5849SOL     OW29425   0.603   0.176  13.985
 5849SOL    HW129426   0.686   0.168  13.938
 5849SOL    HW229427   0.537   0.179  13.916
 5850SOL     OW29428   1.078   2.289  19.874
 5850SOL    HW129429   1.071   2.281  19.970
 5850SOL    HW229430   1.172   2.286  19.856
 5851SOL     OW29431   2.249   3.854   6.895
 5851SOL    HW129432   2.185   3.841   6.965
 5851SOL    HW229433   2.210   3.811   6.818
 5852SOL     OW29434   1.927   2.556  18.682
 5852SOL    HW129435   1.929   2.462  18.665
 5852SOL    HW229436   1.909   2.596  18.597
 5853SOL     OW29437   4.158   4.291  20.865
 5853SOL    HW129438   4.178   4.381  20.891
 5853SOL    HW229439   4.103   4.300  20.787
 5854SOL     OW29440   3.563   0.649  19.200
 5854SOL    HW129441   3.608   0.565  19.202
 5854SOL    HW229442   3.530   0.657  19.111
 5855SOL     OW29443   2.876   1.741  14.720
 5855SOL    HW129444   2.966   1.710  14.716
 5855SOL    HW229445   2.832   1.679  14.779
 5856SOL     OW29446   2.438   3.164  14.727
 5856SOL    HW129447   2.444   3.075  14.762
 5856SOL    HW229448   2.374   3.208  14.783
 5857SOL     OW29449   1.548   0.135   3.041
 5857SOL    HW129450   1.630   0.108   3.083
 5857SOL    HW229451   1.563   0.121   2.948
 5858SOL     OW29452   1.109   4.263  21.209
 5858SOL    HW129453   1.135   4.173  21.231
 5858SOL    HW229454   1.018   4.255  21.181
 5859SOL     OW29455   4.132   1.382  16.266
 5859SOL    HW129456   4.203   1.397  16.328
 5859SOL    HW229457   4.095   1.469  16.249
 5860SOL     OW29458   3.196   4.201   5.923
 5860SOL    HW129459   3.163   4.111   5.918
 5860SOL    HW229460   3.130   4.254   5.878
 5861SOL     OW29461   4.267   3.138   1.054
 5861SOL    HW129462   4.275   3.064   0.993
 5861SOL    HW229463   4.181   3.175   1.035
 5862SOL     OW29464   0.040   2.903   5.205
 5862SOL    HW129465   0.074   2.993   5.202
 5862SOL    HW229466   0.111   2.853   5.244
 5863SOL     OW29467   3.908   1.775   3.142
 5863SOL    HW129468   3.955   1.756   3.224
 5863SOL    HW229469   3.828   1.820   3.170
 5864SOL     OW29470   4.053   3.588   2.771
 5864SOL    HW129471   3.972   3.538   2.775
 5864SOL    HW229472   4.102   3.550   2.698
 5865SOL     OW29473   4.099   4.630   3.129
 5865SOL    HW129474   4.078   4.543   3.162
 5865SOL    HW229475   4.085   4.688   3.204
 5866SOL     OW29476   2.822   1.707   4.059
 5866SOL    HW129477   2.780   1.725   3.975
 5866SOL    HW229478   2.807   1.614   4.074
 5867SOL     OW29479   3.336   0.645  19.483
 5867SOL    HW129480   3.317   0.702  19.410
 5867SOL    HW229481   3.388   0.699  19.543
 5868SOL     OW29482   1.613   0.726   2.833
 5868SOL    HW129483   1.618   0.645   2.783
 5868SOL    HW229484   1.560   0.704   2.910
 5869SOL     OW29485   4.216   3.852   2.275
 5869SOL    HW129486   4.227   3.934   2.324
 5869SOL    HW229487   4.124   3.851   2.250
 5870SOL     OW29488   0.340   0.138  17.311
 5870SOL    HW129489   0.271   0.074  17.329
 5870SOL    HW229490   0.339   0.196  17.387
 5871SOL     OW29491   1.751   0.145  16.951
 5871SOL    HW129492   1.705   0.093  16.885
 5871SOL    HW229493   1.821   0.087  16.983
 5872SOL     OW29494   3.553   4.573   0.403
 5872SOL    HW129495   3.636   4.573   0.355
 5872SOL    HW229496   3.560   4.498   0.462
 5873SOL     OW29497   4.441   3.143  15.291
 5873SOL    HW129498   4.520   3.192  15.316
 5873SOL    HW229499   4.376   3.166  15.358
 5874SOL     OW29500   3.900   0.505   1.168
 5874SOL    HW129501   3.819   0.555   1.162
 5874SOL    HW229502   3.969   0.570   1.163
 5875SOL     OW29503   2.687   2.416   0.093
 5875SOL    HW129504   2.672   2.421  21.243
 5875SOL    HW229505   2.769   2.367   0.102
 5876SOL     OW29506   3.127   4.573  18.670
 5876SOL    HW129507   3.169   4.510  18.728
 5876SOL    HW229508   3.057   4.611  18.724
 5877SOL     OW29509   2.941   3.485  19.178
 5877SOL    HW129510   2.961   3.453  19.265
 5877SOL    HW229511   3.026   3.500  19.138
 5878SOL     OW29512   3.845   0.775  15.868
 5878SOL    HW129513   3.855   0.754  15.775
 5878SOL    HW229514   3.751   0.764  15.886
 5879SOL     OW29515   3.669   1.497  18.609
 5879SOL    HW129516   3.653   1.553  18.533
 5879SOL    HW229517   3.591   1.509  18.664
 5880SOL     OW29518   0.977   2.761   0.517
 5880SOL    HW129519   1.024   2.837   0.552
 5880SOL    HW229520   0.962   2.782   0.424
 5881SOL     OW29521   4.237   0.424  17.638
 5881SOL    HW129522   4.150   0.462  17.650
 5881SOL    HW229523   4.220   0.336  17.603
 5882SOL     OW29524   2.357   3.078   3.682
 5882SOL    HW129525   2.297   3.094   3.608
 5882SOL    HW229526   2.305   3.097   3.760
 5883SOL     OW29527   3.747   2.255   5.025
 5883SOL    HW129528   3.756   2.244   4.931
 5883SOL    HW229529   3.834   2.281   5.055
 5884SOL     OW29530   3.753   2.549  16.385
 5884SOL    HW129531   3.791   2.555  16.473
 5884SOL    HW229532   3.798   2.617  16.335
 5885SOL     OW29533   1.202   4.309  19.704
 5885SOL    HW129534   1.281   4.270  19.740
 5885SOL    HW229535   1.227   4.339  19.617
 5886SOL     OW29536   0.060   1.280   6.060
 5886SOL    HW129537   0.004   1.356   6.075
 5886SOL    HW229538   0.122   1.310   5.993
 5887SOL     OW29539   1.463   4.409   4.815
 5887SOL    HW129540   1.536   4.430   4.756
 5887SOL    HW229541   1.506   4.385   4.897
 5888SOL     OW29542   1.784   3.605  20.614
 5888SOL    HW129543   1.760   3.671  20.548
 5888SOL    HW229544   1.708   3.598  20.670
 5889SOL     OW29545   3.139   3.826  16.673
 5889SOL    HW129546   3.145   3.825  16.578
 5889SOL    HW229547   3.184   3.907  16.699
 5890SOL     OW29548   2.260   3.718  13.008
 5890SOL    HW129549   2.340   3.747  12.964
 5890SOL    HW229550   2.290   3.683  13.092
 5891SOL     OW29551   0.193   0.138  16.714
 5891SOL    HW129552   0.205   0.079  16.640
 5891SOL    HW229553   0.118   0.102  16.762
 5892SOL     OW29554   4.591   0.722   1.461
 5892SOL    HW129555   4.687   0.727   1.466
 5892SOL    HW229556   4.563   0.703   1.550
 5893SOL     OW29557   3.216   1.219  18.175
 5893SOL    HW129558   3.153   1.176  18.116
 5893SOL    HW229559   3.184   1.198  18.263
 5894SOL     OW29560   3.544   4.497   6.436
 5894SOL    HW129561   3.476   4.547   6.390
 5894SOL    HW229562   3.508   4.482   6.523
 5895SOL     OW29563   2.265   3.852  19.892
 5895SOL    HW129564   2.281   3.769  19.847
 5895SOL    HW229565   2.348   3.871  19.937
 5896SOL     OW29566   3.388   1.473   3.288
 5896SOL    HW129567   3.478   1.505   3.288
 5896SOL    HW229568   3.369   1.453   3.197
 5897SOL     OW29569   1.059   0.940   2.061
 5897SOL    HW129570   1.064   1.032   2.035
 5897SOL    HW229571   1.057   0.943   2.156
 5898SOL     OW29572   0.508   3.541  20.076
 5898SOL    HW129573   0.589   3.542  20.025
 5898SOL    HW229574   0.537   3.535  20.167
 5899SOL     OW29575   0.861   3.984  17.362
 5899SOL    HW129576   0.811   3.907  17.389
 5899SOL    HW229577   0.797   4.040  17.320
 5900SOL     OW29578   2.775   4.770  17.336
 5900SOL    HW129579   2.689   4.759  17.375
 5900SOL    HW229580   2.759   0.021  17.250
 5901SOL     OW29581   3.975   2.375   1.603
 5901SOL    HW129582   4.042   2.423   1.652
 5901SOL    HW229583   3.902   2.436   1.594
 5902SOL     OW29584   3.412   1.862  19.494
 5902SOL    HW129585   3.362   1.943  19.480
 5902SOL    HW229586   3.438   1.866  19.586
 5903SOL     OW29587   2.012   1.710  16.162
 5903SOL    HW129588   1.930   1.684  16.119
 5903SOL    HW229589   2.025   1.801  16.137
 5904SOL     OW29590   2.671   2.083   0.114
 5904SOL    HW129591   2.636   1.995   0.107
 5904SOL    HW229592   2.673   2.100   0.209
 5905SOL     OW29593   2.557   3.006  17.867
 5905SOL    HW129594   2.579   3.021  17.775
 5905SOL    HW229595   2.574   2.913  17.881
 5906SOL     OW29596   0.751   1.097   0.748
 5906SOL    HW129597   0.817   1.033   0.722
 5906SOL    HW229598   0.722   1.136   0.666
 5907SOL     OW29599   1.620   3.417   7.575
 5907SOL    HW129600   1.631   3.512   7.576
 5907SOL    HW229601   1.570   3.398   7.654
 5908SOL     OW29602   2.481   4.122  21.020
 5908SOL    HW129603   2.506   4.173  21.097
 5908SOL    HW229604   2.551   4.058  21.011
 5909SOL     OW29605   2.664   1.688   3.802
 5909SOL    HW129606   2.730   1.658   3.740
 5909SOL    HW229607   2.638   1.774   3.770
 5910SOL     OW29608   4.382   4.372   0.678
 5910SOL    HW129609   4.323   4.446   0.669
 5910SOL    HW229610   4.398   4.365   0.772
 5911SOL     OW29611   0.980   1.984   8.927
 5911SOL    HW129612   1.039   2.038   8.874
 5911SOL    HW229613   0.925   2.047   8.974
 5912SOL     OW29614   1.772   2.241  16.740
 5912SOL    HW129615   1.736   2.193  16.815
 5912SOL    HW229616   1.861   2.207  16.731
 5913SOL     OW29617   1.052   1.246   1.293
 5913SOL    HW129618   0.972   1.298   1.299
 5913SOL    HW229619   1.060   1.204   1.378
 5914SOL     OW29620   2.387   0.411  20.934
 5914SOL    HW129621   2.321   0.431  21.000
 5914SOL    HW229622   2.409   0.496  20.896
 5915SOL     OW29623   2.622   3.878   0.742
 5915SOL    HW129624   2.677   3.854   0.816
 5915SOL    HW229625   2.581   3.960   0.768
 5916SOL     OW29626   2.410   3.300  19.510
 5916SOL    HW129627   2.314   3.301  19.505
 5916SOL    HW229628   2.429   3.281  19.601
 5917SOL     OW29629   2.863   2.578   6.779
 5917SOL    HW129630   2.942   2.608   6.824
 5917SOL    HW229631   2.858   2.485   6.799
 5918SOL     OW29632   2.061   4.370  19.811
 5918SOL    HW129633   2.004   4.331  19.877
 5918SOL    HW229634   2.076   4.300  19.747
 5919SOL     OW29635   3.663   2.144   0.607
 5919SOL    HW129636   3.639   2.053   0.624
 5919SOL    HW229637   3.667   2.184   0.694
 5920SOL     OW29638   0.260   1.095  18.761
 5920SOL    HW129639   0.219   1.035  18.824
 5920SOL    HW229640   0.189   1.150  18.730
 5921SOL     OW29641   3.616   1.721   6.336
 5921SOL    HW129642   3.526   1.691   6.320
 5921SOL    HW229643   3.659   1.646   6.377
 5922SOL     OW29644   0.080   4.296  13.955
 5922SOL    HW129645   0.063   4.222  13.898
 5922SOL    HW229646   0.174   4.294  13.970
 5923SOL     OW29647   3.749   1.217   4.772
 5923SOL    HW129648   3.685   1.288   4.784
 5923SOL    HW229649   3.697   1.143   4.741
 5924SOL     OW29650   0.716   1.756   0.582
 5924SOL    HW129651   0.740   1.664   0.579
 5924SOL    HW229652   0.795   1.801   0.612
 5925SOL     OW29653   1.614   3.528   6.014
 5925SOL    HW129654   1.569   3.611   6.030
 5925SOL    HW229655   1.550   3.474   5.969
 5926SOL     OW29656   1.910   3.351   4.656
 5926SOL    HW129657   1.911   3.377   4.564
 5926SOL    HW229658   1.916   3.256   4.654
 5927SOL     OW29659   1.442   1.262  18.609
 5927SOL    HW129660   1.411   1.333  18.552
 5927SOL    HW229661   1.537   1.261  18.597
 5928SOL     OW29662   1.116   1.389  18.055
 5928SOL    HW129663   1.166   1.308  18.046
 5928SOL    HW229664   1.179   1.459  18.037
 5929SOL     OW29665   4.733   0.868  15.665
 5929SOL    HW129666   4.740   0.779  15.700
 5929SOL    HW229667   0.036   0.895  15.650
 5930SOL     OW29668   2.310   0.048  18.413
 5930SOL    HW129669   2.372   4.761  18.410
 5930SOL    HW229670   2.249   0.029  18.342
 5931SOL     OW29671   2.172   3.417   1.291
 5931SOL    HW129672   2.243   3.427   1.227
 5931SOL    HW229673   2.217   3.420   1.376
 5932SOL     OW29674   4.039   2.351   6.769
 5932SOL    HW129675   3.947   2.373   6.782
 5932SOL    HW229676   4.038   2.282   6.703
 5933SOL     OW29677   1.548   2.475   4.199
 5933SOL    HW129678   1.601   2.449   4.274
 5933SOL    HW229679   1.458   2.477   4.231
 5934SOL     OW29680   1.554   0.220   3.945
 5934SOL    HW129681   1.604   0.291   3.905
 5934SOL    HW229682   1.611   0.186   4.015
 5935SOL     OW29683   2.309   4.173  20.022
 5935SOL    HW129684   2.401   4.182  19.998
 5935SOL    HW229685   2.293   4.079  20.023
 5936SOL     OW29686   4.436   1.932   5.989
 5936SOL    HW129687   4.401   1.863   6.044
 5936SOL    HW229688   4.445   1.892   5.903
 5937SOL     OW29689   2.509   2.644  17.862
 5937SOL    HW129690   2.429   2.689  17.888
 5937SOL    HW229691   2.480   2.557  17.834
 5938SOL     OW29692   3.587   3.753   1.227
 5938SOL    HW129693   3.585   3.848   1.241
 5938SOL    HW229694   3.678   3.729   1.246
 5939SOL     OW29695   0.457   2.188   1.747
 5939SOL    HW129696   0.520   2.259   1.757
 5939SOL    HW229697   0.431   2.166   1.836
 5940SOL     OW29698   3.060   2.630   5.045
 5940SOL    HW129699   3.060   2.719   5.082
 5940SOL    HW229700   2.968   2.612   5.027
 5941SOL     OW29701   3.525   0.038  15.652
 5941SOL    HW129702   3.468   0.073  15.721
 5941SOL    HW229703   3.539   4.734  15.676
 5942SOL     OW29704   1.402   0.964   3.162
 5942SOL    HW129705   1.347   0.941   3.237
 5942SOL    HW229706   1.467   1.024   3.197
 5943SOL     OW29707   4.449   3.971  20.696
 5943SOL    HW129708   4.404   4.017  20.625
 5943SOL    HW229709   4.542   3.978  20.674
 5944SOL     OW29710   3.437   1.642   4.644
 5944SOL    HW129711   3.375   1.570   4.649
 5944SOL    HW229712   3.502   1.613   4.580
 5945SOL     OW29713   4.305   4.362  18.936
 5945SOL    HW129714   4.220   4.403  18.920
 5945SOL    HW229715   4.290   4.306  19.012
 5946SOL     OW29716   3.758   4.661   6.449
 5946SOL    HW129717   3.667   4.630   6.441
 5946SOL    HW229718   3.789   4.667   6.359
 5947SOL     OW29719   1.021   0.951  17.876
 5947SOL    HW129720   0.930   0.957  17.846
 5947SOL    HW229721   1.071   0.997  17.808
 5948SOL     OW29722   2.163   3.694   7.637
 5948SOL    HW129723   2.115   3.617   7.667
 5948SOL    HW229724   2.166   3.752   7.712
 5949SOL     OW29725   1.210   2.645  17.115
 5949SOL    HW129726   1.198   2.559  17.076
 5949SOL    HW229727   1.136   2.697  17.083
 5950SOL     OW29728   4.122   3.895   7.102
 5950SOL    HW129729   4.048   3.953   7.086
 5950SOL    HW229730   4.087   3.807   7.092
 5951SOL     OW29731   1.148   0.173   3.616
 5951SOL    HW129732   1.222   0.132   3.571
 5951SOL    HW229733   1.184   0.203   3.699
 5952SOL     OW29734   2.519   1.375   2.657
 5952SOL    HW129735   2.539   1.287   2.624
 5952SOL    HW229736   2.593   1.428   2.628
 5953SOL     OW29737   4.045   0.027   9.109
 5953SOL    HW129738   4.086   4.738   9.151
 5953SOL    HW229739   3.953   0.022   9.136
 5954SOL     OW29740   3.958   3.676  17.540
 5954SOL    HW129741   3.949   3.624  17.620
 5954SOL    HW229742   3.918   3.760  17.562
 5955SOL     OW29743   1.206   2.224  18.875
 5955SOL    HW129744   1.170   2.277  18.945
 5955SOL    HW229745   1.276   2.278  18.838
 5956SOL     OW29746   1.460   1.466   7.262
 5956SOL    HW129747   1.436   1.378   7.293
 5956SOL    HW229748   1.377   1.513   7.259
 5957SOL     OW29749   4.095   2.149   4.461
 5957SOL    HW129750   4.030   2.079   4.452
 5957SOL    HW229751   4.090   2.175   4.553
 5958SOL     OW29752   0.418   2.970  17.611
 5958SOL    HW129753   0.442   2.880  17.629
 5958SOL    HW229754   0.498   3.010  17.576
 5959SOL     OW29755   4.620   4.698   5.656
 5959SOL    HW129756   4.673   4.692   5.736
 5959SOL    HW229757   4.575   4.613   5.651
 5960SOL     OW29758   3.352   3.278   7.463
 5960SOL    HW129759   3.394   3.258   7.379
 5960SOL    HW229760   3.278   3.333   7.440
 5961SOL     OW29761   4.492   2.674  19.383
 5961SOL    HW129762   4.405   2.669  19.423
 5961SOL    HW229763   4.488   2.614  19.309
 5962SOL     OW29764   4.072   3.780   4.371
 5962SOL    HW129765   3.997   3.818   4.416
 5962SOL    HW229766   4.045   3.691   4.350
 5963SOL     OW29767   4.421   3.576  20.241
 5963SOL    HW129768   4.331   3.559  20.213
 5963SOL    HW229769   4.460   3.624  20.168
 5964SOL     OW29770   3.066   0.288   4.460
 5964SOL    HW129771   2.979   0.274   4.423
 5964SOL    HW229772   3.059   0.370   4.508
 5965SOL     OW29773   4.545   4.658   1.401
 5965SOL    HW129774   4.541   4.736   1.345
 5965SOL    HW229775   4.468   4.608   1.377
 5966SOL     OW29776   4.058   1.769   4.311
 5966SOL    HW129777   4.020   1.718   4.239
 5966SOL    HW229778   3.993   1.838   4.328
 5967SOL     OW29779   4.739   3.159   3.190
 5967SOL    HW129780   4.669   3.225   3.186
 5967SOL    HW229781   4.760   3.152   3.283
 5968SOL     OW29782   3.326   3.870   2.338
 5968SOL    HW129783   3.390   3.938   2.356
 5968SOL    HW229784   3.318   3.822   2.420
 5969SOL     OW29785   0.089   0.164  15.037
 5969SOL    HW129786   0.098   0.236  15.100
 5969SOL    HW229787   0.179   0.137  15.020
 5970SOL     OW29788   3.773   4.189   0.676
 5970SOL    HW129789   3.777   4.129   0.750
 5970SOL    HW229790   3.794   4.275   0.714
 5971SOL     OW29791   0.628   2.871   7.745
 5971SOL    HW129792   0.571   2.798   7.723
 5971SOL    HW229793   0.611   2.888   7.838
 5972SOL     OW29794   3.441   3.220   0.127
 5972SOL    HW129795   3.518   3.170   0.156
 5972SOL    HW229796   3.478   3.303   0.096
 5973SOL     OW29797   3.862   0.719   8.428
 5973SOL    HW129798   3.819   0.666   8.495
 5973SOL    HW229799   3.875   0.659   8.355
 5974SOL     OW29800   4.035   3.510   6.938
 5974SOL    HW129801   3.966   3.444   6.928
 5974SOL    HW229802   4.056   3.508   7.032
 5975SOL     OW29803   0.373   2.619  18.578
 5975SOL    HW129804   0.431   2.618  18.654
 5975SOL    HW229805   0.285   2.628  18.615
 5976SOL     OW29806   0.452   2.541   4.648
 5976SOL    HW129807   0.418   2.610   4.705
 5976SOL    HW229808   0.547   2.554   4.649
 5977SOL     OW29809   4.661   1.376  20.134
 5977SOL    HW129810   4.666   1.338  20.222
 5977SOL    HW229811   4.600   1.449  20.143
 5978SOL     OW29812   4.283   3.413   8.272
 5978SOL    HW129813   4.326   3.351   8.212
 5978SOL    HW229814   4.315   3.499   8.243
 5979SOL     OW29815   2.239   3.104   5.431
 5979SOL    HW129816   2.208   3.183   5.475
 5979SOL    HW229817   2.185   3.097   5.353
 5980SOL     OW29818   4.026   4.012   2.070
 5980SOL    HW129819   4.033   4.097   2.025
 5980SOL    HW229820   4.062   3.950   2.007
 5981SOL     OW29821   2.101   2.806   6.272
 5981SOL    HW129822   2.178   2.799   6.217
 5981SOL    HW229823   2.028   2.813   6.211
 5982SOL     OW29824   1.063   0.631   6.057
 5982SOL    HW129825   0.970   0.609   6.055
 5982SOL    HW229826   1.105   0.561   6.006
 5983SOL     OW29827   3.888   3.304   0.546
 5983SOL    HW129828   3.902   3.397   0.532
 5983SOL    HW229829   3.846   3.299   0.632
 5984SOL     OW29830   2.919   0.627   1.908
 5984SOL    HW129831   2.837   0.596   1.871
 5984SOL    HW229832   2.969   0.548   1.927
 5985SOL     OW29833   2.498   2.767   1.377
 5985SOL    HW129834   2.503   2.739   1.286
 5985SOL    HW229835   2.495   2.863   1.372
 5986SOL     OW29836   0.782   3.035  17.920
 5986SOL    HW129837   0.726   3.083  17.982
 5986SOL    HW229838   0.851   3.098  17.898
 5987SOL     OW29839   1.439   2.858   4.370
 5987SOL    HW129840   1.420   2.924   4.303
 5987SOL    HW229841   1.383   2.784   4.346
 5988SOL     OW29842   3.150   4.638   5.207
 5988SOL    HW129843   3.180   4.621   5.297
 5988SOL    HW229844   3.089   4.711   5.217
 5989SOL     OW29845   2.330   0.259  16.551
 5989SOL    HW129846   2.396   0.253  16.482
 5989SOL    HW229847   2.276   0.181  16.540
 5990SOL     OW29848   1.089   3.873  18.350
 5990SOL    HW129849   1.141   3.798  18.379
 5990SOL    HW229850   1.108   3.942  18.413
 5991SOL     OW29851   4.218   2.919  14.127
 5991SOL    HW129852   4.229   2.858  14.054
 5991SOL    HW229853   4.300   2.914  14.175
 5992SOL     OW29854   0.029   1.778  19.123
 5992SOL    HW129855   0.031   1.748  19.032
 5992SOL    HW229856   0.111   1.825  19.134
 5993SOL     OW29857   4.532   1.226   0.747
 5993SOL    HW129858   4.499   1.160   0.686
 5993SOL    HW229859   4.480   1.304   0.728
 5994SOL     OW29860   1.267   1.265  18.830
 5994SOL    HW129861   1.316   1.324  18.888
 5994SOL    HW229862   1.321   1.257  18.752
 5995SOL     OW29863   3.751   0.870  19.110
 5995SOL    HW129864   3.687   0.813  19.151
 5995SOL    HW229865   3.802   0.813  19.053
 5996SOL     OW29866   0.289   3.051   8.441
 5996SOL    HW129867   0.352   2.986   8.472
 5996SOL    HW229868   0.341   3.114   8.392
 5997SOL     OW29869   1.101   1.344  19.439
 5997SOL    HW129870   1.104   1.380  19.350
 5997SOL    HW229871   1.015   1.372  19.473
 5998SOL     OW29872   3.299   4.155  11.731
 5998SOL    HW129873   3.230   4.220  11.744
 5998SOL    HW229874   3.339   4.144  11.817
 5999SOL     OW29875   2.795   4.401   5.645
 5999SOL    HW129876   2.730   4.331   5.650
 5999SOL    HW229877   2.861   4.377   5.710
 6000SOL     OW29878   3.181   3.672   6.291
 6000SOL    HW129879   3.235   3.609   6.243
 6000SOL    HW229880   3.092   3.637   6.284
 6001SOL     OW29881   4.186   4.209  17.514
 6001SOL    HW129882   4.156   4.138  17.457
 6001SOL    HW229883   4.108   4.235  17.563
 6002SOL     OW29884   4.645   2.672   3.679
 6002SOL    HW129885   4.557   2.690   3.711
 6002SOL    HW229886   4.658   2.733   3.606
 6003SOL     OW29887   0.150   1.938   5.362
 6003SOL    HW129888   0.077   1.876   5.363
 6003SOL    HW229889   0.131   1.995   5.288
 6004SOL     OW29890   0.552   0.569   1.664
 6004SOL    HW129891   0.610   0.602   1.596
 6004SOL    HW229892   0.464   0.580   1.627
 6005SOL     OW29893   3.394   0.600   4.869
 6005SOL    HW129894   3.334   0.671   4.847
 6005SOL    HW229895   3.466   0.642   4.915
 6006SOL     OW29896   3.429   0.219   0.030
 6006SOL    HW129897   3.394   0.210   0.119
 6006SOL    HW229898   3.397   0.304   0.000
 6007SOL     OW29899   3.309   1.692   1.940
 6007SOL    HW129900   3.218   1.663   1.949
 6007SOL    HW229901   3.346   1.682   2.028
 6008SOL     OW29902   1.168   4.090   2.237
 6008SOL    HW129903   1.257   4.122   2.251
 6008SOL    HW229904   1.133   4.077   2.326
 6009SOL     OW29905   0.682   3.815  16.582
 6009SOL    HW129906   0.763   3.845  16.623
 6009SOL    HW229907   0.635   3.895  16.559
 6010SOL     OW29908   4.322   2.905  20.134
 6010SOL    HW129909   4.279   2.859  20.205
 6010SOL    HW229910   4.290   2.862  20.055
 6011SOL     OW29911   1.746   0.397   0.547
 6011SOL    HW129912   1.802   0.325   0.518
 6011SOL    HW229913   1.804   0.454   0.598
 6012SOL     OW29914   2.779   4.309  18.708
 6012SOL    HW129915   2.795   4.385  18.653
 6012SOL    HW229916   2.715   4.257  18.660
 6013SOL     OW29917   3.776   0.309   9.286
 6013SOL    HW129918   3.844   0.375   9.278
 6013SOL    HW229919   3.811   0.232   9.242
 6014SOL     OW29920   1.146   2.277   7.867
 6014SOL    HW129921   1.151   2.313   7.956
 6014SOL    HW229922   1.196   2.340   7.814
 6015SOL     OW29923   1.302   3.399   4.421
 6015SOL    HW129924   1.284   3.316   4.377
 6015SOL    HW229925   1.226   3.454   4.400
 6016SOL     OW29926   0.949   1.994   9.794
 6016SOL    HW129927   0.900   2.068   9.760
 6016SOL    HW229928   0.921   1.920   9.740
 6017SOL     OW29929   0.205   1.854  10.043
 6017SOL    HW129930   0.119   1.837  10.006
 6017SOL    HW229931   0.205   1.948  10.062
 6018SOL     OW29932   1.227   2.004   8.514
 6018SOL    HW129933   1.222   1.995   8.418
 6018SOL    HW229934   1.184   1.925   8.547
 6019SOL     OW29935   0.497   2.300   8.144
 6019SOL    HW129936   0.416   2.260   8.174
 6019SOL    HW229937   0.562   2.273   8.210
 6020SOL     OW29938   1.613   2.357   8.530
 6020SOL    HW129939   1.667   2.304   8.588
 6020SOL    HW229940   1.577   2.296   8.466
 6021SOL     OW29941   0.614   1.219   9.179
 6021SOL    HW129942   0.705   1.247   9.188
 6021SOL    HW229943   0.597   1.165   9.256
 6022SOL     OW29944   0.957   2.885   9.800
 6022SOL    HW129945   0.975   2.857   9.710
 6022SOL    HW229946   0.958   2.804   9.851
 6023SOL     OW29947   0.716   1.037   7.892
 6023SOL    HW129948   0.738   0.947   7.914
 6023SOL    HW229949   0.672   1.071   7.970
 6024SOL     OW29950   0.100   3.162  19.895
 6024SOL    HW129951   0.148   3.241  19.919
 6024SOL    HW229952   0.092   3.113  19.977
 6025SOL     OW29953   1.655   0.720   7.543
 6025SOL    HW129954   1.586   0.713   7.478
 6025SOL    HW229955   1.736   0.724   7.492
 6026SOL     OW29956   1.562   2.368   7.865
 6026SOL    HW129957   1.488   2.425   7.842
 6026SOL    HW229958   1.563   2.369   7.961
 6027SOL     OW29959   0.032   2.160   9.897
 6027SOL    HW129960   0.123   2.162   9.926
 6027SOL    HW229961   4.768   2.152   9.977
 6028SOL     OW29962   1.493   3.420   9.462
 6028SOL    HW129963   1.552   3.349   9.487
 6028SOL    HW229964   1.405   3.383   9.474
 6029SOL     OW29965   4.585   1.582   8.455
 6029SOL    HW129966   4.586   1.589   8.360
 6029SOL    HW229967   4.495   1.554   8.475
 6030SOL     OW29968   0.253   4.406  16.531
 6030SOL    HW129969   0.253   4.317  16.565
 6030SOL    HW229970   0.289   4.397  16.443
 6031SOL     OW29971   0.936   2.085   8.420
 6031SOL    HW129972   0.994   2.022   8.377
 6031SOL    HW229973   0.995   2.144   8.466
 6032SOL     OW29974   0.945   3.235   8.820
 6032SOL    HW129975   0.983   3.275   8.898
 6032SOL    HW229976   1.021   3.202   8.771
 6033SOL     OW29977   0.496   3.197   8.321
 6033SOL    HW129978   0.589   3.176   8.332
 6033SOL    HW229979   0.494   3.289   8.295
 6034SOL     OW29980   4.785   3.067  15.661
 6034SOL    HW129981   4.705   3.014  15.662
 6034SOL    HW229982   0.000   3.108  15.748
 6035SOL     OW29983   1.828   0.838   8.518
 6035SOL    HW129984   1.889   0.766   8.502
 6035SOL    HW229985   1.753   0.818   8.461
 6036SOL     OW29986   4.585   1.636   8.187
 6036SOL    HW129987   4.607   1.572   8.119
 6036SOL    HW229988   4.553   1.712   8.138
 6037SOL     OW29989   0.777   2.868  11.006
 6037SOL    HW129990   0.733   2.810  11.068
 6037SOL    HW229991   0.706   2.903  10.952
 6038SOL     OW29992   0.254   2.228  10.467
 6038SOL    HW129993   0.233   2.225  10.560
 6038SOL    HW229994   0.333   2.281  10.462
 6039SOL     OW29995   4.486   3.167  10.211
 6039SOL    HW129996   4.470   3.192  10.120
 6039SOL    HW229997   4.488   3.071  10.209
 6040SOL     OW29998   0.948   1.623  11.407
 6040SOL    HW129999   0.980   1.649  11.320
 6040SOL    HW230000   0.874   1.566  11.390
 6041SOL     OW30001   0.535   2.787  10.247
 6041SOL    HW130002   0.516   2.764  10.337
 6041SOL    HW230003   0.622   2.828  10.251
 6042SOL     OW30004   4.591   1.586  10.537
 6042SOL    HW130005   4.593   1.584  10.441
 6042SOL    HW230006   4.662   1.645  10.560
 6043SOL     OW30007   0.778   1.857  11.252
 6043SOL    HW130008   0.760   1.929  11.192
 6043SOL    HW230009   0.733   1.782  11.214
 6044SOL     OW30010   1.234   1.423  12.118
 6044SOL    HW130011   1.174   1.497  12.114
 6044SOL    HW230012   1.193   1.356  12.063
 6045SOL     OW30013   4.504   0.354   9.623
 6045SOL    HW130014   4.561   0.305   9.564
 6045SOL    HW230015   4.536   0.333   9.711
 6046SOL     OW30016   0.248   2.021   9.491
 6046SOL    HW130017   0.203   1.940   9.512
 6046SOL    HW230018   0.256   2.020   9.396
 6047SOL     OW30019   1.430   2.508   9.625
 6047SOL    HW130020   1.389   2.547   9.703
 6047SOL    HW230021   1.513   2.473   9.658
 6048SOL     OW30022   1.169   2.434  11.570
 6048SOL    HW130023   1.152   2.438  11.476
 6048SOL    HW230024   1.253   2.391  11.577
 6049SOL     OW30025   3.866   1.415   6.521
 6049SOL    HW130026   3.890   1.335   6.473
 6049SOL    HW230027   3.887   1.396   6.612
 6050SOL     OW30028   3.676   1.440  10.647
 6050SOL    HW130029   3.629   1.496  10.708
 6050SOL    HW230030   3.763   1.480  10.640
 6051SOL     OW30031   3.760   1.558  13.515
 6051SOL    HW130032   3.756   1.504  13.594
 6051SOL    HW230033   3.687   1.619  13.524
 6052SOL     OW30034   0.448   3.336  10.305
 6052SOL    HW130035   0.394   3.265  10.271
 6052SOL    HW230036   0.528   3.332  10.252
 6053SOL     OW30037   1.457   2.231   9.395
 6053SOL    HW130038   1.409   2.297   9.344
 6053SOL    HW230039   1.435   2.250   9.486
 6054SOL     OW30040   1.255   1.748  10.520
 6054SOL    HW130041   1.160   1.741  10.514
 6054SOL    HW230042   1.270   1.822  10.579
 6055SOL     OW30043   4.769   2.176  10.408
 6055SOL    HW130044   0.068   2.194  10.446
 6055SOL    HW230045   4.729   2.115  10.470
 6056SOL     OW30046   1.235   1.672  13.928
 6056SOL    HW130047   1.326   1.666  13.898
 6056SOL    HW230048   1.185   1.625  13.862
 6057SOL     OW30049   0.983   3.086  11.831
 6057SOL    HW130050   1.003   3.093  11.925
 6057SOL    HW230051   0.990   2.993  11.812
 6058SOL     OW30052   3.862   1.839  10.354
 6058SOL    HW130053   3.830   1.929  10.362
 6058SOL    HW230054   3.785   1.785  10.375
 6059SOL     OW30055   2.708   1.356  11.578
 6059SOL    HW130056   2.635   1.297  11.558
 6059SOL    HW230057   2.716   1.353  11.673
 6060SOL     OW30058   2.168   1.350  12.230
 6060SOL    HW130059   2.259   1.362  12.256
 6060SOL    HW230060   2.144   1.264  12.266
 6061SOL     OW30061   1.097   2.468  11.294
 6061SOL    HW130062   1.107   2.556  11.331
 6061SOL    HW230063   1.020   2.475  11.237
 6062SOL     OW30064   0.573   2.954  10.825
 6062SOL    HW130065   0.560   2.993  10.912
 6062SOL    HW230066   0.563   3.028  10.765
 6063SOL     OW30067   0.343   3.381  12.171
 6063SOL    HW130068   0.402   3.316  12.134
 6063SOL    HW230069   0.366   3.463  12.126
 6064SOL     OW30070   4.483   1.360  12.206
 6064SOL    HW130071   4.446   1.273  12.220
 6064SOL    HW230072   4.458   1.410  12.284
 6065SOL     OW30073   2.649   2.120  12.258
 6065SOL    HW130074   2.634   2.154  12.346
 6065SOL    HW230075   2.565   2.133  12.213
 6066SOL     OW30076   0.928   2.515  12.706
 6066SOL    HW130077   0.859   2.450  12.717
 6066SOL    HW230078   0.891   2.596  12.743
 6067SOL     OW30079   3.418   2.308   6.273
 6067SOL    HW130080   3.337   2.258   6.265
 6067SOL    HW230081   3.487   2.246   6.247
 6068SOL     OW30082   0.834   4.495  12.051
 6068SOL    HW130083   0.849   4.403  12.032
 6068SOL    HW230084   0.796   4.496  12.140
 6069SOL     OW30085   1.491   3.801  12.561
 6069SOL    HW130086   1.519   3.888  12.589
 6069SOL    HW230087   1.469   3.756  12.643
 6070SOL     OW30088   1.676   2.051  11.701
 6070SOL    HW130089   1.663   2.069  11.608
 6070SOL    HW230090   1.608   2.102  11.745
 6071SOL     OW30091   4.175   0.687  11.861
 6071SOL    HW130092   4.158   0.596  11.882
 6071SOL    HW230093   4.267   0.689  11.834
 6072SOL     OW30094   3.825   2.841  12.296
 6072SOL    HW130095   3.752   2.818  12.239
 6072SOL    HW230096   3.827   2.937  12.294
 6073SOL     OW30097   0.106   2.721  10.763
 6073SOL    HW130098   0.035   2.697  10.704
 6073SOL    HW230099   0.063   2.736  10.847
 6074SOL     OW30100   4.674   2.182  11.918
 6074SOL    HW130101   4.763   2.192  11.884
 6074SOL    HW230102   4.673   2.233  11.998
 6075SOL     OW30103   0.459   2.385  11.659
 6075SOL    HW130104   0.381   2.335  11.639
 6075SOL    HW230105   0.433   2.476  11.647
 6076SOL     OW30106   1.816   1.694  10.961
 6076SOL    HW130107   1.897   1.710  11.009
 6076SOL    HW230108   1.750   1.680  11.029
 6077SOL     OW30109   1.262   1.004  12.090
 6077SOL    HW130110   1.299   0.937  12.032
 6077SOL    HW230111   1.312   0.995  12.172
 6078SOL     OW30112   0.494   2.749  11.252
 6078SOL    HW130113   0.571   2.711  11.211
 6078SOL    HW230114   0.478   2.695  11.329
 6079SOL     OW30115   3.174   2.058  13.073
 6079SOL    HW130116   3.094   2.087  13.030
 6079SOL    HW230117   3.144   1.996  13.141
 6080SOL     OW30118   0.274   3.415  13.765
 6080SOL    HW130119   0.229   3.495  13.792
 6080SOL    HW230120   0.213   3.371  13.705
 6081SOL     OW30121   4.137   2.465  12.518
 6081SOL    HW130122   4.045   2.439  12.511
 6081SOL    HW230123   4.181   2.419  12.446
 6082SOL     OW30124   1.544   1.953  10.724
 6082SOL    HW130125   1.621   1.978  10.775
 6082SOL    HW230126   1.565   1.978  10.634
 6083SOL     OW30127   2.702   1.977  16.228
 6083SOL    HW130128   2.627   2.033  16.209
 6083SOL    HW230129   2.761   1.991  16.153
 6084SOL     OW30130   2.091   2.742   1.424
 6084SOL    HW130131   2.169   2.762   1.477
 6084SOL    HW230132   2.104   2.791   1.343
 6085SOL     OW30133   4.294   3.564   0.168
 6085SOL    HW130134   4.313   3.653   0.136
 6085SOL    HW230135   4.348   3.507   0.112
 6086SOL     OW30136   4.775   4.657   1.560
 6086SOL    HW130137   4.688   4.629   1.530
 6086SOL    HW230138   0.027   4.699   1.484
 6087SOL     OW30139   1.745   4.071  20.356
 6087SOL    HW130140   1.740   4.132  20.283
 6087SOL    HW230141   1.668   4.015  20.346
 6088SOL     OW30142   3.866   1.392  16.744
 6088SOL    HW130143   3.897   1.356  16.827
 6088SOL    HW230144   3.941   1.385  16.685
 6089SOL     OW30145   3.749   3.499   6.280
 6089SOL    HW130146   3.771   3.510   6.187
 6089SOL    HW230147   3.834   3.501   6.325
 6090SOL     OW30148   2.546   2.579  17.214
 6090SOL    HW130149   2.546   2.589  17.309
 6090SOL    HW230150   2.510   2.661  17.181
 6091SOL     OW30151   4.103   4.732   1.575
 6091SOL    HW130152   4.045   0.019   1.554
 6091SOL    HW230153   4.191   4.769   1.570
 6092SOL     OW30154   3.691   4.536  15.520
 6092SOL    HW130155   3.705   4.442  15.514
 6092SOL    HW230156   3.598   4.548  15.501
 6093SOL     OW30157   0.632   1.190  21.100
 6093SOL    HW130158   0.631   1.139  21.181
 6093SOL    HW230159   0.719   1.229  21.097
 6094SOL     OW30160   4.251   2.001   4.207
 6094SOL    HW130161   4.232   1.949   4.285
 6094SOL    HW230162   4.326   2.055   4.232
 6095SOL     OW30163   4.624   2.556  12.373
 6095SOL    HW130164   4.689   2.521  12.435
 6095SOL    HW230165   4.548   2.578  12.428
 6096SOL     OW30166   3.596   2.547   1.253
 6096SOL    HW130167   3.578   2.592   1.336
 6096SOL    HW230168   3.513   2.550   1.205
 6097SOL     OW30169   0.474   2.280  13.838
 6097SOL    HW130170   0.547   2.256  13.780
 6097SOL    HW230171   0.453   2.370  13.815
 6098SOL     OW30172   0.722   4.776  12.360
 6098SOL    HW130173   0.724   4.689  12.400
 6098SOL    HW230174   0.730   4.760  12.266
 6099SOL     OW30175   2.113   4.633  18.267
 6099SOL    HW130176   2.089   4.650  18.358
 6099SOL    HW230177   2.197   4.587  18.273
 6100SOL     OW30178   2.739   3.501  15.982
 6100SOL    HW130179   2.834   3.512  15.991
 6100SOL    HW230180   2.723   3.507  15.887
 6101SOL     OW30181   4.627   4.213  15.718
 6101SOL    HW130182   4.556   4.212  15.782
 6101SOL    HW230183   4.663   4.125  15.721
 6102SOL     OW30184   2.652   4.253   4.004
 6102SOL    HW130185   2.613   4.173   3.970
 6102SOL    HW230186   2.578   4.307   4.030
 6103SOL     OW30187   1.881   0.958   1.869
 6103SOL    HW130188   1.812   0.895   1.848
 6103SOL    HW230189   1.912   0.989   1.784
 6104SOL     OW30190   2.818   2.142   7.586
 6104SOL    HW130191   2.892   2.095   7.547
 6104SOL    HW230192   2.853   2.229   7.605
 6105SOL     OW30193   1.770   3.117  17.159
 6105SOL    HW130194   1.836   3.092  17.223
 6105SOL    HW230195   1.762   3.212  17.168
 6106SOL     OW30196   4.698   2.429  12.108
 6106SOL    HW130197   4.671   2.459  12.194
 6106SOL    HW230198   0.005   2.411  12.116
 6107SOL     OW30199   2.780   4.528  13.645
 6107SOL    HW130200   2.737   4.443  13.656
 6107SOL    HW230201   2.845   4.531  13.716
 6108SOL     OW30202   0.864   2.102  12.258
 6108SOL    HW130203   0.940   2.068  12.210
 6108SOL    HW230204   0.792   2.044  12.233
 6109SOL     OW30205   0.362   3.368   1.958
 6109SOL    HW130206   0.340   3.292   2.012
 6109SOL    HW230207   0.290   3.374   1.894
 6110SOL     OW30208   1.336   2.623  13.319
 6110SOL    HW130209   1.240   2.625  13.315
 6110SOL    HW230210   1.357   2.533  13.344
 6111SOL     OW30211   1.621   4.407  16.430
 6111SOL    HW130212   1.547   4.448  16.474
 6111SOL    HW230213   1.698   4.448  16.469
 6112SOL     OW30214   0.095   1.922  14.466
 6112SOL    HW130215   0.115   1.838  14.426
 6112SOL    HW230216   0.167   1.936  14.529
 6113SOL     OW30217   0.190   0.334  19.655
 6113SOL    HW130218   0.098   0.306  19.658
 6113SOL    HW230219   0.196   0.403  19.721
 6114SOL     OW30220   1.462   1.587  13.817
 6114SOL    HW130221   1.405   1.513  13.795
 6114SOL    HW230222   1.480   1.629  13.733
 6115SOL     OW30223   2.620   1.263  14.670
 6115SOL    HW130224   2.669   1.334  14.627
 6115SOL    HW230225   2.683   1.191  14.675
 6116SOL     OW30226   0.973   4.255   4.306
 6116SOL    HW130227   1.021   4.238   4.387
 6116SOL    HW230228   0.954   4.349   4.309
 6117SOL     OW30229   4.004   3.329  18.160
 6117SOL    HW130230   3.931   3.332  18.223
 6117SOL    HW230231   4.078   3.298  18.212
 6118SOL     OW30232   1.407   4.194   2.620
 6118SOL    HW130233   1.471   4.262   2.641
 6118SOL    HW230234   1.323   4.240   2.619
 6119SOL     OW30235   0.062   2.173  12.666
 6119SOL    HW130236   4.768   2.137  12.704
 6119SOL    HW230237   0.099   2.227  12.736
 6120SOL     OW30238   2.269   3.300  20.530
 6120SOL    HW130239   2.282   3.332  20.619
 6120SOL    HW230240   2.192   3.242  20.536
 6121SOL     OW30241   3.877   3.318   8.595
 6121SOL    HW130242   3.828   3.289   8.518
 6121SOL    HW230243   3.815   3.372   8.644
 6122SOL     OW30244   0.432   1.506   3.526
 6122SOL    HW130245   0.363   1.498   3.460
 6122SOL    HW230246   0.444   1.600   3.538
 6123SOL     OW30247   0.483   0.412  14.149
 6123SOL    HW130248   0.483   0.324  14.187
 6123SOL    HW230249   0.515   0.400  14.060
 6124SOL     OW30250   3.848   4.719  17.440
 6124SOL    HW130251   3.874   4.683  17.355
 6124SOL    HW230252   3.892   4.663  17.504
 6125SOL     OW30253   0.503   0.378  21.175
 6125SOL    HW130254   0.518   0.432   0.008
 6125SOL    HW230255   0.410   0.392  21.153
 6126SOL     OW30256   0.117   2.626  19.652
 6126SOL    HW130257   0.205   2.623  19.687
 6126SOL    HW230258   0.111   2.549  19.595
 6127SOL     OW30259   0.922   1.423   6.100
 6127SOL    HW130260   0.995   1.471   6.061
 6127SOL    HW230261   0.958   1.384   6.179
 6128SOL     OW30262   1.522   2.733  19.340
 6128SOL    HW130263   1.541   2.640  19.327
 6128SOL    HW230264   1.485   2.762  19.257
 6129SOL     OW30265   3.781   2.425   6.812
 6129SOL    HW130266   3.771   2.488   6.741
 6129SOL    HW230267   3.734   2.463   6.886
 6130SOL     OW30268   2.198   3.980   5.301
 6130SOL    HW130269   2.236   3.959   5.215
 6130SOL    HW230270   2.103   3.973   5.287
 6131SOL     OW30271   4.293   2.068   6.284
 6131SOL    HW130272   4.309   2.060   6.378
 6131SOL    HW230273   4.240   1.991   6.262
 6132SOL     OW30274   3.458   0.949  11.459
 6132SOL    HW130275   3.513   0.902  11.396
 6132SOL    HW230276   3.519   0.981  11.526
 6133SOL     OW30277   3.032   1.998  19.337
 6133SOL    HW130278   3.094   2.007  19.264
 6133SOL    HW230279   2.948   1.980  19.295
 6134SOL     OW30280   0.008   4.272  18.303
 6134SOL    HW130281   4.712   4.321  18.311
 6134SOL    HW230282   0.037   4.260  18.393
 6135SOL     OW30283   0.329   1.020   4.518
 6135SOL    HW130284   0.280   0.940   4.499
 6135SOL    HW230285   0.418   0.989   4.534
 6136SOL     OW30286   1.688   1.927  17.439
 6136SOL    HW130287   1.657   1.885  17.359
 6136SOL    HW230288   1.688   2.021  17.418
 6137SOL     OW30289   0.831   0.508  19.226
 6137SOL    HW130290   0.893   0.439  19.251
 6137SOL    HW230291   0.746   0.476  19.259
 6138SOL     OW30292   2.240   2.657  14.386
 6138SOL    HW130293   2.280   2.741  14.366
 6138SOL    HW230294   2.312   2.594  14.382
 6139SOL     OW30295   3.770   0.644  18.301
 6139SOL    HW130296   3.810   0.562  18.329
 6139SOL    HW230297   3.719   0.621  18.223
 6140SOL     OW30298   2.052   3.383   7.075
 6140SOL    HW130299   2.008   3.390   6.991
 6140SOL    HW230300   2.014   3.305   7.116
 6141SOL     OW30301   4.373   1.319  16.460
 6141SOL    HW130302   4.469   1.326  16.459
 6141SOL    HW230303   4.356   1.227  16.441
 6142SOL     OW30304   0.218   0.512  21.054
 6142SOL    HW130305   0.222   0.576  20.982
 6142SOL    HW230306   0.209   0.428  21.010
 6143SOL     OW30307   4.046   3.493   0.065
 6143SOL    HW130308   4.050   3.401   0.089
 6143SOL    HW230309   4.114   3.534   0.119
 6144SOL     OW30310   3.434   0.774  18.148
 6144SOL    HW130311   3.475   0.688  18.143
 6144SOL    HW230312   3.351   0.765  18.101
 6145SOL     OW30313   4.785   4.555  20.698
 6145SOL    HW130314   0.093   4.559  20.687
 6145SOL    HW230315   4.749   4.579  20.613
 6146SOL     OW30316   0.903   3.607   4.181
 6146SOL    HW130317   0.847   3.543   4.137
 6146SOL    HW230318   0.843   3.673   4.216
 6147SOL     OW30319   0.908   0.872  17.201
 6147SOL    HW130320   0.957   0.892  17.122
 6147SOL    HW230321   0.858   0.794  17.180
 6148SOL     OW30322   1.724   1.887   6.750
 6148SOL    HW130323   1.743   1.978   6.726
 6148SOL    HW230324   1.661   1.894   6.821
 6149SOL     OW30325   2.984   3.157  18.339
 6149SOL    HW130326   3.002   3.063  18.333
 6149SOL    HW230327   3.071   3.198  18.339
 6150SOL     OW30328   1.745   0.069  21.080
 6150SOL    HW130329   1.739   0.154  21.124
 6150SOL    HW230330   1.827   0.032  21.111
 6151SOL     OW30331   1.827   3.777  16.231
 6151SOL    HW130332   1.867   3.696  16.198
 6151SOL    HW230333   1.771   3.748  16.302
 6152SOL     OW30334   0.030   2.357  21.164
 6152SOL    HW130335   4.777   2.425  21.110
 6152SOL    HW230336   4.743   2.313  21.206
 6153SOL     OW30337   4.753   3.186  18.372
 6153SOL    HW130338   0.040   3.243  18.391
 6153SOL    HW230339   4.778   3.139  18.293
 6154SOL     OW30340   2.342   2.715   0.321
 6154SOL    HW130341   2.331   2.702   0.227
 6154SOL    HW230342   2.408   2.785   0.328
 6155SOL     OW30343   1.735   2.416   4.374
 6155SOL    HW130344   1.791   2.341   4.358
 6155SOL    HW230345   1.795   2.489   4.390
 6156SOL     OW30346   3.019   0.353   0.575
 6156SOL    HW130347   2.959   0.426   0.562
 6156SOL    HW230348   2.972   0.277   0.542
 6157SOL     OW30349   0.506   0.042  19.035
 6157SOL    HW130350   0.534   0.067  19.123
 6157SOL    HW230351   0.521   4.734  19.031
 6158SOL     OW30352   2.828   4.152  15.852
 6158SOL    HW130353   2.842   4.218  15.920
 6158SOL    HW230354   2.747   4.108  15.879
 6159SOL     OW30355   3.753   0.015  20.973
 6159SOL    HW130356   3.724   4.716  21.004
 6159SOL    HW230357   3.845   0.021  20.999
 6160SOL     OW30358   2.134   2.156   1.015
 6160SOL    HW130359   2.219   2.185   0.980
 6160SOL    HW230360   2.144   2.161   1.110
 6161SOL     OW30361   2.306   2.876   2.188
 6161SOL    HW130362   2.241   2.820   2.230
 6161SOL    HW230363   2.389   2.832   2.204
 6162SOL     OW30364   4.676   0.768   4.725
 6162SOL    HW130365   4.597   0.735   4.768
 6162SOL    HW230366   4.645   0.839   4.669
 6163SOL     OW30367   0.830   3.290  19.644
 6163SOL    HW130368   0.738   3.285  19.618
 6163SOL    HW230369   0.828   3.296  19.740
 6164SOL     OW30370   3.104   3.663   2.079
 6164SOL    HW130371   3.195   3.671   2.108
 6164SOL    HW230372   3.076   3.578   2.114
 6165SOL     OW30373   4.126   0.485   1.520
 6165SOL    HW130374   4.117   0.393   1.495
 6165SOL    HW230375   4.039   0.511   1.549
 6166SOL     OW30376   1.929   4.558  19.375
 6166SOL    HW130377   1.989   4.612  19.426
 6166SOL    HW230378   1.985   4.510  19.313
 6167SOL     OW30379   2.129   2.342   3.800
 6167SOL    HW130380   2.092   2.318   3.885
 6167SOL    HW230381   2.054   2.374   3.750
 6168SOL     OW30382   3.802   3.467   2.771
 6168SOL    HW130383   3.732   3.530   2.785
 6168SOL    HW230384   3.818   3.428   2.857
 6169SOL     OW30385   2.568   2.495   5.299
 6169SOL    HW130386   2.576   2.578   5.346
 6169SOL    HW230387   2.520   2.438   5.359
 6170SOL     OW30388   3.801   0.608   2.557
 6170SOL    HW130389   3.775   0.523   2.519
 6170SOL    HW230390   3.730   0.630   2.617
 6171SOL     OW30391   4.753   0.059  17.825
 6171SOL    HW130392   4.736   0.071  17.732
 6171SOL    HW230393   0.061   0.065  17.834
 6172SOL     OW30394   2.747   2.004   8.361
 6172SOL    HW130395   2.828   2.047   8.333
 6172SOL    HW230396   2.729   1.940   8.292
 6173SOL     OW30397   4.278   0.268   2.496
 6173SOL    HW130398   4.198   0.320   2.495
 6173SOL    HW230399   4.261   0.198   2.559
 6174SOL     OW30400   3.399   3.860   1.630
 6174SOL    HW130401   3.397   3.817   1.716
 6174SOL    HW230402   3.433   3.793   1.571
 6175SOL     OW30403   1.112   0.179  21.165
 6175SOL    HW130404   1.075   0.261  21.198
 6175SOL    HW230405   1.202   0.201  21.141
 6176SOL     OW30406   2.527   2.358  16.653
 6176SOL    HW130407   2.434   2.378  16.641
 6176SOL    HW230408   2.545   2.290  16.588
 6177SOL     OW30409   0.918   3.581  19.465
 6177SOL    HW130410   1.004   3.569  19.503
 6177SOL    HW230411   0.893   3.671  19.489
 6178SOL     OW30412   4.289   2.054   6.550
 6178SOL    HW130413   4.289   1.967   6.590
 6178SOL    HW230414   4.342   2.107   6.609
 6179SOL     OW30415   1.473   1.590   6.835
 6179SOL    HW130416   1.411   1.616   6.903
 6179SOL    HW230417   1.503   1.503   6.862
 6180SOL     OW30418   0.385   2.985   2.766
 6180SOL    HW130419   0.377   2.899   2.808
 6180SOL    HW230420   0.343   3.046   2.826
 6181SOL     OW30421   4.171   2.355   7.465
 6181SOL    HW130422   4.147   2.418   7.532
 6181SOL    HW230423   4.117   2.378   7.390
 6182SOL     OW30424   0.363   4.028   0.077
 6182SOL    HW130425   0.427   3.960   0.053
 6182SOL    HW230426   0.414   4.092   0.127
 6183SOL     OW30427   0.762   1.004   0.329
 6183SOL    HW130428   0.849   1.025   0.295
 6183SOL    HW230429   0.755   1.055   0.409
 6184SOL     OW30430   1.378   2.254  20.967
 6184SOL    HW130431   1.400   2.300  20.887
 6184SOL    HW230432   1.396   2.162  20.947
 6185SOL     OW30433   1.724   4.380  15.469
 6185SOL    HW130434   1.746   4.426  15.388
 6185SOL    HW230435   1.786   4.307  15.473
 6186SOL     OW30436   0.447   1.014   3.403
 6186SOL    HW130437   0.476   1.086   3.347
 6186SOL    HW230438   0.445   1.051   3.491
 6187SOL     OW30439   1.182   3.609   4.043
 6187SOL    HW130440   1.136   3.626   4.125
 6187SOL    HW230441   1.165   3.686   3.989
 6188SOL     OW30442   0.463   2.891   3.569
 6188SOL    HW130443   0.525   2.906   3.497
 6188SOL    HW230444   0.476   2.800   3.594
 6189SOL     OW30445   4.671   3.163   3.455
 6189SOL    HW130446   4.733   3.212   3.509
 6189SOL    HW230447   4.585   3.183   3.493
 6190SOL     OW30448   2.690   3.288  18.736
 6190SOL    HW130449   2.687   3.219  18.670
 6190SOL    HW230450   2.624   3.262  18.801
 6191SOL     OW30451   0.011   1.686   3.480
 6191SOL    HW130452   0.062   1.640   3.547
 6191SOL    HW230453   4.783   1.773   3.516
 6192SOL     OW30454   1.404   0.140  15.188
 6192SOL    HW130455   1.474   0.206  15.181
 6192SOL    HW230456   1.409   0.110  15.279
 6193SOL     OW30457   0.305   3.047   4.925
 6193SOL    HW130458   0.358   3.123   4.949
 6193SOL    HW230459   0.238   3.041   4.993
 6194SOL     OW30460   4.620   4.260   3.081
 6194SOL    HW130461   4.623   4.293   2.991
 6194SOL    HW230462   4.711   4.236   3.101
 6195SOL     OW30463   1.095   1.560   1.938
 6195SOL    HW130464   1.072   1.509   1.860
 6195SOL    HW230465   1.127   1.643   1.903
 6196SOL     OW30466   3.394   4.480  15.464
 6196SOL    HW130467   3.452   4.404  15.460
 6196SOL    HW230468   3.309   4.446  15.436
 6197SOL     OW30469   1.711   3.684   0.658
 6197SOL    HW130470   1.732   3.592   0.648
 6197SOL    HW230471   1.794   3.730   0.644
 6198SOL     OW30472   0.814   2.521  19.271
 6198SOL    HW130473   0.867   2.571  19.209
 6198SOL    HW230474   0.797   2.438  19.227
 6199SOL     OW30475   0.284   1.426  15.816
 6199SOL    HW130476   0.262   1.336  15.841
 6199SOL    HW230477   0.238   1.439  15.732
 6200SOL     OW30478   1.440   3.752  20.515
 6200SOL    HW130479   1.436   3.777  20.607
 6200SOL    HW230480   1.366   3.692  20.503
 6201SOL     OW30481   2.593   1.689  18.444
 6201SOL    HW130482   2.582   1.763  18.385
 6201SOL    HW230483   2.594   1.612  18.387
 6202SOL     OW30484   4.277   4.133   6.063
 6202SOL    HW130485   4.280   4.192   5.988
 6202SOL    HW230486   4.266   4.046   6.025
 6203SOL     OW30487   4.042   1.010   1.055
 6203SOL    HW130488   3.953   1.000   1.022
 6203SOL    HW230489   4.098   0.996   0.979
 6204SOL     OW30490   3.186   1.929  11.077
 6204SOL    HW130491   3.097   1.926  11.040
 6204SOL    HW230492   3.221   2.014  11.049
 6205SOL     OW30493   3.149   3.483  17.008
 6205SOL    HW130494   3.233   3.496  16.962
 6205SOL    HW230495   3.141   3.389  17.017
 6206SOL     OW30496   1.651   1.193  17.044
 6206SOL    HW130497   1.619   1.268  17.093
 6206SOL    HW230498   1.620   1.208  16.955
 6207SOL     OW30499   4.565   0.896  15.072
 6207SOL    HW130500   4.515   0.824  15.032
 6207SOL    HW230501   4.611   0.855  15.145
 6208SOL     OW30502   1.913   2.464  13.981
 6208SOL    HW130503   1.992   2.434  14.027
 6208SOL    HW230504   1.842   2.411  14.018
 6209SOL     OW30505   1.027   3.743   3.733
 6209SOL    HW130506   1.019   3.655   3.771
 6209SOL    HW230507   1.061   3.797   3.805
 6210SOL     OW30508   1.040   3.604   7.103
 6210SOL    HW130509   1.104   3.606   7.174
 6210SOL    HW230510   1.012   3.695   7.094
 6211SOL     OW30511   0.066   0.098   5.805
 6211SOL    HW130512   0.031   0.041   5.874
 6211SOL    HW230513   0.123   0.041   5.753
 6212SOL     OW30514   0.223   3.905   2.873
 6212SOL    HW130515   0.292   3.883   2.811
 6212SOL    HW230516   0.218   3.829   2.931
 6213SOL     OW30517   2.246   3.774   5.629
 6213SOL    HW130518   2.263   3.844   5.567
 6213SOL    HW230519   2.317   3.781   5.693
 6214SOL     OW30520   3.111   1.055  17.981
 6214SOL    HW130521   3.022   1.042  17.948
 6214SOL    HW230522   3.150   1.119  17.922
 6215SOL     OW30523   3.904   4.439   2.444
 6215SOL    HW130524   3.876   4.464   2.532
 6215SOL    HW230525   3.946   4.354   2.456
 6216SOL     OW30526   2.026   1.799   4.400
 6216SOL    HW130527   2.018   1.708   4.426
 6216SOL    HW230528   2.119   1.819   4.410
 6217SOL     OW30529   4.064   4.311   2.794
 6217SOL    HW130530   4.153   4.345   2.780
 6217SOL    HW230531   4.066   4.275   2.882
 6218SOL     OW30532   3.184   1.394  18.621
 6218SOL    HW130533   3.172   1.447  18.542
 6218SOL    HW230534   3.171   1.304  18.591
 6219SOL     OW30535   1.288   3.907   0.751
 6219SOL    HW130536   1.327   3.981   0.704
 6219SOL    HW230537   1.363   3.856   0.781
 6220SOL     OW30538   0.498   2.389   0.629
 6220SOL    HW130539   0.523   2.371   0.720
 6220SOL    HW230540   0.530   2.477   0.612
 6221SOL     OW30541   1.919   2.510   0.945
 6221SOL    HW130542   1.858   2.459   0.998
 6221SOL    HW230543   1.997   2.455   0.938
 6222SOL     OW30544   0.567   0.114  13.314
 6222SOL    HW130545   0.504   0.184  13.332
 6222SOL    HW230546   0.523   0.059  13.249
 6223SOL     OW30547   2.379   1.148  17.340
 6223SOL    HW130548   2.354   1.236  17.312
 6223SOL    HW230549   2.385   1.098  17.258
 6224SOL     OW30550   0.584   0.851   9.684
 6224SOL    HW130551   0.542   0.776   9.728
 6224SOL    HW230552   0.511   0.904   9.652
 6225SOL     OW30553   1.162   2.843   3.406
 6225SOL    HW130554   1.150   2.779   3.336
 6225SOL    HW230555   1.098   2.912   3.386
 6226SOL     OW30556   0.592   2.239  18.136
 6226SOL    HW130557   0.601   2.322  18.183
 6226SOL    HW230558   0.671   2.191  18.157
 6227SOL     OW30559   3.770   1.656  19.811
 6227SOL    HW130560   3.707   1.648  19.739
 6227SOL    HW230561   3.729   1.718  19.872
 6228SOL     OW30562   1.348   1.664   4.356
 6228SOL    HW130563   1.417   1.599   4.342
 6228SOL    HW230564   1.322   1.652   4.448
 6229SOL     OW30565   4.210   3.244  18.333
 6229SOL    HW130566   4.220   3.237  18.428
 6229SOL    HW230567   4.296   3.272  18.302
 6230SOL     OW30568   0.282   0.824  16.064
 6230SOL    HW130569   0.192   0.798  16.085
 6230SOL    HW230570   0.329   0.817  16.148
 6231SOL     OW30571   3.885   2.568  21.053
 6231SOL    HW130572   3.890   2.648  21.001
 6231SOL    HW230573   3.938   2.586  21.130
 6232SOL     OW30574   0.486   3.475   3.226
 6232SOL    HW130575   0.406   3.525   3.240
 6232SOL    HW230576   0.468   3.421   3.149
 6233SOL     OW30577   1.826   1.345  18.984
 6233SOL    HW130578   1.809   1.285  18.911
 6233SOL    HW230579   1.870   1.291  19.049
 6234SOL     OW30580   4.385   4.374  15.470
 6234SOL    HW130581   4.301   4.416  15.489
 6234SOL    HW230582   4.444   4.447  15.451
 6235SOL     OW30583   2.085   2.884  19.433
 6235SOL    HW130584   2.104   2.816  19.498
 6235SOL    HW230585   2.144   2.864  19.360
 6236SOL     OW30586   0.900   0.759   4.656
 6236SOL    HW130587   0.912   0.854   4.654
 6236SOL    HW230588   0.812   0.746   4.620
 6237SOL     OW30589   0.099   0.134   1.726
 6237SOL    HW130590   0.119   0.051   1.770
 6237SOL    HW230591   0.176   0.151   1.672
 6238SOL     OW30592   2.370   1.550   2.475
 6238SOL    HW130593   2.373   1.627   2.531
 6238SOL    HW230594   2.387   1.477   2.534
 6239SOL     OW30595   3.302   3.441   1.759
 6239SOL    HW130596   3.271   3.498   1.688
 6239SOL    HW230597   3.294   3.495   1.837
 6240SOL     OW30598   3.562   1.053   6.193
 6240SOL    HW130599   3.552   0.965   6.156
 6240SOL    HW230600   3.518   1.111   6.131
 6241SOL     OW30601   1.331   2.462  18.020
 6241SOL    HW130602   1.300   2.417  17.941
 6241SOL    HW230603   1.399   2.405  18.056
 6242SOL     OW30604   0.689   1.570   1.343
 6242SOL    HW130605   0.625   1.638   1.320
 6242SOL    HW230606   0.691   1.513   1.267
 6243SOL     OW30607   4.716   1.299   3.100
 6243SOL    HW130608   4.728   1.278   3.192
 6243SOL    HW230609   4.712   1.394   3.097
 6244SOL     OW30610   3.063   4.261  20.882
 6244SOL    HW130611   3.025   4.177  20.903
 6244SOL    HW230612   3.113   4.246  20.801
 6245SOL     OW30613   1.830   4.068  19.117
 6245SOL    HW130614   1.900   4.115  19.073
 6245SOL    HW230615   1.778   4.030  19.046
 6246SOL     OW30616   3.285   3.181   0.693
 6246SOL    HW130617   3.347   3.221   0.754
 6246SOL    HW230618   3.331   3.181   0.609
 6247SOL     OW30619   3.543   2.867  14.742
 6247SOL    HW130620   3.512   2.829  14.659
 6247SOL    HW230621   3.506   2.955  14.742
 6248SOL     OW30622   0.553   2.801   4.560
 6248SOL    HW130623   0.642   2.827   4.582
 6248SOL    HW230624   0.506   2.802   4.643
 6249SOL     OW30625   4.103   0.675   3.424
 6249SOL    HW130626   4.168   0.730   3.381
 6249SOL    HW230627   4.152   0.630   3.493
 6250SOL     OW30628   3.162   0.887   4.541
 6250SOL    HW130629   3.233   0.879   4.478
 6250SOL    HW230630   3.133   0.797   4.557
 6251SOL     OW30631   2.139   2.408  19.728
 6251SOL    HW130632   2.185   2.362  19.658
 6251SOL    HW230633   2.047   2.382  19.718
 6252SOL     OW30634   4.707   1.711  19.794
 6252SOL    HW130635   4.693   1.743  19.883
 6252SOL    HW230636   4.749   1.626  19.805
 6253SOL     OW30637   1.901   2.227   4.352
 6253SOL    HW130638   1.973   2.280   4.320
 6253SOL    HW230639   1.904   2.147   4.299
 6254SOL     OW30640   1.950   1.299   5.798
 6254SOL    HW130641   2.011   1.356   5.752
 6254SOL    HW230642   1.870   1.302   5.746
 6255SOL     OW30643   1.959   2.319   2.302
 6255SOL    HW130644   1.877   2.272   2.287
 6255SOL    HW230645   1.981   2.298   2.393
 6256SOL     OW30646   3.266   4.758   3.901
 6256SOL    HW130647   3.202   0.029   3.860
 6256SOL    HW230648   3.318   4.724   3.828
 6257SOL     OW30649   1.254   0.649   9.219
 6257SOL    HW130650   1.308   0.708   9.272
 6257SOL    HW230651   1.262   0.683   9.130
 6258SOL     OW30652   1.760   4.117   6.724
 6258SOL    HW130653   1.697   4.156   6.784
 6258SOL    HW230654   1.778   4.185   6.659
 6259SOL     OW30655   0.246   3.860   4.098
 6259SOL    HW130656   0.335   3.877   4.067
 6259SOL    HW230657   0.241   3.904   4.183
 6260SOL     OW30658   3.652   1.742  21.038
 6260SOL    HW130659   3.607   1.746  21.122
 6260SOL    HW230660   3.738   1.780  21.054
 6261SOL     OW30661   3.452   1.381   6.953
 6261SOL    HW130662   3.388   1.415   6.891
 6261SOL    HW230663   3.492   1.460   6.991
 6262SOL     OW30664   4.747   1.565   2.684
 6262SOL    HW130665   4.742   1.507   2.760
 6262SOL    HW230666   4.723   1.509   2.610
 6263SOL     OW30667   0.263   4.787  15.619
 6263SOL    HW130668   0.169   0.013  15.606
 6263SOL    HW230669   0.268   4.739  15.702
 6264SOL     OW30670   0.050   2.521   2.351
 6264SOL    HW130671   4.780   2.593   2.324
 6264SOL    HW230672   4.781   2.443   2.348
 6265SOL     OW30673   3.599   3.542  16.027
 6265SOL    HW130674   3.659   3.591  16.082
 6265SOL    HW230675   3.537   3.607  15.995
 6266SOL     OW30676   1.740   2.433   3.986
 6266SOL    HW130677   1.670   2.479   4.031
 6266SOL    HW230678   1.813   2.434   4.048
 6267SOL     OW30679   0.486   0.611  10.319
 6267SOL    HW130680   0.430   0.552  10.267
 6267SOL    HW230681   0.447   0.698  10.306
 6268SOL     OW30682   1.546   2.009   3.198
 6268SOL    HW130683   1.617   2.051   3.149
 6268SOL    HW230684   1.524   1.931   3.146
 6269SOL     OW30685   4.066   2.332   4.122
 6269SOL    HW130686   4.020   2.253   4.094
 6269SOL    HW230687   4.159   2.308   4.118
 6270SOL     OW30688   2.900   1.557  21.102
 6270SOL    HW130689   2.815   1.533  21.064
 6270SOL    HW230690   2.961   1.553  21.028
 6271SOL     OW30691   0.370   1.835   5.237
 6271SOL    HW130692   0.388   1.746   5.268
 6271SOL    HW230693   0.283   1.856   5.273
 6272SOL     OW30694   2.309   3.464   8.764
 6272SOL    HW130695   2.381   3.402   8.754
 6272SOL    HW230696   2.342   3.546   8.728
 6273SOL     OW30697   1.482   3.435  12.859
 6273SOL    HW130698   1.508   3.385  12.781
 6273SOL    HW230699   1.420   3.378  12.904
 6274SOL     OW30700   1.334   1.212   0.700
 6274SOL    HW130701   1.295   1.283   0.649
 6274SOL    HW230702   1.377   1.156   0.635
 6275SOL     OW30703   0.116   1.223  15.571
 6275SOL    HW130704   0.034   1.200  15.528
 6275SOL    HW230705   0.095   1.224  15.665
 6276SOL     OW30706   0.189   3.759   1.994
 6276SOL    HW130707   0.137   3.839   1.999
 6276SOL    HW230708   0.231   3.763   1.908
 6277SOL     OW30709   4.057   0.644   4.331
 6277SOL    HW130710   4.113   0.707   4.286
 6277SOL    HW230711   4.081   0.559   4.293
 6278SOL     OW30712   3.709   2.226   0.853
 6278SOL    HW130713   3.645   2.296   0.869
 6278SOL    HW230714   3.699   2.167   0.928
 6279SOL     OW30715   0.273   2.812   4.522
 6279SOL    HW130716   0.365   2.808   4.498
 6279SOL    HW230717   0.272   2.813   4.617
 6280SOL     OW30718   0.299   1.837   5.749
 6280SOL    HW130719   0.297   1.915   5.693
 6280SOL    HW230720   0.327   1.870   5.835
 6281SOL     OW30721   0.735   1.220  19.487
 6281SOL    HW130722   0.737   1.211  19.392
 6281SOL    HW230723   0.749   1.131  19.520
 6282SOL     OW30724   4.711   1.173  19.364
 6282SOL    HW130725   4.767   1.096  19.369
 6282SOL    HW230726   4.773   1.247  19.361
 6283SOL     OW30727   2.096   0.045  14.542
 6283SOL    HW130728   2.040   4.760  14.513
 6283SOL    HW230729   2.151   0.064  14.465
 6284SOL     OW30730   4.583   2.282   0.438
 6284SOL    HW130731   4.642   2.223   0.391
 6284SOL    HW230732   4.636   2.316   0.510
 6285SOL     OW30733   4.081   2.824   0.906
 6285SOL    HW130734   4.010   2.763   0.888
 6285SOL    HW230735   4.103   2.811   0.998
 6286SOL     OW30736   0.224   4.776   5.622
 6286SOL    HW130737   0.212   0.038   5.541
 6286SOL    HW230738   0.173   4.697   5.611
 6287SOL     OW30739   3.375   4.347   3.913
 6287SOL    HW130740   3.330   4.407   3.972
 6287SOL    HW230741   3.422   4.287   3.971
 6288SOL     OW30742   2.911   1.884   1.896
 6288SOL    HW130743   2.971   1.934   1.951
 6288SOL    HW230744   2.941   1.901   1.807
 6289SOL     OW30745   2.277   1.949  18.389
 6289SOL    HW130746   2.362   1.962  18.348
 6289SOL    HW230747   2.214   1.982  18.325
 6290SOL     OW30748   2.221   1.821   8.478
 6290SOL    HW130749   2.309   1.811   8.440
 6290SOL    HW230750   2.233   1.886   8.547
 6291SOL     OW30751   0.176   2.890  19.654
 6291SOL    HW130752   0.095   2.942  19.654
 6291SOL    HW230753   0.147   2.802  19.680
 6292SOL     OW30754   3.063   3.969   2.288
 6292SOL    HW130755   3.155   3.943   2.285
 6292SOL    HW230756   3.032   3.961   2.198
 6293SOL     OW30757   2.800   0.133  18.588
 6293SOL    HW130758   2.883   0.128  18.634
 6293SOL    HW230759   2.748   0.062  18.624
 6294SOL     OW30760   0.951   3.784   5.389
 6294SOL    HW130761   0.944   3.878   5.405
 6294SOL    HW230762   1.045   3.767   5.385
 6295SOL     OW30763   1.590   1.995  14.107
 6295SOL    HW130764   1.583   1.900  14.112
 6295SOL    HW230765   1.500   2.026  14.115
 6296SOL     OW30766   3.437   2.106  13.022
 6296SOL    HW130767   3.345   2.085  13.037
 6296SOL    HW230768   3.444   2.117  12.927
 6297SOL     OW30769   0.141   3.787   0.679
 6297SOL    HW130770   0.200   3.798   0.754
 6297SOL    HW230771   0.133   3.875   0.642
 6298SOL     OW30772   0.545   3.672  15.059
 6298SOL    HW130773   0.529   3.691  15.151
 6298SOL    HW230774   0.491   3.596  15.039
 6299SOL     OW30775   2.201   3.441  18.042
 6299SOL    HW130776   2.124   3.384  18.040
 6299SOL    HW230777   2.262   3.396  18.100
 6300SOL     OW30778   2.386   1.347   3.388
 6300SOL    HW130779   2.415   1.327   3.299
 6300SOL    HW230780   2.291   1.340   3.385
 6301SOL     OW30781   3.202   0.149  16.853
 6301SOL    HW130782   3.147   0.072  16.867
 6301SOL    HW230783   3.273   0.117  16.796
 6302SOL     OW30784   2.066   1.357  12.616
 6302SOL    HW130785   2.020   1.387  12.695
 6302SOL    HW230786   2.025   1.404  12.544
 6303SOL     OW30787   4.764   4.509  18.904
 6303SOL    HW130788   0.029   4.458  18.842
 6303SOL    HW230789   4.679   4.465  18.907
 6304SOL     OW30790   1.352   0.896  19.146
 6304SOL    HW130791   1.393   0.813  19.122
 6304SOL    HW230792   1.258   0.878  19.145
 6305SOL     OW30793   2.681   1.003   1.274
 6305SOL    HW130794   2.767   0.977   1.240
 6305SOL    HW230795   2.686   1.098   1.282
 6306SOL     OW30796   4.749   0.388  20.872
 6306SOL    HW130797   0.027   0.324  20.902
 6306SOL    HW230798   4.665   0.341  20.878
 6307SOL     OW30799   2.849   3.181  17.998
 6307SOL    HW130800   2.852   3.269  17.961
 6307SOL    HW230801   2.900   3.187  18.078
 6308SOL     OW30802   3.509   2.173  15.697
 6308SOL    HW130803   3.570   2.243  15.722
 6308SOL    HW230804   3.422   2.210  15.714
 6309SOL     OW30805   3.138   1.692   3.595
 6309SOL    HW130806   3.218   1.679   3.648
 6309SOL    HW230807   3.126   1.787   3.594
 6310SOL     OW30808   1.530   4.445  11.867
 6310SOL    HW130809   1.555   4.435  11.959
 6310SOL    HW230810   1.525   4.540  11.854
 6311SOL     OW30811   3.701   1.950   2.394
 6311SOL    HW130812   3.656   1.948   2.310
 6311SOL    HW230813   3.794   1.957   2.372
 6312SOL     OW30814   2.711   1.399   3.644
 6312SOL    HW130815   2.732   1.477   3.594
 6312SOL    HW230816   2.767   1.331   3.606
 6313SOL     OW30817   0.148   0.195  20.917
 6313SOL    HW130818   0.239   0.169  20.907
 6313SOL    HW230819   0.109   0.126  20.971
 6314SOL     OW30820   2.579   1.490  19.736
 6314SOL    HW130821   2.580   1.418  19.799
 6314SOL    HW230822   2.521   1.556  19.775
 6315SOL     OW30823   0.453   0.690   5.366
 6315SOL    HW130824   0.411   0.605   5.380
 6315SOL    HW230825   0.501   0.706   5.446
 6316SOL     OW30826   0.032   2.887   1.729
 6316SOL    HW130827   0.065   2.909   1.816
 6316SOL    HW230828   4.723   2.889   1.739
 6317SOL     OW30829   2.088   2.381   4.816
 6317SOL    HW130830   2.109   2.288   4.815
 6317SOL    HW230831   1.992   2.384   4.817
 6318SOL     OW30832   4.114   2.752  18.649
 6318SOL    HW130833   4.046   2.701  18.692
 6318SOL    HW230834   4.154   2.691  18.587
 6319SOL     OW30835   1.460   2.527  17.660
 6319SOL    HW130836   1.550   2.538  17.692
 6319SOL    HW230837   1.428   2.616  17.647
 6320SOL     OW30838   4.705   4.421   6.068
 6320SOL    HW130839   4.672   4.417   5.978
 6320SOL    HW230840   4.636   4.467   6.116
 6321SOL     OW30841   3.114   2.945  18.942
 6321SOL    HW130842   3.096   3.034  18.914
 6321SOL    HW230843   3.199   2.951  18.987
 6322SOL     OW30844   4.662   2.344   7.117
 6322SOL    HW130845   4.736   2.390   7.156
 6322SOL    HW230846   4.585   2.392   7.147
 6323SOL     OW30847   4.034   3.620  18.137
 6323SOL    HW130848   3.947   3.657  18.152
 6323SOL    HW230849   4.020   3.525  18.138
 6324SOL     OW30850   3.310   1.349   1.542
 6324SOL    HW130851   3.346   1.432   1.573
 6324SOL    HW230852   3.246   1.324   1.609
 6325SOL     OW30853   0.391   1.206  14.323
 6325SOL    HW130854   0.313   1.151  14.321
 6325SOL    HW230855   0.437   1.178  14.403
 6326SOL     OW30856   1.167   4.641  11.370
 6326SOL    HW130857   1.208   4.675  11.291
 6326SOL    HW230858   1.073   4.640  11.350
 6327SOL     OW30859   0.185   0.051  13.297
 6327SOL    HW130860   0.237   0.114  13.345
 6327SOL    HW230861   0.243   0.022  13.225
 6328SOL     OW30862   4.277   4.444  20.513
 6328SOL    HW130863   4.276   4.529  20.558
 6328SOL    HW230864   4.365   4.410  20.527
 6329SOL     OW30865   1.553   0.711  13.919
 6329SOL    HW130866   1.538   0.790  13.971
 6329SOL    HW230867   1.520   0.733  13.832
 6330SOL     OW30868   3.913   1.097   3.974
 6330SOL    HW130869   4.007   1.088   3.987
 6330SOL    HW230870   3.896   1.191   3.982
 6331SOL     OW30871   1.120   3.021   0.174
 6331SOL    HW130872   1.164   3.105   0.189
 6331SOL    HW230873   1.191   2.957   0.168
 6332SOL     OW30874   4.782   0.020  15.563
 6332SOL    HW130875   4.769   4.786  15.656
 6332SOL    HW230876   4.695   0.009  15.524
 6333SOL     OW30877   3.693   2.520   7.341
 6333SOL    HW130878   3.784   2.493   7.329
 6333SOL    HW230879   3.688   2.606   7.297
 6334SOL     OW30880   1.067   2.824  11.784
 6334SOL    HW130881   1.055   2.730  11.770
 6334SOL    HW230882   1.154   2.832  11.822
 6335SOL     OW30883   1.671   0.051  20.073
 6335SOL    HW130884   1.756   0.019  20.043
 6335SOL    HW230885   1.690   0.132  20.120
 6336SOL     OW30886   2.871   2.908  13.999
 6336SOL    HW130887   2.936   2.970  14.031
 6336SOL    HW230888   2.855   2.934  13.908
 6337SOL     OW30889   3.237   0.380  17.243
 6337SOL    HW130890   3.153   0.339  17.262
 6337SOL    HW230891   3.256   0.435  17.319
 6338SOL     OW30892   2.342   4.451  20.733
 6338SOL    HW130893   2.429   4.437  20.696
 6338SOL    HW230894   2.288   4.479  20.659
 6339SOL     OW30895   0.900   1.770  16.777
 6339SOL    HW130896   0.974   1.713  16.756
 6339SOL    HW230897   0.892   1.764  16.872
 6340SOL     OW30898   3.828   3.320   0.813
 6340SOL    HW130899   3.912   3.315   0.859
 6340SOL    HW230900   3.763   3.299   0.880
 6341SOL     OW30901   1.489   2.723  17.169
 6341SOL    HW130902   1.487   2.815  17.194
 6341SOL    HW230903   1.407   2.709  17.121
 6342SOL     OW30904   3.609   3.915   3.063
 6342SOL    HW130905   3.614   4.004   3.027
 6342SOL    HW230906   3.551   3.923   3.139
 6343SOL     OW30907   2.902   3.588   3.834
 6343SOL    HW130908   2.995   3.565   3.834
 6343SOL    HW230909   2.880   3.600   3.741
 6344SOL     OW30910   0.301   0.239   5.857
 6344SOL    HW130911   0.374   0.202   5.808
 6344SOL    HW230912   0.224   0.193   5.826
 6345SOL     OW30913   2.862   0.168  19.566
 6345SOL    HW130914   2.843   0.123  19.483
 6345SOL    HW230915   2.957   0.174  19.568
 6346SOL     OW30916   1.195   1.701  11.205
 6346SOL    HW130917   1.176   1.714  11.112
 6346SOL    HW230918   1.226   1.611  11.211
 6347SOL     OW30919   3.867   0.720   6.172
 6347SOL    HW130920   3.784   0.699   6.129
 6347SOL    HW230921   3.845   0.788   6.235
 6348SOL     OW30922   3.056   1.134   5.843
 6348SOL    HW130923   3.103   1.094   5.770
 6348SOL    HW230924   2.974   1.083   5.849
 6349SOL     OW30925   2.984   2.945   0.574
 6349SOL    HW130926   2.906   2.898   0.545
 6349SOL    HW230927   3.052   2.878   0.581
 6350SOL     OW30928   1.474   1.734   4.082
 6350SOL    HW130929   1.410   1.751   4.151
 6350SOL    HW230930   1.503   1.644   4.097
 6351SOL     OW30931   1.667   4.704  20.448
 6351SOL    HW130932   1.627   4.764  20.511
 6351SOL    HW230933   1.736   4.756  20.406
 6352SOL     OW30934   0.429   2.147  18.989
 6352SOL    HW130935   0.520   2.174  18.973
 6352SOL    HW230936   0.393   2.216  19.045
 6353SOL     OW30937   3.259   1.200  18.834
 6353SOL    HW130938   3.286   1.162  18.751
 6353SOL    HW230939   3.341   1.213  18.883
 6354SOL     OW30940   2.867   3.244   0.370
 6354SOL    HW130941   2.787   3.227   0.420
 6354SOL    HW230942   2.934   3.194   0.416
 6355SOL     OW30943   3.679   1.804  16.841
 6355SOL    HW130944   3.761   1.772  16.879
 6355SOL    HW230945   3.648   1.869  16.904
 6356SOL     OW30946   0.812   4.623   6.736
 6356SOL    HW130947   0.832   4.545   6.684
 6356SOL    HW230948   0.721   4.643   6.715
 6357SOL     OW30949   2.662   2.765  17.488
 6357SOL    HW130950   2.613   2.685  17.503
 6357SOL    HW230951   2.601   2.835  17.508
 6358SOL     OW30952   3.220   4.483   3.545
 6358SOL    HW130953   3.130   4.468   3.572
 6358SOL    HW230954   3.213   4.539   3.467
 6359SOL     OW30955   4.650   2.518  15.569
 6359SOL    HW130956   4.590   2.554  15.503
 6359SOL    HW230957   4.593   2.489  15.640
 6360SOL     OW30958   0.406   1.316  20.493
 6360SOL    HW130959   0.340   1.253  20.520
 6360SOL    HW230960   0.479   1.263  20.462
 6361SOL     OW30961   2.434   3.665  19.277
 6361SOL    HW130962   2.485   3.745  19.291
 6361SOL    HW230963   2.499   3.596  19.264
 6362SOL     OW30964   3.922   0.460   1.939
 6362SOL    HW130965   3.935   0.396   2.009
 6362SOL    HW230966   3.834   0.495   1.955
 6363SOL     OW30967   3.108   3.596  16.306
 6363SOL    HW130968   3.135   3.650  16.380
 6363SOL    HW230969   3.186   3.592  16.250
 6364SOL     OW30970   4.357   2.742   3.716
 6364SOL    HW130971   4.283   2.725   3.657
 6364SOL    HW230972   4.317   2.778   3.795
 6365SOL     OW30973   3.913   4.451   1.514
 6365SOL    HW130974   3.938   4.463   1.605
 6365SOL    HW230975   3.824   4.487   1.508
 6366SOL     OW30976   3.184   0.707   1.594
 6366SOL    HW130977   3.116   0.651   1.558
 6366SOL    HW230978   3.227   0.744   1.518
 6367SOL     OW30979   2.864   4.621   2.757
 6367SOL    HW130980   2.801   4.675   2.805
 6367SOL    HW230981   2.924   4.588   2.824
 6368SOL     OW30982   0.317   3.820  16.309
 6368SOL    HW130983   0.380   3.763  16.355
 6368SOL    HW230984   0.359   3.837  16.224
 6369SOL     OW30985   2.326   0.069   2.004
 6369SOL    HW130986   2.240   0.031   1.982
 6369SOL    HW230987   2.323   0.156   1.964
 6370SOL     OW30988   3.764   2.385   8.895
 6370SOL    HW130989   3.760   2.296   8.858
 6370SOL    HW230990   3.673   2.408   8.913
 6371SOL     OW30991   1.786   3.937   5.850
 6371SOL    HW130992   1.781   3.936   5.946
 6371SOL    HW230993   1.838   3.860   5.828
 6372SOL     OW30994   0.621   1.165  13.388
 6372SOL    HW130995   0.605   1.072  13.375
 6372SOL    HW230996   0.580   1.208  13.313
 6373SOL     OW30997   4.773   2.259  15.529
 6373SOL    HW130998   4.738   2.199  15.595
 6373SOL    HW230999   4.762   2.346  15.568
 6374SOL     OW31000   2.630   0.393   0.398
 6374SOL    HW131001   2.596   0.478   0.368
 6374SOL    HW231002   2.653   0.347   0.318
 6375SOL     OW31003   4.585   3.375   3.746
 6375SOL    HW131004   4.523   3.333   3.686
 6375SOL    HW231005   4.565   3.337   3.831
 6376SOL     OW31006   4.187   1.884  17.197
 6376SOL    HW131007   4.138   1.965  17.212
 6376SOL    HW231008   4.244   1.875  17.273
 6377SOL     OW31009   2.462   2.290  18.277
 6377SOL    HW131010   2.448   2.225  18.208
 6377SOL    HW231011   2.374   2.309  18.310
 6378SOL     OW31012   4.034   0.072   4.813
 6378SOL    HW131013   4.114   0.069   4.865
 6378SOL    HW231014   4.021   4.768   4.784
 6379SOL     OW31015   1.689   1.197   0.514
 6379SOL    HW131016   1.642   1.151   0.584
 6379SOL    HW231017   1.621   1.218   0.450
 6380SOL     OW31018   3.690   4.405  16.185
 6380SOL    HW131019   3.734   4.366  16.110
 6380SOL    HW231020   3.601   4.368  16.183
 6381SOL     OW31021   3.084   1.321  17.593
 6381SOL    HW131022   3.095   1.416  17.591
 6381SOL    HW231023   2.990   1.308  17.579
 6382SOL     OW31024   0.545   3.014   2.544
 6382SOL    HW131025   0.536   2.955   2.469
 6382SOL    HW231026   0.472   2.991   2.602
 6383SOL     OW31027   1.552   0.361   1.704
 6383SOL    HW131028   1.609   0.305   1.757
 6383SOL    HW231029   1.499   0.300   1.653
 6384SOL     OW31030   3.756   0.610   4.386
 6384SOL    HW131031   3.730   0.581   4.299
 6384SOL    HW231032   3.844   0.646   4.375
 6385SOL     OW31033   0.220   0.668  18.146
 6385SOL    HW131034   0.159   0.737  18.122
 6385SOL    HW231035   0.164   0.597  18.179
 6386SOL     OW31036   4.084   4.714  16.230
 6386SOL    HW131037   4.031   4.692  16.154
 6386SOL    HW231038   4.077   0.022  16.237
 6387SOL     OW31039   0.429   0.780   1.823
 6387SOL    HW131040   0.397   0.845   1.760
 6387SOL    HW231041   0.467   0.711   1.769
 6388SOL     OW31042   2.580   3.606  20.281
 6388SOL    HW131043   2.512   3.610  20.348
 6388SOL    HW231044   2.535   3.573  20.203
 6389SOL     OW31045   0.408   0.040   4.563
 6389SOL    HW131046   0.376   0.128   4.580
 6389SOL    HW231047   0.329   4.776   4.542
 6390SOL     OW31048   0.455   3.579   2.259
 6390SOL    HW131049   0.511   3.585   2.182
 6390SOL    HW231050   0.371   3.548   2.225
 6391SOL     OW31051   2.101   2.427  20.784
 6391SOL    HW131052   2.154   2.462  20.855
 6391SOL    HW231053   2.021   2.395  20.827
 6392SOL     OW31054   2.647   3.111  20.941
 6392SOL    HW131055   2.572   3.129  20.884
 6392SOL    HW231056   2.685   3.030  20.905
 6393SOL     OW31057   3.228   4.738   1.642
 6393SOL    HW131058   3.193   4.779   1.721
 6393SOL    HW231059   3.185   4.653   1.638
 6394SOL     OW31060   4.734   4.516   7.623
 6394SOL    HW131061   4.650   4.481   7.594
 6394SOL    HW231062   4.732   4.506   7.719
 6395SOL     OW31063   0.748   2.571  18.565
 6395SOL    HW131064   0.748   2.663  18.540
 6395SOL    HW231065   0.807   2.529  18.503
 6396SOL     OW31066   1.552   0.222   4.590
 6396SOL    HW131067   1.574   0.139   4.632
 6396SOL    HW231068   1.564   0.288   4.658
 6397SOL     OW31069   4.550   3.318  19.326
 6397SOL    HW131070   4.561   3.330  19.421
 6397SOL    HW231071   4.541   3.224  19.315
 6398SOL     OW31072   3.883   3.056   4.752
 6398SOL    HW131073   3.820   3.003   4.800
 6398SOL    HW231074   3.836   3.083   4.672
 6399SOL     OW31075   3.848   3.159  17.158
 6399SOL    HW131076   3.830   3.166  17.252
 6399SOL    HW231077   3.940   3.135  17.153
 6400SOL     OW31078   4.512   2.798   4.017
 6400SOL    HW131079   4.463   2.875   4.045
 6400SOL    HW231080   4.447   2.728   4.011
 6401SOL     OW31081   4.373   3.096  18.072
 6401SOL    HW131082   4.288   3.078  18.032
 6401SOL    HW231083   4.381   3.191  18.068
 6402SOL     OW31084   2.765   0.590  17.602
 6402SOL    HW131085   2.760   0.552  17.514
 6402SOL    HW231086   2.832   0.659  17.595
 6403SOL     OW31087   2.025   3.682   4.081
 6403SOL    HW131088   2.111   3.643   4.095
 6403SOL    HW231089   1.988   3.689   4.169
 6404SOL     OW31090   0.454   3.929   1.316
 6404SOL    HW131091   0.514   3.864   1.352
 6404SOL    HW231092   0.497   3.962   1.238
 6405SOL     OW31093   2.070   0.984   0.549
 6405SOL    HW131094   2.112   0.899   0.538
 6405SOL    HW231095   2.120   1.043   0.492
 6406SOL     OW31096   1.836   1.036   3.865
 6406SOL    HW131097   1.762   1.044   3.806
 6406SOL    HW231098   1.798   1.013   3.950
 6407SOL     OW31099   4.684   0.038  19.337
 6407SOL    HW131100   4.672   0.126  19.302
 6407SOL    HW231101   4.704   0.051  19.430
 6408SOL     OW31102   1.251   1.058   0.905
 6408SOL    HW131103   1.201   1.106   0.971
 6408SOL    HW231104   1.274   1.124   0.839
 6409SOL     OW31105   2.475   0.962   5.819
 6409SOL    HW131106   2.416   0.935   5.889
 6409SOL    HW231107   2.489   1.055   5.833
 6410SOL     OW31108   4.513   2.456  17.761
 6410SOL    HW131109   4.557   2.537  17.786
 6410SOL    HW231110   4.575   2.387  17.784
 6411SOL     OW31111   0.210   4.288   7.331
 6411SOL    HW131112   0.190   4.380   7.312
 6411SOL    HW231113   0.250   4.255   7.250
 6412SOL     OW31114   3.256   1.133   6.971
 6412SOL    HW131115   3.256   1.207   6.910
 6412SOL    HW231116   3.314   1.160   7.042
 6413SOL     OW31117   1.263   3.387   1.008
 6413SOL    HW131118   1.303   3.462   0.964
 6413SOL    HW231119   1.195   3.358   0.948
 6414SOL     OW31120   1.232   4.405   4.973
 6414SOL    HW131121   1.263   4.473   5.033
 6414SOL    HW231122   1.300   4.399   4.906
 6415SOL     OW31123   0.232   3.418   2.794
 6415SOL    HW131124   0.294   3.398   2.723
 6415SOL    HW231125   0.281   3.474   2.853
 6416SOL     OW31126   1.812   3.418  17.481
 6416SOL    HW131127   1.882   3.482  17.492
 6416SOL    HW231128   1.743   3.447  17.540
 6417SOL     OW31129   3.181   2.330  12.312
 6417SOL    HW131130   3.158   2.265  12.246
 6417SOL    HW231131   3.268   2.304  12.343
 6418SOL     OW31132   0.828   0.173  19.666
 6418SOL    HW131133   0.735   0.151  19.657
 6418SOL    HW231134   0.851   0.147  19.755
 6419SOL     OW31135   3.320   2.384  18.052
 6419SOL    HW131136   3.233   2.424  18.042
 6419SOL    HW231137   3.301   2.296  18.085
 6420SOL     OW31138   3.537   4.555   1.602
 6420SOL    HW131139   3.573   4.536   1.516
 6420SOL    HW231140   3.536   4.650   1.608
 6421SOL     OW31141   4.050   1.611   2.970
 6421SOL    HW131142   3.998   1.662   3.032
 6421SOL    HW231143   3.989   1.586   2.901
 6422SOL     OW31144   1.319   1.147  17.993
 6422SOL    HW131145   1.259   1.119  18.061
 6422SOL    HW231146   1.327   1.072  17.934
 6423SOL     OW31147   3.919   3.827  21.077
 6423SOL    HW131148   4.014   3.830  21.088
 6423SOL    HW231149   3.903   3.859  20.989
 6424SOL     OW31150   1.357   0.263   2.725
 6424SOL    HW131151   1.408   0.183   2.715
 6424SOL    HW231152   1.293   0.242   2.793
 6425SOL     OW31153   1.811   1.071  18.307
 6425SOL    HW131154   1.783   0.983  18.334
 6425SOL    HW231155   1.906   1.070  18.316
 6426SOL     OW31156   3.466   1.322   6.057
 6426SOL    HW131157   3.397   1.349   5.996
 6426SOL    HW231158   3.546   1.324   6.005
 6427SOL     OW31159   0.458   4.666   3.302
 6427SOL    HW131160   0.467   4.574   3.276
 6427SOL    HW231161   0.546   4.691   3.330
 6428SOL     OW31162   0.297   3.936  18.710
 6428SOL    HW131163   0.313   3.843  18.724
 6428SOL    HW231164   0.217   3.955  18.759
 6429SOL     OW31165   1.990   0.353   0.071
 6429SOL    HW131166   2.043   0.278   0.099
 6429SOL    HW231167   1.908   0.314   0.041
 6430SOL     OW31168   1.880   3.502  18.118
 6430SOL    HW131169   1.811   3.513  18.053
 6430SOL    HW231170   1.925   3.421  18.092
 6431SOL     OW31171   1.177   0.562  15.088
 6431SOL    HW131172   1.264   0.559  15.129
 6431SOL    HW231173   1.195   0.551  14.995
 6432SOL     OW31174   2.455   1.688  20.420
 6432SOL    HW131175   2.389   1.685  20.350
 6432SOL    HW231176   2.522   1.748  20.387
 6433SOL     OW31177   0.521   1.588  20.491
 6433SOL    HW131178   0.496   1.496  20.504
 6433SOL    HW231179   0.617   1.587  20.492
 6434SOL     OW31180   0.543   1.925  15.138
 6434SOL    HW131181   0.464   1.896  15.093
 6434SOL    HW231182   0.591   1.975  15.072
 6435SOL     OW31183   3.831   4.197   2.745
 6435SOL    HW131184   3.913   4.233   2.779
 6435SOL    HW231185   3.858   4.120   2.694
 6436SOL     OW31186   4.361   2.675  20.970
 6436SOL    HW131187   4.439   2.725  20.995
 6436SOL    HW231188   4.394   2.588  20.948
 6437SOL     OW31189   3.214   3.382  15.339
 6437SOL    HW131190   3.253   3.363  15.425
 6437SOL    HW231191   3.134   3.330  15.337
 6438SOL     OW31192   2.728   0.531   7.701
 6438SOL    HW131193   2.751   0.544   7.794
 6438SOL    HW231194   2.761   0.444   7.681
 6439SOL     OW31195   4.670   0.207  16.137
 6439SOL    HW131196   4.752   0.247  16.107
 6439SOL    HW231197   4.634   0.270  16.200
 6440SOL     OW31198   0.399   0.661   6.012
 6440SOL    HW131199   0.436   0.583   6.053
 6440SOL    HW231200   0.327   0.687   6.070
 6441SOL     OW31201   3.592   2.912   2.126
 6441SOL    HW131202   3.668   2.928   2.181
 6441SOL    HW231203   3.554   2.831   2.161
 6442SOL     OW31204   1.040   0.500  17.025
 6442SOL    HW131205   1.101   0.569  17.051
 6442SOL    HW231206   0.971   0.546  16.977
 6443SOL     OW31207   3.355   3.063   3.967
 6443SOL    HW131208   3.441   3.022   3.958
 6443SOL    HW231209   3.366   3.128   4.036
 6444SOL     OW31210   1.979   0.434  17.709
 6444SOL    HW131211   1.900   0.486  17.695
 6444SOL    HW231212   2.045   0.497  17.737
 6445SOL     OW31213   2.591   3.951   5.985
 6445SOL    HW131214   2.678   3.934   6.020
 6445SOL    HW231215   2.580   4.046   5.991
 6446SOL     OW31216   1.385   1.295   2.042
 6446SOL    HW131217   1.417   1.206   2.028
 6446SOL    HW231218   1.463   1.350   2.035
 6447SOL     OW31219   0.052   1.541   0.830
 6447SOL    HW131220   0.065   1.621   0.880
 6447SOL    HW231221   0.139   1.502   0.823
 6448SOL     OW31222   4.320   1.489   8.545
 6448SOL    HW131223   4.300   1.517   8.455
 6448SOL    HW231224   4.250   1.527   8.598
 6449SOL     OW31225   0.523   0.435  11.837
 6449SOL    HW131226   0.519   0.351  11.790
 6449SOL    HW231227   0.527   0.410  11.929
 6450SOL     OW31228   4.398   3.684  16.338
 6450SOL    HW131229   4.452   3.650  16.267
 6450SOL    HW231230   4.431   3.640  16.416
 6451SOL     OW31231   1.721   0.910   4.356
 6451SOL    HW131232   1.757   0.851   4.423
 6451SOL    HW231233   1.776   0.988   4.360
 6452SOL     OW31234   1.040   2.231  20.142
 6452SOL    HW131235   0.954   2.260  20.173
 6452SOL    HW231236   1.045   2.139  20.168
 6453SOL     OW31237   2.213   4.557  18.575
 6453SOL    HW131238   2.221   4.526  18.665
 6453SOL    HW231239   2.151   4.495  18.534
 6454SOL     OW31240   3.514   0.341  16.845
 6454SOL    HW131241   3.593   0.380  16.881
 6454SOL    HW231242   3.451   0.344  16.916
 6455SOL     OW31243   2.994   2.111  13.431
 6455SOL    HW131244   3.010   2.017  13.425
 6455SOL    HW231245   2.931   2.129  13.361
 6456SOL     OW31246   2.945   0.015   8.268
 6456SOL    HW131247   2.865   0.061   8.294
 6456SOL    HW231248   3.015   0.078   8.285
 6457SOL     OW31249   2.074   3.638   8.582
 6457SOL    HW131250   2.168   3.654   8.578
 6457SOL    HW231251   2.062   3.588   8.663
 6458SOL     OW31252   4.154   3.662  19.017
 6458SOL    HW131253   4.229   3.718  19.039
 6458SOL    HW231254   4.099   3.716  18.960
 6459SOL     OW31255   2.821   2.505   1.396
 6459SOL    HW131256   2.774   2.444   1.452
 6459SOL    HW231257   2.766   2.515   1.319
 6460SOL     OW31258   2.714   4.616   6.677
 6460SOL    HW131259   2.744   4.707   6.680
 6460SOL    HW231260   2.709   4.589   6.768
 6461SOL     OW31261   1.539   2.090  18.490
 6461SOL    HW131262   1.535   2.097  18.585
 6461SOL    HW231263   1.490   2.010  18.470
 6462SOL     OW31264   3.011   2.202  16.343
 6462SOL    HW131265   3.014   2.224  16.436
 6462SOL    HW231266   2.994   2.108  16.341
 6463SOL     OW31267   0.719   0.244  17.162
 6463SOL    HW131268   0.722   0.148  17.164
 6463SOL    HW231269   0.809   0.271  17.179
 6464SOL     OW31270   3.408   4.336   6.072
 6464SOL    HW131271   3.320   4.302   6.055
 6464SOL    HW231272   3.424   4.315   6.164
 6465SOL     OW31273   3.443   1.853   4.983
 6465SOL    HW131274   3.510   1.890   4.926
 6465SOL    HW231275   3.483   1.855   5.070
 6466SOL     OW31276   4.586   0.261  13.815
 6466SOL    HW131277   4.552   0.208  13.887
 6466SOL    HW231278   4.595   0.200  13.742
 6467SOL     OW31279   4.072   3.839   1.206
 6467SOL    HW131280   4.149   3.827   1.151
 6467SOL    HW231281   4.100   3.900   1.274
 6468SOL     OW31282   3.604   1.470  20.066
 6468SOL    HW131283   3.570   1.492  19.979
 6468SOL    HW231284   3.543   1.403  20.099
 6469SOL     OW31285   0.670   1.227  18.084
 6469SOL    HW131286   0.575   1.239  18.078
 6469SOL    HW231287   0.704   1.266  18.004
 6470SOL     OW31288   1.628   4.718   5.912
 6470SOL    HW131289   1.626   4.622   5.910
 6470SOL    HW231290   1.538   4.743   5.934
 6471SOL     OW31291   0.463   0.337   1.243
 6471SOL    HW131292   0.391   0.287   1.206
 6471SOL    HW231293   0.427   0.425   1.256
 6472SOL     OW31294   3.368   3.878   0.629
 6472SOL    HW131295   3.451   3.869   0.582
 6472SOL    HW231296   3.388   3.849   0.718
 6473SOL     OW31297   4.712   2.877   3.495
 6473SOL    HW131298   4.693   2.962   3.456
 6473SOL    HW231299   0.018   2.863   3.479
 6474SOL     OW31300   2.209   3.602  15.646
 6474SOL    HW131301   2.243   3.625  15.560
 6474SOL    HW231302   2.247   3.516  15.665
 6475SOL     OW31303   1.142   3.471  17.211
 6475SOL    HW131304   1.065   3.485  17.265
 6475SOL    HW231305   1.121   3.511  17.127
 6476SOL     OW31306   1.864   3.320  16.923
 6476SOL    HW131307   1.809   3.244  16.942
 6476SOL    HW231308   1.802   3.389  16.899
 6477SOL     OW31309   3.163   4.304  17.639
 6477SOL    HW131310   3.103   4.241  17.600
 6477SOL    HW231311   3.127   4.320  17.727
 6478SOL     OW31312   2.176   4.146   4.410
 6478SOL    HW131313   2.140   4.233   4.393
 6478SOL    HW231314   2.132   4.090   4.346
 6479SOL     OW31315   2.501   0.011  21.188
 6479SOL    HW131316   2.459   4.712  21.194
 6479SOL    HW231317   2.579   0.003  21.243
 6480SOL     OW31318   0.950   2.621  15.127
 6480SOL    HW131319   0.913   2.534  15.111
 6480SOL    HW231320   0.879   2.682  15.107
 6481SOL     OW31321   4.451   2.006  17.062
 6481SOL    HW131322   4.468   2.100  17.069
 6481SOL    HW231323   4.481   1.969  17.145
 6482SOL     OW31324   3.948   1.332   3.515
 6482SOL    HW131325   4.040   1.340   3.541
 6482SOL    HW231326   3.902   1.313   3.597
 6483SOL     OW31327   4.546   2.237   4.787
 6483SOL    HW131328   4.499   2.315   4.758
 6483SOL    HW231329   4.638   2.263   4.783
 6484SOL     OW31330   1.014   4.395  18.198
 6484SOL    HW131331   1.042   4.464  18.137
 6484SOL    HW231332   1.007   4.439  18.283
 6485SOL     OW31333   1.536   0.179  17.195
 6485SOL    HW131334   1.545   0.214  17.284
 6485SOL    HW231335   1.599   0.230  17.144
 6486SOL     OW31336   3.585   0.754   0.355
 6486SOL    HW131337   3.534   0.685   0.313
 6486SOL    HW231338   3.643   0.708   0.415
 6487SOL     OW31339   2.071   0.643  16.725
 6487SOL    HW131340   2.161   0.659  16.694
 6487SOL    HW231341   2.016   0.673  16.653
 6488SOL     OW31342   2.678   1.329   0.583
 6488SOL    HW131343   2.678   1.233   0.591
 6488SOL    HW231344   2.771   1.352   0.579
 6489SOL     OW31345   2.897   0.600   3.533
 6489SOL    HW131346   2.903   0.581   3.439
 6489SOL    HW231347   2.880   0.515   3.574
 6490SOL     OW31348   4.743   3.432   6.617
 6490SOL    HW131349   4.722   3.511   6.568
 6490SOL    HW231350   4.663   3.379   6.612
 6491SOL     OW31351   1.058   1.708  18.628
 6491SOL    HW131352   1.034   1.793  18.665
 6491SOL    HW231353   1.135   1.726  18.574
 6492SOL     OW31354   2.941   4.280   4.288
 6492SOL    HW131355   2.853   4.245   4.307
 6492SOL    HW231356   2.989   4.205   4.252
 6493SOL     OW31357   2.984   4.074  17.415
 6493SOL    HW131358   3.049   4.097  17.349
 6493SOL    HW231359   3.013   3.990  17.449
 6494SOL     OW31360   1.516   4.629  14.132
 6494SOL    HW131361   1.434   4.595  14.166
 6494SOL    HW231362   1.492   4.706  14.080
 6495SOL     OW31363   0.263   1.493  17.861
 6495SOL    HW131364   0.246   1.574  17.814
 6495SOL    HW231365   0.176   1.458  17.882
 6496SOL     OW31366   3.805   2.049  20.881
 6496SOL    HW131367   3.710   2.044  20.893
 6496SOL    HW231368   3.832   2.125  20.933
 6497SOL     OW31369   3.022   4.520   1.706
 6497SOL    HW131370   2.993   4.608   1.733
 6497SOL    HW231371   3.003   4.465   1.782
 6498SOL     OW31372   2.660   1.962   1.795
 6498SOL    HW131373   2.604   1.889   1.821
 6498SOL    HW231374   2.748   1.936   1.822
 6499SOL     OW31375   2.595   3.690  15.385
 6499SOL    HW131376   2.653   3.674  15.310
 6499SOL    HW231377   2.648   3.741  15.445
 6500SOL     OW31378   3.657   3.011  13.579
 6500SOL    HW131379   3.616   3.052  13.655
 6500SOL    HW231380   3.599   2.938  13.556
 6501SOL     OW31381   2.071   2.826  18.310
 6501SOL    HW131382   1.999   2.889  18.300
 6501SOL    HW231383   2.099   2.807  18.220
 6502SOL     OW31384   4.061   1.911   5.903
 6502SOL    HW131385   3.999   1.946   5.838
 6502SOL    HW231386   4.101   1.989   5.942
 6503SOL     OW31387   4.094   4.638  13.305
 6503SOL    HW131388   4.163   4.621  13.370
 6503SOL    HW231389   4.019   4.587  13.335
 6504SOL     OW31390   4.639   1.267  19.596
 6504SOL    HW131391   4.657   1.217  19.517
 6504SOL    HW231392   4.587   1.342  19.567
 6505SOL     OW31393   3.596   0.157  17.200
 6505SOL    HW131394   3.554   0.102  17.266
 6505SOL    HW231395   3.523   0.202  17.157
 6506SOL     OW31396   1.531   0.547   0.473
 6506SOL    HW131397   1.467   0.520   0.540
 6506SOL    HW231398   1.609   0.495   0.493
 6507SOL     OW31399   2.728   4.468  16.687
 6507SOL    HW131400   2.666   4.506  16.624
 6507SOL    HW231401   2.696   4.379  16.702
 6508SOL     OW31402   1.157   1.179   3.912
 6508SOL    HW131403   1.103   1.101   3.902
 6508SOL    HW231404   1.241   1.145   3.945
 6509SOL     OW31405   4.624   1.091  14.129
 6509SOL    HW131406   4.645   1.013  14.180
 6509SOL    HW231407   4.608   1.159  14.195
 6510SOL     OW31408   1.692   0.098   6.386
 6510SOL    HW131409   1.737   0.121   6.305
 6510SOL    HW231410   1.737   0.020   6.417
 6511SOL     OW31411   4.356   2.056  15.681
 6511SOL    HW131412   4.393   1.980  15.726
 6511SOL    HW231413   4.323   2.112  15.751
 6512SOL     OW31414   1.161   4.697  17.781
 6512SOL    HW131415   1.139   4.786  17.750
 6512SOL    HW231416   1.256   4.692  17.773
 6513SOL     OW31417   2.112   3.481  14.880
 6513SOL    HW131418   2.060   3.540  14.935
 6513SOL    HW231419   2.202   3.510  14.893
 6514SOL     OW31420   3.074   4.352  20.284
 6514SOL    HW131421   3.051   4.349  20.377
 6514SOL    HW231422   3.022   4.424  20.249
 6515SOL     OW31423   1.937   3.043   6.023
 6515SOL    HW131424   1.894   3.124   5.999
 6515SOL    HW231425   2.028   3.055   5.998
 6516SOL     OW31426   0.091   0.971  20.201
 6516SOL    HW131427   0.011   0.922  20.180
 6516SOL    HW231428   0.128   0.924  20.276
 6517SOL     OW31429   2.518   2.099  18.598
 6517SOL    HW131430   2.481   2.040  18.531
 6517SOL    HW231431   2.461   2.087  18.674
 6518SOL     OW31432   3.267   4.571  17.625
 6518SOL    HW131433   3.242   4.478  17.622
 6518SOL    HW231434   3.251   4.603  17.537
 6519SOL     OW31435   0.926   2.071   0.798
 6519SOL    HW131436   0.996   2.014   0.831
 6519SOL    HW231437   0.942   2.076   0.703
 6520SOL     OW31438   3.724   0.478   0.741
 6520SOL    HW131439   3.679   0.394   0.733
 6520SOL    HW231440   3.797   0.461   0.801
 6521SOL     OW31441   3.957   0.970   6.586
 6521SOL    HW131442   3.911   0.922   6.518
 6521SOL    HW231443   3.971   1.057   6.550
 6522SOL     OW31444   4.288   0.860   3.305
 6522SOL    HW131445   4.375   0.825   3.283
 6522SOL    HW231446   4.269   0.921   3.234
 6523SOL     OW31447   2.020   3.797  13.445
 6523SOL    HW131448   1.952   3.736  13.476
 6523SOL    HW231449   2.087   3.740  13.407
 6524SOL     OW31450   1.770   3.396  17.221
 6524SOL    HW131451   1.734   3.480  17.192
 6524SOL    HW231452   1.759   3.397  17.316
 6525SOL     OW31453   3.876   2.472   0.316
 6525SOL    HW131454   3.901   2.561   0.295
 6525SOL    HW231455   3.902   2.460   0.407
 6526SOL     OW31456   1.541   1.115  20.430
 6526SOL    HW131457   1.473   1.182  20.420
 6526SOL    HW231458   1.614   1.161  20.470
 6527SOL     OW31459   3.450   3.880  18.196
 6527SOL    HW131460   3.500   3.901  18.117
 6527SOL    HW231461   3.374   3.832  18.165
 6528SOL     OW31462   2.073   1.107  18.444
 6528SOL    HW131463   2.085   1.168  18.517
 6528SOL    HW231464   2.076   1.020  18.484
 6529SOL     OW31465   1.382   3.751  13.074
 6529SOL    HW131466   1.455   3.742  13.135
 6529SOL    HW231467   1.322   3.680  13.099
 6530SOL     OW31468   0.527   0.856   3.903
 6530SOL    HW131469   0.440   0.846   3.939
 6530SOL    HW231470   0.586   0.853   3.979
 6531SOL     OW31471   2.933   1.611   3.147
 6531SOL    HW131472   2.967   1.551   3.081
 6531SOL    HW231473   2.994   1.604   3.220
 6532SOL     OW31474   1.832   0.834  20.447
 6532SOL    HW131475   1.900   0.846  20.514
 6532SOL    HW231476   1.878   0.794  20.374
 6533SOL     OW31477   3.610   2.675  20.766
 6533SOL    HW131478   3.697   2.705  20.793
 6533SOL    HW231479   3.550   2.721  20.824
 6534SOL     OW31480   4.703   0.305  19.662
 6534SOL    HW131481   4.625   0.328  19.610
 6534SOL    HW231482   4.679   0.325  19.752
 6535SOL     OW31483   4.501   2.070   0.608
 6535SOL    HW131484   4.441   1.996   0.602
 6535SOL    HW231485   4.527   2.087   0.517
 6536SOL     OW31486   2.044   2.744  16.090
 6536SOL    HW131487   2.058   2.837  16.076
 6536SOL    HW231488   2.040   2.734  16.186
 6537SOL     OW31489   3.604   3.524  16.844
 6537SOL    HW131490   3.593   3.454  16.780
 6537SOL    HW231491   3.664   3.488  16.909
 6538SOL     OW31492   1.618   2.692   1.250
 6538SOL    HW131493   1.705   2.708   1.289
 6538SOL    HW231494   1.594   2.776   1.211
 6539SOL     OW31495   2.375   4.034   5.518
 6539SOL    HW131496   2.314   4.084   5.573
 6539SOL    HW231497   2.325   4.010   5.441
 6540SOL     OW31498   0.342   0.832  18.596
 6540SOL    HW131499   0.344   0.813  18.502
 6540SOL    HW231500   0.428   0.870  18.614
 6541SOL     OW31501   3.765   2.999   0.649
 6541SOL    HW131502   3.794   3.063   0.584
 6541SOL    HW231503   3.830   2.929   0.645
 6542SOL     OW31504   4.619   4.520   2.152
 6542SOL    HW131505   4.545   4.560   2.196
 6542SOL    HW231506   4.583   4.487   2.070
 6543SOL     OW31507   3.157   1.127   4.046
 6543SOL    HW131508   3.098   1.174   3.987
 6543SOL    HW231509   3.127   1.036   4.043
 6544SOL     OW31510   3.478   4.243  16.172
 6544SOL    HW131511   3.456   4.220  16.081
 6544SOL    HW231512   3.514   4.162  16.208
 6545SOL     OW31513   0.956   2.142  13.305
 6545SOL    HW131514   1.002   2.167  13.385
 6545SOL    HW231515   0.941   2.048  13.313
 6546SOL     OW31516   0.140   0.654   6.703
 6546SOL    HW131517   0.129   0.597   6.627
 6546SOL    HW231518   0.064   0.636   6.758
 6547SOL     OW31519   0.689   4.112  18.741
 6547SOL    HW131520   0.742   4.188  18.715
 6547SOL    HW231521   0.753   4.046  18.768
 6548SOL     OW31522   3.158   3.829  14.873
 6548SOL    HW131523   3.238   3.815  14.821
 6548SOL    HW231524   3.133   3.919  14.853
 6549SOL     OW31525   4.482   0.988   3.059
 6549SOL    HW131526   4.409   1.040   3.025
 6549SOL    HW231527   4.507   1.032   3.140
 6550SOL     OW31528   1.689   3.145   5.764
 6550SOL    HW131529   1.722   3.191   5.842
 6550SOL    HW231530   1.637   3.073   5.799
 6551SOL     OW31531   1.813   4.660  16.301
 6551SOL    HW131532   1.734   4.684  16.253
 6551SOL    HW231533   1.781   4.630  16.386
 6552SOL     OW31534   3.018   3.157  16.208
 6552SOL    HW131535   3.093   3.170  16.151
 6552SOL    HW231536   2.987   3.246  16.227
 6553SOL     OW31537   4.358   0.109  14.293
 6553SOL    HW131538   4.336   0.020  14.266
 6553SOL    HW231539   4.286   0.162  14.261
 6554SOL     OW31540   4.383   2.906   4.353
 6554SOL    HW131541   4.295   2.870   4.349
 6554SOL    HW231542   4.437   2.844   4.303
 6555SOL     OW31543   0.921   0.684  15.708
 6555SOL    HW131544   0.859   0.628  15.661
 6555SOL    HW231545   0.874   0.767  15.719
 6556SOL     OW31546   3.604   0.315   6.854
 6556SOL    HW131547   3.526   0.361   6.826
 6556SOL    HW231548   3.619   0.345   6.944
 6557SOL     OW31549   3.524   2.116   0.080
 6557SOL    HW131550   3.484   2.200   0.057
 6557SOL    HW231551   3.581   2.136   0.154
 6558SOL     OW31552   3.463   2.244   5.039
 6558SOL    HW131553   3.556   2.263   5.055
 6558SOL    HW231554   3.447   2.278   4.951
 6559SOL     OW31555   4.135   3.278  17.259
 6559SOL    HW131556   4.064   3.301  17.318
 6559SOL    HW231557   4.116   3.325  17.178
 6560SOL     OW31558   4.699   4.516  21.155
 6560SOL    HW131559   4.783   4.473  21.143
 6560SOL    HW231560   4.709   4.566  21.236
 6561SOL     OW31561   1.802   1.590   7.008
 6561SOL    HW131562   1.787   1.642   7.087
 6561SOL    HW231563   1.762   1.505   7.027
 6562SOL     OW31564   4.109   3.363   0.842
 6562SOL    HW131565   4.162   3.399   0.913
 6562SOL    HW231566   4.173   3.319   0.785
 6563SOL     OW31567   3.161   0.941   6.822
 6563SOL    HW131568   3.172   1.018   6.879
 6563SOL    HW231569   3.086   0.894   6.860
 6564SOL     OW31570   0.082   2.067  14.247
 6564SOL    HW131571   0.045   1.999  14.191
 6564SOL    HW231572   0.089   2.025  14.333
 6565SOL     OW31573   2.882   3.707   0.882
 6565SOL    HW131574   2.937   3.667   0.816
 6565SOL    HW231575   2.906   3.800   0.880
 6566SOL     OW31576   2.599   2.967   6.304
 6566SOL    HW131577   2.641   2.981   6.389
 6566SOL    HW231578   2.560   3.051   6.282
 6567SOL     OW31579   4.749   0.769   0.556
 6567SOL    HW131580   0.017   0.831   0.603
 6567SOL    HW231581   0.004   0.760   0.470
 6568SOL     OW31582   2.180   2.670   3.234
 6568SOL    HW131583   2.115   2.680   3.304
 6568SOL    HW231584   2.264   2.686   3.277
 6569SOL     OW31585   1.400   0.011   8.622
 6569SOL    HW131586   1.444   4.713   8.628
 6569SOL    HW231587   1.435   0.061   8.696
 6570SOL     OW31588   2.467   2.736   3.258
 6570SOL    HW131589   2.538   2.682   3.223
 6570SOL    HW231590   2.496   2.826   3.243
 6571SOL     OW31591   1.466   2.458   1.136
 6571SOL    HW131592   1.448   2.523   1.204
 6571SOL    HW231593   1.449   2.504   1.054
 6572SOL     OW31594   3.047   1.447   5.271
 6572SOL    HW131595   2.999   1.430   5.190
 6572SOL    HW231596   3.138   1.460   5.244
 6573SOL     OW31597   1.402   0.966   3.695
 6573SOL    HW131598   1.337   1.019   3.648
 6573SOL    HW231599   1.409   0.886   3.643
 6574SOL     OW31600   1.437   2.701   1.721
 6574SOL    HW131601   1.435   2.605   1.728
 6574SOL    HW231602   1.438   2.718   1.627
 6575SOL     OW31603   2.867   3.784  17.986
 6575SOL    HW131604   2.874   3.726  18.062
 6575SOL    HW231605   2.914   3.738  17.916
 6576SOL     OW31606   3.582   2.827  17.279
 6576SOL    HW131607   3.650   2.811  17.344
 6576SOL    HW231608   3.514   2.762  17.299
 6577SOL     OW31609   3.702   0.586  20.277
 6577SOL    HW131610   3.777   0.590  20.337
 6577SOL    HW231611   3.630   0.623  20.327
 6578SOL     OW31612   1.425   0.142   6.521
 6578SOL    HW131613   1.518   0.120   6.531
 6578SOL    HW231614   1.396   0.163   6.610
 6579SOL     OW31615   2.195   3.933   5.027
 6579SOL    HW131616   2.184   4.019   4.986
 6579SOL    HW231617   2.240   3.881   4.960
 6580SOL     OW31618   3.399   0.610  17.860
 6580SOL    HW131619   3.465   0.643  17.921
 6580SOL    HW231620   3.430   0.637  17.774
 6581SOL     OW31621   2.295   0.167  20.826
 6581SOL    HW131622   2.319   0.241  20.883
 6581SOL    HW231623   2.371   0.110  20.827
 6582SOL     OW31624   4.064   1.780   1.770
 6582SOL    HW131625   4.056   1.875   1.772
 6582SOL    HW231626   4.055   1.757   1.678
 6583SOL     OW31627   1.205   1.988   4.667
 6583SOL    HW131628   1.159   1.976   4.750
 6583SOL    HW231629   1.214   1.900   4.632
 6584SOL     OW31630   2.393   4.252   5.175
 6584SOL    HW131631   2.449   4.325   5.148
 6584SOL    HW231632   2.435   4.219   5.255
 6585SOL     OW31633   0.128   3.318   4.408
 6585SOL    HW131634   0.215   3.303   4.445
 6585SOL    HW231635   0.106   3.407   4.435
 6586SOL     OW31636   1.935   2.295   2.578
 6586SOL    HW131637   1.948   2.385   2.608
 6586SOL    HW231638   1.926   2.244   2.658
 6587SOL     OW31639   3.911   0.001   4.086
 6587SOL    HW131640   3.947   4.760   4.002
 6587SOL    HW231641   3.816   4.773   4.077
 6588SOL     OW31642   3.278   1.818  15.359
 6588SOL    HW131643   3.260   1.785  15.271
 6588SOL    HW231644   3.292   1.912  15.347
 6589SOL     OW31645   3.395   4.298  14.422
 6589SOL    HW131646   3.468   4.239  14.398
 6589SOL    HW231647   3.396   4.365  14.354
 6590SOL     OW31648   2.459   2.132   4.623
 6590SOL    HW131649   2.380   2.119   4.570
 6590SOL    HW231650   2.448   2.219   4.661
 6591SOL     OW31651   0.243   4.277  15.132
 6591SOL    HW131652   0.209   4.360  15.099
 6591SOL    HW231653   0.177   4.213  15.108
 6592SOL     OW31654   2.969   4.679  16.667
 6592SOL    HW131655   2.891   4.730  16.645
 6592SOL    HW231656   2.941   4.621  16.738
 6593SOL     OW31657   3.616   2.492  14.261
 6593SOL    HW131658   3.658   2.519  14.179
 6593SOL    HW231659   3.535   2.448  14.233
 6594SOL     OW31660   1.481   1.691   1.877
 6594SOL    HW131661   1.506   1.760   1.938
 6594SOL    HW231662   1.471   1.735   1.793
 6595SOL     OW31663   2.386   0.998  18.531
 6595SOL    HW131664   2.446   1.000  18.456
 6595SOL    HW231665   2.371   0.905  18.547
 6596SOL     OW31666   2.413   4.469   2.553
 6596SOL    HW131667   2.503   4.437   2.558
 6596SOL    HW231668   2.403   4.500   2.463
 6597SOL     OW31669   2.706   2.573   0.328
 6597SOL    HW131670   2.709   2.668   0.330
 6597SOL    HW231671   2.681   2.552   0.238
 6598SOL     OW31672   4.769   1.866   4.974
 6598SOL    HW131673   4.690   1.813   4.960
 6598SOL    HW231674   4.736   1.946   5.014
 6599SOL     OW31675   1.729   2.803   0.185
 6599SOL    HW131676   1.694   2.716   0.166
 6599SOL    HW231677   1.750   2.800   0.279
 6600SOL     OW31678   0.546   0.264   0.654
 6600SOL    HW131679   0.522   0.254   0.562
 6600SOL    HW231680   0.521   0.182   0.696
 6601SOL     OW31681   2.226   0.577  18.793
 6601SOL    HW131682   2.196   0.492  18.826
 6601SOL    HW231683   2.197   0.578  18.702
 6602SOL     OW31684   4.687   1.898   3.650
 6602SOL    HW131685   4.726   1.984   3.631
 6602SOL    HW231686   4.752   1.854   3.704
 6603SOL     OW31687   1.050   0.347  19.979
 6603SOL    HW131688   1.035   0.413  19.912
 6603SOL    HW231689   0.973   0.290  19.974
 6604SOL     OW31690   2.797   0.124   4.671
 6604SOL    HW131691   2.855   0.117   4.747
 6604SOL    HW231692   2.777   0.033   4.648
 6605SOL     OW31693   0.069   1.414  16.168
 6605SOL    HW131694   4.776   1.370  16.139
 6605SOL    HW231695   0.117   1.346  16.215
 6606SOL     OW31696   4.732   2.723  17.122
 6606SOL    HW131697   4.675   2.771  17.182
 6606SOL    HW231698   4.706   2.631  17.133
 6607SOL     OW31699   2.567   1.463  17.830
 6607SOL    HW131700   2.647   1.416  17.854
 6607SOL    HW231701   2.582   1.491  17.740
 6608SOL     OW31702   4.473   3.101   2.469
 6608SOL    HW131703   4.391   3.056   2.448
 6608SOL    HW231704   4.508   3.128   2.384
 6609SOL     OW31705   4.499   1.881   6.350
 6609SOL    HW131706   4.420   1.905   6.398
 6609SOL    HW231707   4.552   1.962   6.349
 6610SOL     OW31708   1.531   4.400   0.691
 6610SOL    HW131709   1.613   4.422   0.734
 6610SOL    HW231710   1.482   4.482   0.689
 6611SOL     OW31711   4.069   2.530  20.680
 6611SOL    HW131712   4.085   2.585  20.757
 6611SOL    HW231713   4.148   2.539  20.627
 6612SOL     OW31714   0.673   4.561  13.140
 6612SOL    HW131715   0.654   4.561  13.046
 6612SOL    HW231716   0.761   4.600  13.146
 6613SOL     OW31717   1.195   0.043  15.445
 6613SOL    HW131718   1.192   4.753  15.387
 6613SOL    HW231719   1.226   0.008  15.528
 6614SOL     OW31720   1.033   0.778  20.939
 6614SOL    HW131721   1.037   0.857  20.994
 6614SOL    HW231722   1.048   0.809  20.850
 6615SOL     OW31723   0.792   1.701  18.059
 6615SOL    HW131724   0.702   1.669  18.064
 6615SOL    HW231725   0.820   1.680  17.970
 6616SOL     OW31726   3.008   0.644   0.792
 6616SOL    HW131727   2.971   0.622   0.877
 6616SOL    HW231728   2.936   0.685   0.744
 6617SOL     OW31729   2.983   1.119   0.594
 6617SOL    HW131730   3.046   1.077   0.536
 6617SOL    HW231731   2.984   1.211   0.567
 6618SOL     OW31732   2.944   4.408  13.889
 6618SOL    HW131733   3.040   4.412  13.891
 6618SOL    HW231734   2.916   4.477  13.948
 6619SOL     OW31735   2.076   2.773  21.091
 6619SOL    HW131736   2.019   2.697  21.080
 6619SOL    HW231737   2.016   2.848  21.096
 6620SOL     OW31738   4.525   2.952  19.730
 6620SOL    HW131739   4.543   2.911  19.814
 6620SOL    HW231740   4.611   2.975  19.696
 6621SOL     OW31741   4.676   0.451   3.049
 6621SOL    HW131742   4.588   0.419   3.068
 6621SOL    HW231743   4.726   0.372   3.027
 6622SOL     OW31744   2.319   3.029   2.469
 6622SOL    HW131745   2.342   2.940   2.446
 6622SOL    HW231746   2.233   3.043   2.428
 6623SOL     OW31747   0.929   1.501   7.895
 6623SOL    HW131748   0.905   1.543   7.813
 6623SOL    HW231749   1.009   1.546   7.923
 6624SOL     OW31750   2.868   2.069  14.076
 6624SOL    HW131751   2.801   2.063  14.143
 6624SOL    HW231752   2.878   2.163  14.059
 6625SOL     OW31753   2.453   4.078   2.095
 6625SOL    HW131754   2.490   3.999   2.135
 6625SOL    HW231755   2.528   4.123   2.056
 6626SOL     OW31756   0.992   3.264   1.688
 6626SOL    HW131757   1.017   3.331   1.751
 6626SOL    HW231758   0.949   3.312   1.617
 6627SOL     OW31759   3.666   0.028   1.019
 6627SOL    HW131760   3.633   0.046   0.931
 6627SOL    HW231761   3.678   0.114   1.058
 6628SOL     OW31762   0.036   2.098   5.158
 6628SOL    HW131763   0.086   2.151   5.097
 6628SOL    HW231764   4.738   2.085   5.115
 6629SOL     OW31765   2.677   0.982  12.627
 6629SOL    HW131766   2.685   0.889  12.646
 6629SOL    HW231767   2.750   1.000  12.567
 6630SOL     OW31768   3.281   2.430   4.056
 6630SOL    HW131769   3.228   2.504   4.087
 6630SOL    HW231770   3.370   2.452   4.082
 6631SOL     OW31771   4.378   3.974   5.837
 6631SOL    HW131772   4.417   3.887   5.850
 6631SOL    HW231773   4.450   4.035   5.852
 6632SOL     OW31774   2.554   2.302  14.242
 6632SOL    HW131775   2.611   2.227  14.258
 6632SOL    HW231776   2.572   2.363  14.314
 6633SOL     OW31777   2.399   2.871   1.711
 6633SOL    HW131778   2.355   2.874   1.626
 6633SOL    HW231779   2.407   2.962   1.738
 6634SOL     OW31780   4.516   1.758   4.564
 6634SOL    HW131781   4.546   1.824   4.627
 6634SOL    HW231782   4.440   1.718   4.607
 6635SOL     OW31783   1.745   2.926  15.376
 6635SOL    HW131784   1.806   2.920  15.450
 6635SOL    HW231785   1.739   3.020  15.358
 6636SOL     OW31786   2.891   2.982  19.106
 6636SOL    HW131787   2.952   2.948  19.040
 6636SOL    HW231788   2.830   3.036  19.056
 6637SOL     OW31789   3.652   0.246  16.234
 6637SOL    HW131790   3.691   0.271  16.318
 6637SOL    HW231791   3.680   0.155  16.221
 6638SOL     OW31792   4.064   3.929  15.719
 6638SOL    HW131793   4.079   3.841  15.754
 6638SOL    HW231794   4.135   3.943  15.657
 6639SOL     OW31795   4.124   1.330  15.452
 6639SOL    HW131796   4.038   1.290  15.460
 6639SOL    HW231797   4.143   1.363  15.540
 6640SOL     OW31798   0.746   3.018  17.643
 6640SOL    HW131799   0.728   3.000  17.735
 6640SOL    HW231800   0.726   3.111  17.632
 6641SOL     OW31801   0.100   2.017   1.135
 6641SOL    HW131802   0.111   2.107   1.166
 6641SOL    HW231803   0.101   1.964   1.215
 6642SOL     OW31804   4.663   3.627   0.373
 6642SOL    HW131805   4.650   3.695   0.307
 6642SOL    HW231806   4.611   3.656   0.448
 6643SOL     OW31807   2.372   1.031   4.340
 6643SOL    HW131808   2.410   1.065   4.421
 6643SOL    HW231809   2.433   1.059   4.271
 6644SOL     OW31810   2.723   4.395  19.211
 6644SOL    HW131811   2.805   4.369  19.170
 6644SOL    HW231812   2.728   4.358  19.299
 6645SOL     OW31813   4.445   3.222   3.586
 6645SOL    HW131814   4.447   3.155   3.654
 6645SOL    HW231815   4.355   3.254   3.588
 6646SOL     OW31816   2.943   3.082   6.567
 6646SOL    HW131817   2.858   3.119   6.589
 6646SOL    HW231818   2.924   2.995   6.533
 6647SOL     OW31819   3.623   3.332   1.752
 6647SOL    HW131820   3.631   3.305   1.843
 6647SOL    HW231821   3.530   3.356   1.742
 6648SOL     OW31822   0.868   1.820   4.912
 6648SOL    HW131823   0.782   1.782   4.892
 6648SOL    HW231824   0.865   1.908   4.875
 6649SOL     OW31825   1.071   2.682   1.511
 6649SOL    HW131826   1.146   2.646   1.462
 6649SOL    HW231827   1.095   2.773   1.527
 6650SOL     OW31828   2.321   2.035  16.340
 6650SOL    HW131829   2.227   2.034  16.356
 6650SOL    HW231830   2.360   2.000  16.420
 6651SOL     OW31831   4.387   0.027  17.226
 6651SOL    HW131832   4.433   0.034  17.309
 6651SOL    HW231833   4.298   4.786  17.250
 6652SOL     OW31834   2.318   2.853   4.859
 6652SOL    HW131835   2.242   2.795   4.854
 6652SOL    HW231836   2.364   2.839   4.776
 6653SOL     OW31837   4.184   2.747  20.374
 6653SOL    HW131838   4.191   2.689  20.298
 6653SOL    HW231839   4.253   2.717  20.433
 6654SOL     OW31840   4.160   2.099   1.991
 6654SOL    HW131841   4.161   2.158   2.067
 6654SOL    HW231842   4.249   2.103   1.956
 6655SOL     OW31843   4.004   2.102   2.551
 6655SOL    HW131844   4.084   2.111   2.499
 6655SOL    HW231845   3.984   2.191   2.580
 6656SOL     OW31846   0.755   4.758   4.947
 6656SOL    HW131847   0.712   0.053   4.919
 6656SOL    HW231848   0.685   4.694   4.951
 6657SOL     OW31849   1.794   0.877   7.895
 6657SOL    HW131850   1.785   0.936   7.821
 6657SOL    HW231851   1.726   0.811   7.881
 6658SOL     OW31852   0.460   2.078   5.136
 6658SOL    HW131853   0.551   2.055   5.120
 6658SOL    HW231854   0.418   1.995   5.158
 6659SOL     OW31855   2.700   2.012  20.997
 6659SOL    HW131856   2.759   1.946  21.033
 6659SOL    HW231857   2.662   2.054  21.074
 6660SOL     OW31858   0.464   1.891  17.970
 6660SOL    HW131859   0.550   1.875  18.008
 6660SOL    HW231860   0.403   1.888  18.044
 6661SOL     OW31861   1.145   3.846  15.564
 6661SOL    HW131862   1.056   3.816  15.544
 6661SOL    HW231863   1.136   3.940  15.578
 6662SOL     OW31864   4.347   3.462   4.642
 6662SOL    HW131865   4.431   3.448   4.685
 6662SOL    HW231866   4.364   3.442   4.550
 6663SOL     OW31867   4.140   4.649   6.203
 6663SOL    HW131868   4.177   4.654   6.292
 6663SOL    HW231869   4.047   4.670   6.215
 6664SOL     OW31870   4.589   1.182   2.815
 6664SOL    HW131871   4.669   1.217   2.774
 6664SOL    HW231872   4.621   1.112   2.871
 6665SOL     OW31873   1.060   3.052   4.635
 6665SOL    HW131874   1.142   3.025   4.595
 6665SOL    HW231875   1.085   3.082   4.723
 6666SOL     OW31876   1.551   4.276   1.679
 6666SOL    HW131877   1.492   4.203   1.694
 6666SOL    HW231878   1.584   4.262   1.590
 6667SOL     OW31879   1.399   4.574   3.128
 6667SOL    HW131880   1.374   4.482   3.121
 6667SOL    HW231881   1.471   4.574   3.192
 6668SOL     OW31882   3.162   3.347   3.986
 6668SOL    HW131883   3.116   3.280   3.937
 6668SOL    HW231884   3.114   3.354   4.069
 6669SOL     OW31885   0.884   4.403   6.592
 6669SOL    HW131886   0.932   4.405   6.509
 6669SOL    HW231887   0.905   4.318   6.629
 6670SOL     OW31888   1.309   2.461  19.241
 6670SOL    HW131889   1.396   2.470  19.280
 6670SOL    HW231890   1.265   2.544  19.260
 6671SOL     OW31891   2.782   0.323  17.657
 6671SOL    HW131892   2.718   0.291  17.593
 6671SOL    HW231893   2.766   0.417  17.663
 6672SOL     OW31894   3.754   2.669  13.686
 6672SOL    HW131895   3.684   2.688  13.624
 6672SOL    HW231896   3.815   2.613  13.637
 6673SOL     OW31897   2.229   4.654   0.954
 6673SOL    HW131898   2.235   4.730   1.012
 6673SOL    HW231899   2.317   4.644   0.918
 6674SOL     OW31900   3.956   1.673   4.079
 6674SOL    HW131901   3.982   1.588   4.044
 6674SOL    HW231902   3.891   1.705   4.016
 6675SOL     OW31903   2.793   2.049   4.900
 6675SOL    HW131904   2.792   2.144   4.886
 6675SOL    HW231905   2.880   2.021   4.873
 6676SOL     OW31906   2.135   3.756   6.661
 6676SOL    HW131907   2.099   3.672   6.632
 6676SOL    HW231908   2.081   3.822   6.618
 6677SOL     OW31909   0.916   1.337   3.384
 6677SOL    HW131910   0.856   1.398   3.427
 6677SOL    HW231911   0.912   1.258   3.438
 6678SOL     OW31912   4.041   3.386   4.494
 6678SOL    HW131913   4.107   3.379   4.564
 6678SOL    HW231914   4.092   3.391   4.414
 6679SOL     OW31915   2.035   3.704  15.824
 6679SOL    HW131916   2.105   3.682  15.885
 6679SOL    HW231917   2.059   3.659  15.742
 6680SOL     OW31918   3.800   1.838   1.209
 6680SOL    HW131919   3.845   1.874   1.132
 6680SOL    HW231920   3.786   1.746   1.188
 6681SOL     OW31921   4.511   2.835  17.255
 6681SOL    HW131922   4.436   2.874  17.210
 6681SOL    HW231923   4.495   2.852  17.348
 6682SOL     OW31924   3.359   1.501   0.296
 6682SOL    HW131925   3.323   1.415   0.272
 6682SOL    HW231926   3.450   1.482   0.320
 6683SOL     OW31927   4.261   0.421   2.282
 6683SOL    HW131928   4.287   0.385   2.367
 6683SOL    HW231929   4.273   0.515   2.291
 6684SOL     OW31930   2.339   0.268   5.470
 6684SOL    HW131931   2.405   0.205   5.495
 6684SOL    HW231932   2.338   0.265   5.374
 6685SOL     OW31933   3.792   2.439  18.322
 6685SOL    HW131934   3.888   2.438  18.320
 6685SOL    HW231935   3.771   2.484  18.404
 6686SOL     OW31936   4.480   4.326  17.387
 6686SOL    HW131937   4.394   4.319  17.428
 6686SOL    HW231938   4.528   4.249  17.417
 6687SOL     OW31939   0.568   1.855  20.530
 6687SOL    HW131940   0.641   1.892  20.580
 6687SOL    HW231941   0.571   1.761  20.548
 6688SOL     OW31942   2.636   3.938  14.887
 6688SOL    HW131943   2.656   3.971  14.799
 6688SOL    HW231944   2.556   3.886  14.876
 6689SOL     OW31945   2.523   2.010  16.802
 6689SOL    HW131946   2.612   2.008  16.838
 6689SOL    HW231947   2.468   1.972  16.871
 6690SOL     OW31948   0.248   3.671  17.560
 6690SOL    HW131949   0.261   3.679  17.465
 6690SOL    HW231950   0.336   3.655  17.595
 6691SOL     OW31951   2.584   1.118  14.281
 6691SOL    HW131952   2.500   1.123  14.237
 6691SOL    HW231953   2.600   1.206  14.314
 6692SOL     OW31954   1.335   1.409  20.942
 6692SOL    HW131955   1.342   1.318  20.913
 6692SOL    HW231956   1.402   1.456  20.892
 6693SOL     OW31957   2.142   1.398   5.630
 6693SOL    HW131958   2.114   1.337   5.562
 6693SOL    HW231959   2.233   1.372   5.649
 6694SOL     OW31960   0.316   3.337  17.235
 6694SOL    HW131961   0.325   3.291  17.151
 6694SOL    HW231962   0.362   3.281  17.298
 6695SOL     OW31963   3.011   4.400   5.152
 6695SOL    HW131964   3.054   4.484   5.170
 6695SOL    HW231965   2.938   4.397   5.214
 6696SOL     OW31966   0.690   0.331   2.307
 6696SOL    HW131967   0.763   0.357   2.363
 6696SOL    HW231968   0.719   0.249   2.266
 6697SOL     OW31969   1.594   3.961   4.380
 6697SOL    HW131970   1.676   3.952   4.332
 6697SOL    HW231971   1.616   4.018   4.454
 6698SOL     OW31972   3.547   0.094  14.645
 6698SOL    HW131973   3.525   0.183  14.618
 6698SOL    HW231974   3.587   0.054  14.568
 6699SOL     OW31975   1.242   4.715   0.177
 6699SOL    HW131976   1.311   4.754   0.123
 6699SOL    HW231977   1.178   4.682   0.113
 6700SOL     OW31978   0.663   2.211   3.634
 6700SOL    HW131979   0.686   2.262   3.712
 6700SOL    HW231980   0.714   2.251   3.564
 6701SOL     OW31981   2.085   1.534   7.061
 6701SOL    HW131982   1.994   1.561   7.048
 6701SOL    HW231983   2.101   1.547   7.154
 6702SOL     OW31984   2.489   2.159   8.355
 6702SOL    HW131985   2.584   2.156   8.340
 6702SOL    HW231986   2.479   2.217   8.431
 6703SOL     OW31987   2.669   0.758  14.727
 6703SOL    HW131988   2.707   0.782  14.642
 6703SOL    HW231989   2.601   0.823  14.742
 6704SOL     OW31990   3.757   3.430  19.660
 6704SOL    HW131991   3.737   3.516  19.697
 6704SOL    HW231992   3.852   3.430  19.648
 6705SOL     OW31993   1.824   3.801  18.270
 6705SOL    HW131994   1.747   3.787  18.216
 6705SOL    HW231995   1.888   3.738  18.237
 6706SOL     OW31996   1.592   2.044  20.209
 6706SOL    HW131997   1.674   2.055  20.159
 6706SOL    HW231998   1.527   2.021  20.142
 6707SOL     OW31999   1.480   0.991  19.864
 6707SOL    HW132000   1.561   1.028  19.897
 6707SOL    HW232001   1.436   0.955  19.941
 6708SOL     OW32002   2.758   3.157   0.795
 6708SOL    HW132003   2.713   3.161   0.711
 6708SOL    HW232004   2.847   3.188   0.776
 6709SOL     OW32005   1.366   2.338   4.414
 6709SOL    HW132006   1.454   2.315   4.384
 6709SOL    HW232007   1.325   2.254   4.433
 6710SOL     OW32008   1.834   2.681   7.182
 6710SOL    HW132009   1.766   2.749   7.186
 6710SOL    HW232010   1.788   2.600   7.201
 6711SOL     OW32011   2.700   0.457  16.697
 6711SOL    HW132012   2.788   0.442  16.661
 6711SOL    HW232013   2.696   0.551  16.714
 6712SOL     OW32014   4.575   1.938   2.286
 6712SOL    HW132015   4.591   1.845   2.300
 6712SOL    HW232016   4.661   1.979   2.293
 6713SOL     OW32017   4.306   3.810   4.518
 6713SOL    HW132018   4.237   3.788   4.456
 6713SOL    HW232019   4.288   3.754   4.594
 6714SOL     OW32020   3.714   3.942   0.868
 6714SOL    HW132021   3.751   3.971   0.952
 6714SOL    HW232022   3.626   3.912   0.891
 6715SOL     OW32023   0.984   0.581   4.840
 6715SOL    HW132024   0.941   0.628   4.769
 6715SOL    HW232025   0.938   0.497   4.844
 6716SOL     OW32026   4.172   4.285   2.041
 6716SOL    HW132027   4.193   4.258   1.952
 6716SOL    HW232028   4.226   4.362   2.057
 6717SOL     OW32029   1.828   3.740   2.826
 6717SOL    HW132030   1.922   3.744   2.805
 6717SOL    HW232031   1.816   3.654   2.867
 6718SOL     OW32032   0.249   4.359  12.657
 6718SOL    HW132033   0.331   4.319  12.686
 6718SOL    HW232034   0.216   4.300  12.589
 6719SOL     OW32035   4.632   4.701   7.425
 6719SOL    HW132036   4.691   4.770   7.395
 6719SOL    HW232037   4.597   4.663   7.345
 6720SOL     OW32038   1.144   0.252   2.927
 6720SOL    HW132039   1.117   0.338   2.960
 6720SOL    HW232040   1.159   0.199   3.006
 6721SOL     OW32041   4.441   2.037   3.309
 6721SOL    HW132042   4.383   2.106   3.277
 6721SOL    HW232043   4.469   2.066   3.396
 6722SOL     OW32044   4.110   1.581   8.694
 6722SOL    HW132045   4.182   1.621   8.742
 6722SOL    HW232046   4.083   1.507   8.749
 6723SOL     OW32047   0.149   1.978  17.876
 6723SOL    HW132048   0.229   1.928  17.861
 6723SOL    HW232049   0.178   2.069  17.881
 6724SOL     OW32050   1.612   3.718  20.965
 6724SOL    HW132051   1.694   3.716  20.916
 6724SOL    HW232052   1.603   3.808  20.993
 6725SOL     OW32053   1.524   4.724   0.109
 6725SOL    HW132054   1.573   4.746   0.188
 6725SOL    HW232055   1.563   4.642   0.079
 6726SOL     OW32056   3.338   4.054  18.379
 6726SOL    HW132057   3.395   3.998  18.327
 6726SOL    HW232058   3.385   4.066  18.462
 6727SOL     OW32059   1.630   4.134  16.433
 6727SOL    HW132060   1.715   4.107  16.400
 6727SOL    HW232061   1.630   4.229  16.425
 6728SOL     OW32062   3.299   1.352   0.962
 6728SOL    HW132063   3.383   1.399   0.965
 6728SOL    HW232064   3.238   1.415   0.923
 6729SOL     OW32065   2.019   2.766  13.576
 6729SOL    HW132066   2.063   2.835  13.625
 6729SOL    HW232067   1.985   2.707  13.643
 6730SOL     OW32068   0.229   4.392   5.405
 6730SOL    HW132069   0.144   4.350   5.401
 6730SOL    HW232070   0.266   4.363   5.488
 6731SOL     OW32071   3.012   0.556   3.836
 6731SOL    HW132072   3.088   0.551   3.894
 6731SOL    HW232073   3.038   0.618   3.768
 6732SOL     OW32074   0.430   0.040  20.317
 6732SOL    HW132075   0.383   0.114  20.355
 6732SOL    HW232076   0.514   0.039  20.363
 6733SOL     OW32077   1.322   0.749   2.320
 6733SOL    HW132078   1.324   0.673   2.261
 6733SOL    HW232079   1.249   0.802   2.288
 6734SOL     OW32080   4.587   0.131  15.027
 6734SOL    HW132081   4.679   0.108  15.018
 6734SOL    HW232082   4.539   0.056  14.992
 6735SOL     OW32083   2.454   4.406   6.286
 6735SOL    HW132084   2.415   4.394   6.373
 6735SOL    HW232085   2.533   4.458   6.302
 6736SOL     OW32086   3.072   1.625   6.576
 6736SOL    HW132087   3.007   1.656   6.513
 6736SOL    HW232088   3.138   1.582   6.522
 6737SOL     OW32089   2.411   2.658  15.852
 6737SOL    HW132090   2.433   2.583  15.797
 6737SOL    HW232091   2.350   2.623  15.917
 6738SOL     OW32092   4.548   0.354   4.136
 6738SOL    HW132093   4.520   0.427   4.080
 6738SOL    HW232094   4.639   0.339   4.113
 6739SOL     OW32095   3.971   2.502   2.380
 6739SOL    HW132096   3.891   2.452   2.360
 6739SOL    HW232097   4.014   2.451   2.449
 6740SOL     OW32098   3.957   4.431   2.146
 6740SOL    HW132099   4.015   4.364   2.111
 6740SOL    HW232100   3.951   4.411   2.239
 6741SOL     OW32101   3.936   2.489  19.736
 6741SOL    HW132102   3.992   2.544  19.681
 6741SOL    HW232103   3.925   2.408  19.686
 6742SOL     OW32104   0.219   0.889  15.608
 6742SOL    HW132105   0.287   0.862  15.670
 6742SOL    HW232106   0.253   0.970  15.569
 6743SOL     OW32107   3.058   2.000   4.830
 6743SOL    HW132108   3.090   2.070   4.773
 6743SOL    HW232109   3.104   2.015   4.913
 6744SOL     OW32110   4.536   0.592   2.384
 6744SOL    HW132111   4.605   0.586   2.318
 6744SOL    HW232112   4.460   0.624   2.335
 6745SOL     OW32113   0.045   1.244  17.188
 6745SOL    HW132114   0.056   1.222  17.096
 6745SOL    HW232115   0.008   1.332  17.188
 6746SOL     OW32116   3.488   0.030   1.650
 6746SOL    HW132117   3.501   0.110   1.601
 6746SOL    HW232118   3.396   0.007   1.636
 6747SOL     OW32119   3.544   1.244   2.414
 6747SOL    HW132120   3.636   1.242   2.388
 6747SOL    HW232121   3.531   1.331   2.451
 6748SOL     OW32122   2.130   0.679  18.333
 6748SOL    HW132123   2.200   0.726  18.288
 6748SOL    HW232124   2.113   0.603  18.279
 6749SOL     OW32125   3.875   4.261  15.419
 6749SOL    HW132126   3.948   4.288  15.363
 6749SOL    HW232127   3.917   4.227  15.498
 6750SOL     OW32128   0.957   0.615   0.887
 6750SOL    HW132129   0.865   0.604   0.862
 6750SOL    HW232130   1.002   0.635   0.805
 6751SOL     OW32131   4.671   0.348  15.845
 6751SOL    HW132132   4.643   0.300  15.767
 6751SOL    HW232133   4.736   0.292  15.887
 6752SOL     OW32134   1.464   3.561  16.459
 6752SOL    HW132135   1.483   3.547  16.366
 6752SOL    HW232136   1.392   3.500  16.478
 6753SOL     OW32137   1.605   4.026  18.880
 6753SOL    HW132138   1.638   3.988  18.799
 6753SOL    HW232139   1.594   4.119  18.860
 6754SOL     OW32140   3.367   0.549   0.473
 6754SOL    HW132141   3.459   0.521   0.476
 6754SOL    HW232142   3.329   0.500   0.400
 6755SOL     OW32143   2.234   3.251   8.971
 6755SOL    HW132144   2.319   3.208   8.966
 6755SOL    HW232145   2.251   3.333   9.018
 6756SOL     OW32146   3.536   4.489  16.512
 6756SOL    HW132147   3.606   4.534  16.464
 6756SOL    HW232148   3.459   4.495  16.455
 6757SOL     OW32149   0.210   1.920  20.689
 6757SOL    HW132150   0.242   1.866  20.616
 6757SOL    HW232151   0.289   1.946  20.736
 6758SOL     OW32152   3.522   1.580   1.020
 6758SOL    HW132153   3.544   1.510   1.082
 6758SOL    HW232154   3.578   1.563   0.944
 6759SOL     OW32155   3.635   0.909   1.326
 6759SOL    HW132156   3.710   0.942   1.376
 6759SOL    HW232157   3.614   0.980   1.265
 6760SOL     OW32158   2.627   3.342  20.586
 6760SOL    HW132159   2.581   3.426  20.586
 6760SOL    HW232160   2.644   3.323  20.678
 6761SOL     OW32161   2.463   0.997  15.704
 6761SOL    HW132162   2.493   1.079  15.744
 6761SOL    HW232163   2.515   0.989  15.624
 6762SOL     OW32164   2.391   4.438  16.425
 6762SOL    HW132165   2.396   4.505  16.494
 6762SOL    HW232166   2.310   4.391  16.443
 6763SOL     OW32167   3.883   0.181  19.346
 6763SOL    HW132168   3.946   0.180  19.273
 6763SOL    HW232169   3.936   0.197  19.424
 6764SOL     OW32170   2.637   3.854  16.645
 6764SOL    HW132171   2.619   3.760  16.657
 6764SOL    HW232172   2.595   3.896  16.720
 6765SOL     OW32173   3.897   2.741  17.750
 6765SOL    HW132174   3.990   2.761  17.760
 6765SOL    HW232175   3.852   2.822  17.773
 6766SOL     OW32176   4.483   1.746  15.462
 6766SOL    HW132177   4.410   1.753  15.400
 6766SOL    HW232178   4.506   1.837  15.481
 6767SOL     OW32179   2.633   1.828   1.379
 6767SOL    HW132180   2.692   1.767   1.423
 6767SOL    HW232181   2.599   1.779   1.304
 6768SOL     OW32182   2.648   1.653  19.264
 6768SOL    HW132183   2.577   1.707  19.229
 6768SOL    HW232184   2.664   1.687  19.351
 6769SOL     OW32185   0.061   2.738   0.204
 6769SOL    HW132186   0.086   2.798   0.134
 6769SOL    HW232187   0.141   2.690   0.224
 6770SOL     OW32188   0.820   0.505  11.569
 6770SOL    HW132189   0.909   0.485  11.542
 6770SOL    HW232190   0.767   0.485  11.492
 6771SOL     OW32191   3.576   0.981  14.359
 6771SOL    HW132192   3.604   0.969  14.450
 6771SOL    HW232193   3.646   1.031  14.318
 6772SOL     OW32194   0.459   3.689   5.353
 6772SOL    HW132195   0.448   3.732   5.269
 6772SOL    HW232196   0.548   3.654   5.352
 6773SOL     OW32197   2.472   0.259  15.828
 6773SOL    HW132198   2.519   0.339  15.850
 6773SOL    HW232199   2.522   0.189  15.870
 6774SOL     OW32200   0.146   0.182  18.069
 6774SOL    HW132201   0.218   0.220  18.119
 6774SOL    HW232202   0.085   0.149  18.135
 6775SOL     OW32203   1.835   4.088  18.584
 6775SOL    HW132204   1.919   4.121  18.552
 6775SOL    HW232205   1.854   4.057  18.673
 6776SOL     OW32206   4.206   3.284  17.609
 6776SOL    HW132207   4.186   3.190  17.600
 6776SOL    HW232208   4.211   3.298  17.703
 6777SOL     OW32209   4.207   1.935   8.269
 6777SOL    HW132210   4.148   1.866   8.238
 6777SOL    HW232211   4.221   1.990   8.192
 6778SOL     OW32212   0.787   4.320   3.473
 6778SOL    HW132213   0.795   4.229   3.445
 6778SOL    HW232214   0.866   4.363   3.441
 6779SOL     OW32215   4.278   2.925   0.198
 6779SOL    HW132216   4.276   2.980   0.277
 6779SOL    HW232217   4.312   2.983   0.130
 6780SOL     OW32218   0.575   3.500   5.079
 6780SOL    HW132219   0.516   3.544   5.019
 6780SOL    HW232220   0.551   3.533   5.166
 6781SOL     OW32221   2.303   1.104  18.745
 6781SOL    HW132222   2.265   1.029  18.792
 6781SOL    HW232223   2.332   1.068  18.662
 6782SOL     OW32224   1.125   0.087   1.871
 6782SOL    HW132225   1.168   0.047   1.795
 6782SOL    HW232226   1.043   0.040   1.881
 6783SOL     OW32227   1.175   1.795  15.279
 6783SOL    HW132228   1.165   1.751  15.194
 6783SOL    HW232229   1.266   1.778  15.304
 6784SOL     OW32230   0.938   1.950  18.167
 6784SOL    HW132231   0.885   1.880  18.130
 6784SOL    HW232232   1.011   1.960  18.106
 6785SOL     OW32233   2.603   0.351   1.189
 6785SOL    HW132234   2.694   0.359   1.218
 6785SOL    HW232235   2.591   0.257   1.175
 6786SOL     OW32236   0.511   3.704  18.681
 6786SOL    HW132237   0.453   3.692  18.757
 6786SOL    HW232238   0.491   3.630  18.624
 6787SOL     OW32239   3.729   3.768  18.624
 6787SOL    HW132240   3.810   3.718  18.632
 6787SOL    HW232241   3.753   3.857  18.649
 6788SOL     OW32242   3.720   0.448   7.945
 6788SOL    HW132243   3.643   0.495   7.912
 6788SOL    HW232244   3.751   0.398   7.870
 6789SOL     OW32245   3.507   2.424   0.921
 6789SOL    HW132246   3.458   2.449   1.001
 6789SOL    HW232247   3.580   2.486   0.918
 6790SOL     OW32248   1.741   1.010  17.534
 6790SOL    HW132249   1.799   0.954  17.586
 6790SOL    HW232250   1.800   1.066  17.484
 6791SOL     OW32251   2.822   0.086   6.653
 6791SOL    HW132252   2.885   0.111   6.720
 6791SOL    HW232253   2.831   0.152   6.585
 6792SOL     OW32254   3.745   2.633   6.637
 6792SOL    HW132255   3.693   2.693   6.690
 6792SOL    HW232256   3.777   2.687   6.564
 6793SOL     OW32257   2.498   3.061   5.972
 6793SOL    HW132258   2.538   3.125   6.031
 6793SOL    HW232259   2.562   2.990   5.966
 6794SOL     OW32260   1.689   3.085  18.182
 6794SOL    HW132261   1.747   3.120  18.115
 6794SOL    HW232262   1.607   3.067  18.136
 6795SOL     OW32263   2.863   4.507  13.114
 6795SOL    HW132264   2.928   4.561  13.070
 6795SOL    HW232265   2.870   4.531  13.207
 6796SOL     OW32266   1.440   0.505   3.440
 6796SOL    HW132267   1.484   0.422   3.419
 6796SOL    HW232268   1.379   0.519   3.368
 6797SOL     OW32269   1.229   4.494  20.587
 6797SOL    HW132270   1.145   4.500  20.542
 6797SOL    HW232271   1.269   4.581  20.575
 6798SOL     OW32272   4.760   1.394   0.601
 6798SOL    HW132273   0.002   1.461   0.664
 6798SOL    HW232274   4.680   1.358   0.640
 6799SOL     OW32275   0.025   2.477   1.348
 6799SOL    HW132276   4.732   2.527   1.329
 6799SOL    HW232277   0.093   2.544   1.359
 6800SOL     OW32278   2.708   4.251  19.444
 6800SOL    HW132279   2.645   4.188  19.479
 6800SOL    HW232280   2.778   4.255  19.509
 6801SOL     OW32281   0.663   3.801  20.402
 6801SOL    HW132282   0.605   3.835  20.470
 6801SOL    HW232283   0.714   3.878  20.373
 6802SOL     OW32284   4.249   1.996   0.556
 6802SOL    HW132285   4.227   1.904   0.546
 6802SOL    HW232286   4.253   2.030   0.466
 6803SOL     OW32287   0.759   2.208  15.478
 6803SOL    HW132288   0.790   2.121  15.501
 6803SOL    HW232289   0.835   2.252  15.441
 6804SOL     OW32290   1.574   4.646  12.996
 6804SOL    HW132291   1.584   4.740  13.010
 6804SOL    HW232292   1.639   4.624  12.930
 6805SOL     OW32293   3.023   4.443  15.493
 6805SOL    HW132294   3.081   4.512  15.527
 6805SOL    HW232295   2.940   4.457  15.540
 6806SOL     OW32296   0.313   4.441  20.923
 6806SOL    HW132297   0.365   4.429  21.003
 6806SOL    HW232298   0.368   4.494  20.866
 6807SOL     OW32299   1.548   1.119  16.778
 6807SOL    HW132300   1.534   1.025  16.789
 6807SOL    HW232301   1.469   1.149  16.732
 6808SOL     OW32302   3.586   2.027   1.528
 6808SOL    HW132303   3.496   2.041   1.559
 6808SOL    HW232304   3.632   2.108   1.551
 6809SOL     OW32305   1.489   1.198   4.245
 6809SOL    HW132306   1.460   1.112   4.276
 6809SOL    HW232307   1.477   1.195   4.150
 6810SOL     OW32308   2.538   2.785   2.742
 6810SOL    HW132309   2.608   2.849   2.732
 6810SOL    HW232310   2.544   2.756   2.834
 6811SOL     OW32311   3.588   1.479   5.712
 6811SOL    HW132312   3.682   1.490   5.694
 6811SOL    HW232313   3.583   1.466   5.806
 6812SOL     OW32314   3.630   3.035   2.587
 6812SOL    HW132315   3.723   3.045   2.609
 6812SOL    HW232316   3.589   3.114   2.621
 6813SOL     OW32317   2.095   4.385   5.163
 6813SOL    HW132318   2.158   4.387   5.091
 6813SOL    HW232319   2.143   4.420   5.238
 6814SOL     OW32320   1.977   3.777   5.745
 6814SOL    HW132321   1.959   3.694   5.787
 6814SOL    HW232322   2.065   3.767   5.708
 6815SOL     OW32323   3.901   2.045  16.611
 6815SOL    HW132324   3.994   2.037  16.635
 6815SOL    HW232325   3.903   2.052  16.515
 6816SOL     OW32326   3.634   3.403   0.060
 6816SOL    HW132327   3.681   3.385   0.141
 6816SOL    HW232328   3.681   3.476   0.020
 6817SOL     OW32329   3.710   0.979   0.454
 6817SOL    HW132330   3.676   0.892   0.477
 6817SOL    HW232331   3.669   0.999   0.370
 6818SOL     OW32332   0.661   3.791   3.008
 6818SOL    HW132333   0.700   3.757   3.089
 6818SOL    HW232334   0.714   3.753   2.938
 6819SOL     OW32335   1.674   1.124   7.720
 6819SOL    HW132336   1.649   1.210   7.753
 6819SOL    HW232337   1.592   1.084   7.692
 6820SOL     OW32338   1.362   2.437  18.730
 6820SOL    HW132339   1.381   2.389  18.649
 6820SOL    HW232340   1.439   2.492  18.744
 6821SOL     OW32341   1.632   2.521   0.042
 6821SOL    HW132342   1.598   2.435   0.016
 6821SOL    HW232343   1.567   2.583   0.010
 6822SOL     OW32344   0.837   1.036  12.584
 6822SOL    HW132345   0.811   0.953  12.626
 6822SOL    HW232346   0.914   1.064  12.632
 6823SOL     OW32347   2.174   3.946  13.652
 6823SOL    HW132348   2.146   3.902  13.571
 6823SOL    HW232349   2.125   4.028  13.653
 6824SOL     OW32350   2.467   3.966   5.150
 6824SOL    HW132351   2.400   4.034   5.138
 6824SOL    HW232352   2.480   3.930   5.063
 6825SOL     OW32353   1.946   3.179  20.526
 6825SOL    HW132354   1.977   3.109  20.584
 6825SOL    HW232355   1.853   3.186  20.545
 6826SOL     OW32356   1.177   2.996   1.045
 6826SOL    HW132357   1.180   2.906   1.014
 6826SOL    HW232358   1.140   2.989   1.133
 6827SOL     OW32359   1.726   2.453   3.277
 6827SOL    HW132360   1.678   2.534   3.258
 6827SOL    HW232361   1.659   2.392   3.307
 6828SOL     OW32362   0.734   2.536   4.106
 6828SOL    HW132363   0.786   2.481   4.163
 6828SOL    HW232364   0.796   2.568   4.040
 6829SOL     OW32365   3.209   4.465   5.754
 6829SOL    HW132366   3.120   4.443   5.783
 6829SOL    HW232367   3.220   4.417   5.672
 6830SOL     OW32368   3.644   1.550   3.332
 6830SOL    HW132369   3.629   1.530   3.424
 6830SOL    HW232370   3.732   1.516   3.314
 6831SOL     OW32371   0.130   4.551  15.564
 6831SOL    HW132372   0.036   4.558  15.576
 6831SOL    HW232373   0.150   4.459  15.581
 6832SOL     OW32374   2.219   0.963   1.638
 6832SOL    HW132375   2.230   0.877   1.598
 6832SOL    HW232376   2.290   0.969   1.702
 6833SOL     OW32377   1.751   3.612  19.583
 6833SOL    HW132378   1.761   3.616  19.678
 6833SOL    HW232379   1.816   3.547  19.555
 6834SOL     OW32380   3.146   4.670   0.590
 6834SOL    HW132381   3.109   4.742   0.539
 6834SOL    HW232382   3.235   4.698   0.609
 6835SOL     OW32383   1.995   1.719  18.776
 6835SOL    HW132384   1.999   1.759  18.690
 6835SOL    HW232385   2.080   1.676  18.787
 6836SOL     OW32386   0.414   1.702  19.137
 6836SOL    HW132387   0.457   1.641  19.196
 6836SOL    HW232388   0.388   1.649  19.062
 6837SOL     OW32389   2.327   0.566   5.036
 6837SOL    HW132390   2.354   0.486   4.990
 6837SOL    HW232391   2.293   0.535   5.120
 6838SOL     OW32392   1.922   2.409   3.082
 6838SOL    HW132393   1.859   2.393   3.152
 6838SOL    HW232394   2.002   2.436   3.127
 6839SOL     OW32395   3.496   3.323   5.220
 6839SOL    HW132396   3.496   3.228   5.234
 6839SOL    HW232397   3.486   3.333   5.126
 6840SOL     OW32398   3.348   0.535   0.927
 6840SOL    HW132399   3.322   0.502   0.841
 6840SOL    HW232400   3.311   0.472   0.989
 6841SOL     OW32401   4.145   1.018   0.091
 6841SOL    HW132402   4.077   1.081   0.068
 6841SOL    HW232403   4.149   1.022   0.187
 6842SOL     OW32404   3.872   0.860   5.039
 6842SOL    HW132405   3.842   0.825   5.123
 6842SOL    HW232406   3.805   0.926   5.015
 6843SOL     OW32407   3.059   3.713   2.450
 6843SOL    HW132408   3.066   3.804   2.421
 6843SOL    HW232409   2.989   3.676   2.396
 6844SOL     OW32410   3.563   2.695   4.412
 6844SOL    HW132411   3.642   2.729   4.454
 6844SOL    HW232412   3.494   2.757   4.437
 6845SOL     OW32413   0.375   1.010  17.028
 6845SOL    HW132414   0.330   0.981  17.108
 6845SOL    HW232415   0.330   1.091  17.004
 6846SOL     OW32416   2.072   4.615  20.083
 6846SOL    HW132417   2.087   4.522  20.100
 6846SOL    HW232418   2.154   4.658  20.106
 6847SOL     OW32419   4.572   1.991  18.323
 6847SOL    HW132420   4.655   1.964  18.283
 6847SOL    HW232421   4.565   2.084  18.303
 6848SOL     OW32422   1.737   0.952   1.134
 6848SOL    HW132423   1.681   0.993   1.068
 6848SOL    HW232424   1.801   1.019   1.157
 6849SOL     OW32425   4.387   0.008   4.755
 6849SOL    HW132426   4.395   0.100   4.729
 6849SOL    HW232427   4.367   0.011   4.849
 6850SOL     OW32428   3.715   1.741   4.907
 6850SOL    HW132429   3.798   1.774   4.942
 6850SOL    HW232430   3.685   1.678   4.972
 6851SOL     OW32431   4.574   3.628  17.913
 6851SOL    HW132432   4.560   3.664  18.001
 6851SOL    HW232433   4.669   3.623  17.904
 6852SOL     OW32434   3.897   4.072   3.867
 6852SOL    HW132435   3.949   4.149   3.888
 6852SOL    HW232436   3.931   4.041   3.783
 6853SOL     OW32437   3.913   1.053   2.944
 6853SOL    HW132438   3.819   1.057   2.958
 6853SOL    HW232439   3.929   0.967   2.906
 6854SOL     OW32440   1.695   0.622  15.372
 6854SOL    HW132441   1.664   0.599  15.459
 6854SOL    HW232442   1.631   0.684  15.338
 6855SOL     OW32443   0.067   2.037   5.934
 6855SOL    HW132444   4.767   2.066   5.963
 6855SOL    HW232445   0.087   2.091   5.858
 6856SOL     OW32446   3.543   2.219   1.849
 6856SOL    HW132447   3.526   2.277   1.923
 6856SOL    HW232448   3.548   2.132   1.889
 6857SOL     OW32449   1.887   2.213   1.437
 6857SOL    HW132450   1.945   2.281   1.402
 6857SOL    HW232451   1.833   2.186   1.363
 6858SOL     OW32452   2.141   3.201  18.778
 6858SOL    HW132453   2.090   3.135  18.825
 6858SOL    HW232454   2.218   3.155  18.746
 6859SOL     OW32455   0.983   1.620  18.897
 6859SOL    HW132456   0.903   1.590  18.853
 6859SOL    HW232457   1.045   1.636  18.826
 6860SOL     OW32458   2.072   0.885  13.505
 6860SOL    HW132459   2.118   0.883  13.421
 6860SOL    HW232460   2.053   0.978  13.519
 6861SOL     OW32461   4.413   2.789   0.011
 6861SOL    HW132462   4.461   2.725   0.063
 6861SOL    HW232463   4.351   2.828   0.072
 6862SOL     OW32464   1.317   2.917   4.991
 6862SOL    HW132465   1.318   2.909   5.086
 6862SOL    HW232466   1.328   3.011   4.974
 6863SOL     OW32467   2.558   2.671  19.275
 6863SOL    HW132468   2.567   2.615  19.198
 6863SOL    HW232469   2.648   2.688  19.303
 6864SOL     OW32470   1.884   2.413   5.725
 6864SOL    HW132471   1.906   2.436   5.816
 6864SOL    HW232472   1.915   2.487   5.674
 6865SOL     OW32473   3.734   3.485   8.394
 6865SOL    HW132474   3.679   3.554   8.430
 6865SOL    HW232475   3.813   3.487   8.447
 6866SOL     OW32476   2.873   4.748  20.319
 6866SOL    HW132477   2.963   4.755  20.351
 6866SOL    HW232478   2.822   0.014  20.381
 6867SOL     OW32479   4.468   3.832   6.612
 6867SOL    HW132480   4.469   3.826   6.708
 6867SOL    HW232481   4.468   3.926   6.595
 6868SOL     OW32482   2.629   3.639   5.413
 6868SOL    HW132483   2.690   3.570   5.386
 6868SOL    HW232484   2.580   3.601   5.485
 6869SOL     OW32485   2.880   4.673  12.588
 6869SOL    HW132486   2.803   4.676  12.645
 6869SOL    HW232487   2.945   4.624  12.638
 6870SOL     OW32488   2.209   1.018  15.632
 6870SOL    HW132489   2.215   1.063  15.548
 6870SOL    HW232490   2.298   1.019  15.666
 6871SOL     OW32491   0.545   3.439  18.894
 6871SOL    HW132492   0.607   3.510  18.911
 6871SOL    HW232493   0.488   3.437  18.970
 6872SOL     OW32494   4.596   2.105  19.679
 6872SOL    HW132495   4.530   2.035  19.676
 6872SOL    HW232496   4.561   2.173  19.621
 6873SOL     OW32497   3.142   1.545   0.824
 6873SOL    HW132498   3.128   1.639   0.812
 6873SOL    HW232499   3.054   1.508   0.834
 6874SOL     OW32500   0.411   4.365   3.778
 6874SOL    HW132501   0.489   4.330   3.737
 6874SOL    HW232502   0.444   4.430   3.841
 6875SOL     OW32503   4.067   2.180   4.727
 6875SOL    HW132504   4.125   2.140   4.793
 6875SOL    HW232505   3.979   2.156   4.756
 6876SOL     OW32506   1.728   0.182  18.234
 6876SOL    HW132507   1.714   0.270  18.270
 6876SOL    HW232508   1.794   0.143  18.291
 6877SOL     OW32509   0.090   3.852   5.343
 6877SOL    HW132510   0.011   3.865   5.395
 6877SOL    HW232511   0.162   3.868   5.404
 6878SOL     OW32512   3.088   2.360   6.760
 6878SOL    HW132513   3.148   2.432   6.780
 6878SOL    HW232514   3.104   2.341   6.667
 6879SOL     OW32515   2.383   2.921  18.906
 6879SOL    HW132516   2.326   2.844  18.912
 6879SOL    HW232517   2.362   2.960  18.821
 6880SOL     OW32518   4.657   3.944  16.788
 6880SOL    HW132519   4.663   3.998  16.710
 6880SOL    HW232520   4.746   3.910  16.801
 6881SOL     OW32521   0.830   2.587   5.357
 6881SOL    HW132522   0.906   2.583   5.416
 6881SOL    HW232523   0.756   2.606   5.414
 6882SOL     OW32524   2.841   3.818  20.559
 6882SOL    HW132525   2.787   3.763  20.616
 6882SOL    HW232526   2.908   3.759  20.525
 6883SOL     OW32527   1.109   3.762  20.663
 6883SOL    HW132528   1.150   3.747  20.748
 6883SOL    HW232529   1.044   3.692  20.655
 6884SOL     OW32530   1.582   0.982  15.438
 6884SOL    HW132531   1.543   0.895  15.449
 6884SOL    HW232532   1.663   0.966  15.388
 6885SOL     OW32533   0.296   0.526  15.454
 6885SOL    HW132534   0.297   0.476  15.536
 6885SOL    HW232535   0.298   0.459  15.385
 6886SOL     OW32536   4.283   2.294  20.130
 6886SOL    HW132537   4.365   2.306  20.082
 6886SOL    HW232538   4.218   2.278  20.062
 6887SOL     OW32539   3.133   3.915   6.428
 6887SOL    HW132540   3.203   3.924   6.492
 6887SOL    HW232541   3.155   3.835   6.379
 6888SOL     OW32542   0.105   3.944   5.078
 6888SOL    HW132543   0.113   3.926   5.172
 6888SOL    HW232544   0.014   3.923   5.057
 6889SOL     OW32545   2.865   1.018   5.499
 6889SOL    HW132546   2.854   0.926   5.474
 6889SOL    HW232547   2.895   1.061   5.419
 6890SOL     OW32548   0.785   0.440   6.177
 6890SOL    HW132549   0.849   0.443   6.248
 6890SOL    HW232550   0.774   0.347   6.158
 6891SOL     OW32551   4.633   3.055   5.341
 6891SOL    HW132552   4.724   3.036   5.318
 6891SOL    HW232553   4.634   3.067   5.436
 6892SOL     OW32554   3.532   1.356  16.979
 6892SOL    HW132555   3.571   1.280  17.022
 6892SOL    HW232556   3.606   1.405  16.945
 6893SOL     OW32557   4.164   3.956  16.766
 6893SOL    HW132558   4.260   3.959  16.762
 6893SOL    HW232559   4.143   3.981  16.856
 6894SOL     OW32560   3.009   3.202   0.706
 6894SOL    HW132561   2.975   3.123   0.663
 6894SOL    HW232562   3.103   3.199   0.689
 6895SOL     OW32563   3.593   1.049  18.485
 6895SOL    HW132564   3.577   1.048  18.391
 6895SOL    HW232565   3.615   0.959  18.507
 6896SOL     OW32566   2.785   1.723  15.949
 6896SOL    HW132567   2.704   1.708  15.998
 6896SOL    HW232568   2.855   1.697  16.010
 6897SOL     OW32569   2.646   2.281   3.793
 6897SOL    HW132570   2.638   2.357   3.850
 6897SOL    HW232571   2.560   2.272   3.752
 6898SOL     OW32572   0.102   3.882  13.261
 6898SOL    HW132573   0.093   3.788  13.250
 6898SOL    HW232574   0.163   3.909  13.192
 6899SOL     OW32575   2.156   2.063  17.946
 6899SOL    HW132576   2.232   2.019  17.908
 6899SOL    HW232577   2.185   2.152  17.962
 6900SOL     OW32578   1.215   3.962   4.570
 6900SOL    HW132579   1.226   4.002   4.657
 6900SOL    HW232580   1.298   3.917   4.554
 6901SOL     OW32581   2.233   1.680  18.462
 6901SOL    HW132582   2.286   1.663  18.540
 6901SOL    HW232583   2.230   1.775  18.455
 6902SOL     OW32584   2.745   4.540  16.245
 6902SOL    HW132585   2.823   4.584  16.278
 6902SOL    HW232586   2.752   4.450  16.278
 6903SOL     OW32587   2.714   1.058  18.456
 6903SOL    HW132588   2.651   1.028  18.391
 6903SOL    HW232589   2.678   1.031  18.540
 6904SOL     OW32590   3.531   4.560  19.442
 6904SOL    HW132591   3.445   4.541  19.478
 6904SOL    HW232592   3.591   4.508  19.497
 6905SOL     OW32593   2.150   3.095   2.231
 6905SOL    HW132594   2.070   3.072   2.185
 6905SOL    HW232595   2.219   3.044   2.188
 6906SOL     OW32596   1.416   1.517   4.952
 6906SOL    HW132597   1.435   1.580   4.882
 6906SOL    HW232598   1.500   1.476   4.971
 6907SOL     OW32599   1.846   4.725   4.907
 6907SOL    HW132600   1.803   4.662   4.966
 6907SOL    HW232601   1.867   0.013   4.963
 6908SOL     OW32602   4.439   4.357   5.149
 6908SOL    HW132603   4.526   4.346   5.188
 6908SOL    HW232604   4.456   4.360   5.055
 6909SOL     OW32605   2.537   3.713   9.043
 6909SOL    HW132606   2.587   3.743   9.119
 6909SOL    HW232607   2.585   3.749   8.968
 6910SOL     OW32608   1.758   1.364   5.269
 6910SOL    HW132609   1.832   1.413   5.234
 6910SOL    HW232610   1.692   1.368   5.201
 6911SOL     OW32611   1.728   4.294   2.352
 6911SOL    HW132612   1.720   4.275   2.258
 6911SOL    HW232613   1.818   4.270   2.373
 6912SOL     OW32614   0.318   3.779   1.769
 6912SOL    HW132615   0.332   3.861   1.722
 6912SOL    HW232616   0.403   3.735   1.766
 6913SOL     OW32617   1.896   3.712  20.880
 6913SOL    HW132618   1.895   3.749  20.792
 6913SOL    HW232619   1.947   3.774  20.932
 6914SOL     OW32620   3.107   2.225  14.298
 6914SOL    HW132621   3.169   2.256  14.365
 6914SOL    HW232622   3.066   2.148  14.337
 6915SOL     OW32623   2.710   2.788   0.933
 6915SOL    HW132624   2.730   2.810   1.024
 6915SOL    HW232625   2.719   2.871   0.885
 6916SOL     OW32626   4.624   0.382  11.361
 6916SOL    HW132627   4.670   0.325  11.423
 6916SOL    HW232628   4.540   0.339  11.346
 6917SOL     OW32629   3.936   1.127   2.668
 6917SOL    HW132630   3.939   1.078   2.751
 6917SOL    HW232631   3.844   1.151   2.658
 6918SOL     OW32632   0.827   4.339  15.305
 6918SOL    HW132633   0.767   4.414  15.302
 6918SOL    HW232634   0.799   4.282  15.233
 6919SOL     OW32635   1.172   0.862   4.075
 6919SOL    HW132636   1.156   0.811   3.996
 6919SOL    HW232637   1.219   0.802   4.133
 6920SOL     OW32638   0.596   2.551   2.725
 6920SOL    HW132639   0.660   2.604   2.677
 6920SOL    HW232640   0.528   2.531   2.661
 6921SOL     OW32641   0.178   4.411  18.767
 6921SOL    HW132642   0.199   4.504  18.757
 6921SOL    HW232643   0.255   4.375  18.812
 6922SOL     OW32644   1.667   3.191  20.578
 6922SOL    HW132645   1.622   3.272  20.600
 6922SOL    HW232646   1.598   3.125  20.576
 6923SOL     OW32647   3.754   0.086  18.680
 6923SOL    HW132648   3.762   0.167  18.730
 6923SOL    HW232649   3.830   0.086  18.621
 6924SOL     OW32650   3.879   4.664  18.842
 6924SOL    HW132651   3.882   4.702  18.930
 6924SOL    HW232652   3.821   4.721  18.793
 6925SOL     OW32653   0.276   2.055   5.564
 6925SOL    HW132654   0.244   2.016   5.482
 6925SOL    HW232655   0.314   2.138   5.537
 6926SOL     OW32656   3.713   0.158  17.582
 6926SOL    HW132657   3.731   0.092  17.516
 6926SOL    HW232658   3.794   0.165  17.632
 6927SOL     OW32659   4.134   4.667  20.787
 6927SOL    HW132660   4.063   4.642  20.846
 6927SOL    HW232661   4.112   4.625  20.704
 6928SOL     OW32662   2.117   0.346  20.474
 6928SOL    HW132663   2.088   0.427  20.515
 6928SOL    HW232664   2.182   0.310  20.535
 6929SOL     OW32665   4.110   4.234   0.003
 6929SOL    HW132666   4.144   4.187   0.079
 6929SOL    HW232667   4.188   4.257  21.197
 6930SOL     OW32668   0.542   3.130   4.514
 6930SOL    HW132669   0.615   3.068   4.511
 6930SOL    HW232670   0.470   3.084   4.469
 6931SOL     OW32671   4.329   3.610   6.556
 6931SOL    HW132672   4.401   3.663   6.590
 6931SOL    HW232673   4.302   3.656   6.476
 6932SOL     OW32674   2.427   1.671   0.782
 6932SOL    HW132675   2.424   1.585   0.739
 6932SOL    HW232676   2.396   1.654   0.871
 6933SOL     OW32677   2.379   0.571   2.137
 6933SOL    HW132678   2.294   0.606   2.166
 6933SOL    HW232679   2.389   0.489   2.186
 6934SOL     OW32680   1.836   2.988   2.225
 6934SOL    HW132681   1.818   3.079   2.203
 6934SOL    HW232682   1.872   2.950   2.145
 6935SOL     OW32683   3.043   3.890  19.088
 6935SOL    HW132684   3.018   3.867  18.999
 6935SOL    HW232685   3.137   3.904  19.084
 6936SOL     OW32686   0.109   3.337   1.790
 6936SOL    HW132687   0.066   3.252   1.780
 6936SOL    HW232688   0.175   3.339   1.722
 6937SOL     OW32689   3.594   3.165   6.674
 6937SOL    HW132690   3.519   3.221   6.695
 6937SOL    HW232691   3.555   3.078   6.662
 6938SOL     OW32692   4.064   2.561  18.218
 6938SOL    HW132693   4.009   2.581  18.142
 6938SOL    HW232694   4.048   2.633  18.279
 6939SOL     OW32695   4.773   4.239   1.504
 6939SOL    HW132696   4.782   4.172   1.572
 6939SOL    HW232697   4.711   4.202   1.442
 6940SOL     OW32698   2.179   0.570  15.678
 6940SOL    HW132699   2.108   0.511  15.654
 6940SOL    HW232700   2.252   0.512  15.701
 6941SOL     OW32701   1.736   3.238  20.055
 6941SOL    HW132702   1.663   3.187  20.019
 6941SOL    HW232703   1.794   3.254  19.981
 6942SOL     OW32704   1.754   3.250   2.269
 6942SOL    HW132705   1.681   3.200   2.234
 6942SOL    HW232706   1.714   3.307   2.335
 6943SOL     OW32707   4.305   1.645   3.162
 6943SOL    HW132708   4.393   1.682   3.174
 6943SOL    HW232709   4.257   1.713   3.115
 6944SOL     OW32710   4.151   0.222  14.118
 6944SOL    HW132711   4.135   0.317  14.120
 6944SOL    HW232712   4.067   0.184  14.093
 6945SOL     OW32713   0.687   0.797  17.982
 6945SOL    HW132714   0.722   0.711  17.959
 6945SOL    HW232715   0.731   0.857  17.922
 6946SOL     OW32716   2.754   0.288   1.906
 6946SOL    HW132717   2.705   0.217   1.946
 6946SOL    HW232718   2.830   0.301   1.963
 6947SOL     OW32719   2.852   0.901  17.320
 6947SOL    HW132720   2.775   0.866  17.276
 6947SOL    HW232721   2.923   0.889  17.258
 6948SOL     OW32722   3.145   2.689   4.052
 6948SOL    HW132723   3.137   2.731   3.966
 6948SOL    HW232724   3.230   2.718   4.084
 6949SOL     OW32725   0.915   3.032   6.075
 6949SOL    HW132726   0.931   3.023   6.169
 6949SOL    HW232727   0.993   3.076   6.041
 6950SOL     OW32728   0.446   1.099  18.561
 6950SOL    HW132729   0.365   1.089  18.611
 6950SOL    HW232730   0.417   1.132  18.476
 6951SOL     OW32731   0.965   3.128  21.190
 6951SOL    HW132732   0.979   3.219  21.163
 6951SOL    HW232733   1.027   3.115   0.018
 6952SOL     OW32734   0.334   3.597  20.803
 6952SOL    HW132735   0.339   3.510  20.844
 6952SOL    HW232736   0.241   3.619  20.806
 6953SOL     OW32737   0.390   0.352  18.506
 6953SOL    HW132738   0.408   0.290  18.576
 6953SOL    HW232739   0.463   0.414  18.510
 6954SOL     OW32740   2.859   1.835  21.190
 6954SOL    HW132741   2.841   1.747  21.157
 6954SOL    HW232742   2.808   1.842   0.026
 6955SOL     OW32743   3.334   1.319   5.021
 6955SOL    HW132744   3.357   1.406   4.988
 6955SOL    HW232745   3.402   1.299   5.085
 6956SOL     OW32746   2.729   4.501  20.828
 6956SOL    HW132747   2.794   4.571  20.832
 6956SOL    HW232748   2.706   4.485  20.920
 6957SOL     OW32749   1.557   1.904   0.028
 6957SOL    HW132750   1.635   1.960   0.021
 6957SOL    HW232751   1.507   1.942   0.101
 6958SOL     OW32752   0.026   2.115  20.639
 6958SOL    HW132753   4.745   2.082  20.580
 6958SOL    HW232754   0.093   2.047  20.639
 6959SOL     OW32755   4.523   0.682   6.163
 6959SOL    HW132756   4.517   0.777   6.150
 6959SOL    HW232757   4.458   0.663   6.230
 6960SOL     OW32758   3.139   1.476  16.730
 6960SOL    HW132759   3.149   1.560  16.776
 6960SOL    HW232760   3.191   1.415  16.782
 6961SOL     OW32761   1.936   3.510  18.558
 6961SOL    HW132762   1.863   3.492  18.618
 6961SOL    HW232763   1.918   3.597  18.524
 6962SOL     OW32764   2.417   4.776   4.348
 6962SOL    HW132765   2.355   0.009   4.418
 6962SOL    HW232766   2.498   0.034   4.373
 6963SOL     OW32767   1.828   2.403  20.932
 6963SOL    HW132768   1.764   2.384  20.864
 6963SOL    HW232769   1.851   2.317  20.967
 6964SOL     OW32770   3.936   0.684  18.084
 6964SOL    HW132771   4.028   0.691  18.110
 6964SOL    HW232772   3.887   0.689  18.166
 6965SOL     OW32773   3.632   3.945  17.980
 6965SOL    HW132774   3.719   3.911  18.000
 6965SOL    HW232775   3.614   3.916  17.891
 6966SOL     OW32776   4.677   3.974  16.176
 6966SOL    HW132777   4.738   3.910  16.139
 6966SOL    HW232778   4.659   3.942  16.264
 6967SOL     OW32779   1.710   4.100   6.129
 6967SOL    HW132780   1.733   4.061   6.213
 6967SOL    HW232781   1.786   4.152   6.104
 6968SOL     OW32782   3.635   1.666  19.548
 6968SOL    HW132783   3.596   1.615  19.477
 6968SOL    HW232784   3.639   1.755  19.514
 6969SOL     OW32785   3.268   1.274  19.278
 6969SOL    HW132786   3.274   1.323  19.360
 6969SOL    HW232787   3.357   1.244  19.262
 6970SOL     OW32788   0.412   0.505  20.290
 6970SOL    HW132789   0.326   0.527  20.253
 6970SOL    HW232790   0.474   0.534  20.223
 6971SOL     OW32791   3.210   0.254   4.083
 6971SOL    HW132792   3.163   0.236   4.001
 6971SOL    HW232793   3.293   0.292   4.054
 6972SOL     OW32794   3.567   2.251   1.261
 6972SOL    HW132795   3.661   2.234   1.262
 6972SOL    HW232796   3.559   2.341   1.293
 6973SOL     OW32797   3.994   1.288  20.236
 6973SOL    HW132798   3.903   1.258  20.240
 6973SOL    HW232799   4.043   1.212  20.207
 6974SOL     OW32800   4.561   4.507   3.912
 6974SOL    HW132801   4.593   4.597   3.909
 6974SOL    HW232802   4.632   4.455   3.875
 6975SOL     OW32803   0.786   1.912  15.503
 6975SOL    HW132804   0.848   1.916  15.577
 6975SOL    HW232805   0.702   1.937  15.541
 6976SOL     OW32806   2.402   3.013   0.515
 6976SOL    HW132807   2.416   3.035   0.423
 6976SOL    HW232808   2.307   3.005   0.523
 6977SOL     OW32809   4.625   2.180   0.054
 6977SOL    HW132810   4.623   2.149   0.144
 6977SOL    HW232811   4.660   2.107   0.004
 6978SOL     OW32812   0.549   4.531   5.180
 6978SOL    HW132813   0.482   4.589   5.216
 6978SOL    HW232814   0.569   4.470   5.251
 6979SOL     OW32815   0.319   4.409   3.517
 6979SOL    HW132816   0.397   4.392   3.464
 6979SOL    HW232817   0.349   4.405   3.607
 6980SOL     OW32818   3.189   2.302  13.763
 6980SOL    HW132819   3.276   2.275  13.794
 6980SOL    HW232820   3.134   2.225  13.778
 6981SOL     OW32821   2.064   1.470   5.150
 6981SOL    HW132822   2.049   1.502   5.239
 6981SOL    HW232823   2.092   1.548   5.101
 6982SOL     OW32824   3.177   2.958   3.164
 6982SOL    HW132825   3.269   2.951   3.139
 6982SOL    HW232826   3.133   2.893   3.108
 6983SOL     OW32827   0.082   1.175  21.150
 6983SOL    HW132828   0.146   1.132  21.207
 6983SOL    HW232829   0.108   1.150  21.061
 6984SOL     OW32830   1.189   2.641  18.884
 6984SOL    HW132831   1.219   2.690  18.807
 6984SOL    HW232832   1.210   2.550  18.864
 6985SOL     OW32833   1.153   2.806   2.391
 6985SOL    HW132834   1.110   2.869   2.333
 6985SOL    HW232835   1.174   2.856   2.470
 6986SOL     OW32836   3.883   3.066  21.168
 6986SOL    HW132837   3.929   2.988  21.200
 6986SOL    HW232838   3.791   3.044  21.176
 6987SOL     OW32839   3.082   0.523   2.372
 6987SOL    HW132840   3.013   0.472   2.329
 6987SOL    HW232841   3.156   0.517   2.312
 6988SOL     OW32842   3.637   1.240   3.736
 6988SOL    HW132843   3.674   1.156   3.764
 6988SOL    HW232844   3.542   1.225   3.735
 6989SOL     OW32845   4.757   2.172   7.770
 6989SOL    HW132846   4.778   2.081   7.747
 6989SOL    HW232847   0.042   2.200   7.827
 6990SOL     OW32848   1.093   3.812  17.382
 6990SOL    HW132849   1.176   3.860  17.379
 6990SOL    HW232850   1.028   3.876  17.355
 6991SOL     OW32851   1.325   3.187   2.379
 6991SOL    HW132852   1.316   3.272   2.337
 6991SOL    HW232853   1.274   3.127   2.325
 6992SOL     OW32854   3.242   2.037   5.625
 6992SOL    HW132855   3.264   2.116   5.575
 6992SOL    HW232856   3.203   1.978   5.561
 6993SOL     OW32857   4.723   0.649   8.169
 6993SOL    HW132858   0.013   0.641   8.112
 6993SOL    HW232859   4.749   0.712   8.236
 6994SOL     OW32860   3.954   2.135   0.572
 6994SOL    HW132861   3.964   2.055   0.519
 6994SOL    HW232862   3.860   2.141   0.588
 6995SOL     OW32863   0.970   0.488   3.170
 6995SOL    HW132864   0.992   0.400   3.201
 6995SOL    HW232865   0.953   0.477   3.077
 6996SOL     OW32866   1.154   0.658  15.841
 6996SOL    HW132867   1.075   0.669  15.790
 6996SOL    HW232868   1.208   0.735  15.821
 6997SOL     OW32869   0.672   0.748  17.126
 6997SOL    HW132870   0.586   0.705  17.129
 6997SOL    HW232871   0.712   0.718  17.044
 6998SOL     OW32872   1.371   0.895  20.867
 6998SOL    HW132873   1.328   0.809  20.874
 6998SOL    HW232874   1.435   0.884  20.797
 6999SOL     OW32875   1.216   4.536  19.340
 6999SOL    HW132876   1.287   4.582  19.294
 6999SOL    HW232877   1.235   4.551  19.433
 7000SOL     OW32878   0.039   1.301   2.820
 7000SOL    HW132879   0.004   1.271   2.904
 7000SOL    HW232880   0.106   1.237   2.797
 7001SOL     OW32881   1.503   0.685   0.113
 7001SOL    HW132882   1.502   0.756   0.048
 7001SOL    HW232883   1.591   0.688   0.150
 7002SOL     OW32884   3.878   3.071  19.058
 7002SOL    HW132885   3.871   3.008  19.129
 7002SOL    HW232886   3.969   3.100  19.059
 7003SOL     OW32887   2.748   1.247   7.994
 7003SOL    HW132888   2.828   1.275   8.038
 7003SOL    HW232889   2.706   1.328   7.965
 7004SOL     OW32890   1.365   3.105  15.813
 7004SOL    HW132891   1.416   3.186  15.827
 7004SOL    HW232892   1.285   3.134  15.769
 7005SOL     OW32893   3.007   3.683   5.530
 7005SOL    HW132894   3.009   3.601   5.480
 7005SOL    HW232895   2.967   3.747   5.471
 7006SOL     OW32896   4.146   2.961  14.902
 7006SOL    HW132897   4.073   2.916  14.944
 7006SOL    HW232898   4.179   3.021  14.969
 7007SOL     OW32899   1.680   4.008  15.370
 7007SOL    HW132900   1.694   3.989  15.277
 7007SOL    HW232901   1.747   4.073  15.392
 7008SOL     OW32902   1.908   1.866   6.405
 7008SOL    HW132903   1.878   1.782   6.439
 7008SOL    HW232904   1.912   1.853   6.310
 7009SOL     OW32905   0.993   1.046  15.573
 7009SOL    HW132906   0.942   1.058  15.493
 7009SOL    HW232907   1.077   1.013  15.542
 7010SOL     OW32908   3.730   3.504   6.654
 7010SOL    HW132909   3.767   3.570   6.713
 7010SOL    HW232910   3.636   3.524   6.652
 7011SOL     OW32911   2.633   4.602   1.925
 7011SOL    HW132912   2.588   4.565   1.849
 7011SOL    HW232913   2.571   4.667   1.959
 7012SOL     OW32914   1.434   3.624  17.317
 7012SOL    HW132915   1.436   3.626  17.413
 7012SOL    HW232916   1.397   3.538  17.295
 7013SOL     OW32917   1.531   3.536  21.148
 7013SOL    HW132918   1.572   3.570  21.068
 7013SOL    HW232919   1.547   3.603  21.214
 7014SOL     OW32920   2.830   1.348  18.511
 7014SOL    HW132921   2.851   1.387  18.596
 7014SOL    HW232922   2.779   1.270  18.533
 7015SOL     OW32923   1.053   0.915  17.423
 7015SOL    HW132924   0.998   0.878  17.355
 7015SOL    HW232925   1.091   0.994  17.384
 7016SOL     OW32926   2.083   1.578  19.794
 7016SOL    HW132927   2.134   1.496  19.789
 7016SOL    HW232928   1.992   1.549  19.799
 7017SOL     OW32929   0.112   4.778  17.329
 7017SOL    HW132930   0.047   0.007  17.261
 7017SOL    HW232931   0.085   4.696  17.370
 7018SOL     OW32932   3.352   3.150   2.514
 7018SOL    HW132933   3.337   3.056   2.526
 7018SOL    HW232934   3.352   3.162   2.419
 7019SOL     OW32935   3.083   0.682  20.511
 7019SOL    HW132936   3.107   0.601  20.465
 7019SOL    HW232937   3.167   0.721  20.535
 7020SOL     OW32938   3.891   3.265  17.459
 7020SOL    HW132939   3.870   3.352  17.427
 7020SOL    HW232940   3.815   3.239  17.511
 7021SOL     OW32941   3.054   2.691  18.845
 7021SOL    HW132942   3.020   2.640  18.919
 7021SOL    HW232943   3.095   2.767  18.886
 7022SOL     OW32944   2.495   2.830  17.095
 7022SOL    HW132945   2.468   2.921  17.109
 7022SOL    HW232946   2.464   2.810  17.006
 7023SOL     OW32947   1.635   4.484   4.602
 7023SOL    HW132948   1.609   4.544   4.532
 7023SOL    HW232949   1.702   4.428   4.563
 7024SOL     OW32950   0.800   2.681   1.315
 7024SOL    HW132951   0.818   2.750   1.250
 7024SOL    HW232952   0.860   2.699   1.387
 7025SOL     OW32953   4.232   4.182  15.789
 7025SOL    HW132954   4.191   4.098  15.768
 7025SOL    HW232955   4.325   4.161  15.799
 7026SOL     OW32956   0.232   0.606   0.099
 7026SOL    HW132957   0.217   0.592   0.005
 7026SOL    HW232958   0.320   0.573   0.115
 7027SOL     OW32959   1.934   2.645   2.954
 7027SOL    HW132960   1.955   2.603   2.871
 7027SOL    HW232961   1.917   2.572   3.014
 7028SOL     OW32962   1.196   2.405  16.968
 7028SOL    HW132963   1.142   2.327  16.979
 7028SOL    HW232964   1.272   2.390  17.023
 7029SOL     OW32965   1.461   0.761  18.811
 7029SOL    HW132966   1.398   0.832  18.823
 7029SOL    HW232967   1.546   0.806  18.802
 7030SOL     OW32968   2.688   1.241   5.640
 7030SOL    HW132969   2.740   1.161   5.630
 7030SOL    HW232970   2.745   1.311   5.608
 7031SOL     OW32971   3.541   4.535  18.859
 7031SOL    HW132972   3.482   4.471  18.818
 7031SOL    HW232973   3.537   4.516  18.952
 7032SOL     OW32974   2.770   0.997   0.200
 7032SOL    HW132975   2.775   1.036   0.287
 7032SOL    HW232976   2.761   0.903   0.216
 7033SOL     OW32977   3.199   4.624  19.332
 7033SOL    HW132978   3.263   4.626  19.260
 7033SOL    HW232979   3.164   4.535  19.330
 7034SOL     OW32980   0.587   3.170  20.365
 7034SOL    HW132981   0.552   3.178  20.277
 7034SOL    HW232982   0.672   3.128  20.354
 7035SOL     OW32983   4.391   2.583   3.304
 7035SOL    HW132984   4.449   2.655   3.281
 7035SOL    HW232985   4.380   2.591   3.399
 7036SOL     OW32986   4.304   2.421   4.938
 7036SOL    HW132987   4.314   2.401   5.031
 7036SOL    HW232988   4.354   2.502   4.926
 7037SOL     OW32989   1.465   4.065   7.722
 7037SOL    HW132990   1.534   4.014   7.764
 7037SOL    HW232991   1.386   4.042   7.770
 7038SOL     OW32992   0.088   3.563  16.179
 7038SOL    HW132993   0.082   3.598  16.268
 7038SOL    HW232994   0.177   3.527  16.174
 7039SOL     OW32995   3.556   1.785   6.909
 7039SOL    HW132996   3.486   1.820   6.964
 7039SOL    HW232997   3.545   1.830   6.825
 7040SOL     OW32998   3.170   3.893  21.019
 7040SOL    HW132999   3.146   3.830  21.088
 7040SOL    HW233000   3.088   3.937  20.998
 7041SOL     OW33001   2.133   0.347  16.698
 7041SOL    HW133002   2.205   0.312  16.646
 7041SOL    HW233003   2.146   0.442  16.697
 7042SOL     OW33004   4.356   4.704  20.061
 7042SOL    HW133005   4.352   4.621  20.109
 7042SOL    HW233006   4.297   4.691  19.987
 7043SOL     OW33007   4.483   0.580  17.155
 7043SOL    HW133008   4.518   0.534  17.079
 7043SOL    HW233009   4.449   0.512  17.212
 7044SOL     OW33010   3.322   0.469  21.232
 7044SOL    HW133011   3.390   0.534  21.216
 7044SOL    HW233012   3.245   0.502  21.186
 7045SOL     OW33013   2.270   0.724   5.913
 7045SOL    HW133014   2.365   0.731   5.905
 7045SOL    HW233015   2.236   0.757   5.830
 7046SOL     OW33016   3.252   1.127  19.870
 7046SOL    HW133017   3.183   1.179  19.830
 7046SOL    HW233018   3.230   1.036  19.846
 7047SOL     OW33019   4.646   2.105  14.516
 7047SOL    HW133020   4.620   2.173  14.454
 7047SOL    HW233021   4.737   2.087  14.496
 7048SOL     OW33022   3.461   2.503  17.026
 7048SOL    HW133023   3.499   2.548  16.951
 7048SOL    HW233024   3.530   2.443  17.055
 7049SOL     OW33025   2.362   1.675   5.748
 7049SOL    HW133026   2.270   1.649   5.758
 7049SOL    HW233027   2.385   1.649   5.659
 7050SOL     OW33028   2.108   3.168  19.120
 7050SOL    HW133029   2.082   3.149  19.210
 7050SOL    HW233030   2.203   3.153  19.118
 7051SOL     OW33031   4.401   3.984  17.916
 7051SOL    HW133032   4.311   3.968  17.886
 7051SOL    HW233033   4.404   3.945  18.003
 7052SOL     OW33034   2.529   0.819  20.134
 7052SOL    HW133035   2.516   0.903  20.178
 7052SOL    HW233036   2.585   0.770  20.193
 7053SOL     OW33037   0.783   0.613   0.091
 7053SOL    HW133038   0.776   0.654   0.005
 7053SOL    HW233039   0.851   0.546   0.081
 7054SOL     OW33040   1.633   0.155  19.814
 7054SOL    HW133041   1.688   0.233  19.808
 7054SOL    HW233042   1.649   0.121  19.902
 7055SOL     OW33043   0.057   3.820   3.810
 7055SOL    HW133044   4.758   3.836   3.769
 7055SOL    HW233045   0.037   3.766   3.886
 7056SOL     OW33046   2.086   2.141   5.050
 7056SOL    HW133047   2.103   2.120   4.958
 7056SOL    HW233048   2.167   2.115   5.095
 7057SOL     OW33049   0.484   1.663   0.960
 7057SOL    HW133050   0.416   1.702   0.906
 7057SOL    HW233051   0.437   1.602   1.017
 7058SOL     OW33052   3.811   0.963  19.356
 7058SOL    HW133053   3.773   0.885  19.394
 7058SOL    HW233054   3.824   0.942  19.264
 7059SOL     OW33055   4.160   1.965  15.521
 7059SOL    HW133056   4.216   1.892  15.494
 7059SOL    HW233057   4.221   2.031  15.554
 7060SOL     OW33058   2.889   3.043  21.115
 7060SOL    HW133059   2.815   3.092  21.078
 7060SOL    HW233060   2.949   3.032  21.041
 7061SOL     OW33061   4.621   3.889   2.516
 7061SOL    HW133062   4.696   3.926   2.563
 7061SOL    HW233063   4.607   3.803   2.557
 7062SOL     OW33064   1.609   3.688  19.083
 7062SOL    HW133065   1.646   3.699  19.171
 7062SOL    HW233066   1.567   3.772  19.064
 7063SOL     OW33067   1.278   2.651  15.620
 7063SOL    HW133068   1.186   2.677  15.630
 7063SOL    HW233069   1.328   2.730  15.644
 7064SOL     OW33070   3.840   2.701  19.028
 7064SOL    HW133071   3.751   2.724  19.000
 7064SOL    HW233072   3.828   2.633  19.094
 7065SOL     OW33073   4.278   4.483   1.418
 7065SOL    HW133074   4.186   4.504   1.436
 7065SOL    HW233075   4.292   4.398   1.461
 7066SOL     OW33076   0.103   3.570   1.077
 7066SOL    HW133077   0.026   3.557   1.022
 7066SOL    HW233078   0.133   3.658   1.056
 7067SOL     OW33079   3.859   3.446  18.862
 7067SOL    HW133080   3.937   3.427  18.914
 7067SOL    HW233081   3.884   3.423  18.772
 7068SOL     OW33082   0.082   4.395  14.226
 7068SOL    HW133083   0.091   4.339  14.149
 7068SOL    HW233084   0.148   4.464  14.214
 7069SOL     OW33085   3.598   1.566  18.202
 7069SOL    HW133086   3.614   1.604  18.288
 7069SOL    HW233087   3.629   1.475  18.210
 7070SOL     OW33088   3.716   0.311  21.040
 7070SOL    HW133089   3.743   0.367  21.113
 7070SOL    HW233090   3.704   0.224  21.079
 7071SOL     OW33091   1.444   2.766  16.077
 7071SOL    HW133092   1.495   2.832  16.029
 7071SOL    HW233093   1.358   2.808  16.090
 7072SOL     OW33094   1.004   0.684  17.669
 7072SOL    HW133095   1.026   0.774  17.693
 7072SOL    HW233096   0.929   0.692  17.611
 7073SOL     OW33097   1.539   3.242   1.513
 7073SOL    HW133098   1.583   3.157   1.505
 7073SOL    HW233099   1.568   3.290   1.435
 7074SOL     OW33100   0.557   2.107   3.154
 7074SOL    HW133101   0.543   2.197   3.125
 7074SOL    HW233102   0.475   2.063   3.135
 7075SOL     OW33103   3.852   2.993   3.661
 7075SOL    HW133104   3.795   2.922   3.688
 7075SOL    HW233105   3.794   3.056   3.618
 7076SOL     OW33106   1.026   0.193   4.493
 7076SOL    HW133107   1.100   0.146   4.533
 7076SOL    HW233108   1.002   0.140   4.418
 7077SOL     OW33109   2.498   1.736   1.810
 7077SOL    HW133110   2.428   1.800   1.824
 7077SOL    HW233111   2.470   1.685   1.734
 7078SOL     OW33112   3.558   0.127  20.212
 7078SOL    HW133113   3.521   0.065  20.276
 7078SOL    HW233114   3.647   0.096  20.197
 7079SOL     OW33115   2.281   2.671   4.317
 7079SOL    HW133116   2.191   2.700   4.332
 7079SOL    HW233117   2.284   2.583   4.355
 7080SOL     OW33118   4.269   3.504   4.017
 7080SOL    HW133119   4.328   3.450   4.070
 7080SOL    HW233120   4.290   3.594   4.042
 7081SOL     OW33121   3.458   1.441  16.709
 7081SOL    HW133122   3.501   1.364  16.673
 7081SOL    HW233123   3.456   1.425  16.804
 7082SOL     OW33124   2.058   1.508  16.346
 7082SOL    HW133125   2.048   1.563  16.268
 7082SOL    HW233126   2.005   1.430  16.327
 7083SOL     OW33127   3.854   1.461  17.256
 7083SOL    HW133128   3.894   1.547  17.243
 7083SOL    HW233129   3.760   1.478  17.254
 7084SOL     OW33130   2.324   3.325  20.259
 7084SOL    HW133131   2.386   3.289  20.195
 7084SOL    HW233132   2.366   3.309  20.343
 7085SOL     OW33133   0.693   0.488   0.823
 7085SOL    HW133134   0.707   0.471   0.729
 7085SOL    HW233135   0.696   0.401   0.864
 7086SOL     OW33136   3.168   3.319   0.124
 7086SOL    HW133137   3.106   3.245   0.124
 7086SOL    HW233138   3.252   3.280   0.150
 7087SOL     OW33139   4.423   3.407  21.190
 7087SOL    HW133140   4.502   3.367  21.152
 7087SOL    HW233141   4.395   3.470  21.124
 7088SOL     OW33142   1.325   2.088   1.459
 7088SOL    HW133143   1.349   2.141   1.535
 7088SOL    HW233144   1.361   2.136   1.384
 7089SOL     OW33145   3.114   1.576  18.443
 7089SOL    HW133146   3.105   1.535  18.357
 7089SOL    HW233147   3.026   1.607  18.464
 7090SOL     OW33148   2.604   4.270   6.765
 7090SOL    HW133149   2.556   4.190   6.746
 7090SOL    HW233150   2.678   4.242   6.819
 7091SOL     OW33151   0.887   2.022  15.770
 7091SOL    HW133152   0.924   1.934  15.779
 7091SOL    HW233153   0.955   2.080  15.806
 7092SOL     OW33154   4.339   1.670   5.685
 7092SOL    HW133155   4.432   1.657   5.707
 7092SOL    HW233156   4.296   1.683   5.770
 7093SOL     OW33157   1.649   0.521   4.005
 7093SOL    HW133158   1.570   0.535   3.952
 7093SOL    HW233159   1.711   0.586   3.973
 7094SOL     OW33160   3.706   1.985  20.196
 7094SOL    HW133161   3.696   2.081  20.195
 7094SOL    HW233162   3.695   1.961  20.288
 7095SOL     OW33163   2.845   1.174  17.284
 7095SOL    HW133164   2.869   1.093  17.327
 7095SOL    HW233165   2.924   1.203  17.239
 7096SOL     OW33166   4.232   0.881  15.009
 7096SOL    HW133167   4.262   0.938  15.079
 7096SOL    HW233168   4.299   0.813  15.003
 7097SOL     OW33169   3.831   3.398  18.376
 7097SOL    HW133170   3.895   3.398  18.446
 7097SOL    HW233171   3.748   3.379  18.419
 7098SOL     OW33172   4.054   3.135  19.351
 7098SOL    HW133173   4.148   3.122  19.342
 7098SOL    HW233174   4.015   3.062  19.302
 7099SOL     OW33175   3.348   4.419   1.732
 7099SOL    HW133176   3.398   4.342   1.758
 7099SOL    HW233177   3.414   4.482   1.704
 7100SOL     OW33178   0.315   2.524  20.691
 7100SOL    HW133179   0.233   2.565  20.719
 7100SOL    HW233180   0.378   2.548  20.760
 7101SOL     OW33181   2.906   2.072  12.977
 7101SOL    HW133182   2.817   2.040  12.988
 7101SOL    HW233183   2.901   2.165  12.999
 7102SOL     OW33184   4.149   4.504   5.975
 7102SOL    HW133185   4.129   4.546   6.059
 7102SOL    HW233186   4.067   4.463   5.949
 7103SOL     OW33187   1.241   0.235  18.817
 7103SOL    HW133188   1.203   0.209  18.733
 7103SOL    HW233189   1.308   0.299  18.795
 7104SOL     OW33190   4.764   1.846  16.799
 7104SOL    HW133191   4.740   1.915  16.738
 7104SOL    HW233192   0.027   1.784  16.746
 7105SOL     OW33193   4.080   1.885   6.308
 7105SOL    HW133194   4.047   1.905   6.395
 7105SOL    HW233195   4.002   1.868   6.256
 7106SOL     OW33196   1.522   3.707  12.836
 7106SOL    HW133197   1.481   3.733  12.919
 7106SOL    HW233198   1.538   3.613  12.845
 7107SOL     OW33199   0.876   0.297   4.999
 7107SOL    HW133200   0.786   0.268   4.988
 7107SOL    HW233201   0.920   0.270   4.918
 7108SOL     OW33202   0.316   2.540   2.273
 7108SOL    HW133203   0.221   2.537   2.284
 7108SOL    HW233204   0.333   2.492   2.192
 7109SOL     OW33205   1.269   0.404  20.558
 7109SOL    HW133206   1.189   0.350  20.558
 7109SOL    HW233207   1.332   0.353  20.508
 7110SOL     OW33208   4.044   4.059  12.763
 7110SOL    HW133209   3.986   4.115  12.815
 7110SOL    HW233210   4.010   3.971  12.776
 7111SOL     OW33211   3.565   0.256  18.051
 7111SOL    HW133212   3.599   0.210  18.128
 7111SOL    HW233213   3.591   0.201  17.977
 7112SOL     OW33214   2.374   0.602  16.947
 7112SOL    HW133215   2.279   0.591  16.940
 7112SOL    HW233216   2.390   0.613  17.040
 7113SOL     OW33217   1.238   0.720   1.214
 7113SOL    HW133218   1.143   0.708   1.208
 7113SOL    HW233219   1.261   0.770   1.136
 7114SOL     OW33220   0.921   3.779   3.247
 7114SOL    HW133221   0.832   3.745   3.247
 7114SOL    HW233222   0.944   3.784   3.340
 7115SOL     OW33223   2.503   0.924   8.636
 7115SOL    HW133224   2.452   0.982   8.579
 7115SOL    HW233225   2.538   0.857   8.578
 7116SOL     OW33226   4.433   1.327   2.197
 7116SOL    HW133227   4.360   1.354   2.252
 7116SOL    HW233228   4.511   1.356   2.245
 7117SOL     OW33229   1.690   1.882   3.441
 7117SOL    HW133230   1.668   1.955   3.383
 7117SOL    HW233231   1.722   1.813   3.383
 7118SOL     OW33232   3.314   3.956  17.589
 7118SOL    HW133233   3.246   3.982  17.652
 7118SOL    HW233234   3.265   3.920  17.515
 7119SOL     OW33235   3.638   2.562   6.054
 7119SOL    HW133236   3.578   2.597   6.120
 7119SOL    HW233237   3.607   2.597   5.971
 7120SOL     OW33238   2.849   2.323  20.404
 7120SOL    HW133239   2.838   2.391  20.470
 7120SOL    HW233240   2.943   2.317  20.390
 7121SOL     OW33241   0.781   0.498  20.347
 7121SOL    HW133242   0.759   0.406  20.338
 7121SOL    HW233243   0.763   0.518  20.439
 7122SOL     OW33244   3.366   3.435   5.469
 7122SOL    HW133245   3.318   3.491   5.407
 7122SOL    HW233246   3.410   3.370   5.413
 7123SOL     OW33247   3.059   1.264  19.675
 7123SOL    HW133248   2.989   1.213  19.635
 7123SOL    HW233249   3.130   1.263  19.610
 7124SOL     OW33250   3.108   4.553   0.212
 7124SOL    HW133251   3.156   4.513   0.285
 7124SOL    HW233252   3.165   4.541   0.136
 7125SOL     OW33253   2.442   1.879  20.872
 7125SOL    HW133254   2.490   1.916  20.798
 7125SOL    HW233255   2.488   1.912  20.949
 7126SOL     OW33256   0.298   3.098   1.077
 7126SOL    HW133257   0.310   3.069   0.986
 7126SOL    HW233258   0.214   3.143   1.076
 7127SOL     OW33259   4.633   0.025   4.183
 7127SOL    HW133260   4.716   0.037   4.135
 7127SOL    HW233261   4.567   0.019   4.114
 7128SOL     OW33262   0.133   2.906  15.469
 7128SOL    HW133263   0.121   2.817  15.502
 7128SOL    HW233264   0.105   2.962  15.541
 7129SOL     OW33265   2.209   0.392   1.475
 7129SOL    HW133266   2.288   0.354   1.437
 7129SOL    HW233267   2.205   0.355   1.563
 7130SOL     OW33268   0.595   0.306   4.025
 7130SOL    HW133269   0.648   0.271   3.953
 7130SOL    HW233270   0.615   0.399   4.027
 7131SOL     OW33271   2.382   4.741   5.682
 7131SOL    HW133272   2.389   4.648   5.660
 7131SOL    HW233273   2.291   4.764   5.663
 7132SOL     OW33274   1.021   3.853  19.802
 7132SOL    HW133275   1.085   3.812  19.743
 7132SOL    HW233276   0.950   3.790  19.809
 7133SOL     OW33277   3.072   1.656   5.006
 7133SOL    HW133278   3.157   1.621   4.977
 7133SOL    HW233279   3.091   1.745   5.034
 7134SOL     OW33280   2.295   2.485   1.353
 7134SOL    HW133281   2.349   2.416   1.391
 7134SOL    HW233282   2.328   2.565   1.392
 7135SOL     OW33283   3.892   2.859   5.010
 7135SOL    HW133284   3.977   2.870   4.969
 7135SOL    HW233285   3.843   2.804   4.949
 7136SOL     OW33286   2.616   0.808  17.263
 7136SOL    HW133287   2.559   0.732  17.247
 7136SOL    HW233288   2.575   0.879  17.214
 7137SOL     OW33289   2.363   1.229  20.886
 7137SOL    HW133290   2.420   1.236  20.963
 7137SOL    HW233291   2.399   1.156  20.836
 7138SOL     OW33292   1.744   0.174  20.779
 7138SOL    HW133293   1.810   0.242  20.789
 7138SOL    HW233294   1.724   0.147  20.868
 7139SOL     OW33295   0.941   2.825   4.000
 7139SOL    HW133296   0.965   2.734   3.986
 7139SOL    HW233297   0.869   2.841   3.940
 7140SOL     OW33298   3.216   2.542  16.041
 7140SOL    HW133299   3.295   2.587  16.073
 7140SOL    HW233300   3.239   2.515  15.952
 7141SOL     OW33301   3.604   3.849   5.145
 7141SOL    HW133302   3.586   3.858   5.239
 7141SOL    HW233303   3.697   3.869   5.136
 7142SOL     OW33304   0.577   3.369   0.330
 7142SOL    HW133305   0.660   3.322   0.320
 7142SOL    HW233306   0.566   3.378   0.425
 7143SOL     OW33307   1.935   0.880   4.813
 7143SOL    HW133308   1.980   0.878   4.897
 7143SOL    HW233309   1.863   0.943   4.825
 7144SOL     OW33310   3.411   3.485   0.735
 7144SOL    HW133311   3.351   3.511   0.665
 7144SOL    HW233312   3.366   3.508   0.816
 7145SOL     OW33313   0.978   2.571   4.696
 7145SOL    HW133314   1.029   2.626   4.755
 7145SOL    HW233315   0.970   2.487   4.742
 7146SOL     OW33316   1.444   3.695  14.709
 7146SOL    HW133317   1.502   3.620  14.723
 7146SOL    HW233318   1.368   3.657  14.664
 7147SOL     OW33319   4.616   4.587  20.901
 7147SOL    HW133320   4.656   4.539  20.974
 7147SOL    HW233321   4.667   4.560  20.825
 7148SOL     OW33322   1.787   4.585   5.684
 7148SOL    HW133323   1.750   4.665   5.722
 7148SOL    HW233324   1.745   4.514   5.732
 7149SOL     OW33325   1.629   0.166  19.473
 7149SOL    HW133326   1.643   0.074  19.497
 7149SOL    HW233327   1.534   0.179  19.484
 7150SOL     OW33328   1.547   3.782  13.694
 7150SOL    HW133329   1.467   3.735  13.669
 7150SOL    HW233330   1.527   3.874  13.677
 7151SOL     OW33331   3.452   3.880  15.348
 7151SOL    HW133332   3.373   3.853  15.301
 7151SOL    HW233333   3.513   3.903  15.278
 7152SOL     OW33334   0.594   2.584  16.762
 7152SOL    HW133335   0.509   2.591  16.806
 7152SOL    HW233336   0.572   2.548  16.676
 7153SOL     OW33337   1.053   1.246   4.890
 7153SOL    HW133338   1.008   1.170   4.925
 7153SOL    HW233339   1.017   1.257   4.802
 7154SOL     OW33340   0.173   0.747  15.363
 7154SOL    HW133341   0.235   0.676  15.384
 7154SOL    HW233342   0.167   0.798  15.444
 7155SOL     OW33343   3.438   4.287  18.659
 7155SOL    HW133344   3.423   4.322  18.571
 7155SOL    HW233345   3.440   4.192  18.647
 7156SOL     OW33346   0.470   3.720   0.353
 7156SOL    HW133347   0.401   3.663   0.387
 7156SOL    HW233348   0.466   3.709   0.258
 7157SOL     OW33349   1.495   4.763   4.973
 7157SOL    HW133350   1.486   4.758   4.878
 7157SOL    HW233351   1.547   0.056   4.989
 7158SOL     OW33352   1.822   4.508  17.839
 7158SOL    HW133353   1.870   4.533  17.919
 7158SOL    HW233354   1.771   4.432  17.865
 7159SOL     OW33355   1.719   3.414  19.321
 7159SOL    HW133356   1.714   3.503  19.286
 7159SOL    HW233357   1.797   3.377  19.281
 7160SOL     OW33358   2.766   2.896  20.848
 7160SOL    HW133359   2.757   2.801  20.838
 7160SOL    HW233360   2.766   2.930  20.759
 7161SOL     OW33361   3.381   4.567  16.295
 7161SOL    HW133362   3.331   4.526  16.224
 7161SOL    HW233363   3.374   4.661  16.277
 7162SOL     OW33364   0.719   3.937   1.271
 7162SOL    HW133365   0.772   3.945   1.351
 7162SOL    HW233366   0.729   4.022   1.228
 7163SOL     OW33367   4.230   3.027  15.506
 7163SOL    HW133368   4.161   3.004  15.444
 7163SOL    HW233369   4.303   2.970  15.482
 7164SOL     OW33370   2.438   3.357   2.260
 7164SOL    HW133371   2.488   3.279   2.234
 7164SOL    HW233372   2.402   3.390   2.177
 7165SOL     OW33373   1.210   1.571   7.235
 7165SOL    HW133374   1.131   1.624   7.243
 7165SOL    HW233375   1.195   1.496   7.293
 7166SOL     OW33376   2.938   3.755   2.762
 7166SOL    HW133377   2.851   3.741   2.799
 7166SOL    HW233378   2.923   3.810   2.685
 7167SOL     OW33379   3.759   0.102   3.749
 7167SOL    HW133380   3.815   0.053   3.809
 7167SOL    HW233381   3.685   0.043   3.732
 7168SOL     OW33382   3.388   3.024  15.293
 7168SOL    HW133383   3.338   2.982  15.363
 7168SOL    HW233384   3.358   3.115  15.293
 7169SOL     OW33385   3.020   4.378  16.693
 7169SOL    HW133386   3.058   4.368  16.606
 7169SOL    HW233387   2.931   4.411  16.677
 7170SOL     OW33388   4.591   3.759  21.160
 7170SOL    HW133389   4.552   3.703  21.093
 7170SOL    HW233390   4.683   3.734  21.162
 7171SOL     OW33391   3.169   3.639  18.529
 7171SOL    HW133392   3.199   3.647  18.438
 7171SOL    HW233393   3.239   3.590  18.573
 7172SOL     OW33394   1.810   0.880   2.983
 7172SOL    HW133395   1.751   0.831   2.926
 7172SOL    HW233396   1.754   0.910   3.055
 7173SOL     OW33397   0.195   1.683   0.534
 7173SOL    HW133398   0.207   1.590   0.553
 7173SOL    HW233399   0.263   1.727   0.584
 7174SOL     OW33400   0.373   1.634   5.597
 7174SOL    HW133401   0.368   1.707   5.658
 7174SOL    HW233402   0.433   1.572   5.637
 7175SOL     OW33403   1.574   0.221   4.989
 7175SOL    HW133404   1.584   0.298   5.045
 7175SOL    HW233405   1.507   0.246   4.925
 7176SOL     OW33406   0.349   0.904   2.249
 7176SOL    HW133407   0.296   0.873   2.322
 7176SOL    HW233408   0.344   0.833   2.185
 7177SOL     OW33409   4.697   1.688   2.331
 7177SOL    HW133410   4.755   1.611   2.332
 7177SOL    HW233411   4.626   1.664   2.390
 7178SOL     OW33412   3.689   4.701  19.263
 7178SOL    HW133413   3.741   4.767  19.308
 7178SOL    HW233414   3.633   4.664  19.331
 7179SOL     OW33415   3.769   0.441  19.381
 7179SOL    HW133416   3.784   0.347  19.384
 7179SOL    HW233417   3.703   0.457  19.449
 7180SOL     OW33418   2.621   4.754   5.053
 7180SOL    HW133419   2.714   4.775   5.047
 7180SOL    HW233420   2.587   4.769   4.964
 7181SOL     OW33421   4.704   1.245  20.359
 7181SOL    HW133422   4.708   1.158  20.399
 7181SOL    HW233423   4.719   1.306  20.431
 7182SOL     OW33424   0.839   4.348  13.238
 7182SOL    HW133425   0.900   4.404  13.286
 7182SOL    HW233426   0.781   4.409  13.192
 7183SOL     OW33427   2.315   3.747  17.241
 7183SOL    HW133428   2.402   3.776  17.268
 7183SOL    HW233429   2.305   3.660  17.280
 7184SOL     OW33430   1.788   1.614  17.296
 7184SOL    HW133431   1.825   1.694  17.332
 7184SOL    HW233432   1.799   1.623  17.201
 7185SOL     OW33433   2.604   4.362  20.647
 7185SOL    HW133434   2.623   4.279  20.691
 7185SOL    HW233435   2.657   4.427  20.694
 7186SOL     OW33436   4.290   2.468  19.844
 7186SOL    HW133437   4.370   2.420  19.865
 7186SOL    HW233438   4.228   2.401  19.815
 7187SOL     OW33439   3.192   2.334  19.770
 7187SOL    HW133440   3.247   2.344  19.848
 7187SOL    HW233441   3.125   2.270  19.796
 7188SOL     OW33442   3.693   1.447   8.144
 7188SOL    HW133443   3.622   1.457   8.207
 7188SOL    HW233444   3.678   1.362   8.104
 7189SOL     OW33445   1.198   3.615  17.852
 7189SOL    HW133446   1.149   3.659  17.782
 7189SOL    HW233447   1.150   3.637  17.932
 7190SOL     OW33448   0.759   1.596   2.832
 7190SOL    HW133449   0.664   1.591   2.833
 7190SOL    HW233450   0.780   1.660   2.764
 7191SOL     OW33451   3.818   2.681  15.862
 7191SOL    HW133452   3.840   2.734  15.786
 7191SOL    HW233453   3.728   2.652  15.847
 7192SOL     OW33454   2.639   0.086   5.870
 7192SOL    HW133455   2.730   0.060   5.858
 7192SOL    HW233456   2.638   0.132   5.954
 7193SOL     OW33457   4.085   0.134  20.833
 7193SOL    HW133458   4.089   0.144  20.928
 7193SOL    HW233459   4.089   0.040  20.818
 7194SOL     OW33460   0.595   3.591   6.241
 7194SOL    HW133461   0.563   3.652   6.307
 7194SOL    HW233462   0.573   3.505   6.274
 7195SOL     OW33463   0.108   4.236   3.158
 7195SOL    HW133464   0.195   4.235   3.118
 7195SOL    HW233465   0.126   4.251   3.251
 7196SOL     OW33466   1.523   2.828   8.866
 7196SOL    HW133467   1.563   2.745   8.841
 7196SOL    HW233468   1.596   2.890   8.867
 7197SOL     OW33469   1.428   4.074   6.145
 7197SOL    HW133470   1.520   4.100   6.153
 7197SOL    HW233471   1.429   3.980   6.162
 7198SOL     OW33472   1.955   0.873   2.117
 7198SOL    HW133473   1.947   0.901   2.026
 7198SOL    HW233474   1.953   0.955   2.167
 7199SOL     OW33475   0.793   4.375   5.075
 7199SOL    HW133476   0.736   4.446   5.104
 7199SOL    HW233477   0.866   4.376   5.136
 7200SOL     OW33478   4.567   3.325  15.965
 7200SOL    HW133479   4.516   3.276  16.028
 7200SOL    HW233480   4.524   3.309  15.881
 7201SOL     OW33481   2.751   2.743  17.855
 7201SOL    HW133482   2.666   2.699  17.856
 7201SOL    HW233483   2.809   2.681  17.810
 7202SOL     OW33484   0.384   2.110   1.085
 7202SOL    HW133485   0.297   2.150   1.094
 7202SOL    HW233486   0.418   2.107   1.175
 7203SOL     OW33487   4.464   0.869   2.013
 7203SOL    HW133488   4.476   0.944   1.955
 7203SOL    HW233489   4.512   0.892   2.093
 7204SOL     OW33490   2.706   0.824  20.987
 7204SOL    HW133491   2.629   0.797  20.936
 7204SOL    HW233492   2.779   0.817  20.926
 7205SOL     OW33493   3.797   1.533  19.256
 7205SOL    HW133494   3.709   1.552  19.288
 7205SOL    HW233495   3.797   1.439  19.238
 7206SOL     OW33496   1.923   4.565  21.242
 7206SOL    HW133497   1.828   4.553  21.244
 7206SOL    HW233498   1.950   4.526  21.158
 7207SOL     OW33499   2.454   0.963   1.792
 7207SOL    HW133500   2.536   0.914   1.793
 7207SOL    HW233501   2.421   0.955   1.881
 7208SOL     OW33502   3.848   1.544   1.559
 7208SOL    HW133503   3.776   1.551   1.497
 7208SOL    HW233504   3.888   1.631   1.559
 7209SOL     OW33505   2.707   2.978  11.424
 7209SOL    HW133506   2.664   2.946  11.503
 7209SOL    HW233507   2.689   2.911  11.358
 7210SOL     OW33508   4.347   3.836  12.977
 7210SOL    HW133509   4.284   3.799  12.915
 7210SOL    HW233510   4.397   3.899  12.925
 7211SOL     OW33511   3.005   1.162  16.910
 7211SOL    HW133512   2.944   1.225  16.948
 7211SOL    HW233513   3.085   1.213  16.895
 7212SOL     OW33514   1.926   3.276   2.769
 7212SOL    HW133515   1.940   3.223   2.690
 7212SOL    HW233516   1.923   3.212   2.841
 7213SOL     OW33517   1.068   4.739  15.933
 7213SOL    HW133518   1.102   0.041  15.937
 7213SOL    HW233519   1.001   4.736  16.002
 7214SOL     OW33520   0.918   2.055  16.776
 7214SOL    HW133521   0.864   2.093  16.845
 7214SOL    HW233522   0.887   1.965  16.768
 7215SOL     OW33523   4.137   2.370  21.196
 7215SOL    HW133524   4.149   2.465  21.194
 7215SOL    HW233525   4.225   2.335  21.213
 7216SOL     OW33526   1.775   1.409  13.448
 7216SOL    HW133527   1.739   1.402  13.359
 7216SOL    HW233528   1.710   1.366  13.504
 7217SOL     OW33529   4.773   3.924   3.173
 7217SOL    HW133530   4.776   3.875   3.254
 7217SOL    HW233531   0.048   3.996   3.186
 7218SOL     OW33532   4.290   3.499  20.835
 7218SOL    HW133533   4.222   3.465  20.894
 7218SOL    HW233534   4.251   3.578  20.797
 7219SOL     OW33535   1.720   0.317   0.184
 7219SOL    HW133536   1.645   0.271   0.222
 7219SOL    HW233537   1.788   0.311   0.250
 7220SOL     OW33538   0.381   2.302   3.886
 7220SOL    HW133539   0.391   2.370   3.952
 7220SOL    HW233540   0.457   2.244   3.899
 7221SOL     OW33541   1.384   0.045   3.819
 7221SOL    HW133542   1.430   0.117   3.863
 7221SOL    HW233543   1.413   0.049   3.729
 7222SOL     OW33544   2.124   3.377  16.219
 7222SOL    HW133545   2.071   3.297  16.221
 7222SOL    HW233546   2.066   3.444  16.183
 7223SOL     OW33547   2.322   0.817   1.123
 7223SOL    HW133548   2.230   0.812   1.096
 7223SOL    HW233549   2.319   0.859   1.209
 7224SOL     OW33550   2.451   3.467   2.640
 7224SOL    HW133551   2.415   3.550   2.670
 7224SOL    HW233552   2.378   3.405   2.646
 7225SOL     OW33553   1.971   1.456  12.381
 7225SOL    HW133554   2.051   1.434  12.332
 7225SOL    HW233555   1.911   1.490  12.315
 7226SOL     OW33556   3.755   0.195   5.246
 7226SOL    HW133557   3.777   0.217   5.156
 7226SOL    HW233558   3.660   0.184   5.245
 7227SOL     OW33559   4.783   3.085  16.360
 7227SOL    HW133560   0.033   3.019  16.302
 7227SOL    HW233561   0.059   3.090  16.433
 7228SOL     OW33562   3.643   4.463  13.440
 7228SOL    HW133563   3.638   4.397  13.372
 7228SOL    HW233564   3.586   4.431  13.510
 7229SOL     OW33565   1.054   3.604  11.424
 7229SOL    HW133566   1.112   3.680  11.413
 7229SOL    HW233567   0.976   3.639  11.466
 7230SOL     OW33568   0.652   0.928   6.191
 7230SOL    HW133569   0.635   0.958   6.102
 7230SOL    HW233570   0.565   0.924   6.232
 7231SOL     OW33571   2.805   0.883   4.928
 7231SOL    HW133572   2.815   0.977   4.940
 7231SOL    HW233573   2.744   0.875   4.854
 7232SOL     OW33574   4.321   0.227   1.644
 7232SOL    HW133575   4.377   0.280   1.701
 7232SOL    HW233576   4.232   0.245   1.676
 7233SOL     OW33577   1.056   4.714  16.692
 7233SOL    HW133578   0.987   4.767  16.731
 7233SOL    HW233579   1.091   4.769  16.622
 7234SOL     OW33580   3.734   4.563   2.888
 7234SOL    HW133581   3.733   4.658   2.879
 7234SOL    HW233582   3.734   4.548   2.982
 7235SOL     OW33583   1.128   1.710  15.746
 7235SOL    HW133584   1.047   1.725  15.794
 7235SOL    HW233585   1.181   1.656  15.804
 7236SOL     OW33586   0.135   2.877  18.740
 7236SOL    HW133587   0.090   2.935  18.678
 7236SOL    HW233588   0.119   2.789  18.706
 7237SOL     OW33589   3.589   1.989  17.033
 7237SOL    HW133590   3.551   1.990  17.121
 7237SOL    HW233591   3.643   2.068  17.030
 7238SOL     OW33592   4.489   1.390  18.770
 7238SOL    HW133593   4.474   1.306  18.813
 7238SOL    HW233594   4.402   1.418  18.741
 7239SOL     OW33595   1.666   2.907  17.740
 7239SOL    HW133596   1.694   2.818  17.719
 7239SOL    HW233597   1.661   2.952  17.656
 7240SOL     OW33598   4.522   3.799   6.877
 7240SOL    HW133599   4.521   3.704   6.880
 7240SOL    HW233600   4.613   3.823   6.892
 7241SOL     OW33601   1.697   3.268  16.104
 7241SOL    HW133602   1.679   3.177  16.127
 7241SOL    HW233603   1.632   3.319  16.153
 7242SOL     OW33604   4.664   0.292   3.542
 7242SOL    HW133605   4.742   0.236   3.549
 7242SOL    HW233606   4.663   0.341   3.624
 7243SOL     OW33607   0.932   4.443   5.290
 7243SOL    HW133608   0.999   4.381   5.318
 7243SOL    HW233609   0.978   4.526   5.280
 7244SOL     OW33610   4.658   1.927  17.826
 7244SOL    HW133611   4.750   1.930  17.853
 7244SOL    HW233612   4.610   1.928  17.909
 7245SOL     OW33613   1.241   3.981  21.217
 7245SOL    HW133614   1.258   3.989  21.123
 7245SOL    HW233615   1.223   3.888  21.229
 7246SOL     OW33616   2.813   0.717   2.138
 7246SOL    HW133617   2.718   0.708   2.137
 7246SOL    HW233618   2.840   0.697   2.048
 7247SOL     OW33619   4.301   4.249  18.647
 7247SOL    HW133620   4.315   4.263  18.741
 7247SOL    HW233621   4.228   4.187  18.643
 7248SOL     OW33622   4.745   3.880  14.919
 7248SOL    HW133623   4.677   3.874  14.852
 7248SOL    HW233624   4.722   3.812  14.982
 7249SOL     OW33625   4.760   0.473  15.406
 7249SOL    HW133626   0.018   0.402  15.451
 7249SOL    HW233627   0.038   0.509  15.346
 7250SOL     OW33628   2.223   2.576  17.218
 7250SOL    HW133629   2.238   2.482  17.215
 7250SOL    HW233630   2.270   2.605  17.296
 7251SOL     OW33631   1.450   2.307   1.637
 7251SOL    HW133632   1.545   2.302   1.628
 7251SOL    HW233633   1.436   2.370   1.707
 7252SOL     OW33634   2.454   1.622   8.145
 7252SOL    HW133635   2.492   1.627   8.233
 7252SOL    HW233636   2.366   1.589   8.159
 7253SOL     OW33637   1.869   0.583  16.243
 7253SOL    HW133638   1.952   0.573  16.196
 7253SOL    HW233639   1.832   0.495  16.245
 7254SOL     OW33640   0.863   2.309   5.314
 7254SOL    HW133641   0.845   2.289   5.406
 7254SOL    HW233642   0.857   2.405   5.309
 7255SOL     OW33643   1.466   4.429   1.256
 7255SOL    HW133644   1.375   4.438   1.285
 7255SOL    HW233645   1.484   4.511   1.209
 7256SOL     OW33646   0.498   0.619  17.397
 7256SOL    HW133647   0.515   0.579  17.312
 7256SOL    HW233648   0.556   0.573  17.458
 7257SOL     OW33649   4.051   4.100   0.862
 7257SOL    HW133650   3.985   4.088   0.931
 7257SOL    HW233651   4.026   4.039   0.793
 7258SOL     OW33652   0.432   3.027  19.639
 7258SOL    HW133653   0.472   2.940  19.630
 7258SOL    HW233654   0.340   3.014  19.619
 7259SOL     OW33655   0.207   0.584  17.523
 7259SOL    HW133656   0.181   0.664  17.477
 7259SOL    HW233657   0.297   0.568  17.495
 7260SOL     OW33658   0.071   2.919   6.263
 7260SOL    HW133659   0.048   2.863   6.337
 7260SOL    HW233660   0.139   2.977   6.297
 7261SOL     OW33661   3.779   2.843  16.633
 7261SOL    HW133662   3.686   2.839  16.653
 7261SOL    HW233663   3.806   2.752  16.627
 7262SOL     OW33664   1.046   4.372  14.360
 7262SOL    HW133665   0.967   4.324  14.385
 7262SOL    HW233666   1.083   4.403  14.443
 7263SOL     OW33667   4.069   4.132   5.132
 7263SOL    HW133668   4.082   4.226   5.115
 7263SOL    HW233669   4.049   4.128   5.226
 7264SOL     OW33670   4.394   4.328   3.219
 7264SOL    HW133671   4.391   4.421   3.196
 7264SOL    HW233672   4.482   4.300   3.195
 7265SOL     OW33673   3.900   2.482   1.082
 7265SOL    HW133674   3.995   2.493   1.091
 7265SOL    HW233675   3.876   2.427   1.157
 7266SOL     OW33676   1.394   1.209   9.205
 7266SOL    HW133677   1.420   1.299   9.225
 7266SOL    HW233678   1.457   1.154   9.251
 7267SOL     OW33679   4.292   1.096  15.564
 7267SOL    HW133680   4.217   1.085  15.505
 7267SOL    HW233681   4.320   1.007  15.585
 7268SOL     OW33682   4.786   1.594   3.106
 7268SOL    HW133683   0.032   1.675   3.145
 7268SOL    HW233684   4.742   1.622   3.026
 7269SOL     OW33685   1.813   1.694  18.269
 7269SOL    HW133686   1.862   1.766  18.231
 7269SOL    HW233687   1.779   1.645  18.194
 7270SOL     OW33688   2.252   2.366  13.901
 7270SOL    HW133689   2.325   2.414  13.941
 7270SOL    HW233690   2.194   2.346  13.974
 7271SOL     OW33691   4.380   2.973   5.541
 7271SOL    HW133692   4.396   3.066   5.560
 7271SOL    HW233693   4.300   2.973   5.488
 7272SOL     OW33694   1.524   0.622  18.169
 7272SOL    HW133695   1.429   0.611  18.175
 7272SOL    HW233696   1.538   0.715  18.186
 7273SOL     OW33697   0.535   3.345   3.545
 7273SOL    HW133698   0.457   3.300   3.512
 7273SOL    HW233699   0.536   3.429   3.499
 7274SOL     OW33700   1.086   1.043  18.121
 7274SOL    HW133701   1.054   1.007  18.039
 7274SOL    HW233702   1.007   1.060  18.172
 7275SOL     OW33703   4.378   3.758  14.555
 7275SOL    HW133704   4.453   3.806  14.591
 7275SOL    HW233705   4.302   3.796  14.599
 7276SOL     OW33706   1.648   4.120  19.630
 7276SOL    HW133707   1.651   4.124  19.535
 7276SOL    HW233708   1.740   4.115  19.657
 7277SOL     OW33709   0.769   2.910  17.106
 7277SOL    HW133710   0.850   2.892  17.057
 7277SOL    HW233711   0.700   2.877  17.048
 7278SOL     OW33712   3.211   3.155  20.390
 7278SOL    HW133713   3.177   3.240  20.419
 7278SOL    HW233714   3.226   3.167  20.296
 7279SOL     OW33715   3.290   1.278  14.314
 7279SOL    HW133716   3.312   1.371  14.302
 7279SOL    HW233717   3.336   1.253  14.394
 7280SOL     OW33718   2.284   0.467   3.791
 7280SOL    HW133719   2.357   0.526   3.810
 7280SOL    HW233720   2.208   0.525   3.784
 7281SOL     OW33721   2.621   1.347  19.513
 7281SOL    HW133722   2.593   1.391  19.433
 7281SOL    HW233723   2.631   1.417  19.577
 7282SOL     OW33724   4.538   0.828   2.544
 7282SOL    HW133725   4.555   0.769   2.618
 7282SOL    HW233726   4.498   0.772   2.477
 7283SOL     OW33727   2.844   0.506   4.380
 7283SOL    HW133728   2.924   0.543   4.344
 7283SOL    HW233729   2.840   0.418   4.343
 7284SOL     OW33730   2.752   4.219   1.100
 7284SOL    HW133731   2.736   4.192   1.190
 7284SOL    HW233732   2.800   4.302   1.109
 7285SOL     OW33733   3.071   0.083  18.915
 7285SOL    HW133734   3.153   0.057  18.956
 7285SOL    HW233735   3.058   0.174  18.943
 7286SOL     OW33736   4.082   4.029  17.359
 7286SOL    HW133737   3.991   4.020  17.329
 7286SOL    HW233738   4.134   3.993  17.287
 7287SOL     OW33739   2.183   2.294  18.307
 7287SOL    HW133740   2.130   2.215  18.300
 7287SOL    HW233741   2.143   2.355  18.245
 7288SOL     OW33742   3.003   2.166   3.148
 7288SOL    HW133743   2.973   2.230   3.084
 7288SOL    HW233744   2.925   2.115   3.170
 7289SOL     OW33745   0.979   4.424   1.111
 7289SOL    HW133746   0.921   4.398   1.182
 7289SOL    HW233747   1.043   4.483   1.151
 7290SOL     OW33748   3.884   4.285  13.973
 7290SOL    HW133749   3.792   4.262  13.954
 7290SOL    HW233750   3.899   4.251  14.061
 7291SOL     OW33751   0.501   2.033   6.027
 7291SOL    HW133752   0.540   1.990   5.951
 7291SOL    HW233753   0.434   1.971   6.057
 7292SOL     OW33754   0.827   0.167  20.631
 7292SOL    HW133755   0.918   0.177  20.602
 7292SOL    HW233756   0.832   0.162  20.726
 7293SOL     OW33757   3.133   4.172  15.874
 7293SOL    HW133758   3.039   4.176  15.854
 7293SOL    HW233759   3.137   4.135  15.962
 7294SOL     OW33760   3.462   0.332   1.690
 7294SOL    HW133761   3.420   0.328   1.776
 7294SOL    HW233762   3.490   0.423   1.682
 7295SOL     OW33763   4.686   2.012  16.606
 7295SOL    HW133764   4.600   2.051  16.593
 7295SOL    HW233765   4.712   1.981  16.519
 7296SOL     OW33766   0.241   1.464  17.428
 7296SOL    HW133767   0.196   1.524  17.487
 7296SOL    HW233768   0.210   1.489  17.340
 7297SOL     OW33769   0.409   0.130  14.921
 7297SOL    HW133770   0.385   0.063  14.984
 7297SOL    HW233771   0.505   0.127  14.917
 7298SOL     OW33772   0.751   4.668   2.173
 7298SOL    HW133773   0.716   4.622   2.249
 7298SOL    HW233774   0.674   4.706   2.130
 7299SOL     OW33775   0.516   0.536   5.148
 7299SOL    HW133776   0.526   0.571   5.060
 7299SOL    HW233777   0.494   0.612   5.202
 7300SOL     OW33778   0.606   0.893  13.368
 7300SOL    HW133779   0.597   0.842  13.288
 7300SOL    HW233780   0.551   0.848  13.432
 7301SOL     OW33781   4.684   0.443   5.431
 7301SOL    HW133782   4.744   0.394   5.374
 7301SOL    HW233783   4.731   0.452   5.514
 7302SOL     OW33784   1.911   4.148  19.870
 7302SOL    HW133785   1.965   4.082  19.914
 7302SOL    HW233786   1.916   4.125  19.778
 7303SOL     OW33787   0.471   3.181  16.416
 7303SOL    HW133788   0.422   3.262  16.432
 7303SOL    HW233789   0.457   3.129  16.495
 7304SOL     OW33790   3.277   1.136  15.279
 7304SOL    HW133791   3.263   1.229  15.257
 7304SOL    HW233792   3.238   1.126  15.365
 7305SOL     OW33793   3.138   2.108   2.695
 7305SOL    HW133794   3.184   2.115   2.779
 7305SOL    HW233795   3.111   2.017   2.689
 7306SOL     OW33796   0.470   0.177  18.789
 7306SOL    HW133797   0.539   0.243  18.792
 7306SOL    HW233798   0.463   0.144  18.878
 7307SOL     OW33799   4.486   1.560  15.203
 7307SOL    HW133800   4.459   1.599  15.286
 7307SOL    HW233801   4.448   1.472  15.205
 7308SOL     OW33802   4.114   2.784   5.991
 7308SOL    HW133803   4.037   2.727   5.987
 7308SOL    HW233804   4.169   2.756   5.918
 7309SOL     OW33805   4.281   4.568  19.631
 7309SOL    HW133806   4.337   4.571  19.709
 7309SOL    HW233807   4.338   4.535  19.561
 7310SOL     OW33808   0.816   2.674  20.353
 7310SOL    HW133809   0.738   2.717  20.387
 7310SOL    HW233810   0.790   2.582  20.343
 7311SOL     OW33811   2.366   4.561  21.176
 7311SOL    HW133812   2.371   4.481  21.125
 7311SOL    HW233813   2.367   4.531   0.023
 7312SOL     OW33814   3.500   0.590   6.924
 7312SOL    HW133815   3.560   0.659   6.895
 7312SOL    HW233816   3.466   0.553   6.842
 7313SOL     OW33817   3.846   2.724  15.280
 7313SOL    HW133818   3.823   2.633  15.259
 7313SOL    HW233819   3.764   2.771  15.274
 7314SOL     OW33820   0.235   4.627   2.205
 7314SOL    HW133821   0.245   4.696   2.271
 7314SOL    HW233822   0.313   4.573   2.215
 7315SOL     OW33823   3.047   4.382  19.165
 7315SOL    HW133824   3.008   4.295  19.175
 7315SOL    HW233825   3.046   4.399  19.071
 7316SOL     OW33826   3.219   1.418  18.997
 7316SOL    HW133827   3.212   1.341  18.940
 7316SOL    HW233828   3.215   1.382  19.086
 7317SOL     OW33829   2.610   1.162  16.855
 7317SOL    HW133830   2.585   1.249  16.823
 7317SOL    HW233831   2.683   1.179  16.914
 7318SOL     OW33832   4.086   2.892   1.563
 7318SOL    HW133833   4.157   2.864   1.504
 7318SOL    HW233834   4.110   2.855   1.648
 7319SOL     OW33835   4.478   3.079  18.391
 7319SOL    HW133836   4.493   3.172  18.378
 7319SOL    HW233837   4.490   3.040  18.305
 7320SOL     OW33838   0.632   0.172   4.379
 7320SOL    HW133839   0.673   0.188   4.294
 7320SOL    HW233840   0.612   0.078   4.380
 7321SOL     OW33841   4.733   3.527   8.064
 7321SOL    HW133842   4.700   3.520   8.154
 7321SOL    HW233843   0.028   3.479   8.066
 7322SOL     OW33844   4.321   3.425  17.415
 7322SOL    HW133845   4.268   3.393  17.488
 7322SOL    HW233846   4.300   3.367  17.342
 7323SOL     OW33847   3.028   0.386  19.739
 7323SOL    HW133848   3.048   0.456  19.676
 7323SOL    HW233849   2.939   0.406  19.768
 7324SOL     OW33850   2.675   4.022   1.676
 7324SOL    HW133851   2.729   4.027   1.597
 7324SOL    HW233852   2.593   3.983   1.647
 7325SOL     OW33853   0.428   0.915  20.962
 7325SOL    HW133854   0.349   0.949  20.919
 7325SOL    HW233855   0.494   0.983  20.949
 7326SOL     OW33856   3.026   4.653   4.811
 7326SOL    HW133857   3.075   4.576   4.839
 7326SOL    HW233858   3.085   4.699   4.751
 7327SOL     OW33859   0.872   1.162  17.507
 7327SOL    HW133860   0.933   1.114  17.563
 7327SOL    HW233861   0.820   1.094  17.464
 7328SOL     OW33862   2.492   3.399   0.283
 7328SOL    HW133863   2.493   3.489   0.315
 7328SOL    HW233864   2.522   3.406   0.192
 7329SOL     OW33865   0.205   4.125  12.845
 7329SOL    HW133866   0.191   4.219  12.853
 7329SOL    HW233867   0.140   4.085  12.903
 7330SOL     OW33868   0.669   2.027   0.858
 7330SOL    HW133869   0.748   2.036   0.805
 7330SOL    HW233870   0.666   2.108   0.909
 7331SOL     OW33871   4.231   3.884   0.568
 7331SOL    HW133872   4.250   3.915   0.480
 7331SOL    HW233873   4.175   3.952   0.606
 7332SOL     OW33874   3.496   3.465   4.684
 7332SOL    HW133875   3.523   3.391   4.630
 7332SOL    HW233876   3.578   3.503   4.716
 7333SOL     OW33877   1.426   0.717  15.620
 7333SOL    HW133878   1.488   0.656  15.582
 7333SOL    HW233879   1.390   0.671  15.696
 7334SOL     OW33880   4.168   0.587  17.315
 7334SOL    HW133881   4.152   0.680  17.301
 7334SOL    HW233882   4.081   0.547  17.313
 7335SOL     OW33883   0.638   0.512   0.490
 7335SOL    HW133884   0.720   0.464   0.477
 7335SOL    HW233885   0.584   0.452   0.543
 7336SOL     OW33886   4.244   4.087   4.503
 7336SOL    HW133887   4.252   3.992   4.505
 7336SOL    HW233888   4.333   4.119   4.487
 7337SOL     OW33889   1.382   3.950  20.950
 7337SOL    HW133890   1.421   3.923  20.867
 7337SOL    HW233891   1.456   3.965  21.008
 7338SOL     OW33892   2.824   4.615  16.917
 7338SOL    HW133893   2.780   4.562  16.851
 7338SOL    HW233894   2.762   4.685  16.937
 7339SOL     OW33895   0.801   3.924  15.083
 7339SOL    HW133896   0.804   3.842  15.035
 7339SOL    HW233897   0.720   3.966  15.054
 7340SOL     OW33898   0.369   2.095  19.374
 7340SOL    HW133899   0.337   2.030  19.437
 7340SOL    HW233900   0.411   2.162  19.428
 7341SOL     OW33901   1.974   2.966   1.979
 7341SOL    HW133902   1.894   3.012   1.953
 7341SOL    HW233903   2.017   2.944   1.896
 7342SOL     OW33904   4.277   2.194  17.967
 7342SOL    HW133905   4.325   2.260  18.017
 7342SOL    HW233906   4.235   2.244  17.897
 7343SOL     OW33907   0.213   3.548   2.459
 7343SOL    HW133908   0.135   3.498   2.434
 7343SOL    HW233909   0.281   3.482   2.471
 7344SOL     OW33910   1.523   3.202  13.862
 7344SOL    HW133911   1.604   3.252  13.853
 7344SOL    HW233912   1.531   3.132  13.798
 7345SOL     OW33913   2.574   1.174  16.205
 7345SOL    HW133914   2.653   1.147  16.252
 7345SOL    HW233915   2.539   1.093  16.168
 7346SOL     OW33916   2.981   4.402   5.873
 7346SOL    HW133917   2.955   4.345   5.946
 7346SOL    HW233918   2.951   4.489   5.899
 7347SOL     OW33919   0.042   1.676   7.822
 7347SOL    HW133920   0.091   1.598   7.850
 7347SOL    HW233921   0.060   1.740   7.891
 7348SOL     OW33922   3.849   0.518  17.421
 7348SOL    HW133923   3.836   0.579  17.349
 7348SOL    HW233924   3.770   0.526  17.474
 7349SOL     OW33925   0.758   4.467   6.037
 7349SOL    HW133926   0.701   4.527   6.085
 7349SOL    HW233927   0.816   4.431   6.103
 7350SOL     OW33928   4.050   0.478  14.134
 7350SOL    HW133929   4.071   0.492  14.042
 7350SOL    HW233930   3.978   0.538  14.152
 7351SOL     OW33931   0.321   4.273  14.071
 7351SOL    HW133932   0.385   4.314  14.129
 7351SOL    HW233933   0.367   4.198  14.034
 7352SOL     OW33934   2.971   0.036   0.258
 7352SOL    HW133935   3.016   4.758   0.204
 7352SOL    HW233936   2.902   0.071   0.201
 7353SOL     OW33937   0.934   3.413  17.924
 7353SOL    HW133938   0.864   3.477  17.914
 7353SOL    HW233939   0.955   3.416  18.018
 7354SOL     OW33940   2.434   1.725   2.711
 7354SOL    HW133941   2.453   1.817   2.692
 7354SOL    HW233942   2.351   1.727   2.759
 7355SOL     OW33943   1.643   4.785   6.768
 7355SOL    HW133944   1.715   0.060   6.781
 7355SOL    HW233945   1.566   0.045   6.801
 7356SOL     OW33946   0.822   0.748  19.969
 7356SOL    HW133947   0.783   0.829  19.938
 7356SOL    HW233948   0.782   0.733  20.054
 7357SOL     OW33949   0.449   1.510  14.745
 7357SOL    HW133950   0.466   1.441  14.681
 7357SOL    HW233951   0.394   1.469  14.811
 7358SOL     OW33952   1.633   2.120   0.446
 7358SOL    HW133953   1.553   2.172   0.439
 7358SOL    HW233954   1.632   2.087   0.536
 7359SOL     OW33955   0.944   1.420  16.896
 7359SOL    HW133956   0.896   1.451  16.819
 7359SOL    HW233957   0.978   1.335  16.870
 7360SOL     OW33958   4.620   4.099   5.880
 7360SOL    HW133959   4.711   4.078   5.858
 7360SOL    HW233960   4.624   4.189   5.913
 7361SOL     OW33961   3.360   2.840   1.064
 7361SOL    HW133962   3.284   2.892   1.088
 7361SOL    HW233963   3.374   2.858   0.971
 7362SOL     OW33964   1.846   0.186   6.799
 7362SOL    HW133965   1.933   0.157   6.825
 7362SOL    HW233966   1.856   0.212   6.707
 7363SOL     OW33967   2.407   0.358   2.280
 7363SOL    HW133968   2.344   0.375   2.350
 7363SOL    HW233969   2.474   0.304   2.321
 7364SOL     OW33970   4.341   1.680   7.591
 7364SOL    HW133971   4.377   1.746   7.532
 7364SOL    HW233972   4.283   1.627   7.536
 7365SOL     OW33973   3.335   2.880  20.833
 7365SOL    HW133974   3.318   2.953  20.892
 7365SOL    HW233975   3.311   2.912  20.746
 7366SOL     OW33976   3.666   0.104  19.054
 7366SOL    HW133977   3.672   0.057  19.138
 7366SOL    HW233978   3.575   0.095  19.028
 7367SOL     OW33979   2.872   1.510  19.210
 7367SOL    HW133980   2.910   1.551  19.288
 7367SOL    HW233981   2.790   1.556  19.196
 7368SOL     OW33982   0.214   3.305   8.640
 7368SOL    HW133983   0.195   3.222   8.598
 7368SOL    HW233984   0.251   3.360   8.571
 7369SOL     OW33985   1.573   3.381  19.618
 7369SOL    HW133986   1.530   3.377  19.704
 7369SOL    HW233987   1.603   3.472  19.612
 7370SOL     OW33988   1.778   3.953  15.110
 7370SOL    HW133989   1.838   4.028  15.103
 7370SOL    HW233990   1.834   3.880  15.136
 7371SOL     OW33991   2.900   1.935   4.261
 7371SOL    HW133992   2.903   1.974   4.348
 7371SOL    HW233993   2.807   1.935   4.237
 7372SOL     OW33994   2.164   1.574  15.914
 7372SOL    HW133995   2.138   1.505  15.853
 7372SOL    HW233996   2.223   1.531  15.976
 7373SOL     OW33997   1.906   3.110  15.939
 7373SOL    HW133998   1.876   3.194  15.974
 7373SOL    HW233999   1.976   3.083  15.999
 7374SOL     OW34000   4.285   1.216   6.117
 7374SOL    HW134001   4.358   1.215   6.056
 7374SOL    HW234002   4.325   1.199   6.202
 7375SOL     OW34003   3.917   1.201   5.005
 7375SOL    HW134004   3.989   1.154   4.963
 7375SOL    HW234005   3.865   1.236   4.933
 7376SOL     OW34006   2.443   0.940   6.103
 7376SOL    HW134007   2.442   0.889   6.184
 7376SOL    HW234008   2.495   1.017   6.124
 7377SOL     OW34009   3.655   3.486  17.691
 7377SOL    HW134010   3.614   3.520  17.612
 7377SOL    HW234011   3.599   3.516  17.763
 7378SOL     OW34012   1.564   4.041   7.014
 7378SOL    HW134013   1.562   4.134   6.993
 7378SOL    HW234014   1.629   4.033   7.084
 7379SOL     OW34015   1.712   4.129   1.081
 7379SOL    HW134016   1.773   4.066   1.120
 7379SOL    HW234017   1.745   4.214   1.107
 7380SOL     OW34018   4.317   1.590   4.683
 7380SOL    HW134019   4.330   1.517   4.622
 7380SOL    HW234020   4.239   1.635   4.650
 7381SOL     OW34021   0.130   4.621  18.125
 7381SOL    HW134022   0.096   4.698  18.170
 7381SOL    HW234023   0.062   4.598  18.061
 7382SOL     OW34024   2.038   1.476  17.451
 7382SOL    HW134025   2.039   1.418  17.528
 7382SOL    HW234026   1.961   1.531  17.463
 7383SOL     OW34027   0.333   4.710   0.514
 7383SOL    HW134028   0.304   4.692   0.603
 7383SOL    HW234029   0.296   0.009   0.493
 7384SOL     OW34030   3.965   0.390  14.843
 7384SOL    HW134031   3.947   0.480  14.873
 7384SOL    HW234032   3.882   0.344  14.855
 7385SOL     OW34033   0.927   3.067   3.318
 7385SOL    HW134034   0.877   3.064   3.399
 7385SOL    HW234035   0.902   3.150   3.278
 7386SOL     OW34036   4.000   3.842  19.616
 7386SOL    HW134037   4.028   3.928  19.646
 7386SOL    HW234038   3.977   3.794  19.696
 7387SOL     OW34039   1.017   0.166  17.722
 7387SOL    HW134040   0.942   0.136  17.773
 7387SOL    HW234041   0.983   0.239  17.670
 7388SOL     OW34042   2.238   1.098  18.215
 7388SOL    HW134043   2.276   1.186  18.203
 7388SOL    HW234044   2.181   1.107  18.291
 7389SOL     OW34045   3.798   0.304  16.432
 7389SOL    HW134046   3.888   0.338  16.439
 7389SOL    HW234047   3.790   0.244  16.506
 7390SOL     OW34048   0.649   0.153  18.364
 7390SOL    HW134049   0.655   0.171  18.458
 7390SOL    HW234050   0.569   0.100  18.355
 7391SOL     OW34051   2.601   1.867   5.463
 7391SOL    HW134052   2.681   1.815   5.459
 7391SOL    HW234053   2.613   1.934   5.397
 7392SOL     OW34054   1.981   0.218   4.558
 7392SOL    HW134055   2.058   0.223   4.501
 7392SOL    HW234056   1.983   0.299   4.609
 7393SOL     OW34057   3.707   3.028  16.926
 7393SOL    HW134058   3.687   2.936  16.942
 7393SOL    HW234059   3.763   3.054  16.999
 7394SOL     OW34060   0.122   1.222   4.671
 7394SOL    HW134061   0.110   1.157   4.602
 7394SOL    HW234062   0.040   1.221   4.721
 7395SOL     OW34063   2.079   4.761   2.165
 7395SOL    HW134064   2.019   0.026   2.219
 7395SOL    HW234065   2.032   4.746   2.083
 7396SOL     OW34066   2.237   1.593   4.112
 7396SOL    HW134067   2.295   1.656   4.070
 7396SOL    HW234068   2.281   1.509   4.101
 7397SOL     OW34069   1.888   2.291  11.727
 7397SOL    HW134070   1.813   2.348  11.745
 7397SOL    HW234071   1.965   2.345  11.744
 7398SOL     OW34072   4.032   1.663  16.707
 7398SOL    HW134073   4.068   1.662  16.618
 7398SOL    HW234074   4.089   1.605  16.757
 7399SOL     OW34075   2.143   0.539   6.084
 7399SOL    HW134076   2.060   0.582   6.101
 7399SOL    HW234077   2.199   0.607   6.047
 7400SOL     OW34078   3.469   3.915  20.301
 7400SOL    HW134079   3.450   3.823  20.281
 7400SOL    HW234080   3.489   3.915  20.395
 7401SOL     OW34081   3.236   4.635   3.320
 7401SOL    HW134082   3.328   4.641   3.346
 7401SOL    HW234083   3.238   4.598   3.232
 7402SOL     OW34084   4.308   1.191   8.998
 7402SOL    HW134085   4.342   1.103   8.986
 7402SOL    HW234086   4.333   1.238   8.918
 7403SOL     OW34087   2.556   1.562  17.570
 7403SOL    HW134088   2.466   1.575  17.543
 7403SOL    HW234089   2.591   1.496  17.510
 7404SOL     OW34090   1.466   3.932  19.101
 7404SOL    HW134091   1.441   3.980  19.180
 7404SOL    HW234092   1.507   3.998  19.045
 7405SOL     OW34093   4.177   2.857   4.965
 7405SOL    HW134094   4.196   2.946   4.998
 7405SOL    HW234095   4.257   2.807   4.984
 7406SOL     OW34096   4.049   1.365  19.738
 7406SOL    HW134097   3.983   1.393  19.802
 7406SOL    HW234098   4.051   1.269  19.747
 7407SOL     OW34099   2.727   2.511  18.869
 7407SOL    HW134100   2.763   2.594  18.837
 7407SOL    HW234101   2.670   2.480  18.799
 7408SOL     OW34102   3.030   2.857   7.923
 7408SOL    HW134103   3.080   2.938   7.909
 7408SOL    HW234104   2.956   2.884   7.979
 7409SOL     OW34105   1.006   4.782   4.268
 7409SOL    HW134106   1.094   4.747   4.280
 7409SOL    HW234107   0.950   4.704   4.263
 7410SOL     OW34108   3.191   3.310  18.607
 7410SOL    HW134109   3.095   3.305  18.612
 7410SOL    HW234110   3.221   3.236  18.659
 7411SOL     OW34111   3.060   4.072   1.126
 7411SOL    HW134112   3.001   4.041   1.195
 7411SOL    HW234113   3.070   4.165   1.143
 7412SOL     OW34114   4.435   3.199  16.170
 7412SOL    HW134115   4.421   3.120  16.223
 7412SOL    HW234116   4.357   3.252  16.185
 7413SOL     OW34117   1.237   4.483   2.877
 7413SOL    HW134118   1.268   4.430   2.951
 7413SOL    HW234119   1.308   4.477   2.813
 7414SOL     OW34120   1.096   0.029   5.359
 7414SOL    HW134121   1.017   0.081   5.372
 7414SOL    HW234122   1.087   4.779   5.272
 7415SOL     OW34123   4.232   1.779  13.884
 7415SOL    HW134124   4.265   1.867  13.901
 7415SOL    HW234125   4.290   1.722  13.933
 7416SOL     OW34126   3.354   2.868   0.558
 7416SOL    HW134127   3.337   2.948   0.508
 7416SOL    HW234128   3.385   2.805   0.493
 7417SOL     OW34129   3.595   3.253   1.493
 7417SOL    HW134130   3.588   3.288   1.582
 7417SOL    HW234131   3.507   3.263   1.456
 7418SOL     OW34132   1.425   3.923  17.557
 7418SOL    HW134133   1.452   3.978  17.631
 7418SOL    HW234134   1.396   3.985  17.490
 7419SOL     OW34135   4.243   4.579  16.880
 7419SOL    HW134136   4.155   4.562  16.848
 7419SOL    HW234137   4.280   4.492  16.896
 7420SOL     OW34138   3.271   1.411   6.231
 7420SOL    HW134139   3.196   1.357   6.207
 7420SOL    HW234140   3.341   1.380   6.174
 7421SOL     OW34141   2.665   0.319  20.366
 7421SOL    HW134142   2.727   0.280  20.427
 7421SOL    HW234143   2.609   0.374  20.421
 7422SOL     OW34144   4.713   0.418  12.442
 7422SOL    HW134145   4.726   0.490  12.503
 7422SOL    HW234146   4.667   0.351  12.492
 7423SOL     OW34147   3.325   2.119  16.286
 7423SOL    HW134148   3.399   2.067  16.319
 7423SOL    HW234149   3.288   2.160  16.365
 7424SOL     OW34150   4.244   2.638   2.653
 7424SOL    HW134151   4.210   2.652   2.564
 7424SOL    HW234152   4.330   2.599   2.639
 7425SOL     OW34153   3.029   3.544   0.723
 7425SOL    HW134154   3.008   3.476   0.659
 7425SOL    HW234155   3.034   3.499   0.807
 7426SOL     OW34156   1.766   0.341  16.213
 7426SOL    HW134157   1.691   0.286  16.236
 7426SOL    HW234158   1.842   0.290  16.240
 7427SOL     OW34159   1.034   3.837   3.491
 7427SOL    HW134160   1.047   3.813   3.583
 7427SOL    HW234161   1.122   3.848   3.456
 7428SOL     OW34162   4.424   1.697  16.358
 7428SOL    HW134163   4.474   1.660  16.430
 7428SOL    HW234164   4.490   1.732  16.298
 7429SOL     OW34165   0.248   4.100  20.571
 7429SOL    HW134166   0.250   4.191  20.600
 7429SOL    HW234167   0.196   4.054  20.637
 7430SOL     OW34168   1.600   3.246   0.103
 7430SOL    HW134169   1.566   3.279   0.020
 7430SOL    HW234170   1.621   3.155   0.086
 7431SOL     OW34171   3.095   1.571  20.922
 7431SOL    HW134172   3.157   1.519  20.871
 7431SOL    HW234173   3.067   1.640  20.861
 7432SOL     OW34174   0.547   0.020   6.055
 7432SOL    HW134175   0.524   4.757   5.977
 7432SOL    HW234176   0.482   4.781   6.121
 7433SOL     OW34177   3.369   4.163  16.989
 7433SOL    HW134178   3.368   4.135  17.081
 7433SOL    HW234179   3.442   4.225  16.984
 7434SOL     OW34180   4.028   0.078  14.912
 7434SOL    HW134181   4.027   0.114  15.001
 7434SOL    HW234182   4.014   0.154  14.856
 7435SOL     OW34183   2.604   3.338   8.789
 7435SOL    HW134184   2.647   3.391   8.856
 7435SOL    HW234185   2.599   3.250   8.827
 7436SOL     OW34186   0.798   2.997  20.280
 7436SOL    HW134187   0.887   3.031  20.290
 7436SOL    HW234188   0.809   2.903  20.268
 7437SOL     OW34189   4.469   2.846   5.245
 7437SOL    HW134190   4.511   2.911   5.188
 7437SOL    HW234191   4.488   2.877   5.334
 7438SOL     OW34192   2.418   4.384  19.673
 7438SOL    HW134193   2.347   4.444  19.695
 7438SOL    HW234194   2.497   4.428  19.705
 7439SOL     OW34195   0.088   0.820  18.714
 7439SOL    HW134196   0.177   0.804  18.682
 7439SOL    HW234197   0.067   0.908  18.680
 7440SOL     OW34198   1.491   2.862  19.591
 7440SOL    HW134199   1.471   2.829  19.503
 7440SOL    HW234200   1.437   2.941  19.600
 7441SOL     OW34201   3.824   2.078   4.793
 7441SOL    HW134202   3.827   2.010   4.861
 7441SOL    HW234203   3.742   2.061   4.746
 7442SOL     OW34204   0.721   2.749  19.912
 7442SOL    HW134205   0.802   2.733  19.960
 7442SOL    HW234206   0.720   2.682  19.844
 7443SOL     OW34207   2.868   1.642   4.326
 7443SOL    HW134208   2.890   1.722   4.278
 7443SOL    HW234209   2.876   1.667   4.418
 7444SOL     OW34210   0.432   4.627  17.699
 7444SOL    HW134211   0.492   4.700  17.684
 7444SOL    HW234212   0.490   4.550  17.704
 7445SOL     OW34213   2.473   2.454   0.451
 7445SOL    HW134214   2.552   2.472   0.399
 7445SOL    HW234215   2.414   2.411   0.389
 7446SOL     OW34216   4.038   1.873   2.705
 7446SOL    HW134217   4.038   1.780   2.683
 7446SOL    HW234218   4.026   1.918   2.621
 7447SOL     OW34219   0.297   3.799  15.854
 7447SOL    HW134220   0.294   3.728  15.790
 7447SOL    HW234221   0.353   3.865  15.813
 7448SOL     OW34222   3.366   1.378   4.572
 7448SOL    HW134223   3.285   1.371   4.623
 7448SOL    HW234224   3.415   1.299   4.594
 7449SOL     OW34225   1.901   3.071   3.313
 7449SOL    HW134226   1.921   3.137   3.378
 7449SOL    HW234227   1.881   2.992   3.363
 7450SOL     OW34228   3.813   2.824   2.831
 7450SOL    HW134229   3.883   2.760   2.829
 7450SOL    HW234230   3.855   2.905   2.862
 7451SOL     OW34231   2.668   0.328   4.782
 7451SOL    HW134232   2.722   0.404   4.761
 7451SOL    HW234233   2.718   0.253   4.750
 7452SOL     OW34234   0.676   4.540  18.893
 7452SOL    HW134235   0.650   4.622  18.851
 7452SOL    HW234236   0.631   4.472  18.843
 7453SOL     OW34237   1.173   2.058   5.086
 7453SOL    HW134238   1.193   1.965   5.088
 7453SOL    HW234239   1.235   2.097   5.147
 7454SOL     OW34240   1.909   3.835  16.598
 7454SOL    HW134241   1.925   3.812  16.689
 7454SOL    HW234242   1.829   3.790  16.574
 7455SOL     OW34243   3.750   1.503  16.963
 7455SOL    HW134244   3.802   1.489  16.884
 7455SOL    HW234245   3.766   1.595  16.986
 7456SOL     OW34246   1.607   2.455  15.683
 7456SOL    HW134247   1.567   2.390  15.741
 7456SOL    HW234248   1.541   2.468  15.614
 7457SOL     OW34249   1.656   4.161  19.371
 7457SOL    HW134250   1.710   4.121  19.303
 7457SOL    HW234251   1.677   4.254  19.366
 7458SOL     OW34252   0.439   4.578  18.528
 7458SOL    HW134253   0.474   4.510  18.470
 7458SOL    HW234254   0.375   4.624  18.475
 7459SOL     OW34255   0.993   0.368  18.959
 7459SOL    HW134256   1.020   0.318  18.882
 7459SOL    HW234257   0.977   0.301  19.027
 7460SOL     OW34258   3.882   4.093  21.157
 7460SOL    HW134259   3.962   4.138  21.184
 7460SOL    HW234260   3.901   4.000  21.170
 7461SOL     OW34261   0.468   1.126  16.115
 7461SOL    HW134262   0.464   1.208  16.066
 7461SOL    HW234263   0.546   1.082  16.081
 7462SOL     OW34264   4.193   2.547  20.177
 7462SOL    HW134265   4.200   2.452  20.166
 7462SOL    HW234266   4.123   2.572  20.116
 7463SOL     OW34267   2.869   2.109  20.598
 7463SOL    HW134268   2.875   2.194  20.554
 7463SOL    HW234269   2.945   2.106  20.655
 7464SOL     OW34270   3.199   3.621   2.726
 7464SOL    HW134271   3.208   3.555   2.795
 7464SOL    HW234272   3.111   3.657   2.739
 7465SOL     OW34273   0.835   2.691   0.071
 7465SOL    HW134274   0.827   2.707  21.222
 7465SOL    HW234275   0.847   2.597   0.079
 7466SOL     OW34276   4.642   3.759  13.062
 7466SOL    HW134277   4.575   3.763  13.130
 7466SOL    HW234278   4.636   3.671  13.027
 7467SOL     OW34279   2.386   0.969  16.148
 7467SOL    HW134280   2.381   0.920  16.230
 7467SOL    HW234281   2.337   0.917  16.085
 7468SOL     OW34282   0.480   3.396  19.179
 7468SOL    HW134283   0.462   3.381  19.272
 7468SOL    HW234284   0.573   3.419  19.176
 7469SOL     OW34285   4.278   3.142  21.227
 7469SOL    HW134286   4.311   3.094  21.151
 7469SOL    HW234287   4.318   3.229  21.221
 7470SOL     OW34288   0.560   2.560   1.360
 7470SOL    HW134289   0.615   2.629   1.324
 7470SOL    HW234290   0.595   2.479   1.321
 7471SOL     OW34291   3.163   1.514  15.858
 7471SOL    HW134292   3.186   1.537  15.948
 7471SOL    HW234293   3.158   1.598  15.812
 7472SOL     OW34294   2.525   2.196  16.268
 7472SOL    HW134295   2.435   2.164  16.278
 7472SOL    HW234296   2.563   2.190  16.355
 7473SOL     OW34297   1.853   1.158  18.787
 7473SOL    HW134298   1.810   1.072  18.790
 7473SOL    HW234299   1.831   1.193  18.701
 7474SOL     OW34300   3.879   2.127  14.991
 7474SOL    HW134301   3.957   2.143  14.938
 7474SOL    HW234302   3.893   2.178  15.071
 7475SOL     OW34303   3.936   3.072   2.933
 7475SOL    HW134304   4.030   3.073   2.952
 7475SOL    HW234305   3.908   3.163   2.943
 7476SOL     OW34306   1.079   1.511   4.585
 7476SOL    HW134307   1.003   1.521   4.528
 7476SOL    HW234308   1.123   1.432   4.553
 7477SOL     OW34309   2.660   2.260   3.426
 7477SOL    HW134310   2.714   2.325   3.471
 7477SOL    HW234311   2.723   2.206   3.378
 7478SOL     OW34312   2.155   1.668   8.857
 7478SOL    HW134313   2.183   1.603   8.921
 7478SOL    HW234314   2.223   1.665   8.789
 7479SOL     OW34315   1.151   0.326   8.613
 7479SOL    HW134316   1.084   0.341   8.680
 7479SOL    HW234317   1.185   0.413   8.593
 7480SOL     OW34318   1.467   3.014   0.873
 7480SOL    HW134319   1.546   3.029   0.821
 7480SOL    HW234320   1.416   3.095   0.863
 7481SOL     OW34321   2.492   1.310  18.707
 7481SOL    HW134322   2.430   1.240  18.725
 7481SOL    HW234323   2.578   1.267  18.710
 7482SOL     OW34324   2.960   3.901  15.789
 7482SOL    HW134325   2.897   3.853  15.844
 7482SOL    HW234326   2.916   3.984  15.769
 7483SOL     OW34327   3.940   3.110   1.812
 7483SOL    HW134328   3.923   3.183   1.872
 7483SOL    HW234329   4.032   3.120   1.787
 7484SOL     OW34330   4.585   3.292   5.028
 7484SOL    HW134331   4.658   3.332   4.981
 7484SOL    HW234332   4.578   3.204   4.990
 7485SOL     OW34333   2.319   0.650   0.779
 7485SOL    HW134334   2.371   0.598   0.842
 7485SOL    HW234335   2.317   0.596   0.700
 7486SOL     OW34336   4.014   4.132  19.683
 7486SOL    HW134337   4.024   4.209  19.627
 7486SOL    HW234338   4.091   4.133  19.739
 7487SOL     OW34339   1.419   1.410  16.492
 7487SOL    HW134340   1.382   1.471  16.429
 7487SOL    HW234341   1.493   1.457  16.530
 7488SOL     OW34342   1.439   1.549   1.512
 7488SOL    HW134343   1.400   1.525   1.596
 7488SOL    HW234344   1.366   1.544   1.450
 7489SOL     OW34345   3.323   4.720   0.909
 7489SOL    HW134346   3.298   0.025   0.905
 7489SOL    HW234347   3.357   4.700   0.821
 7490SOL     OW34348   0.354   1.590  18.877
 7490SOL    HW134349   0.277   1.620  18.829
 7490SOL    HW234350   0.428   1.617  18.823
 7491SOL     OW34351   4.240   0.916  18.153
 7491SOL    HW134352   4.224   0.821  18.157
 7491SOL    HW234353   4.251   0.943  18.244
 7492SOL     OW34354   2.557   3.275   0.938
 7492SOL    HW134355   2.583   3.219   0.863
 7492SOL    HW234356   2.628   3.338   0.946
 7493SOL     OW34357   1.965   4.149   0.131
 7493SOL    HW134358   1.971   4.122   0.039
 7493SOL    HW234359   1.877   4.187   0.139
 7494SOL     OW34360   3.502   4.249   6.346
 7494SOL    HW134361   3.542   4.336   6.345
 7494SOL    HW234362   3.520   4.215   6.433
 7495SOL     OW34363   2.083   0.330   5.504
 7495SOL    HW134364   2.172   0.316   5.471
 7495SOL    HW234365   2.079   0.280   5.585
 7496SOL     OW34366   2.632   1.073  17.173
 7496SOL    HW134367   2.599   1.163  17.168
 7496SOL    HW234368   2.717   1.081  17.216
 7497SOL     OW34369   2.231   0.439   2.506
 7497SOL    HW134370   2.138   0.422   2.493
 7497SOL    HW234371   2.237   0.533   2.521
 7498SOL     OW34372   2.934   2.095   4.526
 7498SOL    HW134373   2.869   2.164   4.539
 7498SOL    HW234374   3.014   2.141   4.502
 7499SOL     OW34375   4.522   2.921  17.934
 7499SOL    HW134376   4.593   2.982  17.914
 7499SOL    HW234377   4.448   2.977  17.960
 7500SOL     OW34378   0.899   1.888   1.847
 7500SOL    HW134379   0.991   1.896   1.873
 7500SOL    HW234380   0.895   1.936   1.764
 7501SOL     OW34381   1.815   1.286  15.580
 7501SOL    HW134382   1.724   1.264  15.556
 7501SOL    HW234383   1.856   1.202  15.597
 7502SOL     OW34384   0.301   1.045   5.193
 7502SOL    HW134385   0.233   1.112   5.200
 7502SOL    HW234386   0.258   0.965   5.226
 7503SOL     OW34387   4.193   1.063  20.259
 7503SOL    HW134388   4.264   1.062  20.323
 7503SOL    HW234389   4.217   1.132  20.197
 7504SOL     OW34390   1.030   4.613   2.782
 7504SOL    HW134391   1.106   4.572   2.823
 7504SOL    HW234392   1.059   4.632   2.692
 7505SOL     OW34393   4.306   1.156   7.349
 7505SOL    HW134394   4.332   1.142   7.440
 7505SOL    HW234395   4.210   1.157   7.351
 7506SOL     OW34396   1.087   3.962  19.390
 7506SOL    HW134397   1.093   3.931  19.299
 7506SOL    HW234398   1.164   3.925  19.433
 7507SOL     OW34399   1.687   3.526   3.507
 7507SOL    HW134400   1.661   3.542   3.597
 7507SOL    HW234401   1.780   3.504   3.512
 7508SOL     OW34402   2.514   2.140  15.498
 7508SOL    HW134403   2.561   2.106  15.421
 7508SOL    HW234404   2.542   2.084  15.570
 7509SOL     OW34405   2.699   4.662  19.050
 7509SOL    HW134406   2.662   4.744  19.080
 7509SOL    HW234407   2.698   4.605  19.127
 7510SOL     OW34408   2.897   4.343   4.001
 7510SOL    HW134409   2.807   4.313   4.000
 7510SOL    HW234410   2.934   4.306   4.081
 7511SOL     OW34411   4.392   1.654   1.566
 7511SOL    HW134412   4.383   1.599   1.488
 7511SOL    HW234413   4.350   1.603   1.636
 7512SOL     OW34414   4.418   0.337  18.085
 7512SOL    HW134415   4.404   0.398  18.157
 7512SOL    HW234416   4.479   0.382  18.027
 7513SOL     OW34417   2.820   2.969  13.740
 7513SOL    HW134418   2.908   2.980  13.704
 7513SOL    HW234419   2.791   2.883  13.710
 7514SOL     OW34420   0.016   4.675   6.879
 7514SOL    HW134421   0.077   4.741   6.848
 7514SOL    HW234422   4.716   4.710   6.859
 7515SOL     OW34423   2.724   2.297   5.181
 7515SOL    HW134424   2.809   2.334   5.155
 7515SOL    HW234425   2.683   2.366   5.233
 7516SOL     OW34426   4.108   3.509   3.215
 7516SOL    HW134427   4.098   3.555   3.298
 7516SOL    HW234428   4.167   3.564   3.163
 7517SOL     OW34429   2.372   1.434  15.551
 7517SOL    HW134430   2.384   1.512  15.604
 7517SOL    HW234431   2.405   1.363  15.607
 7518SOL     OW34432   3.178   2.605   0.047
 7518SOL    HW134433   3.169   2.511   0.061
 7518SOL    HW234434   3.093   2.641   0.072
 7519SOL     OW34435   2.865   2.507   2.810
 7519SOL    HW134436   2.781   2.462   2.814
 7519SOL    HW234437   2.925   2.451   2.860
 7520SOL     OW34438   2.745   4.123  16.187
 7520SOL    HW134439   2.784   4.078  16.261
 7520SOL    HW234440   2.661   4.156  16.220
 7521SOL     OW34441   0.440   3.088  18.281
 7521SOL    HW134442   0.501   3.144  18.234
 7521SOL    HW234443   0.456   3.107  18.373
 7522SOL     OW34444   3.538   3.657  15.091
 7522SOL    HW134445   3.469   3.708  15.133
 7522SOL    HW234446   3.512   3.566  15.103
 7523SOL     OW34447   3.896   1.960   4.438
 7523SOL    HW134448   3.860   1.972   4.525
 7523SOL    HW234449   3.820   1.943   4.382
 7524SOL     OW34450   3.993   0.964   8.395
 7524SOL    HW134451   3.944   0.881   8.394
 7524SOL    HW234452   4.065   0.950   8.334
 7525SOL     OW34453   3.019   2.590   3.792
 7525SOL    HW134454   3.024   2.547   3.706
 7525SOL    HW234455   3.013   2.517   3.854
 7526SOL     OW34456   1.365   0.694   0.335
 7526SOL    HW134457   1.405   0.701   0.248
 7526SOL    HW234458   1.434   0.654   0.390
 7527SOL     OW34459   1.092   3.887   5.005
 7527SOL    HW134460   1.174   3.847   5.034
 7527SOL    HW234461   1.113   3.979   4.991
 7528SOL     OW34462   3.785   2.372   6.178
 7528SOL    HW134463   3.717   2.435   6.156
 7528SOL    HW234464   3.863   2.404   6.132
 7529SOL     OW34465   3.026   1.332  20.411
 7529SOL    HW134466   3.072   1.301  20.488
 7529SOL    HW234467   2.933   1.318  20.431
 7530SOL     OW34468   3.730   1.640  16.639
 7530SOL    HW134469   3.823   1.630  16.618
 7530SOL    HW234470   3.728   1.704  16.710
 7531SOL     OW34471   2.767   1.077   4.483
 7531SOL    HW134472   2.747   1.028   4.404
 7531SOL    HW234473   2.854   1.114   4.467
 7532SOL     OW34474   3.002   4.529   1.405
 7532SOL    HW134475   3.024   4.501   1.493
 7532SOL    HW234476   3.014   4.624   1.406
 7533SOL     OW34477   3.581   4.194  19.471
 7533SOL    HW134478   3.657   4.236  19.432
 7533SOL    HW234479   3.522   4.265  19.492
 7534SOL     OW34480   0.120   3.961   6.441
 7534SOL    HW134481   0.207   3.938   6.407
 7534SOL    HW234482   0.127   3.947   6.536
 7535SOL     OW34483   3.501   2.538   0.546
 7535SOL    HW134484   3.413   2.524   0.511
 7535SOL    HW234485   3.554   2.564   0.471
 7536SOL     OW34486   3.946   1.738   0.085
 7536SOL    HW134487   3.931   1.736  21.235
 7536SOL    HW234488   3.870   1.785   0.120
 7537SOL     OW34489   1.758   4.014   3.982
 7537SOL    HW134490   1.808   3.991   4.060
 7537SOL    HW234491   1.694   4.079   4.012
 7538SOL     OW34492   1.099   4.601   8.028
 7538SOL    HW134493   1.063   4.519   8.063
 7538SOL    HW234494   1.029   4.636   7.972
 7539SOL     OW34495   4.299   0.090   4.984
 7539SOL    HW134496   4.383   0.136   4.990
 7539SOL    HW234497   4.285   0.056   5.072
 7540SOL     OW34498   2.932   2.350   3.937
 7540SOL    HW134499   2.979   2.275   3.899
 7540SOL    HW234500   2.923   2.328   4.029
 7541SOL     OW34501   4.142   2.956   7.580
 7541SOL    HW134502   4.203   2.929   7.648
 7541SOL    HW234503   4.168   2.906   7.503
 7542SOL     OW34504   1.395   4.679   1.113
 7542SOL    HW134505   1.459   4.746   1.138
 7542SOL    HW234506   1.341   4.721   1.046
 7543SOL     OW34507   4.574   0.860  18.828
 7543SOL    HW134508   4.571   0.941  18.878
 7543SOL    HW234509   4.638   0.805  18.874
 7544SOL     OW34510   0.970   4.220  19.254
 7544SOL    HW134511   0.920   4.251  19.329
 7544SOL    HW234512   0.933   4.133  19.235
 7545SOL     OW34513   0.769   1.807  15.253
 7545SOL    HW134514   0.761   1.818  15.347
 7545SOL    HW234515   0.684   1.834  15.218
 7546SOL     OW34516   4.535   0.101   1.249
 7546SOL    HW134517   4.478   0.150   1.190
 7546SOL    HW234518   4.623   0.134   1.231
 7547SOL     OW34519   1.436   0.855   6.170
 7547SOL    HW134520   1.344   0.831   6.179
 7547SOL    HW234521   1.438   0.915   6.095
 7548SOL     OW34522   3.998   4.494  20.294
 7548SOL    HW134523   3.935   4.566  20.300
 7548SOL    HW234524   3.946   4.418  20.268
 7549SOL     OW34525   4.542   2.363   6.241
 7549SOL    HW134526   4.499   2.373   6.327
 7549SOL    HW234527   4.634   2.347   6.262
 7550SOL     OW34528   0.928   4.448  17.012
 7550SOL    HW134529   0.961   4.509  17.077
 7550SOL    HW234530   0.856   4.403  17.055
 7551SOL     OW34531   2.007   3.827  19.966
 7551SOL    HW134532   2.101   3.837  19.948
 7551SOL    HW234533   1.968   3.810  19.880
 7552SOL     OW34534   0.188   1.108   2.380
 7552SOL    HW134535   0.220   1.177   2.321
 7552SOL    HW234536   0.266   1.056   2.400
 7553SOL     OW34537   1.122   4.774  20.361
 7553SOL    HW134538   1.216   4.757  20.369
 7553SOL    HW234539   1.112   0.031  20.276
 7554SOL     OW34540   2.875   1.226  20.027
 7554SOL    HW134541   2.907   1.147  19.983
 7554SOL    HW234542   2.815   1.193  20.094
 7555SOL     OW34543   3.233   3.378  17.720
 7555SOL    HW134544   3.215   3.387  17.814
 7555SOL    HW234545   3.152   3.407  17.678
 7556SOL     OW34546   3.895   2.900   6.931
 7556SOL    HW134547   3.893   2.912   6.836
 7556SOL    HW234548   3.966   2.957   6.961
 7557SOL     OW34549   2.695   4.419   2.672
 7557SOL    HW134550   2.682   4.351   2.738
 7557SOL    HW234551   2.742   4.488   2.718
 7558SOL     OW34552   3.863   0.017  18.000
 7558SOL    HW134553   3.913   4.762  17.930
 7558SOL    HW234554   3.772   0.016  17.969
 7559SOL     OW34555   4.713   0.077  20.561
 7559SOL    HW134556   4.629   0.069  20.515
 7559SOL    HW234557   4.689   0.081  20.653
 7560SOL     OW34558   1.196   0.136   5.732
 7560SOL    HW134559   1.138   0.194   5.682
 7560SOL    HW234560   1.210   0.061   5.675
 7561SOL     OW34561   4.120   3.877  18.210
 7561SOL    HW134562   4.097   3.793  18.171
 7561SOL    HW234563   4.216   3.880  18.204
 7562SOL     OW34564   1.135   1.760  10.886
 7562SOL    HW134565   1.183   1.822  10.831
 7562SOL    HW234566   1.204   1.705  10.925
 7563SOL     OW34567   2.287   3.504   9.070
 7563SOL    HW134568   2.292   3.587   9.022
 7563SOL    HW234569   2.316   3.526   9.158
 7564SOL     OW34570   0.050   3.201  20.886
 7564SOL    HW134571   0.028   3.108  20.885
 7564SOL    HW234572   0.135   3.206  20.842
 7565SOL     OW34573   2.677   0.126  17.119
 7565SOL    HW134574   2.738   0.170  17.060
 7565SOL    HW234575   2.596   0.120  17.068
 7566SOL     OW34576   1.796   1.550  20.928
 7566SOL    HW134577   1.780   1.643  20.945
 7566SOL    HW234578   1.746   1.505  20.995
 7567SOL     OW34579   1.406   2.373  17.146
 7567SOL    HW134580   1.468   2.389  17.075
 7567SOL    HW234581   1.452   2.401  17.225
 7568SOL     OW34582   2.864   4.651   7.365
 7568SOL    HW134583   2.908   4.652   7.280
 7568SOL    HW234584   2.794   4.716   7.356
 7569SOL     OW34585   1.036   2.563   5.512
 7569SOL    HW134586   1.067   2.475   5.534
 7569SOL    HW234587   1.082   2.621   5.573
 7570SOL     OW34588   3.431   2.031  15.242
 7570SOL    HW134589   3.495   2.042  15.312
 7570SOL    HW234590   3.466   2.082  15.169
 7571SOL     OW34591   1.141   0.657   5.299
 7571SOL    HW134592   1.105   0.595   5.236
 7571SOL    HW234593   1.235   0.638   5.299
 7572SOL     OW34594   2.877   0.158   1.004
 7572SOL    HW134595   2.845   0.225   0.944
 7572SOL    HW234596   2.913   0.090   0.948
 7573SOL     OW34597   2.180   2.839   3.961
 7573SOL    HW134598   2.127   2.807   3.888
 7573SOL    HW234599   2.269   2.812   3.938
 7574SOL     OW34600   2.138   0.201  20.208
 7574SOL    HW134601   2.225   0.164  20.224
 7574SOL    HW234602   2.102   0.214  20.296
 7575SOL     OW34603   2.970   0.826   5.156
 7575SOL    HW134604   3.050   0.874   5.180
 7575SOL    HW234605   2.918   0.889   5.107
 7576SOL     OW34606   2.045   0.411  17.225
 7576SOL    HW134607   2.027   0.505  17.220
 7576SOL    HW234608   1.993   0.372  17.155
 7577SOL     OW34609   0.868   0.102  16.786
 7577SOL    HW134610   0.884   0.170  16.852
 7577SOL    HW234611   0.856   0.151  16.705
 7578SOL     OW34612   3.619   3.067   0.245
 7578SOL    HW134613   3.634   2.973   0.252
 7578SOL    HW234614   3.698   3.107   0.281
 7579SOL     OW34615   3.506   0.028   5.499
 7579SOL    HW134616   3.495   0.088   5.425
 7579SOL    HW234617   3.421   0.029   5.543
 7580SOL     OW34618   1.978   2.082   4.637
 7580SOL    HW134619   2.057   2.086   4.691
 7580SOL    HW234620   1.977   2.164   4.588
 7581SOL     OW34621   4.573   1.530   5.178
 7581SOL    HW134622   4.566   1.460   5.113
 7581SOL    HW234623   4.487   1.533   5.219
 7582SOL     OW34624   0.394   3.004   0.713
 7582SOL    HW134625   0.448   3.052   0.775
 7582SOL    HW234626   0.366   3.070   0.649
 7583SOL     OW34627   2.674   2.817   1.966
 7583SOL    HW134628   2.661   2.906   1.999
 7583SOL    HW234629   2.592   2.794   1.922
 7584SOL     OW34630   1.588   2.410  19.792
 7584SOL    HW134631   1.600   2.505  19.796
 7584SOL    HW234632   1.508   2.398  19.742
 7585SOL     OW34633   2.289   3.048   3.337
 7585SOL    HW134634   2.235   3.109   3.387
 7585SOL    HW234635   2.375   3.090   3.332
 7586SOL     OW34636   1.522   2.946   1.192
 7586SOL    HW134637   1.556   3.025   1.150
 7586SOL    HW234638   1.437   2.931   1.150
 7587SOL     OW34639   3.575   0.927   0.835
 7587SOL    HW134640   3.493   0.974   0.847
 7587SOL    HW234641   3.558   0.839   0.870
 7588SOL     OW34642   0.395   4.108   6.604
 7588SOL    HW134643   0.352   4.141   6.525
 7588SOL    HW234644   0.326   4.058   6.649
 7589SOL     OW34645   2.751   0.071  16.604
 7589SOL    HW134646   2.703   0.017  16.542
 7589SOL    HW234647   2.685   0.127  16.644
 7590SOL     OW34648   3.372   4.055   0.375
 7590SOL    HW134649   3.320   4.079   0.452
 7590SOL    HW234650   3.462   4.055   0.406
 7591SOL     OW34651   0.523   1.261   3.308
 7591SOL    HW134652   0.496   1.329   3.246
 7591SOL    HW234653   0.496   1.295   3.394
 7592SOL     OW34654   4.393   1.058  21.212
 7592SOL    HW134655   4.422   1.122   0.033
 7592SOL    HW234656   4.300   1.046  21.232
 7593SOL     OW34657   0.834   4.692  20.096
 7593SOL    HW134658   0.891   4.621  20.127
 7593SOL    HW234659   0.752   4.679  20.143
 7594SOL     OW34660   0.730   4.523  20.524
 7594SOL    HW134661   0.818   4.534  20.488
 7594SOL    HW234662   0.732   4.437  20.566
 7595SOL     OW34663   4.658   0.406   4.480
 7595SOL    HW134664   4.686   0.396   4.571
 7595SOL    HW234665   4.707   0.338   4.433
 7596SOL     OW34666   4.387   0.429  16.044
 7596SOL    HW134667   4.381   0.412  15.950
 7596SOL    HW234668   4.480   0.427  16.063
 7597SOL     OW34669   4.589   2.654  15.350
 7597SOL    HW134670   4.539   2.604  15.285
 7597SOL    HW234671   4.673   2.671  15.308
 7598SOL     OW34672   4.705   2.985  18.579
 7598SOL    HW134673   4.680   3.017  18.493
 7598SOL    HW234674   4.638   2.921  18.601
 7599SOL     OW34675   2.198   1.561  18.834
 7599SOL    HW134676   2.156   1.476  18.822
 7599SOL    HW234677   2.278   1.555  18.782
 7600SOL     OW34678   1.076   1.657  19.455
 7600SOL    HW134679   1.163   1.625  19.433
 7600SOL    HW234680   1.045   1.699  19.375
 7601SOL     OW34681   1.641   1.102  15.786
 7601SOL    HW134682   1.736   1.101  15.777
 7601SOL    HW234683   1.624   1.064  15.872
 7602SOL     OW34684   0.897   3.640   2.869
 7602SOL    HW134685   0.902   3.562   2.925
 7602SOL    HW234686   0.980   3.640   2.821
 7603SOL     OW34687   4.624   1.508   3.352
 7603SOL    HW134688   4.602   1.567   3.279
 7603SOL    HW234689   4.662   1.565   3.418
 7604SOL     OW34690   1.675   3.289  18.561
 7604SOL    HW134691   1.739   3.258  18.624
 7604SOL    HW234692   1.654   3.378  18.590
 7605SOL     OW34693   3.796   4.022   7.499
 7605SOL    HW134694   3.886   4.047   7.480
 7605SOL    HW234695   3.798   3.927   7.508
 7606SOL     OW34696   4.756   2.942  20.326
 7606SOL    HW134697   4.784   2.879  20.259
 7606SOL    HW234698   4.729   2.887  20.400
 7607SOL     OW34699   1.204   0.253   6.249
 7607SOL    HW134700   1.178   0.278   6.160
 7607SOL    HW234701   1.298   0.271   6.253
 7608SOL     OW34702   2.490   0.754   4.307
 7608SOL    HW134703   2.424   0.819   4.332
 7608SOL    HW234704   2.569   0.806   4.289
 7609SOL     OW34705   0.883   3.145   3.699
 7609SOL    HW134706   0.836   3.071   3.737
 7609SOL    HW234707   0.974   3.130   3.724
 7610SOL     OW34708   3.317   2.429   1.539
 7610SOL    HW134709   3.314   2.472   1.625
 7610SOL    HW234710   3.238   2.459   1.495
 7611SOL     OW34711   4.166   1.110   1.858
 7611SOL    HW134712   4.150   1.049   1.930
 7611SOL    HW234713   4.213   1.183   1.899
 7612SOL     OW34714   2.195   2.455   2.938
 7612SOL    HW134715   2.223   2.546   2.943
 7612SOL    HW234716   2.223   2.417   3.021
 7613SOL     OW34717   2.411   3.957  18.830
 7613SOL    HW134718   2.473   3.902  18.879
 7613SOL    HW234719   2.367   3.896  18.771
 7614SOL     OW34720   3.685   2.212   4.076
 7614SOL    HW134721   3.604   2.162   4.069
 7614SOL    HW234722   3.754   2.151   4.049
 7615SOL     OW34723   1.525   2.826  20.340
 7615SOL    HW134724   1.433   2.828  20.315
 7615SOL    HW234725   1.562   2.904  20.300
 7616SOL     OW34726   3.689   2.143   6.808
 7616SOL    HW134727   3.773   2.188   6.808
 7616SOL    HW234728   3.656   2.153   6.897
 7617SOL     OW34729   3.222   2.992   4.223
 7617SOL    HW134730   3.242   3.027   4.136
 7617SOL    HW234731   3.130   3.015   4.238
 7618SOL     OW34732   1.956   1.854  17.281
 7618SOL    HW134733   2.022   1.914  17.316
 7618SOL    HW234734   2.005   1.798  17.220
 7619SOL     OW34735   0.803   2.700   2.587
 7619SOL    HW134736   0.889   2.683   2.625
 7619SOL    HW234737   0.817   2.775   2.528
 7620SOL     OW34738   2.235   1.249   1.246
 7620SOL    HW134739   2.207   1.231   1.335
 7620SOL    HW234740   2.206   1.172   1.196
 7621SOL     OW34741   2.628   1.363  14.339
 7621SOL    HW134742   2.649   1.431  14.276
 7621SOL    HW234743   2.673   1.389  14.419
 7622SOL     OW34744   0.341   1.820   6.062
 7622SOL    HW134745   0.402   1.746   6.053
 7622SOL    HW234746   0.256   1.785   6.036
 7623SOL     OW34747   2.158   1.962  16.102
 7623SOL    HW134748   2.225   1.976  16.170
 7623SOL    HW234749   2.198   1.997  16.022
 7624SOL     OW34750   0.207   3.786  14.907
 7624SOL    HW134751   0.184   3.738  14.828
 7624SOL    HW234752   0.136   3.848  14.920
 7625SOL     OW34753   1.526   2.092  17.817
 7625SOL    HW134754   1.535   2.052  17.903
 7625SOL    HW234755   1.485   2.025  17.762
 7626SOL     OW34756   0.485   2.248  19.570
 7626SOL    HW134757   0.516   2.338  19.571
 7626SOL    HW234758   0.559   2.198  19.535
 7627SOL     OW34759   2.538   0.262  17.525
 7627SOL    HW134760   2.445   0.282  17.536
 7627SOL    HW234761   2.548   0.243  17.432
 7628SOL     OW34762   2.698   3.563  17.631
 7628SOL    HW134763   2.760   3.628  17.663
 7628SOL    HW234764   2.624   3.614  17.598
 7629SOL     OW34765   4.091   3.857   2.753
 7629SOL    HW134766   4.168   3.881   2.806
 7629SOL    HW234767   4.079   3.764   2.770
 7630SOL     OW34768   4.358   3.909  17.309
 7630SOL    HW134769   4.395   3.943  17.390
 7630SOL    HW234770   4.285   3.854  17.336
 7631SOL     OW34771   1.233   2.022  20.353
 7631SOL    HW134772   1.154   1.993  20.308
 7631SOL    HW234773   1.274   2.084  20.294
 7632SOL     OW34774   3.603   3.628  17.281
 7632SOL    HW134775   3.598   3.720  17.255
 7632SOL    HW234776   3.544   3.621  17.357
 7633SOL     OW34777   1.312   4.627   4.649
 7633SOL    HW134778   1.355   4.566   4.709
 7633SOL    HW234779   1.247   4.573   4.603
 7634SOL     OW34780   0.940   4.647   3.856
 7634SOL    HW134781   0.962   4.555   3.838
 7634SOL    HW234782   1.012   4.678   3.911
 7635SOL     OW34783   1.760   3.479   1.107
 7635SOL    HW134784   1.825   3.528   1.058
 7635SOL    HW234785   1.731   3.410   1.046
 7636SOL     OW34786   3.620   1.281   5.151
 7636SOL    HW134787   3.612   1.193   5.115
 7636SOL    HW234788   3.647   1.268   5.241
 7637SOL     OW34789   2.602   4.694   0.459
 7637SOL    HW134790   2.644   4.772   0.494
 7637SOL    HW234791   2.675   4.635   0.438
 7638SOL     OW34792   4.435   0.407   5.486
 7638SOL    HW134793   4.530   0.415   5.478
 7638SOL    HW234794   4.400   0.488   5.447
 7639SOL     OW34795   2.223   0.998  14.576
 7639SOL    HW134796   2.150   0.984  14.637
 7639SOL    HW234797   2.223   1.092  14.559
 7640SOL     OW34798   2.872   4.185   4.715
 7640SOL    HW134799   2.924   4.146   4.644
 7640SOL    HW234800   2.937   4.227   4.772
 7641SOL     OW34801   0.826   1.871  19.629
 7641SOL    HW134802   0.875   1.909  19.702
 7641SOL    HW234803   0.817   1.942  19.566
 7642SOL     OW34804   2.179   2.719   6.009
 7642SOL    HW134805   2.243   2.749   5.944
 7642SOL    HW234806   2.230   2.665   6.069
 7643SOL     OW34807   1.358   1.317  13.873
 7643SOL    HW134808   1.422   1.343  13.940
 7643SOL    HW234809   1.404   1.251  13.820
 7644SOL     OW34810   4.038   2.401   9.215
 7644SOL    HW134811   4.120   2.448   9.227
 7644SOL    HW234812   4.057   2.311   9.242
 7645SOL     OW34813   4.038   4.223  16.706
 7645SOL    HW134814   3.957   4.171  16.704
 7645SOL    HW234815   4.103   4.165  16.746
 7646SOL     OW34816   0.348   3.251  17.670
 7646SOL    HW134817   0.437   3.272  17.699
 7646SOL    HW234818   0.351   3.157  17.649
 7647SOL     OW34819   0.651   3.207   8.642
 7647SOL    HW134820   0.684   3.185   8.555
 7647SOL    HW234821   0.729   3.226   8.694
 7648SOL     OW34822   0.394   1.971   2.382
 7648SOL    HW134823   0.372   1.883   2.412
 7648SOL    HW234824   0.314   2.022   2.396
 7649SOL     OW34825   0.980   3.168   9.801
 7649SOL    HW134826   0.990   3.158   9.707
 7649SOL    HW234827   0.958   3.080   9.832
 7650SOL     OW34828   3.731   2.427  18.843
 7650SOL    HW134829   3.658   2.451  18.899
 7650SOL    HW234830   3.692   2.370  18.776
 7651SOL     OW34831   2.363   1.133  14.131
 7651SOL    HW134832   2.307   1.059  14.108
 7651SOL    HW234833   2.388   1.171  14.046
 7652SOL     OW34834   2.331   4.034   8.315
 7652SOL    HW134835   2.288   4.063   8.234
 7652SOL    HW234836   2.262   4.034   8.381
 7653SOL     OW34837   1.202   4.287   5.893
 7653SOL    HW134838   1.107   4.290   5.904
 7653SOL    HW234839   1.236   4.278   5.982
 7654SOL     OW34840   1.759   3.938   8.894
 7654SOL    HW134841   1.757   3.848   8.860
 7654SOL    HW234842   1.827   3.937   8.961
 7655SOL     OW34843   4.044   4.143  19.385
 7655SOL    HW134844   3.983   4.084  19.430
 7655SOL    HW234845   4.131   4.106  19.404
 7656SOL     OW34846   2.974   2.207  16.601
 7656SOL    HW134847   2.959   2.118  16.632
 7656SOL    HW234848   2.924   2.263  16.660
 7657SOL     OW34849   0.690   2.822  18.260
 7657SOL    HW134850   0.639   2.842  18.339
 7657SOL    HW234851   0.729   2.736  18.279
 7658SOL     OW34852   2.473   0.680   8.468
 7658SOL    HW134853   2.453   0.644   8.554
 7658SOL    HW234854   2.453   0.609   8.407
 7659SOL     OW34855   4.749   1.943   6.614
 7659SOL    HW134856   4.725   1.984   6.531
 7659SOL    HW234857   4.667   1.906   6.646
 7660SOL     OW34858   4.452   3.276   8.072
 7660SOL    HW134859   4.519   3.225   8.027
 7660SOL    HW234860   4.485   3.366   8.071
 7661SOL     OW34861   0.009   2.299   6.253
 7661SOL    HW134862   0.034   2.302   6.346
 7661SOL    HW234863   0.092   2.287   6.207
 7662SOL     OW34864   0.178   3.893   8.326
 7662SOL    HW134865   0.203   3.907   8.417
 7662SOL    HW234866   0.259   3.907   8.276
 7663SOL     OW34867   3.717   0.832   8.127
 7663SOL    HW134868   3.738   0.854   8.036
 7663SOL    HW234869   3.719   0.736   8.129
 7664SOL     OW34870   3.605   1.009   8.270
 7664SOL    HW134871   3.624   0.982   8.360
 7664SOL    HW234872   3.626   0.933   8.217
 7665SOL     OW34873   0.474   3.013   8.694
 7665SOL    HW134874   0.525   3.086   8.660
 7665SOL    HW234875   0.450   2.962   8.617
 7666SOL     OW34876   0.679   3.121   7.612
 7666SOL    HW134877   0.639   3.038   7.640
 7666SOL    HW234878   0.652   3.130   7.520
 7667SOL     OW34879   2.677   1.328   9.234
 7667SOL    HW134880   2.656   1.407   9.284
 7667SOL    HW234881   2.678   1.258   9.299
 7668SOL     OW34882   0.158   3.930   9.521
 7668SOL    HW134883   0.079   3.897   9.563
 7668SOL    HW234884   0.180   3.864   9.455
 7669SOL     OW34885   3.947   2.338   0.805
 7669SOL    HW134886   3.937   2.421   0.851
 7669SOL    HW234887   3.874   2.285   0.836
 7670SOL     OW34888   3.130   2.995  19.778
 7670SOL    HW134889   3.034   3.003  19.774
 7670SOL    HW234890   3.155   2.964  19.691
 7671SOL     OW34891   0.046   4.054   8.133
 7671SOL    HW134892   0.081   4.015   8.213
 7671SOL    HW234893   0.038   3.980   8.072
 7672SOL     OW34894   1.974   0.972   7.671
 7672SOL    HW134895   1.921   1.051   7.680
 7672SOL    HW234896   1.978   0.956   7.577
 7673SOL     OW34897   3.757   3.808   9.115
 7673SOL    HW134898   3.800   3.773   9.193
 7673SOL    HW234899   3.793   3.896   9.105
 7674SOL     OW34900   0.926   1.403   0.313
 7674SOL    HW134901   0.946   1.346   0.387
 7674SOL    HW234902   0.898   1.344   0.243
 7675SOL     OW34903   1.541   0.847   9.843
 7675SOL    HW134904   1.627   0.869   9.807
 7675SOL    HW234905   1.500   0.932   9.863
 7676SOL     OW34906   0.925   0.347   8.781
 7676SOL    HW134907   0.872   0.274   8.814
 7676SOL    HW234908   0.927   0.410   8.853
 7677SOL     OW34909   1.578   1.054   9.327
 7677SOL    HW134910   1.571   0.968   9.370
 7677SOL    HW234911   1.631   1.038   9.249
 7678SOL     OW34912   3.221   4.466  14.001
 7678SOL    HW134913   3.306   4.460  14.045
 7678SOL    HW234914   3.158   4.484  14.070
 7679SOL     OW34915   4.503   3.231   9.074
 7679SOL    HW134916   4.581   3.285   9.083
 7679SOL    HW234917   4.488   3.226   8.979
 7680SOL     OW34918   2.834   2.390  19.358
 7680SOL    HW134919   2.759   2.384  19.298
 7680SOL    HW234920   2.845   2.484  19.373
 7681SOL     OW34921   0.618   1.096  15.621
 7681SOL    HW134922   0.523   1.080  15.618
 7681SOL    HW234923   0.626   1.188  15.645
 7682SOL     OW34924   0.616   3.888   8.490
 7682SOL    HW134925   0.540   3.886   8.548
 7682SOL    HW234926   0.666   3.964   8.519
 7683SOL     OW34927   4.284   3.825  10.440
 7683SOL    HW134928   4.332   3.820  10.358
 7683SOL    HW234929   4.242   3.911  10.438
 7684SOL     OW34930   2.172   1.424   9.611
 7684SOL    HW134931   2.096   1.369   9.629
 7684SOL    HW234932   2.150   1.509   9.649
 7685SOL     OW34933   0.430   4.128  10.256
 7685SOL    HW134934   0.488   4.061  10.293
 7685SOL    HW234935   0.365   4.144  10.324
 7686SOL     OW34936   2.335   0.143  11.022
 7686SOL    HW134937   2.273   0.215  11.035
 7686SOL    HW234938   2.381   0.136  11.106
 7687SOL     OW34939   1.774   4.460  10.871
 7687SOL    HW134940   1.718   4.463  10.949
 7687SOL    HW234941   1.852   4.508  10.897
 7688SOL     OW34942   1.966   4.152  10.301
 7688SOL    HW134943   1.908   4.125  10.231
 7688SOL    HW234944   2.048   4.175  10.257
 7689SOL     OW34945   0.691   3.323  11.570
 7689SOL    HW134946   0.674   3.379  11.647
 7689SOL    HW234947   0.787   3.315  11.568
 7690SOL     OW34948   4.510   0.499   8.226
 7690SOL    HW134949   4.583   0.545   8.183
 7690SOL    HW234950   4.549   0.463   8.306
 7691SOL     OW34951   2.647   1.150  10.134
 7691SOL    HW134952   2.630   1.224  10.075
 7691SOL    HW234953   2.565   1.102  10.136
 7692SOL     OW34954   0.791   1.842  11.523
 7692SOL    HW134955   0.836   1.762  11.494
 7692SOL    HW234956   0.780   1.893  11.443
 7693SOL     OW34957   0.367   0.608   9.547
 7693SOL    HW134958   0.399   0.518   9.551
 7693SOL    HW234959   0.387   0.644   9.634
 7694SOL     OW34960   0.960   3.793   9.459
 7694SOL    HW134961   0.967   3.740   9.380
 7694SOL    HW234962   1.051   3.814   9.482
 7695SOL     OW34963   0.729   2.616  11.195
 7695SOL    HW134964   0.692   2.561  11.264
 7695SOL    HW234965   0.806   2.567  11.164
 7696SOL     OW34966   1.297   3.490  11.470
 7696SOL    HW134967   1.210   3.529  11.462
 7696SOL    HW234968   1.281   3.406  11.513
 7697SOL     OW34969   0.541   3.425  10.552
 7697SOL    HW134970   0.587   3.349  10.590
 7697SOL    HW234971   0.487   3.387  10.483
 7698SOL     OW34972   1.632   3.606  10.749
 7698SOL    HW134973   1.725   3.582  10.754
 7698SOL    HW234974   1.586   3.523  10.738
 7699SOL     OW34975   3.444   1.011   8.057
 7699SOL    HW134976   3.464   1.101   8.032
 7699SOL    HW234977   3.502   0.993   8.131
 7700SOL     OW34978   4.055   0.806   9.119
 7700SOL    HW134979   4.054   0.857   9.038
 7700SOL    HW234980   4.115   0.733   9.100
 7701SOL     OW34981   2.313   3.643  10.096
 7701SOL    HW134982   2.258   3.711  10.135
 7701SOL    HW234983   2.400   3.681  10.094
 7702SOL     OW34984   0.631   2.993  11.274
 7702SOL    HW134985   0.601   3.029  11.191
 7702SOL    HW234986   0.582   2.912  11.285
 7703SOL     OW34987   2.117   1.179   9.803
 7703SOL    HW134988   2.188   1.117   9.788
 7703SOL    HW234989   2.056   1.162   9.731
 7704SOL     OW34990   2.150   1.324  10.057
 7704SOL    HW134991   2.063   1.307  10.021
 7704SOL    HW234992   2.160   1.419  10.051
 7705SOL     OW34993   0.912   3.391   9.954
 7705SOL    HW134994   0.962   3.317   9.920
 7705SOL    HW234995   0.884   3.439   9.875
 7706SOL     OW34996   3.208   0.899   9.052
 7706SOL    HW134997   3.236   0.859   8.970
 7706SOL    HW234998   3.275   0.871   9.115
 7707SOL     OW34999   0.300   2.253   9.620
 7707SOL    HW135000   0.298   2.171   9.572
 7707SOL    HW235001   0.340   2.316   9.559
 7708SOL     OW35002   4.460   0.397  19.537
 7708SOL    HW135003   4.433   0.370  19.449
 7708SOL    HW235004   4.420   0.483  19.549
 7709SOL     OW35005   1.559   1.560   6.577
 7709SOL    HW135006   1.541   1.579   6.669
 7709SOL    HW235007   1.495   1.493   6.554
 7710SOL     OW35008   1.704   2.076  13.373
 7710SOL    HW135009   1.722   1.997  13.424
 7710SOL    HW235010   1.715   2.148  13.436
 7711SOL     OW35011   0.726   4.580  11.511
 7711SOL    HW135012   0.749   4.611  11.424
 7711SOL    HW235013   0.794   4.515  11.532
 7712SOL     OW35014   1.249   4.304  19.215
 7712SOL    HW135015   1.224   4.370  19.279
 7712SOL    HW235016   1.175   4.243  19.214
 7713SOL     OW35017   4.070   0.478  10.500
 7713SOL    HW135018   4.111   0.462  10.585
 7713SOL    HW235019   4.138   0.522  10.449
 7714SOL     OW35020   1.877   3.188  10.944
 7714SOL    HW135021   1.855   3.257  10.881
 7714SOL    HW235022   1.919   3.120  10.891
 7715SOL     OW35023   3.081   4.315  12.837
 7715SOL    HW135024   3.045   4.400  12.813
 7715SOL    HW235025   3.113   4.278  12.755
 7716SOL     OW35026   1.670   2.594   0.714
 7716SOL    HW135027   1.751   2.616   0.762
 7716SOL    HW235028   1.698   2.534   0.645
 7717SOL     OW35029   1.814   1.689   3.293
 7717SOL    HW135030   1.906   1.709   3.308
 7717SOL    HW235031   1.802   1.699   3.198
 7718SOL     OW35032   0.536   4.556  11.942
 7718SOL    HW135033   0.480   4.592  12.010
 7718SOL    HW235034   0.588   4.489  11.986
 7719SOL     OW35035   0.954   3.222  11.607
 7719SOL    HW135036   1.035   3.272  11.616
 7719SOL    HW235037   0.947   3.173  11.689
 7720SOL     OW35038   1.790   0.034  11.093
 7720SOL    HW135039   1.851   0.070  11.029
 7720SOL    HW235040   1.711   0.015  11.043
 7721SOL     OW35041   2.319   2.516  11.157
 7721SOL    HW135042   2.404   2.484  11.188
 7721SOL    HW235043   2.304   2.597  11.206
 7722SOL     OW35044   4.617   0.026   9.548
 7722SOL    HW135045   4.544   0.059   9.496
 7722SOL    HW235046   4.681   0.097   9.547
 7723SOL     OW35047   0.979   4.385  11.245
 7723SOL    HW135048   1.041   4.334  11.192
 7723SOL    HW235049   1.005   4.367  11.335
 7724SOL     OW35050   1.699   2.218  10.995
 7724SOL    HW135051   1.784   2.231  11.040
 7724SOL    HW235052   1.706   2.132  10.955
 7725SOL     OW35053   3.466   0.202  18.762
 7725SOL    HW135054   3.561   0.194  18.749
 7725SOL    HW235055   3.450   0.297  18.762
 7726SOL     OW35056   1.527   2.239  11.847
 7726SOL    HW135057   1.557   2.300  11.781
 7726SOL    HW235058   1.431   2.246  11.845
 7727SOL     OW35059   2.396   4.033  11.343
 7727SOL    HW135060   2.442   3.991  11.269
 7727SOL    HW235061   2.390   3.964  11.409
 7728SOL     OW35062   3.150   2.722   5.298
 7728SOL    HW135063   3.142   2.770   5.380
 7728SOL    HW235064   3.072   2.666   5.296
 7729SOL     OW35065   1.725   3.737  12.151
 7729SOL    HW135066   1.756   3.688  12.228
 7729SOL    HW235067   1.804   3.777  12.115
 7730SOL     OW35068   2.116   1.657  11.948
 7730SOL    HW135069   2.073   1.664  11.863
 7730SOL    HW235070   2.164   1.740  11.957
 7731SOL     OW35071   2.739   4.105  11.016
 7731SOL    HW135072   2.817   4.052  11.032
 7731SOL    HW235073   2.773   4.186  10.978
 7732SOL     OW35074   2.204   3.374  11.437
 7732SOL    HW135075   2.175   3.448  11.490
 7732SOL    HW235076   2.233   3.414  11.355
 7733SOL     OW35077   0.723   1.399  17.859
 7733SOL    HW135078   0.667   1.467  17.897
 7733SOL    HW235079   0.674   1.368  17.783
 7734SOL     OW35080   3.074   3.072   6.842
 7734SOL    HW135081   3.012   3.046   6.774
 7734SOL    HW235082   3.062   3.166   6.851
 7735SOL     OW35083   0.329   3.063   3.133
 7735SOL    HW135084   0.412   3.071   3.179
 7735SOL    HW235085   0.348   3.007   3.057
 7736SOL     OW35086   2.628   3.170   0.568
 7736SOL    HW135087   2.579   3.252   0.561
 7736SOL    HW235088   2.562   3.102   0.554
 7737SOL     OW35089   3.159   4.657  15.606
 7737SOL    HW135090   3.171   4.743  15.566
 7737SOL    HW235091   3.246   4.619  15.607
 7738SOL     OW35092   0.162   4.223  20.861
 7738SOL    HW135093   0.189   4.163  20.930
 7738SOL    HW235094   0.230   4.290  20.860
 7739SOL     OW35095   4.424   3.066   6.841
 7739SOL    HW135096   4.350   3.113   6.804
 7739SOL    HW235097   4.404   2.974   6.825
 7740SOL     OW35098   2.216   3.186  17.117
 7740SOL    HW135099   2.218   3.176  17.212
 7740SOL    HW235100   2.177   3.272  17.102
 7741SOL     OW35101   3.831   2.875   6.124
 7741SOL    HW135102   3.877   2.941   6.175
 7741SOL    HW235103   3.842   2.794   6.173
 7742SOL     OW35104   2.779   3.423  15.361
 7742SOL    HW135105   2.753   3.432  15.270
 7742SOL    HW235106   2.710   3.371  15.402
 7743SOL     OW35107   2.904   2.900  16.838
 7743SOL    HW135108   2.980   2.947  16.872
 7743SOL    HW235109   2.855   2.873  16.916
 7744SOL     OW35110   3.521   4.594   2.110
 7744SOL    HW135111   3.540   4.636   2.025
 7744SOL    HW235112   3.582   4.520   2.114
 7745SOL     OW35113   0.968   2.212  18.686
 7745SOL    HW135114   0.887   2.161  18.683
 7745SOL    HW235115   1.029   2.157  18.734
 7746SOL     OW35116   0.178   2.413  16.189
 7746SOL    HW135117   0.212   2.501  16.205
 7746SOL    HW235118   0.230   2.380  16.116
 7747SOL     OW35119   4.197   2.299   2.472
 7747SOL    HW135120   4.285   2.299   2.436
 7747SOL    HW235121   4.204   2.353   2.552
 7748SOL     OW35122   0.149   2.639   4.025
 7748SOL    HW135123   0.059   2.663   4.046
 7748SOL    HW235124   0.184   2.602   4.106
 7749SOL     OW35125   4.056   4.787  11.537
 7749SOL    HW135126   3.982   0.032  11.589
 7749SOL    HW235127   4.022   4.778  11.448
 7750SOL     OW35128   3.957   2.553  18.766
 7750SOL    HW135129   3.962   2.478  18.707
 7750SOL    HW235130   3.902   2.522  18.839
 7751SOL     OW35131   4.386   0.426   0.294
 7751SOL    HW135132   4.391   0.331   0.286
 7751SOL    HW235133   4.460   0.450   0.350
 7752SOL     OW35134   4.557   3.724  15.457
 7752SOL    HW135135   4.606   3.799  15.424
 7752SOL    HW235136   4.624   3.663  15.489
 7753SOL     OW35137   2.728   4.468   1.547
 7753SOL    HW135138   2.666   4.502   1.612
 7753SOL    HW235139   2.787   4.542   1.531
 7754SOL     OW35140   3.361   1.225   3.761
 7754SOL    HW135141   3.320   1.264   3.683
 7754SOL    HW235142   3.324   1.274   3.834
 7755SOL     OW35143   3.454   1.155   3.395
 7755SOL    HW135144   3.534   1.182   3.350
 7755SOL    HW235145   3.481   1.084   3.453
 7756SOL     OW35146   0.047   3.583   5.335
 7756SOL    HW135147   0.016   3.589   5.426
 7756SOL    HW235148   0.093   3.666   5.321
 7757SOL     OW35149   1.205   1.382   1.566
 7757SOL    HW135150   1.257   1.302   1.562
 7757SOL    HW235151   1.258   1.442   1.619
 7758SOL     OW35152   2.570   3.812   0.223
 7758SOL    HW135153   2.556   3.808   0.128
 7758SOL    HW235154   2.486   3.787   0.261
 7759SOL     OW35155   3.337   0.139   8.068
 7759SOL    HW135156   3.295   0.053   8.062
 7759SOL    HW235157   3.276   0.199   8.026
 7760SOL     OW35158   0.969   4.402  16.356
 7760SOL    HW135159   1.062   4.409  16.380
 7760SOL    HW235160   0.965   4.435  16.266
 7761SOL     OW35161   4.282   2.799   1.376
 7761SOL    HW135162   4.337   2.724   1.399
 7761SOL    HW235163   4.342   2.859   1.332
 7762SOL     OW35164   2.879   1.693  18.554
 7762SOL    HW135165   2.805   1.705  18.494
 7762SOL    HW235166   2.849   1.733  18.636
 7763SOL     OW35167   2.631   1.594   2.860
 7763SOL    HW135168   2.573   1.628   2.791
 7763SOL    HW235169   2.581   1.603   2.941
 7764SOL     OW35170   1.827   3.642  19.835
 7764SOL    HW135171   1.879   3.590  19.896
 7764SOL    HW235172   1.747   3.664  19.883
 7765SOL     OW35173   0.195   1.220   3.866
 7765SOL    HW135174   0.263   1.262   3.919
 7765SOL    HW235175   0.244   1.167   3.803
 7766SOL     OW35176   4.496   3.709  20.006
 7766SOL    HW135177   4.460   3.632  19.962
 7766SOL    HW235178   4.474   3.782  19.948
 7767SOL     OW35179   2.698   0.542   6.175
 7767SOL    HW135180   2.759   0.476   6.142
 7767SOL    HW235181   2.753   0.601   6.227
 7768SOL     OW35182   3.182   3.479  11.561
 7768SOL    HW135183   3.102   3.438  11.594
 7768SOL    HW235184   3.178   3.467  11.466
 7769SOL     OW35185   2.092   0.861   0.128
 7769SOL    HW135186   2.048   0.791   0.175
 7769SOL    HW235187   2.042   0.940   0.150
 7770SOL     OW35188   3.310   0.701  17.195
 7770SOL    HW135189   3.404   0.683  17.194
 7770SOL    HW235190   3.301   0.781  17.142
 7771SOL     OW35191   3.268   1.086   3.151
 7771SOL    HW135192   3.344   1.109   3.203
 7771SOL    HW235193   3.197   1.140   3.187
 7772SOL     OW35194   1.633   4.134   5.441
 7772SOL    HW135195   1.630   4.089   5.526
 7772SOL    HW235196   1.709   4.192   5.448
 7773SOL     OW35197   3.594   2.069  15.460
 7773SOL    HW135198   3.554   2.113  15.535
 7773SOL    HW235199   3.640   2.139  15.413
 7774SOL     OW35200   1.812   3.983   2.478
 7774SOL    HW135201   1.788   3.898   2.513
 7774SOL    HW235202   1.729   4.032   2.477
 7775SOL     OW35203   2.206   1.369  17.063
 7775SOL    HW135204   2.253   1.292  17.032
 7775SOL    HW235205   2.120   1.337  17.089
 7776SOL     OW35206   2.813   0.520   0.554
 7776SOL    HW135207   2.743   0.470   0.513
 7776SOL    HW235208   2.785   0.612   0.546
 7777SOL     OW35209   4.219   1.977  18.411
 7777SOL    HW135210   4.214   1.906  18.475
 7777SOL    HW235211   4.302   2.021  18.430
 7778SOL     OW35212   0.062   2.047  20.128
 7778SOL    HW135213   0.145   2.052  20.081
 7778SOL    HW235214   0.059   1.958  20.163
 7779SOL     OW35215   1.497   3.394   0.750
 7779SOL    HW135216   1.543   3.386   0.666
 7779SOL    HW235217   1.553   3.350   0.813
 7780SOL     OW35218   3.577   4.260  15.440
 7780SOL    HW135219   3.663   4.232  15.408
 7780SOL    HW235220   3.581   4.246  15.535
 7781SOL     OW35221   3.526   1.491   2.076
 7781SOL    HW135222   3.560   1.486   1.986
 7781SOL    HW235223   3.604   1.484   2.131
 7782SOL     OW35224   0.341   3.388  20.965
 7782SOL    HW135225   0.397   3.390  21.043
 7782SOL    HW235226   0.320   3.296  20.954
 7783SOL     OW35227   2.223   1.149   4.697
 7783SOL    HW135228   2.245   1.156   4.604
 7783SOL    HW235229   2.305   1.119   4.738
 7784SOL     OW35230   3.975   0.856   0.591
 7784SOL    HW135231   3.964   0.798   0.515
 7784SOL    HW235232   3.915   0.929   0.573
 7785SOL     OW35233   1.906   3.709   4.344
 7785SOL    HW135234   1.936   3.729   4.432
 7785SOL    HW235235   1.874   3.619   4.348
 7786SOL     OW35236   0.888   1.017   2.770
 7786SOL    HW135237   0.891   0.986   2.679
 7786SOL    HW235238   0.815   1.078   2.773
 7787SOL     OW35239   3.874   3.713  16.462
 7787SOL    HW135240   3.900   3.705  16.554
 7787SOL    HW235241   3.949   3.755  16.419
 7788SOL     OW35242   0.824   3.438   5.030
 7788SOL    HW135243   0.868   3.522   5.038
 7788SOL    HW235244   0.735   3.454   5.060
 7789SOL     OW35245   2.489   1.497   4.518
 7789SOL    HW135246   2.519   1.525   4.431
 7789SOL    HW235247   2.406   1.454   4.502
 7790SOL     OW35248   0.102   2.692   0.738
 7790SOL    HW135249   0.081   2.671   0.647
 7790SOL    HW235250   0.116   2.608   0.780
 7791SOL     OW35251   1.973   4.060   4.680
 7791SOL    HW135252   1.924   3.979   4.663
 7791SOL    HW235253   2.058   4.031   4.712
 7792SOL     OW35254   3.275   3.387   5.730
 7792SOL    HW135255   3.356   3.419   5.768
 7792SOL    HW235256   3.293   3.384   5.636
 7793SOL     OW35257   1.251   3.374  17.723
 7793SOL    HW135258   1.274   3.345  17.811
 7793SOL    HW235259   1.277   3.466  17.720
 7794SOL     OW35260   2.765   1.778   5.037
 7794SOL    HW135261   2.808   1.817   5.113
 7794SOL    HW235262   2.745   1.852   4.980
 7795SOL     OW35263   2.096   1.228  11.766
 7795SOL    HW135264   2.008   1.253  11.739
 7795SOL    HW235265   2.110   1.273  11.849
 7796SOL     OW35266   3.883   2.604  16.630
 7796SOL    HW135267   3.975   2.621  16.648
 7796SOL    HW235268   3.862   2.528  16.685
 7797SOL     OW35269   4.463   0.883   6.516
 7797SOL    HW135270   4.437   0.814   6.455
 7797SOL    HW235271   4.533   0.843   6.569
 7798SOL     OW35272   4.153   0.089  18.806
 7798SOL    HW135273   4.199   0.007  18.825
 7798SOL    HW235274   4.090   0.064  18.738
 7799SOL     OW35275   4.078   3.094   3.805
 7799SOL    HW135276   4.123   3.162   3.755
 7799SOL    HW235277   4.001   3.071   3.752
 7800SOL     OW35278   1.700   0.089   1.773
 7800SOL    HW135279   1.713   0.028   1.700
 7800SOL    HW235280   1.764   0.158   1.759
 7801SOL     OW35281   4.571   2.096   3.007
 7801SOL    HW135282   4.509   2.113   2.936
 7801SOL    HW235283   4.556   2.005   3.030
 7802SOL     OW35284   1.919   1.388   1.008
 7802SOL    HW135285   2.004   1.347   0.998
 7802SOL    HW235286   1.907   1.439   0.928
 7803SOL     OW35287   0.887   3.428   3.692
 7803SOL    HW135288   0.965   3.426   3.747
 7803SOL    HW235289   0.839   3.349   3.715
 7804SOL     OW35290   1.499   2.299  21.215
 7804SOL    HW135291   1.486   2.289  21.120
 7804SOL    HW235292   1.426   2.251   0.009
 7805SOL     OW35293   1.984   3.199   0.737
 7805SOL    HW135294   2.070   3.230   0.708
 7805SOL    HW235295   1.925   3.221   0.664
 7806SOL     OW35296   1.586   1.787  17.896
 7806SOL    HW135297   1.676   1.752  17.895
 7806SOL    HW235298   1.587   1.851  17.967
 7807SOL     OW35299   1.683   3.734  19.336
 7807SOL    HW135300   1.746   3.804  19.356
 7807SOL    HW235301   1.677   3.684  19.417
 7808SOL     OW35302   3.821   2.604   1.603
 7808SOL    HW135303   3.861   2.691   1.592
 7808SOL    HW235304   3.740   2.608   1.552
 7809SOL     OW35305   0.507   0.140  17.850
 7809SOL    HW135306   0.550   0.103  17.772
 7809SOL    HW235307   0.579   0.180  17.900
 7810SOL     OW35308   3.973   2.131   3.254
 7810SOL    HW135309   3.960   2.220   3.286
 7810SOL    HW235310   4.063   2.110   3.280
 7811SOL     OW35311   0.317   3.830   3.739
 7811SOL    HW135312   0.225   3.841   3.765
 7811SOL    HW235313   0.347   3.755   3.791
 7812SOL     OW35314   1.326   2.067  10.314
 7812SOL    HW135315   1.280   2.023  10.242
 7812SOL    HW235316   1.303   2.017  10.392
 7813SOL     OW35317   2.840   0.847   3.620
 7813SOL    HW135318   2.845   0.758   3.587
 7813SOL    HW235319   2.853   0.839   3.714
 7814SOL     OW35320   3.461   0.019   4.506
 7814SOL    HW135321   3.446   0.108   4.476
 7814SOL    HW235322   3.531   4.773   4.449
 7815SOL     OW35323   3.383   1.136   1.401
 7815SOL    HW135324   3.346   1.136   1.313
 7815SOL    HW235325   3.344   1.213   1.443
 7816SOL     OW35326   2.599   2.471   3.960
 7816SOL    HW135327   2.561   2.520   4.032
 7816SOL    HW235328   2.679   2.519   3.937
 7817SOL     OW35329   3.719   0.901   1.873
 7817SOL    HW135330   3.798   0.851   1.852
 7817SOL    HW235331   3.677   0.916   1.788
 7818SOL     OW35332   3.251   1.559   8.793
 7818SOL    HW135333   3.160   1.585   8.779
 7818SOL    HW235334   3.245   1.470   8.830
 7819SOL     OW35335   2.473   3.179  19.755
 7819SOL    HW135336   2.561   3.181  19.793
 7819SOL    HW235337   2.422   3.124  19.815
 7820SOL     OW35338   3.702   4.403  14.873
 7820SOL    HW135339   3.666   4.467  14.812
 7820SOL    HW235340   3.642   4.404  14.947
 7821SOL     OW35341   1.655   2.240   2.226
 7821SOL    HW135342   1.637   2.279   2.140
 7821SOL    HW235343   1.601   2.162   2.229
 7822SOL     OW35344   4.279   0.427  14.908
 7822SOL    HW135345   4.299   0.343  14.866
 7822SOL    HW235346   4.217   0.405  14.978
 7823SOL     OW35347   2.208   0.387  16.306
 7823SOL    HW135348   2.245   0.476  16.306
 7823SOL    HW235349   2.280   0.331  16.334
 7824SOL     OW35350   0.124   3.402   8.893
 7824SOL    HW135351   0.137   3.387   8.799
 7824SOL    HW235352   0.213   3.405   8.929
 7825SOL     OW35353   4.199   1.357  18.645
 7825SOL    HW135354   4.113   1.377  18.608
 7825SOL    HW235355   4.242   1.301  18.580
 7826SOL     OW35356   1.319   0.412   0.614
 7826SOL    HW135357   1.388   0.364   0.660
 7826SOL    HW235358   1.275   0.346   0.560
 7827SOL     OW35359   3.647   0.719  15.547
 7827SOL    HW135360   3.728   0.690  15.589
 7827SOL    HW235361   3.577   0.684  15.603
 7828SOL     OW35362   0.322   0.808  19.283
 7828SOL    HW135363   0.321   0.813  19.187
 7828SOL    HW235364   0.348   0.896  19.311
 7829SOL     OW35365   1.898   4.205   1.408
 7829SOL    HW135366   1.828   4.143   1.389
 7829SOL    HW235367   1.852   4.284   1.437
 7830SOL     OW35368   2.038   4.296   2.332
 7830SOL    HW135369   2.031   4.387   2.363
 7830SOL    HW235370   2.123   4.292   2.289
 7831SOL     OW35371   0.253   0.015   2.393
 7831SOL    HW135372   0.250   4.748   2.472
 7831SOL    HW235373   0.308   0.090   2.418
 7832SOL     OW35374   0.374   1.888   0.203
 7832SOL    HW135375   0.357   1.934   0.120
 7832SOL    HW235376   0.379   1.958   0.268
 7833SOL     OW35377   4.371   1.774  14.139
 7833SOL    HW135378   4.337   1.687  14.115
 7833SOL    HW235379   4.395   1.765  14.231
 7834SOL     OW35380   2.790   1.396  15.882
 7834SOL    HW135381   2.874   1.374  15.843
 7834SOL    HW235382   2.810   1.467  15.944
 7835SOL     OW35383   2.737   1.498  14.537
 7835SOL    HW135384   2.716   1.535  14.623
 7835SOL    HW235385   2.817   1.544  14.510
 7836SOL     OW35386   2.331   2.179  13.679
 7836SOL    HW135387   2.418   2.170  13.719
 7836SOL    HW235388   2.286   2.243  13.734
 7837SOL     OW35389   0.502   4.214   2.333
 7837SOL    HW135390   0.427   4.157   2.353
 7837SOL    HW235391   0.560   4.205   2.409
 7838SOL     OW35392   2.912   3.058  17.221
 7838SOL    HW135393   2.841   3.113  17.188
 7838SOL    HW235394   2.913   3.075  17.315
 7839SOL     OW35395   2.712   4.752   2.922
 7839SOL    HW135396   2.621   4.778   2.910
 7839SOL    HW235397   2.745   0.023   2.991
 7840SOL     OW35398   1.388   1.589   2.859
 7840SOL    HW135399   1.340   1.568   2.779
 7840SOL    HW235400   1.319   1.602   2.925
 7841SOL     OW35401   0.807   2.120   1.273
 7841SOL    HW135402   0.711   2.112   1.265
 7841SOL    HW235403   0.826   2.210   1.250
 7842SOL     OW35404   1.376   3.143  18.723
 7842SOL    HW135405   1.330   3.108  18.646
 7842SOL    HW235406   1.421   3.221  18.690
 7843SOL     OW35407   0.161   2.276   1.222
 7843SOL    HW135408   0.098   2.323   1.276
 7843SOL    HW235409   0.233   2.338   1.211
 7844SOL     OW35410   3.656   4.596   1.337
 7844SOL    HW135411   3.727   4.660   1.339
 7844SOL    HW235412   3.630   4.591   1.245
 7845SOL     OW35413   1.248   3.367  16.297
 7845SOL    HW135414   1.207   3.444  16.337
 7845SOL    HW235415   1.181   3.299  16.299
 7846SOL     OW35416   2.653   3.508  15.146
 7846SOL    HW135417   2.592   3.435  15.149
 7846SOL    HW235418   2.677   3.516  15.053
 7847SOL     OW35419   0.968   2.424   4.909
 7847SOL    HW135420   0.925   2.467   4.983
 7847SOL    HW235421   1.048   2.387   4.946
 7848SOL     OW35422   4.714   1.994   0.770
 7848SOL    HW135423   4.639   2.037   0.729
 7848SOL    HW235424   4.738   1.925   0.708
 7849SOL     OW35425   4.523   0.267  17.775
 7849SOL    HW135426   4.466   0.258  17.852
 7849SOL    HW235427   4.611   0.272  17.812
 7850SOL     OW35428   4.385   3.177  20.128
 7850SOL    HW135429   4.477   3.151  20.120
 7850SOL    HW235430   4.337   3.094  20.128
 7851SOL     OW35431   4.628   1.446  20.548
 7851SOL    HW135432   4.542   1.473  20.516
 7851SOL    HW235433   4.678   1.527  20.554
 7852SOL     OW35434   2.065   1.977   0.771
 7852SOL    HW135435   2.090   1.925   0.695
 7852SOL    HW235436   1.994   1.927   0.812
 7853SOL     OW35437   1.174   1.689  17.188
 7853SOL    HW135438   1.194   1.716  17.098
 7853SOL    HW235439   1.237   1.738  17.241
 7854SOL     OW35440   4.257   0.607   1.033
 7854SOL    HW135441   4.328   0.662   1.067
 7854SOL    HW235442   4.296   0.561   0.959
 7855SOL     OW35443   4.247   2.465  15.821
 7855SOL    HW135444   4.240   2.526  15.748
 7855SOL    HW235445   4.211   2.512  15.896
 7856SOL     OW35446   1.880   4.205   5.454
 7856SOL    HW135447   1.924   4.283   5.488
 7856SOL    HW235448   1.919   4.132   5.502
 7857SOL     OW35449   4.038   3.479   8.356
 7857SOL    HW135450   3.971   3.448   8.294
 7857SOL    HW235451   4.121   3.462   8.311
 7858SOL     OW35452   3.810   4.609   3.544
 7858SOL    HW135453   3.840   4.550   3.614
 7858SOL    HW235454   3.737   4.657   3.583
 7859SOL     OW35455   2.771   2.474   0.654
 7859SOL    HW135456   2.689   2.437   0.687
 7859SOL    HW235457   2.805   2.526   0.726
 7860SOL     OW35458   0.668   0.372   5.866
 7860SOL    HW135459   0.715   0.302   5.909
 7860SOL    HW235460   0.623   0.418   5.937
 7861SOL     OW35461   0.038   4.255  19.412
 7861SOL    HW135462   0.030   4.161  19.397
 7861SOL    HW235463   0.132   4.270  19.421
 7862SOL     OW35464   1.805   4.029  14.173
 7862SOL    HW135465   1.717   4.023  14.208
 7862SOL    HW235466   1.835   4.117  14.195
 7863SOL     OW35467   4.711   3.825   0.194
 7863SOL    HW135468   0.003   3.842   0.144
 7863SOL    HW235469   4.650   3.786   0.131
 7864SOL     OW35470   1.741   3.654   5.525
 7864SOL    HW135471   1.672   3.637   5.461
 7864SOL    HW235472   1.811   3.695   5.474
 7865SOL     OW35473   3.712   1.957  17.842
 7865SOL    HW135474   3.737   1.889  17.904
 7865SOL    HW235475   3.776   1.950  17.771
 7866SOL     OW35476   0.507   2.525   1.646
 7866SOL    HW135477   0.540   2.475   1.571
 7866SOL    HW235478   0.435   2.578   1.610
 7867SOL     OW35479   0.523   2.979   6.581
 7867SOL    HW135480   0.611   3.014   6.565
 7867SOL    HW235481   0.471   3.010   6.506
 7868SOL     OW35482   2.425   3.155  14.438
 7868SOL    HW135483   2.429   3.242  14.400
 7868SOL    HW235484   2.423   3.169  14.533
 7869SOL     OW35485   2.510   2.189  19.610
 7869SOL    HW135486   2.426   2.152  19.584
 7869SOL    HW235487   2.557   2.115  19.650
 7870SOL     OW35488   4.197   3.856  21.066
 7870SOL    HW135489   4.237   3.943  21.062
 7870SOL    HW235490   4.251   3.808  21.128
 7871SOL     OW35491   4.484   0.898  19.976
 7871SOL    HW135492   4.518   0.961  20.039
 7871SOL    HW235493   4.507   0.934  19.890
 7872SOL     OW35494   3.625   3.634  19.811
 7872SOL    HW135495   3.640   3.588  19.894
 7872SOL    HW235496   3.622   3.726  19.835
 7873SOL     OW35497   0.009   3.542   1.947
 7873SOL    HW135498   0.070   3.616   1.951
 7873SOL    HW235499   0.046   3.486   1.879
 7874SOL     OW35500   1.709   3.770  18.716
 7874SOL    HW135501   1.777   3.780  18.649
 7874SOL    HW235502   1.750   3.716  18.784
 7875SOL     OW35503   4.402   4.771   0.904
 7875SOL    HW135504   4.429   4.726   0.984
 7875SOL    HW235505   4.307   4.763   0.903
 7876SOL     OW35506   1.049   1.541  20.980
 7876SOL    HW135507   1.137   1.523  20.946
 7876SOL    HW235508   0.996   1.467  20.952
 7877SOL     OW35509   0.747   0.124   6.256
 7877SOL    HW135510   0.733   0.064   6.329
 7877SOL    HW235511   0.685   0.094   6.189
 7878SOL     OW35512   4.347   0.577  17.914
 7878SOL    HW135513   4.433   0.585  17.956
 7878SOL    HW235514   4.365   0.537  17.829
 7879SOL     OW35515   0.700   2.363   2.171
 7879SOL    HW135516   0.727   2.392   2.258
 7879SOL    HW235517   0.782   2.354   2.123
 7880SOL     OW35518   2.469   1.990  17.486
 7880SOL    HW135519   2.390   1.944  17.458
 7880SOL    HW235520   2.522   1.923  17.527
 7881SOL     OW35521   3.905   3.031   8.003
 7881SOL    HW135522   3.815   3.043   8.034
 7881SOL    HW235523   3.904   2.946   7.959
 7882SOL     OW35524   2.539   3.665   1.407
 7882SOL    HW135525   2.506   3.754   1.391
 7882SOL    HW235526   2.542   3.625   1.320
 7883SOL     OW35527   4.079   2.847   3.092
 7883SOL    HW135528   4.138   2.900   3.145
 7883SOL    HW235529   4.112   2.856   3.003
 7884SOL     OW35530   3.723   3.476  18.125
 7884SOL    HW135531   3.714   3.403  18.065
 7884SOL    HW235532   3.722   3.436  18.212
 7885SOL     OW35533   1.117   3.792  16.194
 7885SOL    HW135534   1.134   3.881  16.224
 7885SOL    HW235535   1.175   3.780  16.119
 7886SOL     OW35536   0.955   3.451  16.145
 7886SOL    HW135537   0.968   3.370  16.195
 7886SOL    HW235538   1.040   3.470  16.107
 7887SOL     OW35539   3.246   0.223  16.449
 7887SOL    HW135540   3.321   0.265  16.490
 7887SOL    HW235541   3.243   0.135  16.485
 7888SOL     OW35542   0.252   1.938  19.157
 7888SOL    HW135543   0.308   1.860  19.154
 7888SOL    HW235544   0.300   2.001  19.209
 7889SOL     OW35545   3.214   3.996  11.288
 7889SOL    HW135546   3.280   3.991  11.356
 7889SOL    HW235547   3.166   3.913  11.296
 7890SOL     OW35548   4.298   4.357  19.262
 7890SOL    HW135549   4.388   4.334  19.284
 7890SOL    HW235550   4.297   4.453  19.263
 7891SOL     OW35551   4.635   2.793   1.428
 7891SOL    HW135552   4.599   2.716   1.383
 7891SOL    HW235553   4.686   2.839   1.360
 7892SOL     OW35554   3.196   0.106  17.880
 7892SOL    HW135555   3.106   0.113  17.848
 7892SOL    HW235556   3.228   0.196  17.881
 7893SOL     OW35557   1.566   4.235  16.865
 7893SOL    HW135558   1.505   4.197  16.927
 7893SOL    HW235559   1.577   4.168  16.797
 7894SOL     OW35560   2.594   3.021  15.310
 7894SOL    HW135561   2.626   3.028  15.400
 7894SOL    HW235562   2.553   2.934  15.306
 7895SOL     OW35563   4.293   1.236   5.198
 7895SOL    HW135564   4.211   1.202   5.233
 7895SOL    HW235565   4.291   1.211   5.105
 7896SOL     OW35566   2.354   3.996   2.430
 7896SOL    HW135567   2.364   3.909   2.392
 7896SOL    HW235568   2.260   4.015   2.422
 7897SOL     OW35569   0.316   3.581  17.859
 7897SOL    HW135570   0.266   3.503  17.832
 7897SOL    HW235571   0.261   3.622  17.925
 7898SOL     OW35572   4.745   1.077   6.230
 7898SOL    HW135573   0.002   1.138   6.171
 7898SOL    HW235574   4.710   1.133   6.300
 7899SOL     OW35575   0.176   4.178  16.648
 7899SOL    HW135576   0.222   4.095  16.658
 7899SOL    HW235577   0.143   4.198  16.735
 7900SOL     OW35578   2.164   1.115  16.180
 7900SOL    HW135579   2.243   1.061  16.174
 7900SOL    HW235580   2.155   1.154  16.093
 7901SOL     OW35581   0.180   2.567   5.677
 7901SOL    HW135582   0.133   2.650   5.683
 7901SOL    HW235583   0.264   2.584   5.721
 7902SOL     OW35584   2.718   4.195   3.220
 7902SOL    HW135585   2.808   4.221   3.239
 7902SOL    HW235586   2.716   4.183   3.125
 7903SOL     OW35587   4.117   1.463  19.473
 7903SOL    HW135588   4.090   1.425  19.557
 7903SOL    HW235589   4.035   1.491  19.432
 7904SOL     OW35590   2.371   1.374   3.088
 7904SOL    HW135591   2.373   1.287   3.047
 7904SOL    HW235592   2.462   1.394   3.106
 7905SOL     OW35593   2.284   1.978   5.507
 7905SOL    HW135594   2.217   2.039   5.537
 7905SOL    HW235595   2.350   1.980   5.577
 7906SOL     OW35596   3.583   4.701   3.658
 7906SOL    HW135597   3.499   4.747   3.665
 7906SOL    HW235598   3.568   4.618   3.705
 7907SOL     OW35599   1.476   0.181  14.385
 7907SOL    HW135600   1.474   0.257  14.443
 7907SOL    HW235601   1.545   0.126  14.421
 7908SOL     OW35602   0.809   3.167  14.130
 7908SOL    HW135603   0.868   3.095  14.153
 7908SOL    HW235604   0.802   3.163  14.034
 7909SOL     OW35605   0.090   2.623  15.496
 7909SOL    HW135606   0.145   2.544  15.493
 7909SOL    HW235607   0.001   2.590  15.509
 7910SOL     OW35608   4.391   3.401  13.703
 7910SOL    HW135609   4.374   3.358  13.787
 7910SOL    HW235610   4.474   3.448  13.717
 7911SOL     OW35611   2.760   1.576   1.775
 7911SOL    HW135612   2.676   1.620   1.782
 7911SOL    HW235613   2.777   1.543   1.864
 7912SOL     OW35614   1.044   0.968   1.200
 7912SOL    HW135615   1.062   1.050   1.154
 7912SOL    HW235616   1.094   0.974   1.281
 7913SOL     OW35617   2.407   2.284   3.668
 7913SOL    HW135618   2.360   2.206   3.639
 7913SOL    HW235619   2.339   2.338   3.710
 7914SOL     OW35620   2.634   0.482  19.400
 7914SOL    HW135621   2.651   0.576  19.397
 7914SOL    HW235622   2.714   0.444  19.436
 7915SOL     OW35623   3.485   2.779  16.572
 7915SOL    HW135624   3.402   2.816  16.603
 7915SOL    HW235625   3.461   2.717  16.504
 7916SOL     OW35626   3.483   1.074  19.703
 7916SOL    HW135627   3.400   1.113  19.731
 7916SOL    HW235628   3.536   1.149  19.676
 7917SOL     OW35629   0.840   1.927   3.776
 7917SOL    HW135630   0.888   1.957   3.698
 7917SOL    HW235631   0.891   1.959   3.850
 7918SOL     OW35632   2.972   3.236  20.727
 7918SOL    HW135633   2.973   3.140  20.727
 7918SOL    HW235634   3.060   3.261  20.755
 7919SOL     OW35635   2.383   2.854  19.330
 7919SOL    HW135636   2.440   2.784  19.299
 7919SOL    HW235637   2.407   2.865  19.422
 7920SOL     OW35638   1.304   4.287  17.892
 7920SOL    HW135639   1.367   4.294  17.820
 7920SOL    HW235640   1.224   4.326  17.857
 7921SOL     OW35641   3.883   2.883  15.628
 7921SOL    HW135642   3.906   2.975  15.624
 7921SOL    HW235643   3.797   2.878  15.587
 7922SOL     OW35644   0.692   1.902   2.977
 7922SOL    HW135645   0.770   1.948   2.945
 7922SOL    HW235646   0.692   1.918   3.071
 7923SOL     OW35647   0.083   3.577   4.506
 7923SOL    HW135648   0.138   3.607   4.434
 7923SOL    HW235649   4.780   3.592   4.475
 7924SOL     OW35650   2.346   1.261  14.607
 7924SOL    HW135651   2.438   1.237  14.619
 7924SOL    HW235652   2.310   1.267  14.695
 7925SOL     OW35653   2.785   3.797  16.410
 7925SOL    HW135654   2.759   3.710  16.440
 7925SOL    HW235655   2.726   3.856  16.455
 7926SOL     OW35656   0.662   4.750   0.498
 7926SOL    HW135657   0.595   4.764   0.564
 7926SOL    HW235658   0.632   4.672   0.450
 7927SOL     OW35659   1.458   3.461  15.362
 7927SOL    HW135660   1.540   3.506  15.341
 7927SOL    HW235661   1.474   3.422  15.448
 7928SOL     OW35662   2.354   0.979  20.595
 7928SOL    HW135663   2.359   0.886  20.615
 7928SOL    HW235664   2.404   1.022  20.665
 7929SOL     OW35665   4.318   2.799  19.570
 7929SOL    HW135666   4.356   2.884  19.592
 7929SOL    HW235667   4.390   2.737  19.576
 7930SOL     OW35668   4.322   3.669  15.206
 7930SOL    HW135669   4.375   3.746  15.183
 7930SOL    HW235670   4.312   3.674  15.301
 7931SOL     OW35671   2.831   2.179   1.687
 7931SOL    HW135672   2.779   2.099   1.700
 7931SOL    HW235673   2.767   2.243   1.657
 7932SOL     OW35674   3.071   1.058   3.739
 7932SOL    HW135675   3.082   1.054   3.644
 7932SOL    HW235676   3.090   0.970   3.769
 7933SOL     OW35677   1.967   4.742  17.024
 7933SOL    HW135678   1.993   4.776  16.939
 7933SOL    HW235679   2.046   4.701  17.059
 7934SOL     OW35680   1.196   3.539  15.421
 7934SOL    HW135681   1.217   3.554  15.513
 7934SOL    HW235682   1.279   3.513  15.381
 7935SOL     OW35683   2.068   4.039   2.436
 7935SOL    HW135684   2.076   4.132   2.416
 7935SOL    HW235685   1.974   4.024   2.441
 7936SOL     OW35686   0.619   3.257  13.497
 7936SOL    HW135687   0.638   3.228  13.586
 7936SOL    HW235688   0.674   3.334  13.484
 7937SOL     OW35689   4.019   1.729  20.607
 7937SOL    HW135690   3.955   1.739  20.677
 7937SOL    HW235691   4.015   1.636  20.583
 7938SOL     OW35692   2.511   2.872  18.189
 7938SOL    HW135693   2.544   2.960  18.176
 7938SOL    HW235694   2.578   2.828  18.241
 7939SOL     OW35695   1.156   0.253  18.443
 7939SOL    HW135696   1.145   0.175  18.389
 7939SOL    HW235697   1.248   0.277  18.432
 7940SOL     OW35698   3.709   2.342  15.828
 7940SOL    HW135699   3.799   2.334  15.860
 7940SOL    HW235700   3.659   2.374  15.903
 7941SOL     OW35701   1.804   1.129  20.536
 7941SOL    HW135702   1.844   1.119  20.449
 7941SOL    HW235703   1.872   1.101  20.597
 7942SOL     OW35704   0.382   2.595  19.738
 7942SOL    HW135705   0.468   2.562  19.763
 7942SOL    HW235706   0.400   2.670  19.682
 7943SOL     OW35707   3.217   0.009  14.676
 7943SOL    HW135708   3.189   4.721  14.729
 7943SOL    HW235709   3.269   4.757  14.605
 7944SOL     OW35710   2.014   0.234  16.331
 7944SOL    HW135711   2.084   0.299  16.329
 7944SOL    HW235712   2.045   0.163  16.275
 7945SOL     OW35713   4.212   3.672  17.412
 7945SOL    HW135714   4.126   3.649  17.448
 7945SOL    HW235715   4.262   3.591  17.417
 7946SOL     OW35716   0.196   2.417  19.454
 7946SOL    HW135717   0.167   2.337  19.498
 7946SOL    HW235718   0.288   2.401  19.433
 7947SOL     OW35719   2.801   4.090   5.129
 7947SOL    HW135720   2.803   3.997   5.105
 7947SOL    HW235721   2.887   4.107   5.168
 7948SOL     OW35722   1.675   1.980  19.230
 7948SOL    HW135723   1.646   1.889  19.227
 7948SOL    HW235724   1.600   2.028  19.264
 7949SOL     OW35725   2.300   4.515  19.464
 7949SOL    HW135726   2.372   4.459  19.494
 7949SOL    HW235727   2.282   4.572  19.538
 7950SOL     OW35728   4.591   3.909   5.085
 7950SOL    HW135729   4.507   3.910   5.132
 7950SOL    HW235730   4.593   3.823   5.043
 7951SOL     OW35731   0.212   0.188   0.791
 7951SOL    HW135732   0.279   0.250   0.820
 7951SOL    HW235733   0.137   0.207   0.847
 7952SOL     OW35734   3.076   2.661   0.624
 7952SOL    HW135735   2.995   2.625   0.661
 7952SOL    HW235736   3.062   2.660   0.529
 7953SOL     OW35737   3.817   0.853  19.816
 7953SOL    HW135738   3.729   0.875  19.845
 7953SOL    HW235739   3.863   0.937  19.813
 7954SOL     OW35740   2.371   2.356  17.777
 7954SOL    HW135741   2.316   2.379  17.702
 7954SOL    HW235742   2.310   2.352  17.851
 7955SOL     OW35743   3.324   4.684   5.904
 7955SOL    HW135744   3.245   4.673   5.957
 7955SOL    HW235745   3.313   4.623   5.831
 7956SOL     OW35746   1.288   0.528   7.520
 7956SOL    HW135747   1.293   0.571   7.605
 7956SOL    HW235748   1.196   0.500   7.513
 7957SOL     OW35749   2.081   0.727  15.475
 7957SOL    HW135750   2.160   0.676  15.494
 7957SOL    HW235751   2.113   0.798  15.419
 7958SOL     OW35752   0.034   4.089  15.105
 7958SOL    HW135753   4.783   4.087  15.017
 7958SOL    HW235754   4.767   4.027  15.155
 7959SOL     OW35755   0.620   4.337   0.754
 7959SOL    HW135756   0.637   4.366   0.664
 7959SOL    HW235757   0.697   4.365   0.803
 7960SOL     OW35758   0.288   2.613   4.975
 7960SOL    HW135759   0.240   2.599   5.056
 7960SOL    HW235760   0.344   2.536   4.966
 7961SOL     OW35761   3.283   2.342  14.747
 7961SOL    HW135762   3.216   2.286  14.709
 7961SOL    HW235763   3.322   2.289  14.816
 7962SOL     OW35764   4.329   1.796   5.246
 7962SOL    HW135765   4.332   1.761   5.157
 7962SOL    HW235766   4.305   1.722   5.301
 7963SOL     OW35767   0.147   3.638   0.194
 7963SOL    HW135768   0.102   3.569   0.244
 7963SOL    HW235769   0.113   3.720   0.229
 7964SOL     OW35770   3.540   1.292   9.366
 7964SOL    HW135771   3.535   1.363   9.303
 7964SOL    HW235772   3.449   1.267   9.382
 7965SOL     OW35773   4.233   3.882  20.530
 7965SOL    HW135774   4.298   3.844  20.589
 7965SOL    HW235775   4.165   3.915  20.588
 7966SOL     OW35776   3.665   4.067   1.209
 7966SOL    HW135777   3.585   4.113   1.180
 7966SOL    HW235778   3.654   4.056   1.303
 7967SOL     OW35779   1.969   4.002   6.883
 7967SOL    HW135780   2.049   3.991   6.830
 7967SOL    HW235781   1.901   4.024   6.819
 7968SOL     OW35782   0.749   3.641  16.093
 7968SOL    HW135783   0.831   3.592  16.083
 7968SOL    HW235784   0.777   3.731  16.112
 7969SOL     OW35785   4.669   2.452  17.194
 7969SOL    HW135786   4.614   2.387  17.237
 7969SOL    HW235787   4.758   2.432  17.225
 7970SOL     OW35788   2.446   2.530  12.941
 7970SOL    HW135789   2.417   2.611  12.981
 7970SOL    HW235790   2.419   2.537  12.849
 7971SOL     OW35791   3.197   1.937   1.260
 7971SOL    HW135792   3.264   1.895   1.206
 7971SOL    HW235793   3.235   2.021   1.285
 7972SOL     OW35794   0.870   1.344  15.626
 7972SOL    HW135795   0.963   1.326  15.616
 7972SOL    HW235796   0.838   1.353  15.536
 7973SOL     OW35797   1.199   2.226   2.733
 7973SOL    HW135798   1.238   2.156   2.787
 7973SOL    HW235799   1.274   2.276   2.702
 7974SOL     OW35800   1.131   1.114   5.363
 7974SOL    HW135801   1.085   1.065   5.432
 7974SOL    HW235802   1.063   1.167   5.322
 7975SOL     OW35803   3.022   4.150   3.848
 7975SOL    HW135804   3.008   4.222   3.909
 7975SOL    HW235805   2.934   4.128   3.816
 7976SOL     OW35806   0.786   1.040  11.402
 7976SOL    HW135807   0.785   0.975  11.472
 7976SOL    HW235808   0.696   1.071  11.397
 7977SOL     OW35809   4.263   3.964  15.547
 7977SOL    HW135810   4.352   3.998  15.536
 7977SOL    HW235811   4.270   3.871  15.526
 7978SOL     OW35812   4.599   2.362  20.388
 7978SOL    HW135813   4.510   2.386  20.364
 7978SOL    HW235814   4.608   2.270  20.363
 7979SOL     OW35815   4.279   1.955  19.450
 7979SOL    HW135816   4.255   2.039  19.411
 7979SOL    HW235817   4.374   1.959  19.459
 7980SOL     OW35818   1.915   0.630   2.392
 7980SOL    HW135819   1.873   0.546   2.409
 7980SOL    HW235820   1.892   0.684   2.468
 7981SOL     OW35821   3.497   1.841  17.724
 7981SOL    HW135822   3.573   1.895  17.745
 7981SOL    HW235823   3.489   1.782  17.799
 7982SOL     OW35824   3.719   0.196   4.658
 7982SOL    HW135825   3.743   0.181   4.749
 7982SOL    HW235826   3.739   0.288   4.642
 7983SOL     OW35827   2.985   1.406   4.332
 7983SOL    HW135828   3.051   1.426   4.398
 7983SOL    HW235829   2.932   1.485   4.326
 7984SOL     OW35830   0.018   3.601   2.764
 7984SOL    HW135831   0.093   3.543   2.754
 7984SOL    HW235832   4.737   3.564   2.708
 7985SOL     OW35833   1.691   1.110   6.283
 7985SOL    HW135834   1.782   1.089   6.300
 7985SOL    HW235835   1.642   1.035   6.317
 7986SOL     OW35836   2.110   1.118   4.348
 7986SOL    HW135837   2.196   1.076   4.342
 7986SOL    HW235838   2.067   1.073   4.420
 7987SOL     OW35839   3.940   1.628  17.555
 7987SOL    HW135840   3.921   1.598  17.466
 7987SOL    HW235841   3.979   1.714  17.543
 7988SOL     OW35842   1.321   1.326   8.737
 7988SOL    HW135843   1.339   1.245   8.689
 7988SOL    HW235844   1.235   1.354   8.705
 7989SOL     OW35845   3.421   2.940  19.613
 7989SOL    HW135846   3.387   2.882  19.681
 7989SOL    HW235847   3.462   3.012  19.662
 7990SOL     OW35848   1.558   4.171   3.590
 7990SOL    HW135849   1.573   4.187   3.496
 7990SOL    HW235850   1.636   4.206   3.633
 7991SOL     OW35851   3.626   0.892  15.331
 7991SOL    HW135852   3.531   0.904  15.331
 7991SOL    HW235853   3.641   0.821  15.394
 7992SOL     OW35854   2.170   1.242   0.097
 7992SOL    HW135855   2.135   1.330   0.080
 7992SOL    HW235856   2.139   1.189   0.023
 7993SOL     OW35857   0.483   4.588  20.740
 7993SOL    HW135858   0.543   4.551  20.676
 7993SOL    HW235859   0.538   4.641  20.798
 7994SOL     OW35860   3.182   4.692  14.228
 7994SOL    HW135861   3.212   4.704  14.138
 7994SOL    HW235862   3.126   4.769  14.245
 7995SOL     OW35863   0.387   0.333  13.757
 7995SOL    HW135864   0.304   0.368  13.790
 7995SOL    HW235865   0.451   0.399  13.782
 7996SOL     OW35866   0.438   4.110  12.697
 7996SOL    HW135867   0.358   4.119  12.748
 7996SOL    HW235868   0.476   4.027  12.726
 7997SOL     OW35869   1.701   1.447  16.114
 7997SOL    HW135870   1.767   1.401  16.062
 7997SOL    HW235871   1.744   1.528  16.142
 7998SOL     OW35872   0.459   4.471   2.272
 7998SOL    HW135873   0.482   4.380   2.256
 7998SOL    HW235874   0.512   4.496   2.347
 7999SOL     OW35875   2.550   0.732   2.328
 7999SOL    HW135876   2.493   0.808   2.317
 7999SOL    HW235877   2.499   0.658   2.296
 8000SOL     OW35878   4.597   0.647  19.491
 8000SOL    HW135879   4.681   0.601  19.495
 8000SOL    HW235880   4.621   0.738  19.472
 8001SOL     OW35881   4.085   3.649  17.131
 8001SOL    HW135882   4.165   3.644  17.079
 8001SOL    HW235883   4.115   3.667  17.220
 8002SOL     OW35884   3.539   2.620   3.920
 8002SOL    HW135885   3.461   2.644   3.869
 8002SOL    HW235886   3.522   2.655   4.007
 8003SOL     OW35887   2.530   1.955   6.505
 8003SOL    HW135888   2.588   1.935   6.578
 8003SOL    HW235889   2.477   2.029   6.537
 8004SOL     OW35890   1.306   4.526  16.738
 8004SOL    HW135891   1.256   4.602  16.708
 8004SOL    HW235892   1.240   4.457  16.749
 8005SOL     OW35893   3.798   4.197   6.003
 8005SOL    HW135894   3.759   4.111   6.024
 8005SOL    HW235895   3.738   4.260   6.043
 8006SOL     OW35896   0.240   2.923  19.392
 8006SOL    HW135897   0.209   2.906  19.481
 8006SOL    HW235898   0.180   2.990  19.358
 8007SOL     OW35899   2.584   4.757  16.408
 8007SOL    HW135900   2.571   4.697  16.335
 8007SOL    HW235901   2.555   4.709  16.485
 8008SOL     OW35902   3.438   2.869   2.460
 8008SOL    HW135903   3.477   2.786   2.487
 8008SOL    HW235904   3.504   2.935   2.483
 8009SOL     OW35905   2.431   1.824   3.302
 8009SOL    HW135906   2.435   1.735   3.336
 8009SOL    HW235907   2.451   1.880   3.378
 8010SOL     OW35908   1.226   0.182   2.293
 8010SOL    HW135909   1.212   0.103   2.241
 8010SOL    HW235910   1.173   0.249   2.250
 8011SOL     OW35911   4.516   4.762  15.527
 8011SOL    HW135912   4.463   4.745  15.605
 8011SOL    HW235913   4.457   4.748  15.453
 8012SOL     OW35914   4.259   3.123   5.019
 8012SOL    HW135915   4.228   3.110   5.109
 8012SOL    HW235916   4.188   3.171   4.976
 8013SOL     OW35917   2.348   1.706  20.123
 8013SOL    HW135918   2.266   1.751  20.142
 8013SOL    HW235919   2.413   1.777  20.116
 8014SOL     OW35920   2.255   2.532  20.992
 8014SOL    HW135921   2.207   2.518  21.074
 8014SOL    HW235922   2.284   2.623  20.997
 8015SOL     OW35923   3.226   1.383   0.518
 8015SOL    HW135924   3.292   1.314   0.528
 8015SOL    HW235925   3.274   1.456   0.479
 8016SOL     OW35926   4.305   4.648  18.266
 8016SOL    HW135927   4.366   4.576  18.250
 8016SOL    HW235928   4.345   4.723  18.221
 8017SOL     OW35929   3.915   1.295   1.654
 8017SOL    HW135930   3.889   1.370   1.601
 8017SOL    HW235931   3.976   1.247   1.599
 8018SOL     OW35932   0.329   1.948   4.406
 8018SOL    HW135933   0.265   1.879   4.419
 8018SOL    HW235934   0.410   1.903   4.381
 8019SOL     OW35935   2.236   3.461   3.872
 8019SOL    HW135936   2.330   3.448   3.857
 8019SOL    HW235937   2.232   3.516   3.950
 8020SOL     OW35938   3.667   0.728   2.895
 8020SOL    HW135939   3.723   0.682   2.958
 8020SOL    HW235940   3.726   0.748   2.822
 8021SOL     OW35941   2.274   2.202  15.607
 8021SOL    HW135942   2.351   2.162  15.567
 8021SOL    HW235943   2.210   2.206  15.537
 8022SOL     OW35944   4.332   3.642  17.000
 8022SOL    HW135945   4.419   3.627  17.037
 8022SOL    HW235946   4.340   3.725  16.954
 8023SOL     OW35947   0.623   3.188  19.475
 8023SOL    HW135948   0.547   3.144  19.512
 8023SOL    HW235949   0.622   3.165  19.382
 8024SOL     OW35950   3.196   2.089   0.864
 8024SOL    HW135951   3.270   2.108   0.806
 8024SOL    HW235952   3.161   2.175   0.887
 8025SOL     OW35953   0.664   3.998  15.558
 8025SOL    HW135954   0.641   3.990  15.465
 8025SOL    HW235955   0.749   4.043  15.557
 8026SOL     OW35956   0.742   1.337  15.004
 8026SOL    HW135957   0.676   1.406  14.990
 8026SOL    HW235958   0.821   1.384  15.028
 8027SOL     OW35959   2.567   0.231  12.761
 8027SOL    HW135960   2.482   0.193  12.782
 8027SOL    HW235961   2.601   0.262  12.845
 8028SOL     OW35962   0.070   1.348  14.160
 8028SOL    HW135963   0.047   1.259  14.188
 8028SOL    HW235964   0.098   1.337  14.069
 8029SOL     OW35965   1.324   3.854   1.938
 8029SOL    HW135966   1.374   3.863   2.019
 8029SOL    HW235967   1.323   3.760   1.920
 8030SOL     OW35968   1.697   2.653   2.232
 8030SOL    HW135969   1.643   2.731   2.236
 8030SOL    HW235970   1.651   2.594   2.172
 8031SOL     OW35971   4.415   0.932  20.814
 8031SOL    HW135972   4.457   0.936  20.899
 8031SOL    HW235973   4.321   0.930  20.833
 8032SOL     OW35974   1.349   2.637  20.576
 8032SOL    HW135975   1.303   2.569  20.526
 8032SOL    HW235976   1.280   2.699  20.600
 8033SOL     OW35977   4.503   2.363   3.205
 8033SOL    HW135978   4.479   2.455   3.218
 8033SOL    HW235979   4.513   2.329   3.294
 8034SOL     OW35980   1.727   1.455  20.642
 8034SOL    HW135981   1.788   1.501  20.585
 8034SOL    HW235982   1.764   1.367  20.651
 8035SOL     OW35983   1.511   3.144  12.851
 8035SOL    HW135984   1.514   3.049  12.861
 8035SOL    HW235985   1.567   3.177  12.922
 8036SOL     OW35986   0.925   0.413  21.204
 8036SOL    HW135987   0.865   0.338  21.209
 8036SOL    HW235988   0.914   0.446  21.115
 8037SOL     OW35989   1.172   2.088   1.824
 8037SOL    HW135990   1.266   2.089   1.810
 8037SOL    HW235991   1.139   2.166   1.779
 8038SOL     OW35992   2.900   3.429   3.269
 8038SOL    HW135993   2.882   3.360   3.205
 8038SOL    HW235994   2.992   3.416   3.293
 8039SOL     OW35995   2.270   4.074   0.461
 8039SOL    HW135996   2.243   3.984   0.479
 8039SOL    HW235997   2.364   4.076   0.478
 8040SOL     OW35998   1.024   0.951  14.653
 8040SOL    HW135999   0.971   0.988  14.582
 8040SOL    HW236000   1.080   1.024  14.681
 8041SOL     OW36001   4.597   4.350  16.396
 8041SOL    HW136002   4.513   4.307  16.414
 8041SOL    HW236003   4.578   4.443  16.403
 8042SOL     OW36004   1.460   1.314  14.508
 8042SOL    HW136005   1.506   1.372  14.448
 8042SOL    HW236006   1.472   1.226  14.471
 8043SOL     OW36007   3.207   3.313   3.583
 8043SOL    HW136008   3.137   3.248   3.596
 8043SOL    HW236009   3.259   3.308   3.663
 8044SOL     OW36010   2.513   3.021  18.432
 8044SOL    HW136011   2.605   3.047  18.427
 8044SOL    HW236012   2.487   3.008  18.340
 8045SOL     OW36013   1.499   1.769   3.054
 8045SOL    HW136014   1.452   1.756   2.972
 8045SOL    HW236015   1.462   1.704   3.113
 8046SOL     OW36016   4.632   0.352  19.209
 8046SOL    HW136017   4.724   0.375  19.210
 8046SOL    HW236018   4.587   0.435  19.192
 8047SOL     OW36019   4.597   0.620  14.824
 8047SOL    HW136020   4.599   0.528  14.797
 8047SOL    HW236021   4.538   0.622  14.900
 8048SOL     OW36022   2.360   0.929   5.342
 8048SOL    HW136023   2.387   0.963   5.257
 8048SOL    HW236024   2.272   0.895   5.327
 8049SOL     OW36025   1.503   3.627   2.600
 8049SOL    HW136026   1.467   3.622   2.689
 8049SOL    HW236027   1.529   3.537   2.579
 8050SOL     OW36028   1.383   0.039  19.803
 8050SOL    HW136029   1.454   0.101  19.788
 8050SOL    HW236030   1.424   4.752  19.849
 8051SOL     OW36031   4.230   4.655  14.277
 8051SOL    HW136032   4.274   4.577  14.244
 8051SOL    HW236033   4.140   4.648  14.245
 8052SOL     OW36034   1.125   0.103  17.356
 8052SOL    HW136035   1.212   0.124  17.391
 8052SOL    HW236036   1.102   0.020  17.397
 8053SOL     OW36037   3.023   3.381   1.232
 8053SOL    HW136038   3.116   3.378   1.209
 8053SOL    HW236039   2.983   3.315   1.176
 8054SOL     OW36040   3.465   4.155  15.214
 8054SOL    HW136041   3.410   4.173  15.290
 8054SOL    HW236042   3.535   4.099  15.247
 8055SOL     OW36043   4.502   1.689   3.652
 8055SOL    HW136044   4.531   1.643   3.730
 8055SOL    HW236045   4.565   1.760   3.641
 8056SOL     OW36046   3.243   3.932  20.595
 8056SOL    HW136047   3.203   3.848  20.572
 8056SOL    HW236048   3.337   3.917  20.584
 8057SOL     OW36049   1.304   3.283   6.738
 8057SOL    HW136050   1.267   3.359   6.783
 8057SOL    HW236051   1.231   3.222   6.732
 8058SOL     OW36052   0.927   2.371   4.201
 8058SOL    HW136053   0.976   2.396   4.279
 8058SOL    HW236054   0.977   2.299   4.163
 8059SOL     OW36055   2.137   4.335   3.488
 8059SOL    HW136056   2.055   4.297   3.521
 8059SOL    HW236057   2.143   4.302   3.398
 8060SOL     OW36058   4.643   0.177   5.573
 8060SOL    HW136059   4.605   0.093   5.598
 8060SOL    HW236060   4.662   0.220   5.656
 8061SOL     OW36061   0.875   4.041  18.335
 8061SOL    HW136062   0.892   4.060  18.428
 8061SOL    HW236063   0.930   3.965  18.316
 8062SOL     OW36064   1.815   4.550  16.563
 8062SOL    HW136065   1.844   4.596  16.641
 8062SOL    HW236066   1.896   4.525  16.519
 8063SOL     OW36067   2.200   1.625   6.166
 8063SOL    HW136068   2.145   1.670   6.230
 8063SOL    HW236069   2.153   1.544   6.146
 8064SOL     OW36070   2.950   0.411  16.177
 8064SOL    HW136071   3.039   0.378  16.162
 8064SOL    HW236072   2.907   0.403  16.092
 8065SOL     OW36073   0.817   4.114   0.788
 8065SOL    HW136074   0.730   4.154   0.783
 8065SOL    HW236075   0.808   4.046   0.855
 8066SOL     OW36076   1.075   2.960  17.290
 8066SOL    HW136077   1.069   3.021  17.217
 8066SOL    HW236078   1.059   3.013  17.368
 8067SOL     OW36079   3.762   4.503  14.307
 8067SOL    HW136080   3.747   4.413  14.279
 8067SOL    HW236081   3.798   4.496  14.395
 8068SOL     OW36082   0.169   0.279   3.853
 8068SOL    HW136083   0.195   0.188   3.870
 8068SOL    HW236084   0.246   0.319   3.813
 8069SOL     OW36085   3.745   0.740   3.319
 8069SOL    HW136086   3.826   0.701   3.286
 8069SOL    HW236087   3.733   0.819   3.265
 8070SOL     OW36088   3.675   2.378   3.795
 8070SOL    HW136089   3.618   2.450   3.823
 8070SOL    HW236090   3.757   2.392   3.842
 8071SOL     OW36091   1.596   2.632  20.183
 8071SOL    HW136092   1.637   2.696  20.126
 8071SOL    HW236093   1.562   2.682  20.257
 8072SOL     OW36094   4.352   1.142   6.578
 8072SOL    HW136095   4.362   1.052   6.546
 8072SOL    HW236096   4.411   1.194   6.523
 8073SOL     OW36097   0.862   1.208   3.141
 8073SOL    HW136098   0.868   1.251   3.227
 8073SOL    HW236099   0.774   1.232   3.110
 8074SOL     OW36100   1.964   4.514  16.833
 8074SOL    HW136101   1.910   4.438  16.857
 8074SOL    HW236102   1.979   4.560  16.916
 8075SOL     OW36103   3.534   1.401  17.894
 8075SOL    HW136104   3.536   1.372  17.985
 8075SOL    HW236105   3.532   1.496  17.899
 8076SOL     OW36106   3.759   1.117   0.696
 8076SOL    HW136107   3.716   1.056   0.755
 8076SOL    HW236108   3.743   1.081   0.609
 8077SOL     OW36109   1.652   4.744  16.751
 8077SOL    HW136110   1.687   4.698  16.674
 8077SOL    HW236111   1.615   4.674  16.805
 8078SOL     OW36112   2.139   4.499   3.820
 8078SOL    HW136113   2.130   4.408   3.847
 8078SOL    HW236114   2.232   4.518   3.829
 8079SOL     OW36115   3.608   2.576   5.777
 8079SOL    HW136116   3.612   2.539   5.689
 8079SOL    HW236117   3.580   2.667   5.763
 8080SOL     OW36118   2.662   1.810  17.566
 8080SOL    HW136119   2.720   1.822  17.641
 8080SOL    HW236120   2.641   1.717  17.567
 8081SOL     OW36121   0.981   0.511   1.807
 8081SOL    HW136122   0.997   0.602   1.830
 8081SOL    HW236123   0.885   0.503   1.808
 8082SOL     OW36124   0.219   1.184  17.413
 8082SOL    HW136125   0.228   1.274  17.383
 8082SOL    HW236126   0.216   1.190  17.509
 8083SOL     OW36127   2.873   2.610  16.906
 8083SOL    HW136128   2.924   2.655  16.839
 8083SOL    HW236129   2.841   2.679  16.963
 8084SOL     OW36130   3.868   0.959   4.359
 8084SOL    HW136131   3.941   1.012   4.392
 8084SOL    HW236132   3.863   0.980   4.266
 8085SOL     OW36133   2.187   3.552   5.276
 8085SOL    HW136134   2.129   3.574   5.203
 8085SOL    HW236135   2.231   3.634   5.297
 8086SOL     OW36136   2.133   3.034  17.832
 8086SOL    HW136137   2.198   2.971  17.863
 8086SOL    HW236138   2.185   3.102  17.790
 8087SOL     OW36139   2.791   1.448   4.084
 8087SOL    HW136140   2.836   1.386   4.143
 8087SOL    HW236141   2.743   1.393   4.023
 8088SOL     OW36142   0.088   3.639  14.681
 8088SOL    HW136143   0.011   3.640  14.624
 8088SOL    HW236144   0.071   3.567  14.742
 8089SOL     OW36145   1.145   1.966  18.645
 8089SOL    HW136146   1.179   2.010  18.567
 8089SOL    HW236147   1.217   1.971  18.709
 8090SOL     OW36148   3.581   1.570   1.417
 8090SOL    HW136149   3.502   1.566   1.470
 8090SOL    HW236150   3.578   1.656   1.375
 8091SOL     OW36151   2.755   2.075   3.961
 8091SOL    HW136152   2.675   2.031   3.988
 8091SOL    HW236153   2.727   2.143   3.901
 8092SOL     OW36154   1.641   4.508  15.678
 8092SOL    HW136155   1.682   4.451  15.612
 8092SOL    HW236156   1.677   4.595  15.660
 8093SOL     OW36157   0.131   1.073  19.557
 8093SOL    HW136158   0.089   1.086  19.642
 8093SOL    HW236159   0.173   1.157  19.538
 8094SOL     OW36160   3.669   4.735  16.190
 8094SOL    HW136161   3.655   4.648  16.227
 8094SOL    HW236162   3.742   4.723  16.129
 8095SOL     OW36163   1.564   1.404   4.441
 8095SOL    HW136164   1.564   1.322   4.391
 8095SOL    HW236165   1.626   1.388   4.512
 8096SOL     OW36166   3.090   1.638  17.171
 8096SOL    HW136167   3.131   1.636  17.085
 8096SOL    HW236168   3.163   1.637  17.233
 8097SOL     OW36169   1.478   4.621  16.537
 8097SOL    HW136170   1.459   4.615  16.630
 8097SOL    HW236171   1.416   4.686  16.504
 8098SOL     OW36172   0.878   0.264   2.001
 8098SOL    HW136173   0.818   0.339   1.995
 8098SOL    HW236174   0.883   0.230   1.912
 8099SOL     OW36175   2.088   0.481   4.705
 8099SOL    HW136176   2.096   0.536   4.783
 8099SOL    HW236177   2.047   0.537   4.639
 8100SOL     OW36178   0.550   0.944   4.637
 8100SOL    HW136179   0.581   0.853   4.632
 8100SOL    HW236180   0.513   0.952   4.724
 8101SOL     OW36181   0.130   2.911  17.691
 8101SOL    HW136182   0.205   2.957  17.653
 8101SOL    HW236183   0.163   2.877  17.774
 8102SOL     OW36184   0.047   1.359  17.984
 8102SOL    HW136185   0.087   1.283  18.026
 8102SOL    HW236186   4.769   1.390  18.048
 8103SOL     OW36187   4.198   3.711  19.480
 8103SOL    HW136188   4.172   3.722  19.388
 8103SOL    HW236189   4.119   3.732  19.529
 8104SOL     OW36190   0.813   2.463   5.994
 8104SOL    HW136191   0.848   2.498   6.077
 8104SOL    HW236192   0.780   2.376   6.017
 8105SOL     OW36193   0.814   1.982   2.210
 8105SOL    HW136194   0.779   1.992   2.121
 8105SOL    HW236195   0.908   1.994   2.200
 8106SOL     OW36196   1.247   3.616  18.369
 8106SOL    HW136197   1.250   3.526  18.400
 8106SOL    HW236198   1.288   3.614  18.283
 8107SOL     OW36199   0.679   0.409   5.498
 8107SOL    HW136200   0.747   0.456   5.449
 8107SOL    HW236201   0.667   0.327   5.450
 8108SOL     OW36202   3.707   3.575   1.825
 8108SOL    HW136203   3.704   3.486   1.790
 8108SOL    HW236204   3.738   3.629   1.752
 8109SOL     OW36205   0.781   0.927  17.770
 8109SOL    HW136206   0.786   0.873  17.691
 8109SOL    HW236207   0.717   0.995  17.748
 8110SOL     OW36208   2.198   1.045   5.934
 8110SOL    HW136209   2.134   0.975   5.921
 8110SOL    HW236210   2.213   1.080   5.846
 8111SOL     OW36211   2.860   1.137  21.225
 8111SOL    HW136212   2.829   1.085   0.055
 8111SOL    HW236213   2.852   1.228   0.010
 8112SOL     OW36214   4.525   2.942   5.800
 8112SOL    HW136215   4.564   3.020   5.760
 8112SOL    HW236216   4.472   2.904   5.730
 8113SOL     OW36217   1.372   0.341   2.025
 8113SOL    HW136218   1.409   0.253   2.016
 8113SOL    HW236219   1.301   0.344   1.960
 8114SOL     OW36220   0.940   0.872  20.365
 8114SOL    HW136221   0.940   0.938  20.295
 8114SOL    HW236222   0.909   0.792  20.322
 8115SOL     OW36223   4.487   1.900   5.719
 8115SOL    HW136224   4.441   1.842   5.660
 8115SOL    HW236225   4.558   1.937   5.667
 8116SOL     OW36226   1.509   4.684   2.328
 8116SOL    HW136227   1.593   4.656   2.365
 8116SOL    HW236228   1.517   4.779   2.320
 8117SOL     OW36229   2.669   2.909  14.614
 8117SOL    HW136230   2.575   2.891  14.612
 8117SOL    HW236231   2.693   2.922  14.523
 8118SOL     OW36232   0.320   2.425  17.079
 8118SOL    HW136233   0.241   2.414  17.026
 8118SOL    HW236234   0.288   2.458  17.163
 8119SOL     OW36235   2.585   4.317  19.972
 8119SOL    HW136236   2.600   4.356  19.886
 8119SOL    HW236237   2.629   4.375  20.034
 8120SOL     OW36238   0.708   4.541  21.134
 8120SOL    HW136239   0.629   4.553  21.186
 8120SOL    HW236240   0.780   4.562  21.194
 8121SOL     OW36241   1.155   0.234  15.910
 8121SOL    HW136242   1.111   0.250  15.826
 8121SOL    HW236243   1.101   0.279  15.974
 8122SOL     OW36244   1.130   2.849   6.040
 8122SOL    HW136245   1.037   2.846   6.062
 8122SOL    HW236246   1.154   2.758   6.023
 8123SOL     OW36247   2.658   0.758  19.417
 8123SOL    HW136248   2.724   0.737  19.350
 8123SOL    HW236249   2.605   0.827  19.377
 8124SOL     OW36250   0.090   0.594   1.820
 8124SOL    HW136251   0.145   0.651   1.875
 8124SOL    HW236252   0.003   0.599   1.860
 8125SOL     OW36253   1.756   0.534   8.379
 8125SOL    HW136254   1.707   0.613   8.356
 8125SOL    HW236255   1.794   0.555   8.465
 8126SOL     OW36256   2.749   1.380   5.269
 8126SOL    HW136257   2.692   1.446   5.231
 8126SOL    HW236258   2.690   1.318   5.312
 8127SOL     OW36259   3.184   3.808  17.400
 8127SOL    HW136260   3.207   3.783  17.311
 8127SOL    HW236261   3.110   3.750  17.422
 8128SOL     OW36262   1.508   3.370   3.350
 8128SOL    HW136263   1.534   3.441   3.292
 8128SOL    HW236264   1.548   3.391   3.434
 8129SOL     OW36265   3.554   1.813   5.236
 8129SOL    HW136266   3.530   1.863   5.314
 8129SOL    HW236267   3.649   1.804   5.242
 8130SOL     OW36268   3.281   3.933   1.226
 8130SOL    HW136269   3.280   3.838   1.216
 8130SOL    HW236270   3.193   3.961   1.199
 8131SOL     OW36271   3.435   3.048  20.006
 8131SOL    HW136272   3.346   3.080  20.015
 8131SOL    HW236273   3.477   3.068  20.090
 8132SOL     OW36274   4.323   3.614  17.703
 8132SOL    HW136275   4.282   3.641  17.621
 8132SOL    HW236276   4.332   3.695  17.754
 8133SOL     OW36277   2.193   3.497   2.151
 8133SOL    HW136278   2.214   3.432   2.085
 8133SOL    HW236279   2.097   3.500   2.152
 8134SOL     OW36280   2.792   4.365  15.012
 8134SOL    HW136281   2.846   4.408  15.079
 8134SOL    HW236282   2.702   4.388  15.036
 8135SOL     OW36283   3.632   0.088   0.451
 8135SOL    HW136284   3.617   4.784   0.425
 8135SOL    HW236285   3.685   0.082   0.530
 8136SOL     OW36286   3.961   0.145  18.224
 8136SOL    HW136287   3.906   0.115  18.152
 8136SOL    HW236288   4.047   0.159  18.185
 8137SOL     OW36289   3.247   1.286  16.892
 8137SOL    HW136290   3.251   1.307  16.985
 8137SOL    HW236291   3.335   1.255  16.871
 8138SOL     OW36292   0.930   2.717  19.099
 8138SOL    HW136293   0.941   2.800  19.145
 8138SOL    HW236294   1.017   2.678  19.099
 8139SOL     OW36295   4.589   0.634  20.885
 8139SOL    HW136296   4.503   0.626  20.926
 8139SOL    HW236297   4.634   0.552  20.908
 8140SOL     OW36298   3.100   1.847  18.930
 8140SOL    HW136299   3.116   1.879  18.841
 8140SOL    HW236300   3.075   1.755  18.918
 8141SOL     OW36301   0.683   0.977  19.106
 8141SOL    HW136302   0.768   0.935  19.093
 8141SOL    HW236303   0.640   0.971  19.020
 8142SOL     OW36304   0.696   4.251  20.089
 8142SOL    HW136305   0.726   4.289  20.171
 8142SOL    HW236306   0.714   4.158  20.098
 8143SOL     OW36307   3.346   3.299   6.751
 8143SOL    HW136308   3.271   3.287   6.693
 8143SOL    HW236309   3.311   3.346   6.826
 8144SOL     OW36310   2.474   1.968   0.354
 8144SOL    HW136311   2.557   2.016   0.353
 8144SOL    HW236312   2.487   1.897   0.417
 8145SOL     OW36313   0.970   0.818  20.658
 8145SOL    HW136314   1.047   0.762  20.653
 8145SOL    HW236315   0.976   0.875  20.582
 8146SOL     OW36316   2.448   0.590   8.721
 8146SOL    HW136317   2.509   0.519   8.700
 8146SOL    HW236318   2.392   0.555   8.789
 8147SOL     OW36319   1.461   0.210   5.835
 8147SOL    HW136320   1.414   0.230   5.754
 8147SOL    HW236321   1.416   0.134   5.871
 8148SOL     OW36322   2.735   3.033   4.084
 8148SOL    HW136323   2.688   2.955   4.052
 8148SOL    HW236324   2.667   3.091   4.117
 8149SOL     OW36325   2.695   4.634   0.925
 8149SOL    HW136326   2.659   4.565   0.982
 8149SOL    HW236327   2.780   4.655   0.964
 8150SOL     OW36328   3.173   0.735   0.578
 8150SOL    HW136329   3.136   0.698   0.658
 8150SOL    HW236330   3.252   0.684   0.561
 8151SOL     OW36331   3.547   3.430   5.855
 8151SOL    HW136332   3.527   3.372   5.929
 8151SOL    HW236333   3.557   3.516   5.895
 8152SOL     OW36334   2.259   2.487  17.552
 8152SOL    HW136335   2.210   2.542  17.612
 8152SOL    HW236336   2.211   2.404  17.550
 8153SOL     OW36337   2.605   3.973   5.385
 8153SOL    HW136338   2.564   3.957   5.300
 8153SOL    HW236339   2.534   3.960   5.448
 8154SOL     OW36340   2.974   2.664  20.176
 8154SOL    HW136341   2.975   2.629  20.086
 8154SOL    HW236342   3.060   2.642  20.211
 8155SOL     OW36343   3.852   3.926   5.135
 8155SOL    HW136344   3.892   4.009   5.110
 8155SOL    HW236345   3.889   3.862   5.074
 8156SOL     OW36346   3.829   2.981   6.660
 8156SOL    HW136347   3.768   3.054   6.652
 8156SOL    HW236348   3.903   3.004   6.603
 8157SOL     OW36349   0.757   4.140   0.303
 8157SOL    HW136350   0.731   4.056   0.341
 8157SOL    HW236351   0.800   4.186   0.375
 8158SOL     OW36352   4.250   1.630   1.901
 8158SOL    HW136353   4.186   1.683   1.854
 8158SOL    HW236354   4.292   1.691   1.962
 8159SOL     OW36355   0.550   2.435   3.401
 8159SOL    HW136356   0.471   2.389   3.430
 8159SOL    HW236357   0.560   2.411   3.309
 8160SOL     OW36358   1.117   2.216  15.868
 8160SOL    HW136359   1.147   2.302  15.840
 8160SOL    HW236360   1.197   2.169  15.891
 8161SOL     OW36361   4.033   0.206   0.705
 8161SOL    HW136362   4.052   0.234   0.615
 8161SOL    HW236363   4.115   0.216   0.752
 8162SOL     OW36364   3.120   0.023  15.890
 8162SOL    HW136365   3.104   4.723  15.852
 8162SOL    HW236366   3.070   0.083  15.835
 8163SOL     OW36367   2.146   2.691   2.312
 8163SOL    HW136368   2.054   2.709   2.332
 8163SOL    HW236369   2.189   2.690   2.397
 8164SOL     OW36370   2.093   2.901   8.827
 8164SOL    HW136371   2.124   2.971   8.770
 8164SOL    HW236372   2.022   2.942   8.878
 8165SOL     OW36373   3.553   2.244   6.566
 8165SOL    HW136374   3.548   2.191   6.486
 8165SOL    HW236375   3.626   2.206   6.615
 8166SOL     OW36376   4.401   2.087  16.575
 8166SOL    HW136377   4.382   2.137  16.655
 8166SOL    HW236378   4.315   2.057  16.545
 8167SOL     OW36379   0.112   1.784   4.415
 8167SOL    HW136380   0.128   1.717   4.482
 8167SOL    HW236381   0.028   1.822   4.439
 8168SOL     OW36382   3.076   2.139   5.362
 8168SOL    HW136383   3.171   2.145   5.370
 8168SOL    HW236384   3.053   2.202   5.293
 8169SOL     OW36385   1.372   3.179  12.640
 8169SOL    HW136386   1.434   3.147  12.574
 8169SOL    HW236387   1.415   3.161  12.724
 8170SOL     OW36388   0.615   4.609  20.252
 8170SOL    HW136389   0.641   4.563  20.332
 8170SOL    HW236390   0.543   4.666  20.279
 8171SOL     OW36391   4.123   0.860   5.678
 8171SOL    HW136392   4.079   0.806   5.744
 8171SOL    HW236393   4.216   0.856   5.701
 8172SOL     OW36394   2.102   2.710   4.827
 8172SOL    HW136395   2.033   2.686   4.766
 8172SOL    HW236396   2.082   2.660   4.906
 8173SOL     OW36397   4.082   3.492  16.425
 8173SOL    HW136398   4.039   3.480  16.509
 8173SOL    HW236399   4.073   3.586  16.406
 8174SOL     OW36400   4.547   0.039  16.710
 8174SOL    HW136401   4.503   0.047  16.795
 8174SOL    HW236402   4.504   0.104  16.655
 8175SOL     OW36403   4.662   4.555  15.349
 8175SOL    HW136404   4.660   4.592  15.438
 8175SOL    HW236405   4.695   4.466  15.361
 8176SOL     OW36406   3.630   0.363   4.883
 8176SOL    HW136407   3.673   0.278   4.887
 8176SOL    HW236408   3.618   0.380   4.789
 8177SOL     OW36409   1.316   1.003  13.815
 8177SOL    HW136410   1.278   0.924  13.778
 8177SOL    HW236411   1.242   1.048  13.856
 8178SOL     OW36412   2.143   4.622  15.604
 8178SOL    HW136413   2.109   4.694  15.551
 8178SOL    HW236414   2.134   4.545  15.548
 8179SOL     OW36415   2.447   4.267  20.453
 8179SOL    HW136416   2.493   4.188  20.426
 8179SOL    HW236417   2.507   4.309  20.515
 8180SOL     OW36418   3.153   4.167   3.609
 8180SOL    HW136419   3.124   4.160   3.700
 8180SOL    HW236420   3.248   4.180   3.615
 8181SOL     OW36421   2.444   3.766   3.824
 8181SOL    HW136422   2.369   3.709   3.808
 8181SOL    HW236423   2.509   3.708   3.865
 8182SOL     OW36424   1.987   3.212  18.058
 8182SOL    HW136425   2.020   3.165  18.134
 8182SOL    HW236426   2.012   3.158  17.983
 8183SOL     OW36427   1.158   3.400   1.271
 8183SOL    HW136428   1.090   3.467   1.259
 8183SOL    HW236429   1.204   3.398   1.188
 8184SOL     OW36430   0.167   4.327   3.908
 8184SOL    HW136431   0.146   4.246   3.954
 8184SOL    HW236432   0.261   4.321   3.890
 8185SOL     OW36433   3.978   2.196  15.986
 8185SOL    HW136434   4.007   2.148  16.063
 8185SOL    HW236435   3.937   2.275  16.020
 8186SOL     OW36436   4.369   4.602   3.187
 8186SOL    HW136437   4.283   4.642   3.172
 8186SOL    HW236438   4.417   4.616   3.105
 8187SOL     OW36439   4.647   3.864   0.699
 8187SOL    HW136440   4.664   3.951   0.665
 8187SOL    HW236441   4.733   3.829   0.722
 8188SOL     OW36442   4.589   0.692   2.767
 8188SOL    HW136443   4.653   0.661   2.703
 8188SOL    HW236444   4.638   0.700   2.849
 8189SOL     OW36445   0.308   3.637   4.296
 8189SOL    HW136446   0.305   3.687   4.214
 8189SOL    HW236447   0.400   3.640   4.323
 8190SOL     OW36448   2.666   2.053   5.249
 8190SOL    HW136449   2.752   2.012   5.258
 8190SOL    HW236450   2.684   2.140   5.215
 8191SOL     OW36451   0.380   3.788  20.323
 8191SOL    HW136452   0.415   3.790  20.234
 8191SOL    HW236453   0.342   3.700  20.331
 8192SOL     OW36454   2.987   3.846  17.060
 8192SOL    HW136455   2.965   3.925  17.010
 8192SOL    HW236456   2.950   3.774  17.009
 8193SOL     OW36457   2.132   0.757   4.584
 8193SOL    HW136458   2.227   0.748   4.588
 8193SOL    HW236459   2.104   0.755   4.676
 8194SOL     OW36460   0.975   0.996   3.872
 8194SOL    HW136461   0.879   0.994   3.874
 8194SOL    HW236462   0.999   0.915   3.826
 8195SOL     OW36463   4.345   1.297  18.255
 8195SOL    HW136464   4.290   1.247  18.195
 8195SOL    HW236465   4.322   1.388  18.237
 8196SOL     OW36466   2.609   4.434   7.325
 8196SOL    HW136467   2.604   4.529   7.314
 8196SOL    HW236468   2.697   4.411   7.295
 8197SOL     OW36469   2.640   3.067  17.621
 8197SOL    HW136470   2.624   3.153  17.659
 8197SOL    HW236471   2.712   3.081  17.559
 8198SOL     OW36472   2.108   3.721  17.067
 8198SOL    HW136473   2.111   3.627  17.085
 8198SOL    HW236474   2.189   3.755  17.106
 8199SOL     OW36475   1.884   2.072   0.985
 8199SOL    HW136476   1.971   2.112   0.980
 8199SOL    HW236477   1.833   2.121   0.920
 8200SOL     OW36478   2.059   1.834  16.677
 8200SOL    HW136479   2.141   1.802  16.639
 8200SOL    HW236480   1.991   1.783  16.634
 8201SOL     OW36481   4.407   1.072  15.217
 8201SOL    HW136482   4.464   1.031  15.150
 8201SOL    HW236483   4.354   1.000  15.251
 8202SOL     OW36484   3.838   1.955   9.226
 8202SOL    HW136485   3.899   1.927   9.158
 8202SOL    HW236486   3.852   1.892   9.297
 8203SOL     OW36487   1.983   2.966  20.688
 8203SOL    HW136488   2.057   2.908  20.706
 8203SOL    HW236489   1.927   2.916  20.628
 8204SOL     OW36490   0.941   4.663  13.115
 8204SOL    HW136491   1.012   4.643  13.176
 8204SOL    HW236492   0.981   4.656  13.028
 8205SOL     OW36493   4.362   0.632  16.845
 8205SOL    HW136494   4.289   0.591  16.799
 8205SOL    HW236495   4.433   0.568  16.840
 8206SOL     OW36496   2.721   4.640   3.982
 8206SOL    HW136497   2.687   4.583   4.050
 8206SOL    HW236498   2.666   4.719   3.986
 8207SOL     OW36499   3.550   4.720   6.087
 8207SOL    HW136500   3.536   0.026   6.104
 8207SOL    HW236501   3.506   4.704   6.003
 8208SOL     OW36502   3.546   3.247  16.752
 8208SOL    HW136503   3.608   3.197  16.806
 8208SOL    HW236504   3.528   3.189  16.678
 8209SOL     OW36505   4.355   4.252  18.022
 8209SOL    HW136506   4.379   4.170  17.980
 8209SOL    HW236507   4.301   4.226  18.097
 8210SOL     OW36508   3.207   0.686   6.969
 8210SOL    HW136509   3.294   0.726   6.974
 8210SOL    HW236510   3.154   0.735   7.033
 8211SOL     OW36511   2.409   0.860   3.814
 8211SOL    HW136512   2.457   0.907   3.746
 8211SOL    HW236513   2.466   0.786   3.837
 8212SOL     OW36514   2.872   4.549  13.387
 8212SOL    HW136515   2.828   4.556  13.472
 8212SOL    HW236516   2.887   4.455  13.375
 8213SOL     OW36517   1.326   1.938   6.666
 8213SOL    HW136518   1.397   1.931   6.603
 8213SOL    HW236519   1.347   2.017   6.717
 8214SOL     OW36520   4.350   2.359  15.417
 8214SOL    HW136521   4.443   2.341  15.400
 8214SOL    HW236522   4.303   2.304  15.356
 8215SOL     OW36523   2.784   2.457  17.145
 8215SOL    HW136524   2.689   2.452  17.158
 8215SOL    HW236525   2.797   2.536  17.092
 8216SOL     OW36526   1.772   3.837  12.791
 8216SOL    HW136527   1.736   3.915  12.748
 8216SOL    HW236528   1.695   3.789  12.821
 8217SOL     OW36529   0.571   2.316   0.900
 8217SOL    HW136530   0.610   2.376   0.964
 8217SOL    HW236531   0.500   2.273   0.949
 8218SOL     OW36532   0.720   3.211  13.741
 8218SOL    HW136533   0.802   3.177  13.777
 8218SOL    HW236534   0.724   3.305  13.756
 8219SOL     OW36535   1.851   0.329  19.434
 8219SOL    HW136536   1.883   0.268  19.367
 8219SOL    HW236537   1.769   0.290  19.465
 8220SOL     OW36538   2.988   1.972   0.342
 8220SOL    HW136539   3.035   1.934   0.267
 8220SOL    HW236540   3.006   1.912   0.414
 8221SOL     OW36541   1.313   2.796   0.851
 8221SOL    HW136542   1.292   2.778   0.760
 8221SOL    HW236543   1.353   2.883   0.850
 8222SOL     OW36544   1.229   1.069  18.553
 8222SOL    HW136545   1.305   1.123  18.528
 8222SOL    HW236546   1.258   1.022  18.631
 8223SOL     OW36547   1.540   3.164   4.748
 8223SOL    HW136548   1.620   3.124   4.716
 8223SOL    HW236549   1.547   3.160   4.843
 8224SOL     OW36550   3.183   3.218  17.417
 8224SOL    HW136551   3.253   3.243  17.476
 8224SOL    HW236552   3.227   3.197  17.334
 8225SOL     OW36553   1.053   1.450  21.223
 8225SOL    HW136554   1.114   1.376  21.226
 8225SOL    HW236555   1.069   1.491  21.138
 8226SOL     OW36556   2.598   0.717  17.845
 8226SOL    HW136557   2.549   0.637  17.829
 8226SOL    HW236558   2.653   0.728  17.767
 8227SOL     OW36559   1.362   1.920   0.754
 8227SOL    HW136560   1.409   1.837   0.746
 8227SOL    HW236561   1.420   1.985   0.715
 8228SOL     OW36562   3.260   3.568   4.765
 8228SOL    HW136563   3.346   3.527   4.750
 8228SOL    HW236564   3.203   3.496   4.791
 8229SOL     OW36565   2.952   0.781  20.833
 8229SOL    HW136566   3.024   0.789  20.771
 8229SOL    HW236567   2.963   0.694  20.871
 8230SOL     OW36568   2.845   4.496   8.285
 8230SOL    HW136569   2.910   4.567   8.289
 8230SOL    HW236570   2.804   4.506   8.199
 8231SOL     OW36571   4.038   2.123   6.603
 8231SOL    HW136572   4.133   2.123   6.593
 8231SOL    HW236573   4.011   2.035   6.576
 8232SOL     OW36574   4.146   2.981  16.698
 8232SOL    HW136575   4.223   2.934  16.731
 8232SOL    HW236576   4.121   2.933  16.619
 8233SOL     OW36577   0.663   1.329  18.951
 8233SOL    HW136578   0.625   1.313  19.038
 8233SOL    HW236579   0.615   1.269  18.894
 8234SOL     OW36580   4.660   2.783  12.201
 8234SOL    HW136581   4.664   2.700  12.249
 8234SOL    HW236582   4.663   2.850  12.270
 8235SOL     OW36583   3.351   4.715  14.459
 8235SOL    HW136584   3.293   4.683  14.390
 8235SOL    HW236585   3.436   4.725  14.416
 8236SOL     OW36586   2.762   2.999  20.205
 8236SOL    HW136587   2.826   2.988  20.275
 8236SOL    HW236588   2.679   2.968  20.243
 8237SOL     OW36589   3.882   2.873  19.270
 8237SOL    HW136590   3.805   2.843  19.319
 8237SOL    HW236591   3.887   2.814  19.195
 8238SOL     OW36592   0.875   4.323   5.546
 8238SOL    HW136593   0.862   4.416   5.528
 8238SOL    HW236594   0.821   4.279   5.480
 8239SOL     OW36595   4.546   4.356   1.303
 8239SOL    HW136596   4.516   4.283   1.357
 8239SOL    HW236597   4.481   4.362   1.232
 8240SOL     OW36598   3.705   2.933   3.288
 8240SOL    HW136599   3.665   2.915   3.373
 8240SOL    HW236600   3.739   2.848   3.259
 8241SOL     OW36601   4.727   1.700  20.560
 8241SOL    HW136602   0.012   1.708  20.497
 8241SOL    HW236603   4.668   1.772  20.539
 8242SOL     OW36604   4.560   1.979   4.213
 8242SOL    HW136605   4.571   2.047   4.147
 8242SOL    HW236606   4.623   2.001   4.282
 8243SOL     OW36607   3.093   1.556   4.528
 8243SOL    HW136608   3.089   1.644   4.566
 8243SOL    HW236609   3.107   1.498   4.602
 8244SOL     OW36610   0.352   0.490   3.049
 8244SOL    HW136611   0.419   0.422   3.043
 8244SOL    HW236612   0.271   0.446   3.023
 8245SOL     OW36613   2.984   4.608  20.112
 8245SOL    HW136614   3.071   4.646  20.111
 8245SOL    HW236615   2.937   4.655  20.181
 8246SOL     OW36616   3.658   3.764   8.715
 8246SOL    HW136617   3.699   3.846   8.742
 8246SOL    HW236618   3.567   3.788   8.697
 8247SOL     OW36619   0.248   4.114   1.398
 8247SOL    HW136620   0.317   4.050   1.377
 8247SOL    HW236621   0.294   4.183   1.445
 8248SOL     OW36622   0.060   0.740  14.856
 8248SOL    HW136623   0.044   0.834  14.850
 8248SOL    HW236624   4.761   0.699  14.842
 8249SOL     OW36625   2.361   2.652   1.880
 8249SOL    HW136626   2.310   2.672   1.958
 8249SOL    HW236627   2.368   2.736   1.834
 8250SOL     OW36628   3.214   0.950  17.591
 8250SOL    HW136629   3.226   0.868  17.542
 8250SOL    HW236630   3.260   0.935  17.674
 8251SOL     OW36631   1.692   0.096  19.212
 8251SOL    HW136632   1.648   0.117  19.294
 8251SOL    HW236633   1.663   0.007  19.191
 8252SOL     OW36634   1.500   0.302  20.432
 8252SOL    HW136635   1.569   0.257  20.480
 8252SOL    HW236636   1.471   0.239  20.366
 8253SOL     OW36637   3.591   1.854   0.587
 8253SOL    HW136638   3.519   1.872   0.527
 8253SOL    HW236639   3.550   1.850   0.673
 8254SOL     OW36640   2.821   1.425   6.106
 8254SOL    HW136641   2.770   1.361   6.156
 8254SOL    HW236642   2.839   1.496   6.168
 8255SOL     OW36643   0.255   0.825   1.407
 8255SOL    HW136644   0.274   0.736   1.378
 8255SOL    HW236645   0.202   0.814   1.487
 8256SOL     OW36646   2.236   3.513  15.948
 8256SOL    HW136647   2.248   3.445  16.015
 8256SOL    HW236648   2.239   3.465  15.865
 8257SOL     OW36649   2.033   4.142   2.955
 8257SOL    HW136650   2.119   4.163   2.921
 8257SOL    HW236651   1.991   4.091   2.885
 8258SOL     OW36652   1.405   4.007   4.975
 8258SOL    HW136653   1.424   4.046   5.060
 8258SOL    HW236654   1.403   3.913   4.991
 8259SOL     OW36655   2.475   2.213   4.102
 8259SOL    HW136656   2.398   2.227   4.157
 8259SOL    HW236657   2.483   2.294   4.051
 8260SOL     OW36658   4.758   1.452  19.855
 8260SOL    HW136659   4.688   1.410  19.805
 8260SOL    HW236660   4.725   1.454  19.945
 8261SOL     OW36661   0.958   4.743   6.185
 8261SOL    HW136662   0.911   0.033   6.218
 8261SOL    HW236663   1.047   4.775   6.166
 8262SOL     OW36664   2.479   3.092   0.252
 8262SOL    HW136665   2.498   3.172   0.301
 8262SOL    HW236666   2.385   3.098   0.232
 8263SOL     OW36667   1.273   4.057  17.365
 8263SOL    HW136668   1.195   4.067  17.311
 8263SOL    HW236669   1.324   4.137  17.349
 8264SOL     OW36670   1.335   1.438   0.516
 8264SOL    HW136671   1.283   1.419   0.438
 8264SOL    HW236672   1.411   1.486   0.483
 8265SOL     OW36673   3.077   3.978  16.116
 8265SOL    HW136674   2.995   3.932  16.131
 8265SOL    HW236675   3.125   3.924  16.053
 8266SOL     OW36676   1.203   1.482   5.201
 8266SOL    HW136677   1.199   1.492   5.106
 8266SOL    HW236678   1.296   1.481   5.221
 8267SOL     OW36679   4.315   1.773  10.579
 8267SOL    HW136680   4.364   1.794  10.500
 8267SOL    HW236681   4.230   1.742  10.548
 8268SOL     OW36682   0.849   3.048   4.895
 8268SOL    HW136683   0.763   3.056   4.936
 8268SOL    HW236684   0.833   2.993   4.818
 8269SOL     OW36685   0.041   0.689  16.121
 8269SOL    HW136686   0.022   0.758  16.184
 8269SOL    HW236687   4.755   0.691  16.059
 8270SOL     OW36688   0.249   1.671   4.645
 8270SOL    HW136689   0.310   1.689   4.717
 8270SOL    HW236690   0.164   1.664   4.688
 8271SOL     OW36691   0.337   2.554  15.311
 8271SOL    HW136692   0.326   2.479  15.369
 8271SOL    HW236693   0.432   2.564  15.303
 8272SOL     OW36694   3.700   2.708   8.178
 8272SOL    HW136695   3.685   2.732   8.086
 8272SOL    HW236696   3.796   2.709   8.187
 8273SOL     OW36697   3.182   2.244   4.720
 8273SOL    HW136698   3.254   2.280   4.668
 8273SOL    HW236699   3.113   2.309   4.714
 8274SOL     OW36700   1.807   0.938   0.434
 8274SOL    HW136701   1.895   0.936   0.471
 8274SOL    HW236702   1.785   1.031   0.429
 8275SOL     OW36703   4.570   0.987   4.617
 8275SOL    HW136704   4.508   1.025   4.678
 8275SOL    HW236705   4.538   1.013   4.530
 8276SOL     OW36706   4.489   1.328  17.256
 8276SOL    HW136707   4.494   1.232  17.262
 8276SOL    HW236708   4.577   1.358  17.278
 8277SOL     OW36709   0.920   3.921  16.706
 8277SOL    HW136710   0.920   3.974  16.786
 8277SOL    HW236711   1.006   3.879  16.706
 8278SOL     OW36712   3.296   3.221   1.455
 8278SOL    HW136713   3.253   3.161   1.395
 8278SOL    HW236714   3.303   3.173   1.537
 8279SOL     OW36715   2.109   4.497   1.167
 8279SOL    HW136716   2.059   4.577   1.182
 8279SOL    HW236717   2.162   4.516   1.089
 8280SOL     OW36718   4.477   2.566  20.052
 8280SOL    HW136719   4.386   2.584  20.027
 8280SOL    HW236720   4.480   2.585  20.146
 8281SOL     OW36721   3.872   3.788   6.306
 8281SOL    HW136722   3.902   3.878   6.318
 8281SOL    HW236723   3.916   3.738   6.375
 8282SOL     OW36724   4.040   3.611  20.516
 8282SOL    HW136725   4.092   3.691  20.507
 8282SOL    HW236726   4.103   3.545  20.543
 8283SOL     OW36727   4.458   2.938   4.663
 8283SOL    HW136728   4.441   2.898   4.578
 8283SOL    HW236729   4.534   2.994   4.648
 8284SOL     OW36730   1.984   0.227   2.437
 8284SOL    HW136731   2.061   0.172   2.455
 8284SOL    HW236732   1.948   0.192   2.356
 8285SOL     OW36733   0.307   3.917  18.055
 8285SOL    HW136734   0.379   3.964  18.013
 8285SOL    HW236735   0.238   3.983  18.064
 8286SOL     OW36736   1.873   2.706  17.432
 8286SOL    HW136737   1.796   2.763  17.433
 8286SOL    HW236738   1.878   2.674  17.342
 8287SOL     OW36739   0.878   1.965  16.374
 8287SOL    HW136740   0.834   2.049  16.377
 8287SOL    HW236741   0.936   1.965  16.450
 8288SOL     OW36742   2.504   0.518   1.601
 8288SOL    HW136743   2.573   0.493   1.540
 8288SOL    HW236744   2.460   0.592   1.560
 8289SOL     OW36745   2.065   3.269   6.494
 8289SOL    HW136746   2.098   3.185   6.461
 8289SOL    HW236747   2.118   3.287   6.571
 8290SOL     OW36748   2.207   2.677  19.171
 8290SOL    HW136749   2.254   2.753  19.207
 8290SOL    HW236750   2.274   2.626  19.127
 8291SOL     OW36751   3.974   2.377   5.637
 8291SOL    HW136752   4.018   2.413   5.559
 8291SOL    HW236753   3.926   2.301   5.604
 8292SOL     OW36754   3.895   2.839  16.399
 8292SOL    HW136755   3.849   2.851  16.483
 8292SOL    HW236756   3.855   2.904  16.341
 8293SOL     OW36757   4.202   0.247  15.416
 8293SOL    HW136758   4.282   0.221  15.371
 8293SOL    HW236759   4.193   0.341  15.398
 8294SOL     OW36760   3.039   0.983   3.461
 8294SOL    HW136761   3.085   0.907   3.425
 8294SOL    HW236762   2.964   0.946   3.508
 8295SOL     OW36763   3.471   0.481  16.302
 8295SOL    HW136764   3.492   0.494  16.394
 8295SOL    HW236765   3.497   0.391  16.283
 8296SOL     OW36766   3.316   3.161  17.963
 8296SOL    HW136767   3.300   3.094  17.897
 8296SOL    HW236768   3.350   3.113  18.038
 8297SOL     OW36769   2.722   1.585  14.217
 8297SOL    HW136770   2.646   1.639  14.237
 8297SOL    HW236771   2.793   1.623  14.269
 8298SOL     OW36772   3.206   0.844   0.921
 8298SOL    HW136773   3.243   0.928   0.893
 8298SOL    HW236774   3.157   0.813   0.845
 8299SOL     OW36775   3.541   0.882  21.025
 8299SOL    HW136776   3.467   0.941  21.010
 8299SOL    HW236777   3.598   0.895  20.950
 8300SOL     OW36778   2.889   0.044   4.982
 8300SOL    HW136779   2.936   4.773   4.921
 8300SOL    HW236780   2.959   0.088   5.031
 8301SOL     OW36781   0.277   3.874  14.174
 8301SOL    HW136782   0.312   3.804  14.120
 8301SOL    HW236783   0.313   3.858  14.261
 8302SOL     OW36784   3.185   1.947  17.368
 8302SOL    HW136785   3.187   1.916  17.459
 8302SOL    HW236786   3.109   1.903  17.329
 8303SOL     OW36787   3.404   4.265  18.219
 8303SOL    HW136788   3.363   4.348  18.243
 8303SOL    HW236789   3.356   4.199  18.269
 8304SOL     OW36790   1.444   3.677   4.039
 8304SOL    HW136791   1.382   3.605   4.051
 8304SOL    HW236792   1.482   3.691   4.126
 8305SOL     OW36793   2.955   2.783   0.154
 8305SOL    HW136794   2.994   2.866   0.180
 8305SOL    HW236795   2.906   2.803   0.074
 8306SOL     OW36796   3.064   4.148   5.215
 8306SOL    HW136797   3.048   4.239   5.190
 8306SOL    HW236798   3.064   4.149   5.310
 8307SOL     OW36799   0.602   0.513  18.468
 8307SOL    HW136800   0.592   0.608  18.474
 8307SOL    HW236801   0.683   0.500  18.420
 8308SOL     OW36802   4.080   0.168   6.819
 8308SOL    HW136803   3.989   0.199   6.819
 8308SOL    HW236804   4.128   0.235   6.771
 8309SOL     OW36805   0.857   3.279   0.296
 8309SOL    HW136806   0.919   3.240   0.233
 8309SOL    HW236807   0.911   3.337   0.349
 8310SOL     OW36808   3.071   0.498   4.208
 8310SOL    HW136809   3.040   0.415   4.172
 8310SOL    HW236810   3.144   0.523   4.152
 8311SOL     OW36811   1.311   0.071  20.822
 8311SOL    HW136812   1.372   0.045  20.892
 8311SOL    HW236813   1.226   0.039  20.851
 8312SOL     OW36814   0.655   4.642   4.675
 8312SOL    HW136815   0.605   4.593   4.740
 8312SOL    HW236816   0.590   4.687   4.622
 8313SOL     OW36817   0.360   2.323   5.077
 8313SOL    HW136818   0.267   2.319   5.054
 8313SOL    HW236819   0.380   2.237   5.112
 8314SOL     OW36820   1.409   4.786  19.265
 8314SOL    HW136821   1.366   0.027  19.184
 8314SOL    HW236822   1.364   0.049  19.334
 8315SOL     OW36823   0.196   0.222  20.289
 8315SOL    HW136824   0.238   0.301  20.255
 8315SOL    HW236825   0.194   0.162  20.214
 8316SOL     OW36826   4.001   3.382  17.892
 8316SOL    HW136827   4.005   3.390  17.987
 8316SOL    HW236828   4.091   3.363  17.866
 8317SOL     OW36829   1.307   2.448   4.668
 8317SOL    HW136830   1.370   2.454   4.740
 8317SOL    HW236831   1.361   2.451   4.589
 8318SOL     OW36832   2.172   4.225   5.629
 8318SOL    HW136833   2.114   4.149   5.629
 8318SOL    HW236834   2.114   4.299   5.609
 8319SOL     OW36835   1.764   3.514  17.858
 8319SOL    HW136836   1.850   3.497  17.819
 8319SOL    HW236837   1.708   3.538  17.784
 8320SOL     OW36838   1.715   4.056  17.527
 8320SOL    HW136839   1.654   4.038  17.598
 8320SOL    HW236840   1.787   4.105  17.568
 8321SOL     OW36841   2.296   4.303   4.096
 8321SOL    HW136842   2.309   4.376   4.036
 8321SOL    HW236843   2.318   4.226   4.044
 8322SOL     OW36844   2.311   2.486  18.768
 8322SOL    HW136845   2.273   2.528  18.691
 8322SOL    HW236846   2.393   2.447  18.736
 8323SOL     OW36847   3.751   3.825   9.919
 8323SOL    HW136848   3.710   3.911   9.926
 8323SOL    HW236849   3.725   3.779   9.999
 8324SOL     OW36850   0.893   4.501   4.413
 8324SOL    HW136851   0.915   4.563   4.483
 8324SOL    HW236852   0.809   4.465   4.440
 8325SOL     OW36853   0.919   2.633  18.327
 8325SOL    HW136854   0.978   2.623  18.252
 8325SOL    HW236855   0.896   2.543  18.350
 8326SOL     OW36856   0.576   2.782  20.471
 8326SOL    HW136857   0.509   2.717  20.451
 8326SOL    HW236858   0.532   2.843  20.531
 8327SOL     OW36859   2.824   0.811  19.618
 8327SOL    HW136860   2.749   0.810  19.559
 8327SOL    HW236861   2.834   0.720  19.647
 8328SOL     OW36862   4.212   2.329   6.247
 8328SOL    HW136863   4.242   2.238   6.253
 8328SOL    HW236864   4.151   2.329   6.173
 8329SOL     OW36865   0.304   2.880  20.745
 8329SOL    HW136866   0.245   2.826  20.692
 8329SOL    HW236867   0.373   2.907  20.684
 8330SOL     OW36868   0.994   1.420   1.712
 8330SOL    HW136869   1.080   1.424   1.670
 8330SOL    HW236870   0.960   1.333   1.690
 8331SOL     OW36871   4.182   3.674   6.792
 8331SOL    HW136872   4.141   3.602   6.841
 8331SOL    HW236873   4.229   3.630   6.721
 8332SOL     OW36874   4.012   0.216   1.474
 8332SOL    HW136875   3.973   0.151   1.415
 8332SOL    HW236876   3.939   0.248   1.527
 8333SOL     OW36877   1.771   0.241   0.885
 8333SOL    HW136878   1.840   0.177   0.870
 8333SOL    HW236879   1.788   0.276   0.972
 8334SOL     OW36880   1.774   2.064   3.090
 8334SOL    HW136881   1.767   2.008   3.013
 8334SOL    HW236882   1.857   2.110   3.079
 8335SOL     OW36883   2.238   3.997   3.312
 8335SOL    HW136884   2.330   4.016   3.326
 8335SOL    HW236885   2.215   3.935   3.382
 8336SOL     OW36886   4.762   0.859  17.104
 8336SOL    HW136887   4.705   0.881  17.031
 8336SOL    HW236888   4.703   0.831  17.174
 8337SOL     OW36889   0.925   4.205   0.497
 8337SOL    HW136890   0.993   4.263   0.531
 8337SOL    HW236891   0.954   4.117   0.524
 8338SOL     OW36892   4.557   1.802  18.061
 8338SOL    HW136893   4.517   1.791  18.147
 8338SOL    HW236894   4.499   1.756  18.001
 8339SOL     OW36895   4.720   3.748   4.671
 8339SOL    HW136896   4.765   3.669   4.701
 8339SOL    HW236897   4.670   3.720   4.594
 8340SOL     OW36898   3.312   4.158  19.727
 8340SOL    HW136899   3.328   4.069  19.696
 8340SOL    HW236900   3.322   4.153  19.822
 8341SOL     OW36901   2.491   0.744   1.445
 8341SOL    HW136902   2.400   0.775   1.440
 8341SOL    HW236903   2.542   0.813   1.402
 8342SOL     OW36904   1.548   4.146   5.857
 8342SOL    HW136905   1.628   4.176   5.814
 8342SOL    HW236906   1.578   4.090   5.929
 8343SOL     OW36907   2.911   1.654   9.615
 8343SOL    HW136908   2.844   1.672   9.680
 8343SOL    HW236909   2.961   1.581   9.651
 8344SOL     OW36910   2.897   4.202   0.704
 8344SOL    HW136911   2.956   4.158   0.642
 8344SOL    HW236912   2.912   4.295   0.689
 8345SOL     OW36913   4.031   3.191   4.071
 8345SOL    HW136914   4.010   3.276   4.033
 8345SOL    HW236915   4.062   3.138   3.998
 8346SOL     OW36916   4.548   1.746   4.935
 8346SOL    HW136917   4.495   1.669   4.955
 8346SOL    HW236918   4.488   1.805   4.889
 8347SOL     OW36919   3.851   4.423   3.750
 8347SOL    HW136920   3.925   4.395   3.805
 8347SOL    HW236921   3.777   4.426   3.810
 8348SOL     OW36922   2.072   0.335  15.244
 8348SOL    HW136923   2.060   0.340  15.149
 8348SOL    HW236924   2.051   0.423  15.275
 8349SOL     OW36925   0.711   0.576   3.990
 8349SOL    HW136926   0.672   0.633   4.056
 8349SOL    HW236927   0.776   0.525   4.038
 8350SOL     OW36928   4.034   0.232   5.454
 8350SOL    HW136929   3.954   0.181   5.469
 8350SOL    HW236930   4.018   0.277   5.371
 8351SOL     OW36931   3.844   3.709   1.230
 8351SOL    HW136932   3.873   3.623   1.198
 8351SOL    HW236933   3.922   3.764   1.226
 8352SOL     OW36934   1.541   4.318  14.231
 8352SOL    HW136935   1.576   4.298  14.144
 8352SOL    HW236936   1.469   4.379  14.214
 8353SOL     OW36937   1.872   3.031  21.150
 8353SOL    HW136938   1.890   3.124  21.167
 8353SOL    HW236939   1.791   3.013  21.199
 8354SOL     OW36940   2.374   1.052   3.389
 8354SOL    HW136941   2.359   1.008   3.305
 8354SOL    HW236942   2.450   1.108   3.374
 8355SOL     OW36943   3.992   0.701  18.504
 8355SOL    HW136944   3.912   0.679  18.553
 8355SOL    HW236945   4.043   0.620  18.505
 8356SOL     OW36946   0.686   0.473  15.922
 8356SOL    HW136947   0.678   0.378  15.933
 8356SOL    HW236948   0.606   0.499  15.876
 8357SOL     OW36949   0.653   2.895  17.407
 8357SOL    HW136950   0.710   2.824  17.378
 8357SOL    HW236951   0.682   2.915  17.496
 8358SOL     OW36952   3.965   1.319   3.014
 8358SOL    HW136953   3.915   1.360   2.944
 8358SOL    HW236954   3.964   1.226   2.994
 8359SOL     OW36955   0.610   1.865  16.167
 8359SOL    HW136956   0.579   1.784  16.126
 8359SOL    HW236957   0.644   1.837  16.252
 8360SOL     OW36958   4.066   0.480   3.257
 8360SOL    HW136959   3.974   0.471   3.232
 8360SOL    HW236960   4.068   0.557   3.314
 8361SOL     OW36961   2.483   0.518  20.419
 8361SOL    HW136962   2.568   0.558  20.397
 8361SOL    HW236963   2.421   0.560  20.361
 8362SOL     OW36964   3.337   3.496  20.468
 8362SOL    HW136965   3.384   3.446  20.535
 8362SOL    HW236966   3.246   3.467  20.476
 8363SOL     OW36967   4.730   2.088  18.758
 8363SOL    HW136968   4.763   2.073  18.669
 8363SOL    HW236969   0.019   2.122  18.806
 8364SOL     OW36970   0.720   0.668   3.430
 8364SOL    HW136971   0.792   0.648   3.490
 8364SOL    HW236972   0.762   0.716   3.358
 8365SOL     OW36973   3.951   3.440  16.680
 8365SOL    HW136974   3.937   3.514  16.739
 8365SOL    HW236975   3.950   3.363  16.738
 8366SOL     OW36976   1.198   0.855   2.544
 8366SOL    HW136977   1.240   0.876   2.628
 8366SOL    HW236978   1.254   0.788   2.506
 8367SOL     OW36979   3.076   3.562  17.311
 8367SOL    HW136980   3.132   3.499  17.356
 8367SOL    HW236981   3.102   3.557  17.219
 8368SOL     OW36982   3.901   4.254  16.011
 8368SOL    HW136983   3.893   4.158  16.012
 8368SOL    HW236984   3.991   4.270  16.042
 8369SOL     OW36985   3.644   1.567   1.772
 8369SOL    HW136986   3.695   1.590   1.849
 8369SOL    HW236987   3.698   1.596   1.698
 8370SOL     OW36988   4.341   0.632   2.036
 8370SOL    HW136989   4.368   0.723   2.035
 8370SOL    HW236990   4.264   0.630   2.093
 8371SOL     OW36991   0.107   1.714   1.659
 8371SOL    HW136992   0.052   1.750   1.728
 8371SOL    HW236993   0.046   1.667   1.602
 8372SOL     OW36994   4.600   4.539   1.063
 8372SOL    HW136995   4.667   4.473   1.043
 8372SOL    HW236996   4.623   4.571   1.150
 8373SOL     OW36997   2.557   2.612   6.028
 8373SOL    HW136998   2.602   2.696   6.031
 8373SOL    HW236999   2.479   2.624   6.081
 8374SOL     OW37000   0.603   2.214   4.223
 8374SOL    HW137001   0.519   2.259   4.233
 8374SOL    HW237002   0.648   2.229   4.306
 8375SOL     OW37003   3.493   0.383   4.021
 8375SOL    HW137004   3.477   0.456   4.082
 8375SOL    HW237005   3.540   0.318   4.074
 8376SOL     OW37006   3.553   3.468   3.436
 8376SOL    HW137007   3.486   3.519   3.391
 8376SOL    HW237008   3.553   3.502   3.525
 8377SOL     OW37009   3.640   4.360   3.381
 8377SOL    HW137010   3.684   4.279   3.356
 8377SOL    HW237011   3.673   4.426   3.321
 8378SOL     OW37012   4.587   3.724  17.629
 8378SOL    HW137013   4.535   3.670  17.689
 8378SOL    HW237014   4.676   3.720  17.664
 8379SOL     OW37015   2.140   4.325  21.154
 8379SOL    HW137016   2.219   4.329  21.101
 8379SOL    HW237017   2.171   4.311  21.243
 8380SOL     OW37018   3.280   4.200  12.524
 8380SOL    HW137019   3.375   4.194  12.536
 8380SOL    HW237020   3.248   4.111  12.538
 8381SOL     OW37021   4.590   3.703   4.932
 8381SOL    HW137022   4.534   3.629   4.956
 8381SOL    HW237023   4.551   3.737   4.852
 8382SOL     OW37024   1.654   1.031   3.665
 8382SOL    HW137025   1.652   1.109   3.610
 8382SOL    HW237026   1.562   1.014   3.687
 8383SOL     OW37027   2.152   4.432  19.231
 8383SOL    HW137028   2.210   4.440  19.307
 8383SOL    HW237029   2.203   4.468  19.158
 8384SOL     OW37030   3.270   3.998   5.661
 8384SOL    HW137031   3.283   3.916   5.708
 8384SOL    HW237032   3.330   4.060   5.704
 8385SOL     OW37033   0.812   1.203   1.024
 8385SOL    HW137034   0.759   1.140   1.072
 8385SOL    HW237035   0.816   1.169   0.935
 8386SOL     OW37036   3.106   2.251   3.651
 8386SOL    HW137037   3.103   2.291   3.564
 8386SOL    HW237038   3.197   2.262   3.679
 8387SOL     OW37039   3.744   4.074  16.865
 8387SOL    HW137040   3.659   4.033  16.883
 8387SOL    HW237041   3.808   4.008  16.893
 8388SOL     OW37042   3.899   3.151  16.774
 8388SOL    HW137043   3.984   3.108  16.771
 8388SOL    HW237044   3.836   3.078  16.781
 8389SOL     OW37045   3.791   3.609  15.607
 8389SOL    HW137046   3.771   3.597  15.700
 8389SOL    HW237047   3.725   3.670  15.576
 8390SOL     OW37048   2.998   2.284  19.080
 8390SOL    HW137049   2.974   2.226  19.008
 8390SOL    HW237050   3.045   2.228  19.142
 8391SOL     OW37051   4.250   3.282   6.985
 8391SOL    HW137052   4.342   3.282   7.009
 8391SOL    HW237053   4.209   3.343   7.047
 8392SOL     OW37054   3.825   1.264  15.757
 8392SOL    HW137055   3.834   1.284  15.664
 8392SOL    HW237056   3.730   1.264  15.773
 8393SOL     OW37057   4.022   2.840   0.126
 8393SOL    HW137058   4.102   2.891   0.132
 8393SOL    HW237059   4.014   2.797   0.211
 8394SOL     OW37060   0.755   1.417   2.604
 8394SOL    HW137061   0.827   1.406   2.543
 8394SOL    HW237062   0.794   1.457   2.682
 8395SOL     OW37063   4.235   4.712   6.682
 8395SOL    HW137064   4.203   4.739   6.768
 8395SOL    HW237065   4.281   4.630   6.698
 8396SOL     OW37066   2.965   2.787   2.770
 8396SOL    HW137067   3.035   2.846   2.743
 8396SOL    HW237068   2.966   2.717   2.705
 8397SOL     OW37069   3.423   2.195   4.239
 8397SOL    HW137070   3.439   2.271   4.182
 8397SOL    HW237071   3.379   2.132   4.182
 8398SOL     OW37072   4.109   1.593   1.290
 8398SOL    HW137073   4.024   1.562   1.260
 8398SOL    HW237074   4.141   1.647   1.218
 8399SOL     OW37075   1.250   0.605   2.108
 8399SOL    HW137076   1.266   0.522   2.063
 8399SOL    HW237077   1.304   0.669   2.062
 8400SOL     OW37078   1.510   4.428   4.281
 8400SOL    HW137079   1.472   4.434   4.194
 8400SOL    HW237080   1.548   4.515   4.297
 8401SOL     OW37081   3.343   1.720  20.618
 8401SOL    HW137082   3.336   1.805  20.661
 8401SOL    HW237083   3.382   1.663  20.684
 8402SOL     OW37084   1.952   3.212   2.486
 8402SOL    HW137085   2.030   3.248   2.445
 8402SOL    HW237086   1.881   3.230   2.425
 8403SOL     OW37087   2.324   4.508   4.388
 8403SOL    HW137088   2.238   4.512   4.430
 8403SOL    HW237089   2.365   4.429   4.423
 8404SOL     OW37090   3.419   0.774   3.233
 8404SOL    HW137091   3.399   0.752   3.142
 8404SOL    HW237092   3.515   0.773   3.237
 8405SOL     OW37093   2.609   0.314  20.700
 8405SOL    HW137094   2.659   0.237  20.727
 8405SOL    HW237095   2.521   0.281  20.680
 8406SOL     OW37096   1.644   1.703   1.036
 8406SOL    HW137097   1.654   1.608   1.041
 8406SOL    HW237098   1.557   1.716   0.999
 8407SOL     OW37099   0.078   0.335   3.321
 8407SOL    HW137100   0.085   0.304   3.231
 8407SOL    HW237101   0.108   0.261   3.374
 8408SOL     OW37102   1.655   0.782   0.819
 8408SOL    HW137103   1.669   0.743   0.905
 8408SOL    HW237104   1.663   0.709   0.758
 8409SOL     OW37105   1.390   2.700   6.227
 8409SOL    HW137106   1.464   2.642   6.247
 8409SOL    HW237107   1.430   2.785   6.211
 8410SOL     OW37108   2.396   4.579  18.369
 8410SOL    HW137109   2.467   4.516  18.381
 8410SOL    HW237110   2.349   4.577  18.452
 8411SOL     OW37111   3.584   4.231   4.324
 8411SOL    HW137112   3.525   4.303   4.347
 8411SOL    HW237113   3.551   4.156   4.375
 8412SOL     OW37114   1.202   1.401   7.429
 8412SOL    HW137115   1.193   1.441   7.516
 8412SOL    HW237116   1.144   1.324   7.433
 8413SOL     OW37117   0.516   3.379   1.511
 8413SOL    HW137118   0.473   3.321   1.448
 8413SOL    HW237119   0.473   3.361   1.594
 8414SOL     OW37120   3.355   0.292   4.403
 8414SOL    HW137121   3.368   0.384   4.379
 8414SOL    HW237122   3.264   0.288   4.434
 8415SOL     OW37123   2.676   4.757   3.289
 8415SOL    HW137124   2.605   4.715   3.241
 8415SOL    HW237125   2.632   0.032   3.348
 8416SOL     OW37126   0.737   1.620   5.960
 8416SOL    HW137127   0.777   1.626   5.874
 8416SOL    HW237128   0.788   1.553   6.005
 8417SOL     OW37129   0.085   1.210   5.155
 8417SOL    HW137130   0.044   1.132   5.119
 8417SOL    HW237131   0.125   1.253   5.079
 8418SOL     OW37132   1.029   1.027   4.629
 8418SOL    HW137133   1.077   0.983   4.700
 8418SOL    HW237134   1.094   1.039   4.560
 8419SOL     OW37135   0.205   4.328  19.764
 8419SOL    HW137136   0.182   4.411  19.721
 8419SOL    HW237137   0.300   4.335  19.778
 8420SOL     OW37138   2.216   2.108   4.804
 8420SOL    HW137139   2.249   2.044   4.741
 8420SOL    HW237140   2.293   2.134   4.854
 8421SOL     OW37141   3.374   1.757  17.302
 8421SOL    HW137142   3.330   1.829  17.348
 8421SOL    HW237143   3.465   1.788  17.293
 8422SOL     OW37144   4.785   4.539  16.575
 8422SOL    HW137145   0.000   4.595  16.653
 8422SOL    HW237146   0.069   4.476  16.589
 8423SOL     OW37147   1.270   1.219  20.711
 8423SOL    HW137148   1.306   1.218  20.622
 8423SOL    HW237149   1.329   1.161  20.760
 8424SOL     OW37150   4.607   2.134   5.991
 8424SOL    HW137151   4.579   2.187   6.066
 8424SOL    HW237152   4.550   2.057   5.993
 8425SOL     OW37153   4.043   4.635  20.529
 8425SOL    HW137154   4.047   4.568  20.461
 8425SOL    HW237155   4.027   4.717  20.482
 8426SOL     OW37156   2.820   3.884   3.552
 8426SOL    HW137157   2.874   3.932   3.490
 8426SOL    HW237158   2.856   3.796   3.552
 8427SOL     OW37159   2.150   0.285  17.513
 8427SOL    HW137160   2.183   0.346  17.578
 8427SOL    HW237161   2.100   0.339  17.452
 8428SOL     OW37162   2.190   1.248   5.230
 8428SOL    HW137163   2.141   1.325   5.203
 8428SOL    HW237164   2.278   1.281   5.248
 8429SOL     OW37165   3.801   4.621   4.945
 8429SOL    HW137166   3.842   4.541   4.910
 8429SOL    HW237167   3.710   4.616   4.917
 8430SOL     OW37168   2.498   0.943  19.253
 8430SOL    HW137169   2.457   0.998  19.186
 8430SOL    HW237170   2.429   0.881  19.277
 8431SOL     OW37171   1.775   2.920  16.286
 8431SOL    HW137172   1.821   2.840  16.313
 8431SOL    HW237173   1.686   2.908  16.320
 8432SOL     OW37174   0.550   4.190  20.913
 8432SOL    HW137175   0.583   4.107  20.878
 8432SOL    HW237176   0.465   4.168  20.951
 8433SOL     OW37177   3.702   2.763   3.690
 8433SOL    HW137178   3.734   2.689   3.638
 8433SOL    HW237179   3.722   2.739   3.780
 8434SOL     OW37180   0.762   4.741   0.890
 8434SOL    HW137181   0.681   4.747   0.840
 8434SOL    HW237182   0.831   4.742   0.824
 8435SOL     OW37183   1.111   2.170   3.045
 8435SOL    HW137184   1.143   2.243   2.992
 8435SOL    HW237185   1.016   2.171   3.031
 8436SOL     OW37186   0.200   1.384   2.566
 8436SOL    HW137187   0.223   1.291   2.563
 8436SOL    HW237188   0.145   1.394   2.643
 8437SOL     OW37189   4.762   3.974  18.506
 8437SOL    HW137190   4.782   4.067  18.511
 8437SOL    HW237191   4.777   3.941  18.595
 8438SOL     OW37192   4.468   1.208   1.357
 8438SOL    HW137193   4.420   1.290   1.346
 8438SOL    HW237194   4.448   1.180   1.446
 8439SOL     OW37195   2.905   0.131  17.816
 8439SOL    HW137196   2.881   0.159  17.904
 8439SOL    HW237197   2.854   0.188  17.758
 8440SOL     OW37198   2.136   0.676  19.067
 8440SOL    HW137199   2.114   0.587  19.095
 8440SOL    HW237200   2.142   0.670  18.972
 8441SOL     OW37201   2.218   0.469   1.743
 8441SOL    HW137202   2.238   0.436   1.831
 8441SOL    HW237203   2.297   0.517   1.717
 8442SOL     OW37204   1.503   3.191   6.541
 8442SOL    HW137205   1.438   3.232   6.598
 8442SOL    HW237206   1.466   3.199   6.453
 8443SOL     OW37207   3.899   1.522  18.117
 8443SOL    HW137208   3.906   1.446  18.059
 8443SOL    HW237209   3.945   1.496  18.196
 8444SOL     OW37210   0.368   2.759  17.354
 8444SOL    HW137211   0.457   2.723  17.354
 8444SOL    HW237212   0.327   2.721  17.432
 8445SOL     OW37213   4.469   1.912  15.895
 8445SOL    HW137214   4.520   1.963  15.958
 8445SOL    HW237215   4.379   1.918  15.927
 8446SOL     OW37216   1.108   2.210   4.085
 8446SOL    HW137217   1.148   2.193   4.170
 8446SOL    HW237218   1.068   2.126   4.060
 8447SOL     OW37219   2.923   2.355  14.128
 8447SOL    HW137220   2.895   2.422  14.190
 8447SOL    HW237221   2.984   2.300  14.177
 8448SOL     OW37222   0.408   1.974   0.852
 8448SOL    HW137223   0.503   1.987   0.853
 8448SOL    HW237224   0.379   2.001   0.939
 8449SOL     OW37225   2.917   1.236  15.607
 8449SOL    HW137226   2.979   1.283  15.663
 8449SOL    HW237227   2.834   1.281  15.620
 8450SOL     OW37228   1.020   3.304  18.939
 8450SOL    HW137229   0.968   3.258  19.006
 8450SOL    HW237230   1.111   3.281  18.961
 8451SOL     OW37231   1.762   2.374  18.394
 8451SOL    HW137232   1.820   2.450  18.396
 8451SOL    HW237233   1.686   2.401  18.445
 8452SOL     OW37234   4.190   3.755  20.796
 8452SOL    HW137235   4.095   3.759  20.790
 8452SOL    HW237236   4.212   3.816  20.867
 8453SOL     OW37237   3.602   3.173   3.585
 8453SOL    HW137238   3.566   3.243   3.530
 8453SOL    HW237239   3.561   3.188   3.671
 8454SOL     OW37240   1.873   1.810  20.333
 8454SOL    HW137241   1.781   1.808  20.359
 8454SOL    HW237242   1.908   1.891  20.369
 8455SOL     OW37243   3.013   3.676  21.145
 8455SOL    HW137244   2.938   3.669  21.204
 8455SOL    HW237245   3.046   3.586  21.137
 8456SOL     OW37246   1.793   4.483   1.390
 8456SOL    HW137247   1.880   4.493   1.429
 8456SOL    HW237248   1.739   4.546   1.437
 8457SOL     OW37249   3.467   4.285   0.860
 8457SOL    HW137250   3.466   4.256   0.951
 8457SOL    HW237251   3.380   4.262   0.826
 8458SOL     OW37252   4.311   4.114  19.481
 8458SOL    HW137253   4.355   4.029  19.490
 8458SOL    HW237254   4.378   4.173  19.447
 8459SOL     OW37255   0.276   1.929  17.146
 8459SOL    HW137256   0.273   1.854  17.087
 8459SOL    HW237257   0.203   1.984  17.118
 8460SOL     OW37258   1.778   3.286   5.984
 8460SOL    HW137259   1.691   3.291   6.024
 8460SOL    HW237260   1.835   3.332   6.046
 8461SOL     OW37261   3.242   0.093  17.535
 8461SOL    HW137262   3.170   0.089  17.472
 8461SOL    HW237263   3.201   0.116  17.618
 8462SOL     OW37264   1.118   0.500   1.537
 8462SOL    HW137265   1.071   0.481   1.618
 8462SOL    HW237266   1.051   0.497   1.469
 8463SOL     OW37267   3.596   4.274  13.951
 8463SOL    HW137268   3.558   4.360  13.933
 8463SOL    HW237269   3.524   4.212  13.940
 8464SOL     OW37270   3.392   3.609   6.653
 8464SOL    HW137271   3.416   3.567   6.571
 8464SOL    HW237272   3.460   3.580   6.715
 8465SOL     OW37273   0.128   3.916  17.285
 8465SOL    HW137274   0.068   3.843  17.297
 8465SOL    HW237275   0.072   3.993  17.276
 8466SOL     OW37276   4.752   0.256   0.914
 8466SOL    HW137277   4.777   0.169   0.945
 8466SOL    HW237278   4.730   0.304   0.994
 8467SOL     OW37279   2.432   2.189  15.886
 8467SOL    HW137280   2.411   2.097  15.903
 8467SOL    HW237281   2.375   2.213  15.813
 8468SOL     OW37282   2.183   4.559  16.161
 8468SOL    HW137283   2.240   4.483  16.174
 8468SOL    HW237284   2.197   4.585  16.070
 8469SOL     OW37285   4.490   3.641   3.691
 8469SOL    HW137286   4.506   3.550   3.715
 8469SOL    HW237287   4.397   3.654   3.709
 8470SOL     OW37288   0.642   3.873  14.648
 8470SOL    HW137289   0.601   3.926  14.717
 8470SOL    HW237290   0.650   3.933  14.573
 8471SOL     OW37291   4.664   4.053   1.314
 8471SOL    HW137292   4.718   3.975   1.322
 8471SOL    HW237293   4.592   4.039   1.376
 8472SOL     OW37294   2.400   1.916  15.891
 8472SOL    HW137295   2.422   1.860  15.965
 8472SOL    HW237296   2.320   1.878  15.854
 8473SOL     OW37297   2.363   3.592  20.447
 8473SOL    HW137298   2.341   3.683  20.469
 8473SOL    HW237299   2.279   3.545  20.453
 8474SOL     OW37300   1.193   1.425  15.403
 8474SOL    HW137301   1.102   1.454  15.415
 8474SOL    HW237302   1.213   1.376  15.483
 8475SOL     OW37303   3.787   3.218  17.947
 8475SOL    HW137304   3.843   3.275  17.895
 8475SOL    HW237305   3.846   3.176  18.009
 8476SOL     OW37306   3.819   3.583   1.495
 8476SOL    HW137307   3.724   3.578   1.506
 8476SOL    HW237308   3.832   3.609   1.404
 8477SOL     OW37309   3.982   3.851   6.069
 8477SOL    HW137310   4.045   3.916   6.099
 8477SOL    HW237311   3.918   3.845   6.140
 8478SOL     OW37312   3.077   1.713   2.334
 8478SOL    HW137313   3.083   1.696   2.240
 8478SOL    HW237314   3.042   1.632   2.371
 8479SOL     OW37315   0.476   1.741  16.472
 8479SOL    HW137316   0.443   1.819  16.516
 8479SOL    HW237317   0.558   1.721  16.518
 8480SOL     OW37318   3.938   3.070  15.907
 8480SOL    HW137319   3.997   3.102  15.976
 8480SOL    HW237320   3.935   2.975  15.921
 8481SOL     OW37321   1.592   0.675   2.468
 8481SOL    HW137322   1.516   0.733   2.470
 8481SOL    HW237323   1.644   0.706   2.393
 8482SOL     OW37324   3.242   0.894   1.806
 8482SOL    HW137325   3.242   0.807   1.767
 8482SOL    HW237326   3.296   0.885   1.885
 8483SOL     OW37327   2.513   0.002   5.301
 8483SOL    HW137328   2.532   4.781   5.207
 8483SOL    HW237329   2.516   4.699   5.334
 8484SOL     OW37330   0.494   1.505   0.066
 8484SOL    HW137331   0.573   1.492   0.014
 8484SOL    HW237332   0.521   1.561   0.138
 8485SOL     OW37333   1.905   0.754   8.108
 8485SOL    HW137334   1.918   0.677   8.053
 8485SOL    HW237335   1.884   0.824   8.047
 8486SOL     OW37336   3.141   0.864   2.711
 8486SOL    HW137337   3.193   0.899   2.783
 8486SOL    HW237338   3.200   0.867   2.636
 8487SOL     OW37339   3.042   1.647  17.598
 8487SOL    HW137340   3.129   1.685  17.609
 8487SOL    HW237341   3.021   1.661  17.505
 8488SOL     OW37342   0.694   4.334  18.092
 8488SOL    HW137343   0.613   4.351  18.043
 8488SOL    HW237344   0.732   4.257  18.049
 8489SOL     OW37345   1.420   2.499   2.971
 8489SOL    HW137346   1.446   2.413   3.005
 8489SOL    HW237347   1.340   2.482   2.921
 8490SOL     OW37348   1.622   4.281   7.683
 8490SOL    HW137349   1.553   4.225   7.716
 8490SOL    HW237350   1.578   4.363   7.661
 8491SOL     OW37351   2.866   0.630   1.061
 8491SOL    HW137352   2.893   0.722   1.071
 8491SOL    HW237353   2.859   0.598   1.151
 8492SOL     OW37354   1.544   1.856   6.510
 8492SOL    HW137355   1.566   1.764   6.527
 8492SOL    HW237356   1.546   1.864   6.415
 8493SOL     OW37357   4.462   3.996   4.088
 8493SOL    HW137358   4.477   4.042   4.006
 8493SOL    HW237359   4.394   3.931   4.068
 8494SOL     OW37360   4.343   1.989  19.742
 8494SOL    HW137361   4.284   2.064  19.731
 8494SOL    HW237362   4.310   1.943  19.819
 8495SOL     OW37363   3.568   2.640  16.814
 8495SOL    HW137364   3.622   2.699  16.866
 8495SOL    HW237365   3.545   2.690  16.736
 8496SOL     OW37366   3.846   4.245   5.430
 8496SOL    HW137367   3.779   4.228   5.496
 8496SOL    HW237368   3.929   4.240   5.478
 8497SOL     OW37369   2.118   3.464  14.572
 8497SOL    HW137370   2.098   3.453  14.665
 8497SOL    HW237371   2.210   3.491  14.570
 8498SOL     OW37372   2.034   3.709   5.068
 8498SOL    HW137373   2.024   3.687   4.976
 8498SOL    HW237374   2.098   3.780   5.069
 8499SOL     OW37375   4.649   2.676  15.867
 8499SOL    HW137376   4.622   2.758  15.825
 8499SOL    HW237377   4.739   2.662  15.838
 8500SOL     OW37378   4.356   2.566   6.044
 8500SOL    HW137379   4.359   2.520   6.128
 8500SOL    HW237380   4.264   2.591   6.033
 8501SOL     OW37381   2.836   1.967  16.680
 8501SOL    HW137382   2.845   1.910  16.604
 8501SOL    HW237383   2.812   1.908  16.752
 8502SOL     OW37384   2.198   1.787   1.106
 8502SOL    HW137385   2.184   1.742   1.023
 8502SOL    HW237386   2.218   1.878   1.080
 8503SOL     OW37387   4.776   3.704  17.350
 8503SOL    HW137388   4.693   3.658  17.341
 8503SOL    HW237389   4.785   3.720  17.444
 8504SOL     OW37390   1.412   0.185  21.220
 8504SOL    HW137391   1.460   0.195  21.137
 8504SOL    HW237392   1.448   0.106   0.015
 8505SOL     OW37393   2.022   1.119  20.762
 8505SOL    HW137394   2.086   1.157  20.702
 8505SOL    HW237395   1.986   1.194  20.810
 8506SOL     OW37396   1.526   3.100  18.427
 8506SOL    HW137397   1.575   3.156  18.488
 8506SOL    HW237398   1.576   3.104  18.346
 8507SOL     OW37399   4.267   0.053   3.479
 8507SOL    HW137400   4.218   0.124   3.437
 8507SOL    HW237401   4.213   4.762   3.464
 8508SOL     OW37402   3.522   1.394   1.202
 8508SOL    HW137403   3.536   1.302   1.226
 8508SOL    HW237404   3.524   1.441   1.285
 8509SOL     OW37405   0.840   0.686   3.768
 8509SOL    HW137406   0.861   0.616   3.706
 8509SOL    HW237407   0.789   0.643   3.837
 8510SOL     OW37408   2.673   4.624  20.498
 8510SOL    HW137409   2.747   4.625  20.438
 8510SOL    HW237410   2.652   4.531  20.508
 8511SOL     OW37411   2.772   0.999  20.639
 8511SOL    HW137412   2.770   0.911  20.601
 8511SOL    HW237413   2.863   1.012  20.664
 8512SOL     OW37414   0.211   1.378  13.159
 8512SOL    HW137415   0.302   1.386  13.188
 8512SOL    HW237416   0.215   1.387  13.064
 8513SOL     OW37417   3.983   3.241   1.125
 8513SOL    HW137418   3.943   3.196   1.050
 8513SOL    HW237419   3.998   3.172   1.190
 8514SOL     OW37420   2.382   0.723   4.675
 8514SOL    HW137421   2.353   0.736   4.765
 8514SOL    HW237422   2.440   0.797   4.658
 8515SOL     OW37423   2.542   0.285  19.685
 8515SOL    HW137424   2.530   0.276  19.591
 8515SOL    HW237425   2.506   0.371  19.706
 8516SOL     OW37426   1.442   2.004   1.785
 8516SOL    HW137427   1.448   1.941   1.713
 8516SOL    HW237428   1.532   2.037   1.795
 8517SOL     OW37429   1.910   3.776  16.879
 8517SOL    HW137430   1.997   3.763  16.917
 8517SOL    HW237431   1.849   3.751  16.949
 8518SOL     OW37432   2.459   2.272   8.595
 8518SOL    HW137433   2.367   2.294   8.606
 8518SOL    HW237434   2.500   2.293   8.679
 8519SOL     OW37435   2.056   1.486   2.781
 8519SOL    HW137436   2.051   1.540   2.702
 8519SOL    HW237437   2.150   1.484   2.802
 8520SOL     OW37438   3.524   0.793   4.127
 8520SOL    HW137439   3.537   0.887   4.114
 8520SOL    HW237440   3.612   0.759   4.146
 8521SOL     OW37441   2.996   0.523  20.899
 8521SOL    HW137442   2.971   0.431  20.908
 8521SOL    HW237443   3.090   0.521  20.881
 8522SOL     OW37444   3.312   0.811   8.311
 8522SOL    HW137445   3.374   0.829   8.382
 8522SOL    HW237446   3.350   0.737   8.264
 8523SOL     OW37447   0.114   1.465   2.308
 8523SOL    HW137448   0.129   1.397   2.242
 8523SOL    HW237449   0.139   1.424   2.391
 8524SOL     OW37450   1.887   4.028   0.711
 8524SOL    HW137451   1.804   4.066   0.739
 8524SOL    HW237452   1.948   4.102   0.712
 8525SOL     OW37453   1.530   4.324  18.333
 8525SOL    HW137454   1.578   4.243  18.314
 8525SOL    HW237455   1.439   4.304  18.308
 8526SOL     OW37456   2.679   4.328  15.688
 8526SOL    HW137457   2.620   4.334  15.763
 8526SOL    HW237458   2.747   4.266  15.717
 8527SOL     OW37459   1.134   1.108   4.179
 8527SOL    HW137460   1.067   1.147   4.123
 8527SOL    HW237461   1.157   1.025   4.136
 8528SOL     OW37462   1.628   0.291  17.677
 8528SOL    HW137463   1.718   0.258  17.680
 8528SOL    HW237464   1.597   0.284  17.767
 8529SOL     OW37465   1.994   3.662  15.054
 8529SOL    HW137466   1.903   3.650  15.026
 8529SOL    HW237467   1.988   3.678  15.148
 8530SOL     OW37468   0.926   1.682  20.075
 8530SOL    HW137469   0.976   1.605  20.102
 8530SOL    HW237470   0.969   1.711  19.994
 8531SOL     OW37471   0.395   0.130  19.971
 8531SOL    HW137472   0.342   0.208  19.992
 8531SOL    HW237473   0.352   0.059  20.019
 8532SOL     OW37474   4.704   2.400   2.798
 8532SOL    HW137475   4.757   2.348   2.858
 8532SOL    HW237476   4.767   2.442   2.740
 8533SOL     OW37477   3.112   1.292  20.170
 8533SOL    HW137478   3.037   1.248  20.129
 8533SOL    HW237479   3.084   1.309  20.260
 8534SOL     OW37480   1.927   2.361  17.776
 8534SOL    HW137481   1.838   2.376  17.807
 8534SOL    HW237482   1.918   2.292  17.710
 8535SOL     OW37483   1.481   0.834   5.545
 8535SOL    HW137484   1.430   0.894   5.599
 8535SOL    HW237485   1.566   0.828   5.589
 8536SOL     OW37486   0.170   3.852  19.595
 8536SOL    HW137487   0.184   3.906  19.673
 8536SOL    HW237488   0.250   3.799  19.588
 8537SOL     OW37489   0.016   0.632  13.503
 8537SOL    HW137490   4.735   0.597  13.444
 8537SOL    HW237491   4.753   0.674  13.573
 8538SOL     OW37492   1.023   2.070   0.545
 8538SOL    HW137493   1.087   2.002   0.528
 8538SOL    HW237494   0.960   2.062   0.473
 8539SOL     OW37495   1.969   0.437  18.188
 8539SOL    HW137496   1.956   0.395  18.273
 8539SOL    HW237497   1.995   0.365  18.130
 8540SOL     OW37498   3.577   1.837   1.332
 8540SOL    HW137499   3.561   1.903   1.400
 8540SOL    HW237500   3.669   1.851   1.307
 8541SOL     OW37501   0.008   3.276   2.712
 8541SOL    HW137502   4.733   3.335   2.668
 8541SOL    HW237503   0.073   3.334   2.751
 8542SOL     OW37504   2.814   3.818   0.344
 8542SOL    HW137505   2.723   3.801   0.322
 8542SOL    HW237506   2.852   3.853   0.263
 8543SOL     OW37507   0.794   2.920   0.708
 8543SOL    HW137508   0.847   2.950   0.635
 8543SOL    HW237509   0.716   2.881   0.668
 8544SOL     OW37510   0.699   3.173   1.739
 8544SOL    HW137511   0.749   3.226   1.677
 8544SOL    HW237512   0.765   3.122   1.785
 8545SOL     OW37513   0.841   3.875  16.201
 8545SOL    HW137514   0.933   3.853  16.215
 8545SOL    HW237515   0.819   3.933  16.274
 8546SOL     OW37516   0.083   3.850  13.622
 8546SOL    HW137517   0.098   3.830  13.530
 8546SOL    HW237518   0.129   3.780  13.670
 8547SOL     OW37519   2.718   2.696  14.805
 8547SOL    HW137520   2.695   2.764  14.743
 8547SOL    HW237521   2.808   2.672  14.782
 8548SOL     OW37522   4.141   2.873  15.739
 8548SOL    HW137523   4.095   2.801  15.697
 8548SOL    HW237524   4.152   2.938  15.669
 8549SOL     OW37525   3.286   4.211   1.453
 8549SOL    HW137526   3.320   4.122   1.446
 8549SOL    HW237527   3.209   4.203   1.508
 8550SOL     OW37528   0.022   2.679   4.786
 8550SOL    HW137529   0.114   2.683   4.811
 8550SOL    HW237530   4.764   2.738   4.847
 8551SOL     OW37531   3.014   1.112   0.894
 8551SOL    HW137532   2.920   1.106   0.882
 8551SOL    HW237533   3.048   1.132   0.806
 8552SOL     OW37534   3.047   1.573   7.835
 8552SOL    HW137535   3.123   1.604   7.785
 8552SOL    HW237536   3.082   1.506   7.893
 8553SOL     OW37537   3.520   3.899   3.627
 8553SOL    HW137538   3.611   3.871   3.638
 8553SOL    HW237539   3.525   3.994   3.623
 8554SOL     OW37540   4.201   1.152  17.302
 8554SOL    HW137541   4.196   1.134  17.208
 8554SOL    HW237542   4.247   1.077  17.339
 8555SOL     OW37543   2.391   4.504   3.917
 8555SOL    HW137544   2.363   4.566   3.984
 8555SOL    HW237545   2.482   4.527   3.898
 8556SOL     OW37546   1.319   3.926  12.861
 8556SOL    HW137547   1.345   3.860  12.926
 8556SOL    HW237548   1.286   3.874  12.787
 8557SOL     OW37549   3.188   4.782   2.806
 8557SOL    HW137550   3.145   4.728   2.871
 8557SOL    HW237551   3.165   0.085   2.829
 8558SOL     OW37552   4.425   3.849  19.505
 8558SOL    HW137553   4.505   3.802  19.527
 8558SOL    HW237554   4.362   3.780  19.485
 8559SOL     OW37555   2.064   4.542  16.425
 8559SOL    HW137556   2.124   4.564  16.353
 8559SOL    HW237557   2.098   4.461  16.461
 8560SOL     OW37558   0.741   3.453   4.030
 8560SOL    HW137559   0.684   3.417   4.098
 8560SOL    HW237560   0.708   3.414   3.948
 8561SOL     OW37561   0.392   0.442   5.474
 8561SOL    HW137562   0.361   0.466   5.561
 8561SOL    HW237563   0.484   0.419   5.486
 8562SOL     OW37564   3.358   1.951  15.900
 8562SOL    HW137565   3.373   2.029  15.954
 8562SOL    HW237566   3.397   1.974  15.815
 8563SOL     OW37567   4.016   3.652  15.183
 8563SOL    HW137568   4.012   3.664  15.278
 8563SOL    HW237569   4.109   3.637  15.164
 8564SOL     OW37570   0.138   1.932   2.888
 8564SOL    HW137571   0.046   1.908   2.898
 8564SOL    HW237572   0.172   1.872   2.822
 8565SOL     OW37573   3.949   4.699   5.635
 8565SOL    HW137574   3.983   4.634   5.573
 8565SOL    HW237575   3.896   4.757   5.581
 8566SOL     OW37576   3.186   4.778  20.378
 8566SOL    HW137577   3.246   4.763  20.305
 8566SOL    HW237578   3.242   4.781  20.455
 8567SOL     OW37579   0.330   4.267  19.413
 8567SOL    HW137580   0.396   4.228  19.470
 8567SOL    HW237581   0.360   4.356  19.398
 8568SOL     OW37582   1.773   3.370  20.873
 8568SOL    HW137583   1.743   3.365  20.782
 8568SOL    HW237584   1.706   3.324  20.923
 8569SOL     OW37585   3.784   0.370   5.754
 8569SOL    HW137586   3.720   0.403   5.690
 8569SOL    HW237587   3.866   0.413   5.730
 8570SOL     OW37588   0.949   4.441  11.583
 8570SOL    HW137589   0.967   4.349  11.603
 8570SOL    HW237590   1.034   4.484  11.594
 8571SOL     OW37591   3.281   4.407  18.837
 8571SOL    HW137592   3.214   4.352  18.878
 8571SOL    HW237593   3.337   4.345  18.791
 8572SOL     OW37594   3.904   3.896  17.948
 8572SOL    HW137595   3.861   3.831  18.004
 8572SOL    HW237596   3.934   3.964  18.008
 8573SOL     OW37597   4.374   0.469   0.665
 8573SOL    HW137598   4.412   0.419   0.738
 8573SOL    HW237599   4.280   0.449   0.670
 8574SOL     OW37600   2.941   4.647  18.839
 8574SOL    HW137601   2.873   4.630  18.904
 8574SOL    HW237602   2.976   4.733  18.862
 8575SOL     OW37603   2.967   0.003  20.638
 8575SOL    HW137604   3.053   4.759  20.609
 8575SOL    HW237605   2.955   4.751  20.725
 8576SOL     OW37606   1.073   4.627  12.586
 8576SOL    HW137607   1.099   4.712  12.550
 8576SOL    HW237608   1.057   4.572  12.510
 8577SOL     OW37609   1.893   2.640   4.113
 8577SOL    HW137610   1.913   2.723   4.157
 8577SOL    HW237611   1.915   2.656   4.021
 8578SOL     OW37612   2.836   2.099  18.332
 8578SOL    HW137613   2.809   2.189  18.314
 8578SOL    HW237614   2.832   2.092  18.428
 8579SOL     OW37615   2.827   2.704   1.583
 8579SOL    HW137616   2.792   2.790   1.561
 8579SOL    HW237617   2.794   2.646   1.514
 8580SOL     OW37618   0.648   4.283   6.316
 8580SOL    HW137619   0.728   4.253   6.273
 8580SOL    HW237620   0.648   4.238   6.401
 8581SOL     OW37621   2.082   4.491  13.841
 8581SOL    HW137622   2.070   4.408  13.888
 8581SOL    HW237623   2.169   4.483  13.801
 8582SOL     OW37624   2.572   3.639  16.958
 8582SOL    HW137625   2.629   3.567  16.931
 8582SOL    HW237626   2.623   3.687  17.023
 8583SOL     OW37627   0.858   3.748  15.564
 8583SOL    HW137628   0.833   3.694  15.490
 8583SOL    HW237629   0.776   3.787  15.594
 8584SOL     OW37630   4.760   3.990   2.903
 8584SOL    HW137631   0.050   3.944   2.868
 8584SOL    HW237632   4.758   3.966   2.996
 8585SOL     OW37633   4.314   0.700   0.400
 8585SOL    HW137634   4.398   0.654   0.404
 8585SOL    HW237635   4.304   0.724   0.308
 8586SOL     OW37636   1.144   0.848  19.694
 8586SOL    HW137637   1.218   0.789  19.682
 8586SOL    HW237638   1.082   0.824  19.626
 8587SOL     OW37639   3.199   3.518  19.065
 8587SOL    HW137640   3.282   3.485  19.097
 8587SOL    HW237641   3.223   3.574  18.991
 8588SOL     OW37642   4.486   0.197   2.749
 8588SOL    HW137643   4.456   0.276   2.703
 8588SOL    HW237644   4.572   0.179   2.711
 8589SOL     OW37645   3.623   2.585   6.974
 8589SOL    HW137646   3.685   2.612   7.042
 8589SOL    HW237647   3.637   2.647   6.903
 8590SOL     OW37648   0.503   0.609   1.269
 8590SOL    HW137649   0.584   0.593   1.319
 8590SOL    HW237650   0.532   0.659   1.192
 8591SOL     OW37651   0.980   0.622  20.156
 8591SOL    HW137652   0.922   0.552  20.185
 8591SOL    HW237653   0.939   0.656  20.077
 8592SOL     OW37654   3.861   0.721   3.604
 8592SOL    HW137655   3.947   0.726   3.562
 8592SOL    HW237656   3.840   0.628   3.604
 8593SOL     OW37657   4.621   1.786  21.190
 8593SOL    HW137658   4.671   1.856  21.148
 8593SOL    HW237659   4.532   1.796  21.157
 8594SOL     OW37660   3.246   3.732  17.142
 8594SOL    HW137661   3.152   3.751  17.140
 8594SOL    HW237662   3.271   3.722  17.051
 8595SOL     OW37663   3.664   3.898   1.811
 8595SOL    HW137664   3.579   3.879   1.770
 8595SOL    HW237665   3.671   3.834   1.882
 8596SOL     OW37666   0.921   4.675   1.761
 8596SOL    HW137667   0.852   4.616   1.793
 8596SOL    HW237668   0.876   4.734   1.701
 8597SOL     OW37669   2.122   1.785   0.526
 8597SOL    HW137670   2.156   1.803   0.438
 8597SOL    HW237671   2.181   1.718   0.561
 8598SOL     OW37672   2.610   0.387   6.406
 8598SOL    HW137673   2.517   0.364   6.396
 8598SOL    HW237674   2.627   0.447   6.333
 8599SOL     OW37675   1.571   4.061  14.306
 8599SOL    HW137676   1.604   4.075  14.395
 8599SOL    HW237677   1.540   4.148  14.279
 8600SOL     OW37678   1.611   4.281  20.876
 8600SOL    HW137679   1.533   4.266  20.822
 8600SOL    HW237680   1.685   4.263  20.818
 8601SOL     OW37681   2.492   1.233   5.838
 8601SOL    HW137682   2.559   1.243   5.769
 8601SOL    HW237683   2.517   1.296   5.905
 8602SOL     OW37684   1.444   2.465  15.487
 8602SOL    HW137685   1.375   2.520  15.524
 8602SOL    HW237686   1.466   2.506  15.403
 8603SOL     OW37687   4.504   0.290  20.871
 8603SOL    HW137688   4.462   0.363  20.827
 8603SOL    HW237689   4.466   0.212  20.830
 8604SOL     OW37690   3.523   1.624  20.806
 8604SOL    HW137691   3.599   1.584  20.765
 8604SOL    HW237692   3.558   1.669  20.882
 8605SOL     OW37693   4.129   0.460   0.795
 8605SOL    HW137694   4.119   0.519   0.870
 8605SOL    HW237695   4.054   0.401   0.801
 8606SOL     OW37696   3.892   2.772   2.261
 8606SOL    HW137697   3.901   2.757   2.167
 8606SOL    HW237698   3.900   2.685   2.300
 8607SOL     OW37699   0.942   3.516   0.875
 8607SOL    HW137700   0.991   3.598   0.872
 8607SOL    HW237701   0.864   3.535   0.928
 8608SOL     OW37702   2.329   3.116   1.836
 8608SOL    HW137703   2.298   3.164   1.759
 8608SOL    HW237704   2.309   3.174   1.910
 8609SOL     OW37705   2.487   3.043  12.874
 8609SOL    HW137706   2.397   3.069  12.855
 8609SOL    HW237707   2.479   2.973  12.938
 8610SOL     OW37708   0.980   2.125   4.891
 8610SOL    HW137709   1.022   2.155   4.811
 8610SOL    HW237710   1.053   2.100   4.948
 8611SOL     OW37711   4.135   4.759   2.279
 8611SOL    HW137712   4.065   0.031   2.309
 8611SOL    HW237713   4.166   0.013   2.198
 8612SOL     OW37714   1.242   3.621  14.530
 8612SOL    HW137715   1.151   3.643  14.512
 8612SOL    HW237716   1.291   3.659  14.457
 8613SOL     OW37717   0.837   3.427  20.555
 8613SOL    HW137718   0.749   3.425  20.517
 8613SOL    HW237719   0.834   3.497  20.619
 8614SOL     OW37720   4.661   0.021   4.566
 8614SOL    HW137721   4.721   0.038   4.639
 8614SOL    HW237722   4.574   0.029   4.603
 8615SOL     OW37723   2.531   1.863  19.675
 8615SOL    HW137724   2.551   1.907  19.757
 8615SOL    HW237725   2.472   1.791  19.700
 8616SOL     OW37726   4.498   0.034  18.131
 8616SOL    HW137727   4.485   0.127  18.117
 8616SOL    HW237728   4.474   4.780  18.047
 8617SOL     OW37729   0.966   2.461   3.124
 8617SOL    HW137730   0.920   2.542   3.100
 8617SOL    HW237731   0.897   2.398   3.143
 8618SOL     OW37732   1.550   1.414  21.116
 8618SOL    HW137733   1.503   1.334  21.139
 8618SOL    HW237734   1.485   1.467  21.069
 8619SOL     OW37735   2.075   2.053  16.422
 8619SOL    HW137736   2.009   2.104  16.373
 8619SOL    HW237737   2.053   2.068  16.514
 8620SOL     OW37738   0.009   0.862  21.191
 8620SOL    HW137739   0.102   0.879  21.205
 8620SOL    HW237740   4.753   0.893   0.026
 8621SOL     OW37741   2.809   3.436   5.355
 8621SOL    HW137742   2.899   3.408   5.339
 8621SOL    HW237743   2.764   3.356   5.381
 8622SOL     OW37744   2.135   4.019   8.542
 8622SOL    HW137745   2.049   3.980   8.529
 8622SOL    HW237746   2.158   3.997   8.632
 8623SOL     OW37747   3.356   3.610  18.329
 8623SOL    HW137748   3.405   3.674  18.380
 8623SOL    HW237749   3.415   3.535  18.320
 8624SOL     OW37750   2.910   4.488   0.027
 8624SOL    HW137751   2.987   4.495   0.083
 8624SOL    HW237752   2.946   4.478  21.183
 8625SOL     OW37753   2.866   2.395  16.167
 8625SOL    HW137754   2.900   2.326  16.224
 8625SOL    HW237755   2.802   2.351  16.111
 8626SOL     OW37756   0.506   1.812   3.564
 8626SOL    HW137757   0.453   1.883   3.599
 8626SOL    HW237758   0.533   1.841   3.477
 8627SOL     OW37759   1.826   3.691   8.760
 8627SOL    HW137760   1.864   3.605   8.779
 8627SOL    HW237761   1.892   3.735   8.707
 8628SOL     OW37762   1.024   3.151  15.919
 8628SOL    HW137763   0.987   3.113  15.840
 8628SOL    HW237764   0.952   3.152  15.981
 8629SOL     OW37765   3.885   1.476  19.957
 8629SOL    HW137766   3.838   1.535  19.898
 8629SOL    HW237767   3.818   1.443  20.017
 8630SOL     OW37768   1.880   4.119   1.945
 8630SOL    HW137769   1.820   4.190   1.968
 8630SOL    HW237770   1.902   4.078   2.029
 8631SOL     OW37771   3.208   3.752  17.841
 8631SOL    HW137772   3.224   3.844  17.863
 8631SOL    HW237773   3.242   3.704  17.916
 8632SOL     OW37774   3.763   0.457  16.071
 8632SOL    HW137775   3.807   0.432  15.990
 8632SOL    HW237776   3.709   0.382  16.093
 8633SOL     OW37777   1.346   4.379  20.800
 8633SOL    HW137778   1.310   4.409  20.716
 8633SOL    HW237779   1.315   4.443  20.863
 8634SOL     OW37780   4.334   4.272  16.440
 8634SOL    HW137781   4.311   4.201  16.379
 8634SOL    HW237782   4.274   4.343  16.418
 8635SOL     OW37783   4.640   1.368   1.678
 8635SOL    HW137784   4.666   1.290   1.630
 8635SOL    HW237785   4.557   1.344   1.719
 8636SOL     OW37786   0.853   4.782  18.274
 8636SOL    HW137787   0.778   0.037  18.315
 8636SOL    HW237788   0.818   4.704  18.231
 8637SOL     OW37789   4.207   0.596  13.900
 8637SOL    HW137790   4.251   0.517  13.865
 8637SOL    HW237791   4.279   0.653  13.927
 8638SOL     OW37792   3.962   1.799  18.019
 8638SOL    HW137793   3.954   1.743  18.097
 8638SOL    HW237794   3.966   1.888  18.054
 8639SOL     OW37795   4.432   3.644   1.848
 8639SOL    HW137796   4.353   3.595   1.871
 8639SOL    HW237797   4.482   3.648   1.929
 8640SOL     OW37798   1.843   1.609   6.501
 8640SOL    HW137799   1.752   1.578   6.497
 8640SOL    HW237800   1.854   1.641   6.590
 8641SOL     OW37801   3.099   2.029  17.837
 8641SOL    HW137802   3.020   2.084  17.844
 8641SOL    HW237803   3.158   2.079  17.780
 8642SOL     OW37804   2.129   0.994   3.504
 8642SOL    HW137805   2.205   1.030   3.457
 8642SOL    HW237806   2.149   0.901   3.513
 8643SOL     OW37807   0.411   3.275   5.079
 8643SOL    HW137808   0.389   3.316   5.163
 8643SOL    HW237809   0.487   3.324   5.048
 8644SOL     OW37810   2.845   0.711  19.219
 8644SOL    HW137811   2.925   0.659  19.210
 8644SOL    HW237812   2.849   0.776  19.149
 8645SOL     OW37813   0.806   2.437  19.996
 8645SOL    HW137814   0.795   2.429  20.091
 8645SOL    HW237815   0.785   2.350  19.961
 8646SOL     OW37816   1.229   4.454  15.727
 8646SOL    HW137817   1.191   4.368  15.738
 8646SOL    HW237818   1.209   4.500  15.808
 8647SOL     OW37819   0.905   3.494   1.961
 8647SOL    HW137820   0.949   3.524   2.040
 8647SOL    HW237821   0.974   3.487   1.895
 8648SOL     OW37822   0.325   2.008   3.107
 8648SOL    HW137823   0.291   1.962   3.031
 8648SOL    HW237824   0.367   1.940   3.159
 8649SOL     OW37825   3.414   1.434  16.354
 8649SOL    HW137826   3.492   1.384  16.379
 8649SOL    HW237827   3.346   1.368  16.342
 8650SOL     OW37828   1.059   4.720  17.116
 8650SOL    HW137829   1.035   4.779  17.045
 8650SOL    HW237830   1.116   4.772  17.173
 8651SOL     OW37831   1.135   2.238   4.668
 8651SOL    HW137832   1.204   2.300   4.693
 8651SOL    HW237833   1.183   2.161   4.636
 8652SOL     OW37834   4.251   4.601  15.045
 8652SOL    HW137835   4.173   4.559  15.009
 8652SOL    HW237836   4.305   4.621  14.968
 8653SOL     OW37837   0.827   3.504   5.676
 8653SOL    HW137838   0.848   3.496   5.583
 8653SOL    HW237839   0.740   3.464   5.684
 8654SOL     OW37840   1.304   1.815  17.887
 8654SOL    HW137841   1.259   1.760  17.824
 8654SOL    HW237842   1.393   1.781  17.890
 8655SOL     OW37843   1.098   1.125  13.937
 8655SOL    HW137844   1.098   1.207  13.985
 8655SOL    HW237845   1.031   1.071  13.980
 8656SOL     OW37846   4.636   4.264  20.776
 8656SOL    HW137847   4.716   4.314  20.758
 8656SOL    HW237848   4.644   4.186  20.720
 8657SOL     OW37849   3.397   2.759   0.024
 8657SOL    HW137850   3.451   2.763   0.103
 8657SOL    HW237851   3.328   2.696   0.045
 8658SOL     OW37852   3.902   2.306   0.086
 8658SOL    HW137853   3.985   2.339   0.051
 8658SOL    HW237854   3.899   2.339   0.176
 8659SOL     OW37855   1.404   1.127   2.933
 8659SOL    HW137856   1.334   1.191   2.944
 8659SOL    HW237857   1.396   1.069   3.008
 8660SOL     OW37858   1.101   1.428  19.173
 8660SOL    HW137859   1.192   1.434  19.144
 8660SOL    HW237860   1.051   1.462  19.099
 8661SOL     OW37861   0.457   0.777  16.875
 8661SOL    HW137862   0.451   0.726  16.956
 8661SOL    HW237863   0.396   0.849  16.887
 8662SOL     OW37864   2.152   1.533   3.138
 8662SOL    HW137865   2.073   1.511   3.090
 8662SOL    HW237866   2.223   1.498   3.085
 8663SOL     OW37867   3.290   3.894   3.112
 8663SOL    HW137868   3.217   3.832   3.110
 8663SOL    HW237869   3.336   3.874   3.194
 8664SOL     OW37870   1.077   1.934  11.298
 8664SOL    HW137871   0.982   1.944  11.309
 8664SOL    HW237872   1.088   1.847  11.261
 8665SOL     OW37873   4.140   0.306   0.465
 8665SOL    HW137874   4.111   0.276   0.379
 8665SOL    HW237875   4.236   0.306   0.460
 8666SOL     OW37876   3.380   0.589   4.204
 8666SOL    HW137877   3.341   0.596   4.291
 8666SOL    HW237878   3.429   0.671   4.193
 8667SOL     OW37879   0.174   0.430  15.806
 8667SOL    HW137880   0.177   0.379  15.726
 8667SOL    HW237881   0.153   0.367  15.875
 8668SOL     OW37882   3.731   1.284   5.987
 8668SOL    HW137883   3.714   1.250   5.899
 8668SOL    HW237884   3.728   1.379   5.978
 8669SOL     OW37885   0.679   1.390   4.911
 8669SOL    HW137886   0.620   1.406   4.984
 8669SOL    HW237887   0.632   1.331   4.854
 8670SOL     OW37888   3.050   3.351   0.935
 8670SOL    HW137889   3.088   3.287   0.874
 8670SOL    HW237890   3.109   3.350   1.010
 8671SOL     OW37891   0.824   2.582  16.240
 8671SOL    HW137892   0.746   2.542  16.201
 8671SOL    HW237893   0.896   2.554  16.185
 8672SOL     OW37894   2.618   0.190   2.313
 8672SOL    HW137895   2.608   0.144   2.396
 8672SOL    HW237896   2.681   0.259   2.331
 8673SOL     OW37897   2.046   4.243   3.909
 8673SOL    HW137898   2.083   4.204   3.829
 8673SOL    HW237899   2.004   4.169   3.954
 8674SOL     OW37900   3.039   2.959  20.721
 8674SOL    HW137901   3.105   2.980  20.654
 8674SOL    HW237902   3.038   2.864  20.725
 8675SOL     OW37903   1.391   2.964   4.124
 8675SOL    HW137904   1.301   2.934   4.114
 8675SOL    HW237905   1.444   2.888   4.103
 8676SOL     OW37906   3.794   0.569  19.718
 8676SOL    HW137907   3.817   0.658  19.742
 8676SOL    HW237908   3.704   0.558  19.749
 8677SOL     OW37909   3.153   2.815   2.521
 8677SOL    HW137910   3.104   2.804   2.440
 8677SOL    HW237911   3.236   2.853   2.494
 8678SOL     OW37912   4.709   3.652  16.707
 8678SOL    HW137913   4.747   3.590  16.769
 8678SOL    HW237914   4.756   3.734  16.724
 8679SOL     OW37915   1.245   2.352   5.935
 8679SOL    HW137916   1.153   2.359   5.910
 8679SOL    HW237917   1.269   2.441   5.962
 8680SOL     OW37918   2.340   4.764   2.942
 8680SOL    HW137919   2.404   0.048   2.944
 8680SOL    HW237920   2.256   0.022   2.930
 8681SOL     OW37921   1.146   1.474  20.018
 8681SOL    HW137922   1.123   1.513  19.934
 8681SOL    HW237923   1.128   1.381  20.007
 8682SOL     OW37924   2.634   0.642  16.398
 8682SOL    HW137925   2.606   0.561  16.442
 8682SOL    HW237926   2.723   0.657  16.429
 8683SOL     OW37927   0.764   1.645   1.791
 8683SOL    HW137928   0.825   1.571   1.789
 8683SOL    HW237929   0.816   1.718   1.824
 8684SOL     OW37930   2.938   4.169  21.200
 8684SOL    HW137931   3.034   4.176  21.200
 8684SOL    HW237932   2.917   4.126  21.117
 8685SOL     OW37933   1.125   1.558   5.973
 8685SOL    HW137934   1.193   1.496   5.998
 8685SOL    HW237935   1.124   1.622   6.044
 8686SOL     OW37936   3.579   4.282  17.085
 8686SOL    HW137937   3.609   4.341  17.015
 8686SOL    HW237938   3.519   4.336  17.137
 8687SOL     OW37939   4.611   3.516  13.823
 8687SOL    HW137940   4.604   3.431  13.867
 8687SOL    HW237941   4.568   3.578  13.882
 8688SOL     OW37942   1.996   2.352  16.441
 8688SOL    HW137943   2.031   2.438  16.417
 8688SOL    HW237944   1.922   2.340  16.381
 8689SOL     OW37945   1.032   2.492   1.849
 8689SOL    HW137946   0.956   2.530   1.805
 8689SOL    HW237947   1.074   2.566   1.892
 8690SOL     OW37948   3.004   4.070  17.761
 8690SOL    HW137949   3.079   4.024  17.799
 8690SOL    HW237950   2.993   4.148  17.816
 8691SOL     OW37951   3.208   3.912   4.735
 8691SOL    HW137952   3.260   3.986   4.703
 8691SOL    HW237953   3.264   3.870   4.800
 8692SOL     OW37954   1.606   1.663   7.653
 8692SOL    HW137955   1.666   1.626   7.717
 8692SOL    HW237956   1.593   1.753   7.681
 8693SOL     OW37957   4.078   3.955   4.915
 8693SOL    HW137958   4.161   3.966   4.868
 8693SOL    HW237959   4.080   4.021   4.984
 8694SOL     OW37960   0.647   0.314   5.254
 8694SOL    HW137961   0.598   0.396   5.244
 8694SOL    HW237962   0.640   0.271   5.170
 8695SOL     OW37963   3.510   2.779  13.531
 8695SOL    HW137964   3.437   2.730  13.568
 8695SOL    HW237965   3.502   2.766  13.436
 8696SOL     OW37966   0.179   1.448   7.876
 8696SOL    HW137967   0.203   1.443   7.784
 8696SOL    HW237968   0.262   1.458   7.922
 8697SOL     OW37969   0.692   2.853   6.245
 8697SOL    HW137970   0.670   2.774   6.196
 8697SOL    HW237971   0.720   2.820   6.331
 8698SOL     OW37972   3.540   4.660  17.113
 8698SOL    HW137973   3.467   4.598  17.116
 8698SOL    HW237974   3.527   4.716  17.189
 8699SOL     OW37975   3.036   1.830  12.860
 8699SOL    HW137976   3.016   1.908  12.911
 8699SOL    HW237977   2.952   1.803  12.823
 8700SOL     OW37978   4.120   4.652   7.686
 8700SOL    HW137979   4.111   4.574   7.630
 8700SOL    HW237980   4.142   4.617   7.772
 8701SOL     OW37981   0.402   3.242   2.336
 8701SOL    HW137982   0.346   3.312   2.303
 8701SOL    HW237983   0.363   3.162   2.299
 8702SOL     OW37984   0.844   1.176  17.030
 8702SOL    HW137985   0.761   1.134  17.010
 8702SOL    HW237986   0.838   1.262  16.988
 8703SOL     OW37987   4.242   0.324   6.664
 8703SOL    HW137988   4.214   0.370   6.585
 8703SOL    HW237989   4.320   0.275   6.637
 8704SOL     OW37990   3.775   1.288  15.495
 8704SOL    HW137991   3.801   1.206  15.453
 8704SOL    HW237992   3.716   1.330  15.433
 8705SOL     OW37993   1.986   2.072  18.271
 8705SOL    HW137994   2.007   2.001  18.212
 8705SOL    HW237995   1.906   2.111  18.235
 8706SOL     OW37996   2.718   3.563  19.787
 8706SOL    HW137997   2.655   3.616  19.738
 8706SOL    HW237998   2.708   3.475  19.750
 8707SOL     OW37999   1.296   3.052   5.938
 8707SOL    HW138000   1.270   2.960   5.946
 8707SOL    HW238001   1.213   3.100   5.929
 8708SOL     OW38002   2.475   2.179   2.102
 8708SOL    HW138003   2.463   2.113   2.169
 8708SOL    HW238004   2.568   2.173   2.078
 8709SOL     OW38005   2.579   1.649  18.872
 8709SOL    HW138006   2.666   1.677  18.845
 8709SOL    HW238007   2.529   1.643  18.791
 8710SOL     OW38008   1.408   3.365  19.823
 8710SOL    HW138009   1.406   3.387  19.916
 8710SOL    HW238010   1.355   3.286  19.816
 8711SOL     OW38011   4.555   0.159   4.997
 8711SOL    HW138012   4.553   0.181   5.090
 8711SOL    HW238013   4.584   0.068   4.994
 8712SOL     OW38014   0.310   1.652   2.138
 8712SOL    HW138015   0.275   1.608   2.215
 8712SOL    HW238016   0.328   1.581   2.076
 8713SOL     OW38017   0.739   4.719   5.289
 8713SOL    HW138018   0.781   4.647   5.240
 8713SOL    HW238019   0.776   0.012   5.252
 8714SOL     OW38020   2.597   0.523   6.664
 8714SOL    HW138021   2.503   0.516   6.684
 8714SOL    HW238022   2.607   0.476   6.581
 8715SOL     OW38023   2.498   3.255   6.687
 8715SOL    HW138024   2.435   3.328   6.694
 8715SOL    HW238025   2.448   3.178   6.712
 8716SOL     OW38026   4.568   0.570   0.482
 8716SOL    HW138027   4.519   0.527   0.552
 8716SOL    HW238028   4.596   0.653   0.520
 8717SOL     OW38029   1.367   3.921   1.419
 8717SOL    HW138030   1.378   3.937   1.326
 8717SOL    HW238031   1.307   3.989   1.449
 8718SOL     OW38032   1.912   4.604  18.084
 8718SOL    HW138033   1.833   4.616  18.137
 8718SOL    HW238034   1.985   4.622  18.144
 8719SOL     OW38035   1.426   0.623  12.807
 8719SOL    HW138036   1.522   0.624  12.805
 8719SOL    HW238037   1.401   0.559  12.741
 8720SOL     OW38038   1.898   4.537  18.920
 8720SOL    HW138039   1.810   4.522  18.955
 8720SOL    HW238040   1.953   4.474  18.968
 8721SOL     OW38041   3.448   4.272  17.440
 8721SOL    HW138042   3.507   4.289  17.513
 8721SOL    HW238043   3.366   4.245  17.481
 8722SOL     OW38044   2.588   0.056   2.548
 8722SOL    HW138045   2.663   0.072   2.606
 8722SOL    HW238046   2.513   0.090   2.597
 8723SOL     OW38047   4.540   2.226   1.650
 8723SOL    HW138048   4.563   2.319   1.650
 8723SOL    HW238049   4.461   2.221   1.702
 8724SOL     OW38050   2.746   3.417  15.701
 8724SOL    HW138051   2.712   3.358  15.633
 8724SOL    HW238052   2.791   3.485  15.653
 8725SOL     OW38053   2.871   1.893  16.422
 8725SOL    HW138054   2.816   1.904  16.345
 8725SOL    HW238055   2.941   1.835  16.393
 8726SOL     OW38056   2.447   1.329   3.668
 8726SOL    HW138057   2.426   1.326   3.574
 8726SOL    HW238058   2.525   1.384   3.674
 8727SOL     OW38059   0.824   4.299   2.224
 8727SOL    HW138060   0.850   4.242   2.152
 8727SOL    HW238061   0.777   4.371   2.181
 8728SOL     OW38062   0.390   0.257  15.534
 8728SOL    HW138063   0.396   0.182  15.593
 8728SOL    HW238064   0.470   0.254  15.482
 8729SOL     OW38065   4.202   2.109   6.011
 8729SOL    HW138066   4.276   2.062   5.973
 8729SOL    HW238067   4.228   2.126   6.101
 8730SOL     OW38068   4.464   2.005   0.306
 8730SOL    HW138069   4.518   1.928   0.327
 8730SOL    HW238070   4.426   1.985   0.221
 8731SOL     OW38071   0.351   2.854   0.425
 8731SOL    HW138072   0.355   2.913   0.350
 8731SOL    HW238073   0.293   2.897   0.488
 8732SOL     OW38074   0.145   4.402   4.393
 8732SOL    HW138075   0.226   4.413   4.344
 8732SOL    HW238076   0.094   4.481   4.373
 8733SOL     OW38077   4.714   0.967  15.332
 8733SOL    HW138078   4.705   1.016  15.250
 8733SOL    HW238079   4.722   1.033  15.400
 8734SOL     OW38080   0.425   4.573   7.429
 8734SOL    HW138081   0.453   4.593   7.340
 8734SOL    HW238082   0.330   4.582   7.427
 8735SOL     OW38083   2.253   0.016  21.093
 8735SOL    HW138084   2.324   0.057  21.142
 8735SOL    HW238085   2.269   4.709  21.102
 8736SOL     OW38086   3.263   3.789  15.982
 8736SOL    HW138087   3.294   3.798  16.072
 8736SOL    HW238088   3.344   3.778  15.931
 8737SOL     OW38089   3.568   2.744  18.075
 8737SOL    HW138090   3.592   2.651  18.083
 8737SOL    HW238091   3.607   2.785  18.152
 8738SOL     OW38092   4.635   3.332   1.979
 8738SOL    HW138093   4.600   3.333   1.890
 8738SOL    HW238094   4.689   3.411   1.985
 8739SOL     OW38095   0.528   4.374   3.314
 8739SOL    HW138096   0.611   4.354   3.358
 8739SOL    HW238097   0.493   4.289   3.288
 8740SOL     OW38098   2.997   4.305   3.214
 8740SOL    HW138099   3.062   4.260   3.160
 8740SOL    HW238100   3.045   4.377   3.254
 8741SOL     OW38101   4.205   2.579  15.193
 8741SOL    HW138102   4.252   2.650  15.148
 8741SOL    HW238103   4.268   2.545  15.257
 8742SOL     OW38104   0.389   2.530  18.002
 8742SOL    HW138105   0.379   2.574  18.086
 8742SOL    HW238106   0.483   2.533  17.984
 8743SOL     OW38107   4.208   1.340  17.470
 8743SOL    HW138108   4.212   1.273  17.402
 8743SOL    HW238109   4.226   1.422  17.424
 8744SOL     OW38110   1.901   1.861  19.511
 8744SOL    HW138111   1.812   1.894  19.527
 8744SOL    HW238112   1.888   1.768  19.490
 8745SOL     OW38113   3.656   1.424   6.247
 8745SOL    HW138114   3.597   1.367   6.198
 8745SOL    HW238115   3.651   1.391   6.337
 8746SOL     OW38116   4.015   2.177  18.383
 8746SOL    HW138117   4.093   2.126  18.406
 8746SOL    HW238118   4.006   2.167  18.288
 8747SOL     OW38119   1.288   3.373   5.325
 8747SOL    HW138120   1.270   3.311   5.396
 8747SOL    HW238121   1.221   3.354   5.259
 8748SOL     OW38122   1.556   1.229   5.673
 8748SOL    HW138123   1.605   1.199   5.597
 8748SOL    HW238124   1.480   1.170   5.677
 8749SOL     OW38125   2.505   1.729   0.509
 8749SOL    HW138126   2.448   1.713   0.584
 8749SOL    HW238127   2.592   1.745   0.547
 8750SOL     OW38128   0.102   3.238  15.223
 8750SOL    HW138129   0.192   3.250  15.192
 8750SOL    HW238130   0.048   3.256  15.146
 8751SOL     OW38131   0.182   1.162  20.566
 8751SOL    HW138132   0.107   1.106  20.546
 8751SOL    HW238133   0.163   1.197  20.653
 8752SOL     OW38134   3.736   1.382  13.733
 8752SOL    HW138135   3.750   1.287  13.733
 8752SOL    HW238136   3.723   1.404  13.825
 8753SOL     OW38137   2.138   0.526  13.603
 8753SOL    HW138138   2.206   0.515  13.669
 8753SOL    HW238139   2.056   0.508  13.649
 8754SOL     OW38140   1.350   0.447   7.235
 8754SOL    HW138141   1.281   0.502   7.196
 8754SOL    HW238142   1.358   0.480   7.324
 8755SOL     OW38143   2.873   3.250   3.037
 8755SOL    HW138144   2.852   3.159   3.016
 8755SOL    HW238145   2.829   3.301   2.969
 8756SOL     OW38146   1.196   2.012   3.818
 8756SOL    HW138147   1.283   1.973   3.823
 8756SOL    HW238148   1.162   1.984   3.733
 8757SOL     OW38149   2.044   2.435   1.386
 8757SOL    HW138150   2.015   2.520   1.417
 8757SOL    HW238151   2.137   2.445   1.368
 8758SOL     OW38152   2.453   1.972   7.982
 8758SOL    HW138153   2.441   1.932   8.068
 8758SOL    HW238154   2.546   1.996   7.980
 8759SOL     OW38155   3.736   3.696  16.192
 8759SOL    HW138156   3.763   3.694  16.284
 8759SOL    HW238157   3.745   3.787  16.165
 8760SOL     OW38158   3.809   3.788   9.650
 8760SOL    HW138159   3.873   3.716   9.648
 8760SOL    HW238160   3.760   3.774   9.730
 8761SOL     OW38161   1.478   0.100   1.959
 8761SOL    HW138162   1.568   0.094   1.927
 8761SOL    HW238163   1.454   0.010   1.983
 8762SOL     OW38164   2.070   3.768  18.876
 8762SOL    HW138165   2.124   3.689  18.882
 8762SOL    HW238166   1.980   3.735  18.872
 8763SOL     OW38167   2.885   2.746  12.646
 8763SOL    HW138168   2.825   2.728  12.719
 8763SOL    HW238169   2.899   2.661  12.605
 8764SOL     OW38170   0.788   2.399   2.848
 8764SOL    HW138171   0.710   2.425   2.799
 8764SOL    HW238172   0.857   2.393   2.782
 8765SOL     OW38173   0.738   2.547  19.730
 8765SOL    HW138174   0.819   2.543  19.678
 8765SOL    HW238175   0.752   2.485  19.801
 8766SOL     OW38176   3.289   0.005   4.928
 8766SOL    HW138177   3.281   4.704   4.966
 8766SOL    HW238178   3.316   4.776   4.838
 8767SOL     OW38179   4.087   0.587  20.702
 8767SOL    HW138180   4.032   0.581  20.780
 8767SOL    HW238181   4.154   0.652  20.724
 8768SOL     OW38182   1.184   0.772  13.752
 8768SOL    HW138183   1.092   0.799  13.747
 8768SOL    HW238184   1.197   0.751  13.845
 8769SOL     OW38185   4.547   3.941   1.941
 8769SOL    HW138186   4.642   3.949   1.952
 8769SOL    HW238187   4.517   3.902   2.023
 8770SOL     OW38188   2.847   1.496   4.996
 8770SOL    HW138189   2.934   1.535   4.990
 8770SOL    HW238190   2.790   1.568   5.021
 8771SOL     OW38191   3.368   3.615   3.276
 8771SOL    HW138192   3.283   3.574   3.261
 8771SOL    HW238193   3.364   3.645   3.367
 8772SOL     OW38194   3.304   1.024  21.007
 8772SOL    HW138195   3.270   0.961  20.943
 8772SOL    HW238196   3.225   1.064  21.044
 8773SOL     OW38197   1.863   0.200   0.403
 8773SOL    HW138198   1.943   0.187   0.352
 8773SOL    HW238199   1.814   0.119   0.393
 8774SOL     OW38200   4.333   1.101   4.692
 8774SOL    HW138201   4.309   1.019   4.649
 8774SOL    HW238202   4.322   1.168   4.624
 8775SOL     OW38203   4.366   3.773  16.026
 8775SOL    HW138204   4.456   3.742  16.020
 8775SOL    HW238205   4.373   3.858  16.068
 8776SOL     OW38206   0.452   3.469  17.444
 8776SOL    HW138207   0.523   3.416  17.406
 8776SOL    HW238208   0.377   3.452  17.387
 8777SOL     OW38209   2.470   1.312   4.783
 8777SOL    HW138210   2.516   1.396   4.777
 8777SOL    HW238211   2.386   1.334   4.822
 8778SOL     OW38212   0.406   1.288  17.955
 8778SOL    HW138213   0.349   1.360  17.927
 8778SOL    HW238214   0.345   1.219  17.982
 8779SOL     OW38215   3.157   4.064  20.338
 8779SOL    HW138216   3.251   4.065  20.355
 8779SOL    HW238217   3.117   4.090  20.421
 8780SOL     OW38218   3.611   3.402   7.388
 8780SOL    HW138219   3.544   3.347   7.427
 8780SOL    HW238220   3.627   3.471   7.452
 8781SOL     OW38221   4.219   0.482  20.046
 8781SOL    HW138222   4.141   0.537  20.050
 8781SOL    HW238223   4.237   0.472  19.952
 8782SOL     OW38224   3.854   3.925  17.630
 8782SOL    HW138225   3.763   3.952  17.644
 8782SOL    HW238226   3.879   3.883  17.713
 8783SOL     OW38227   0.624   1.750  17.721
 8783SOL    HW138228   0.644   1.841  17.699
 8783SOL    HW238229   0.629   1.703  17.638
 8784SOL     OW38230   3.745   0.962   3.160
 8784SOL    HW138231   3.680   1.026   3.133
 8784SOL    HW238232   3.793   1.004   3.231
 8785SOL     OW38233   3.384   2.617   5.381
 8785SOL    HW138234   3.319   2.641   5.315
 8785SOL    HW238235   3.356   2.663   5.460
 8786SOL     OW38236   4.049   1.473  18.320
 8786SOL    HW138237   4.075   1.516  18.402
 8786SOL    HW238238   4.030   1.382  18.346
 8787SOL     OW38239   4.583   0.359  14.814
 8787SOL    HW138240   4.515   0.293  14.802
 8787SOL    HW238241   4.615   0.344  14.903
 8788SOL     OW38242   1.803   4.457   7.047
 8788SOL    HW138243   1.732   4.441   7.109
 8788SOL    HW238244   1.849   4.534   7.082
 8789SOL     OW38245   1.505   4.476  21.068
 8789SOL    HW138246   1.531   4.405  21.009
 8789SOL    HW238247   1.409   4.471  21.071
 8790SOL     OW38248   0.759   1.427  17.350
 8790SOL    HW138249   0.799   1.343  17.376
 8790SOL    HW238250   0.683   1.436  17.407
 8791SOL     OW38251   2.865   3.601   1.219
 8791SOL    HW138252   2.805   3.582   1.147
 8791SOL    HW238253   2.885   3.515   1.257
 8792SOL     OW38254   3.669   2.248   5.859
 8792SOL    HW138255   3.653   2.310   5.930
 8792SOL    HW238256   3.639   2.164   5.892
 8793SOL     OW38257   3.119   0.680   2.920
 8793SOL    HW138258   3.115   0.718   2.832
 8793SOL    HW238259   3.111   0.754   2.979
 8794SOL     OW38260   0.382   4.321   7.555
 8794SOL    HW138261   0.312   4.303   7.491
 8794SOL    HW238262   0.411   4.410   7.534
 8795SOL     OW38263   0.650   1.613  18.321
 8795SOL    HW138264   0.744   1.611  18.300
 8795SOL    HW238265   0.626   1.520  18.328
 8796SOL     OW38266   2.131   3.314  16.797
 8796SOL    HW138267   2.118   3.377  16.867
 8796SOL    HW238268   2.053   3.258  16.801
 8797SOL     OW38269   1.910   1.422  20.004
 8797SOL    HW138270   1.859   1.415  19.923
 8797SOL    HW238271   1.908   1.515  20.025
 8798SOL     OW38272   2.033   1.366   6.087
 8798SOL    HW138273   1.972   1.371   6.161
 8798SOL    HW238274   1.981   1.332   6.015
 8799SOL     OW38275   4.023   4.458   4.287
 8799SOL    HW138276   4.024   4.468   4.383
 8799SOL    HW238277   3.939   4.416   4.268
 8800SOL     OW38278   2.524   4.077   0.220
 8800SOL    HW138279   2.526   4.077   0.315
 8800SOL    HW238280   2.554   3.989   0.195
 8801SOL     OW38281   0.712   2.811  15.090
 8801SOL    HW138282   0.620   2.834  15.075
 8801SOL    HW238283   0.729   2.839  15.179
 8802SOL     OW38284   0.729   0.305   1.256
 8802SOL    HW138285   0.638   0.306   1.228
 8802SOL    HW238286   0.730   0.360   1.334
 8803SOL     OW38287   2.484   0.232  16.335
 8803SOL    HW138288   2.538   0.285  16.277
 8803SOL    HW238289   2.528   0.147  16.339
 8804SOL     OW38290   4.494   1.904  20.902
 8804SOL    HW138291   4.526   1.985  20.943
 8804SOL    HW238292   4.458   1.853  20.974
 8805SOL     OW38293   1.198   1.659  18.094
 8805SOL    HW138294   1.198   1.716  18.017
 8805SOL    HW238295   1.290   1.635  18.106
 8806SOL     OW38296   3.744   3.365  20.282
 8806SOL    HW138297   3.774   3.284  20.324
 8806SOL    HW238298   3.745   3.430  20.352
 8807SOL     OW38299   1.013   3.302   9.072
 8807SOL    HW138300   0.934   3.248   9.062
 8807SOL    HW238301   1.016   3.323   9.165
 8808SOL     OW38302   1.230   2.812  20.915
 8808SOL    HW138303   1.273   2.727  20.922
 8808SOL    HW238304   1.137   2.791  20.907
 8809SOL     OW38305   4.760   0.136  17.517
 8809SOL    HW138306   0.044   0.183  17.561
 8809SOL    HW238307   0.018   0.078  17.455
 8810SOL     OW38308   3.811   4.634  14.667
 8810SOL    HW138309   3.869   4.595  14.732
 8810SOL    HW238310   3.820   4.728  14.680
 8811SOL     OW38311   4.561   2.320  16.963
 8811SOL    HW138312   4.530   2.268  17.038
 8811SOL    HW238313   4.612   2.390  17.002
 8812SOL     OW38314   0.651   1.004  14.577
 8812SOL    HW138315   0.558   1.023  14.587
 8812SOL    HW238316   0.693   1.046  14.652
 8813SOL     OW38317   3.921   3.843   5.799
 8813SOL    HW138318   3.945   3.815   5.887
 8813SOL    HW238319   3.841   3.795   5.778
 8814SOL     OW38320   2.921   3.576  18.922
 8814SOL    HW138321   2.929   3.503  18.860
 8814SOL    HW238322   2.880   3.536  18.999
 8815SOL     OW38323   2.533   2.797   0.017
 8815SOL    HW138324   2.552   2.801   0.111
 8815SOL    HW238325   2.447   2.756   0.011
 8816SOL     OW38326   0.438   0.874  17.433
 8816SOL    HW138327   0.456   0.782  17.415
 8816SOL    HW238328   0.349   0.888  17.400
 8817SOL     OW38329   2.201   0.029  16.587
 8817SOL    HW138330   2.119   0.006  16.542
 8817SOL    HW238331   2.172   0.061  16.672
 8818SOL     OW38332   0.498   2.986   1.702
 8818SOL    HW138333   0.471   2.962   1.790
 8818SOL    HW238334   0.563   3.056   1.715
 8819SOL     OW38335   2.412   1.223   0.859
 8819SOL    HW138336   2.464   1.161   0.910
 8819SOL    HW238337   2.359   1.168   0.800
 8820SOL     OW38338   0.000   1.246  18.788
 8820SOL    HW138339   4.705   1.234  18.835
 8820SOL    HW238340   0.038   1.325  18.825
 8821SOL     OW38341   3.326   2.398  20.974
 8821SOL    HW138342   3.346   2.382  21.066
 8821SOL    HW238343   3.410   2.392  20.929
 8822SOL     OW38344   1.362   4.691  20.434
 8822SOL    HW138345   1.422   4.736  20.493
 8822SOL    HW238346   1.419   4.651  20.368
 8823SOL     OW38347   0.861   1.874   3.254
 8823SOL    HW138348   0.832   1.898   3.342
 8823SOL    HW238349   0.814   1.793   3.234
 8824SOL     OW38350   4.701   0.741  20.154
 8824SOL    HW138351   4.662   0.740  20.066
 8824SOL    HW238352   4.637   0.698  20.210
 8825SOL     OW38353   1.747   2.047  16.964
 8825SOL    HW138354   1.799   2.126  16.983
 8825SOL    HW238355   1.812   1.979  16.949
 8826SOL     OW38356   4.143   2.858  19.163
 8826SOL    HW138357   4.090   2.826  19.236
 8826SOL    HW238358   4.122   2.800  19.090
 8827SOL     OW38359   3.143   1.952   3.538
 8827SOL    HW138360   3.200   1.969   3.463
 8827SOL    HW238361   3.116   2.039   3.567
 8828SOL     OW38362   1.547   2.218   4.000
 8828SOL    HW138363   1.547   2.192   4.093
 8828SOL    HW238364   1.608   2.292   3.996
 8829SOL     OW38365   3.788   4.611  16.427
 8829SOL    HW138366   3.870   4.569  16.400
 8829SOL    HW238367   3.800   4.703  16.404
 8830SOL     OW38368   3.196   4.772   1.134
 8830SOL    HW138369   3.234   4.742   1.051
 8830SOL    HW238370   3.253   4.735   1.201
 8831SOL     OW38371   3.260   0.032  20.675
 8831SOL    HW138372   3.266   4.760  20.750
 8831SOL    HW238373   3.346   0.075  20.671
 8832SOL     OW38374   1.264   3.193   2.869
 8832SOL    HW138375   1.353   3.227   2.870
 8832SOL    HW238376   1.274   3.098   2.881
 8833SOL     OW38377   4.117   1.409   4.869
 8833SOL    HW138378   4.194   1.465   4.872
 8833SOL    HW238379   4.046   1.464   4.904
 8834SOL     OW38380   2.383   0.544   3.075
 8834SOL    HW138381   2.462   0.589   3.104
 8834SOL    HW238382   2.370   0.574   2.985
 8835SOL     OW38383   2.626   0.083   3.848
 8835SOL    HW138384   2.649   0.070   3.756
 8835SOL    HW238385   2.531   0.095   3.847
 8836SOL     OW38386   3.005   3.166   5.868
 8836SOL    HW138387   3.070   3.223   5.910
 8836SOL    HW238388   2.965   3.220   5.801
 8837SOL     OW38389   4.616   1.079   0.946
 8837SOL    HW138390   4.617   1.139   0.871
 8837SOL    HW238391   4.537   1.103   0.995
 8838SOL     OW38392   0.899   0.015   0.641
 8838SOL    HW138393   0.827   0.002   0.580
 8838SOL    HW238394   0.942   4.716   0.646
 8839SOL     OW38395   0.656   0.550   7.242
 8839SOL    HW138396   0.737   0.582   7.282
 8839SOL    HW238397   0.599   0.627   7.238
 8840SOL     OW38398   1.584   2.852  14.127
 8840SOL    HW138399   1.643   2.777  14.129
 8840SOL    HW238400   1.630   2.917  14.074
 8841SOL     OW38401   3.234   0.473   0.251
 8841SOL    HW138402   3.220   0.502   0.161
 8841SOL    HW238403   3.257   0.381   0.243
 8842SOL     OW38404   2.394   3.437   1.826
 8842SOL    HW138405   2.337   3.502   1.784
 8842SOL    HW238406   2.334   3.379   1.872
 8843SOL     OW38407   0.643   0.591   3.081
 8843SOL    HW138408   0.626   0.680   3.111
 8843SOL    HW238409   0.604   0.535   3.148
 8844SOL     OW38410   2.112   3.049  16.508
 8844SOL    HW138411   2.190   2.995  16.517
 8844SOL    HW238412   2.045   3.003  16.558
 8845SOL     OW38413   0.244   2.482   0.104
 8845SOL    HW138414   0.278   2.547   0.043
 8845SOL    HW238415   0.174   2.438   0.054
 8846SOL     OW38416   1.818   1.959  21.087
 8846SOL    HW138417   1.798   2.027  21.151
 8846SOL    HW238418   1.907   1.931  21.108
 8847SOL     OW38419   0.698   4.591  19.818
 8847SOL    HW138420   0.750   4.645  19.878
 8847SOL    HW238421   0.746   4.509  19.812
 8848SOL     OW38422   0.464   2.712  17.695
 8848SOL    HW138423   0.487   2.658  17.620
 8848SOL    HW238424   0.545   2.716  17.747
 8849SOL     OW38425   2.944   0.305  17.208
 8849SOL    HW138426   2.895   0.317  17.126
 8849SOL    HW238427   2.896   0.358  17.272
 8850SOL     OW38428   4.170   3.514  14.111
 8850SOL    HW138429   4.199   3.574  14.179
 8850SOL    HW238430   4.236   3.445  14.110
 8851SOL     OW38431   3.852   0.316  17.192
 8851SOL    HW138432   3.769   0.275  17.217
 8851SOL    HW238433   3.868   0.381  17.261
 8852SOL     OW38434   0.755   4.377  18.360
 8852SOL    HW138435   0.664   4.351  18.375
 8852SOL    HW238436   0.770   4.360  18.267
 8853SOL     OW38437   0.396   0.067  13.080
 8853SOL    HW138438   0.433   0.020  13.005
 8853SOL    HW238439   0.393   0.158  13.053
 8854SOL     OW38440   0.817   3.600  17.048
 8854SOL    HW138441   0.863   3.556  17.120
 8854SOL    HW238442   0.842   3.550  16.970
 8855SOL     OW38443   3.358   2.870   4.449
 8855SOL    HW138444   3.309   2.899   4.526
 8855SOL    HW238445   3.317   2.916   4.376
 8856SOL     OW38446   4.276   3.373  17.860
 8856SOL    HW138447   4.337   3.377  17.933
 8856SOL    HW238448   4.307   3.438  17.798
 8857SOL     OW38449   0.637   3.936  18.163
 8857SOL    HW138450   0.714   3.908  18.213
 8857SOL    HW238451   0.564   3.926  18.224
 8858SOL     OW38452   0.080   1.379   1.100
 8858SOL    HW138453   0.081   1.457   1.156
 8858SOL    HW238454   4.775   1.369   1.075
 8859SOL     OW38455   0.387   3.232   1.306
 8859SOL    HW138456   0.323   3.299   1.329
 8859SOL    HW238457   0.367   3.211   1.215
 8860SOL     OW38458   3.026   2.381   1.186
 8860SOL    HW138459   3.012   2.389   1.280
 8860SOL    HW238460   3.021   2.471   1.153
 8861SOL     OW38461   2.157   1.170  15.879
 8861SOL    HW138462   2.080   1.186  15.825
 8861SOL    HW238463   2.187   1.083  15.854
 8862SOL     OW38464   2.371   0.617  15.331
 8862SOL    HW138465   2.359   0.550  15.264
 8862SOL    HW238466   2.442   0.583  15.386
 8863SOL     OW38467   3.053   4.734  13.059
 8863SOL    HW138468   3.147   4.734  13.079
 8863SOL    HW238469   3.016   0.015  13.115
 8864SOL     OW38470   2.200   0.029   4.515
 8864SOL    HW138471   2.105   0.034   4.522
 8864SOL    HW238472   2.226   4.754   4.583
 8865SOL     OW38473   0.026   2.046  16.986
 8865SOL    HW138474   0.007   2.120  16.928
 8865SOL    HW238475   0.020   1.969  16.929
 8866SOL     OW38476   4.327   0.570  16.437
 8866SOL    HW138477   4.372   0.640  16.484
 8866SOL    HW238478   4.394   0.504  16.421
 8867SOL     OW38479   2.337   4.333  16.156
 8867SOL    HW138480   2.292   4.257  16.192
 8867SOL    HW238481   2.415   4.344  16.211
 8868SOL     OW38482   3.302   2.702   3.782
 8868SOL    HW138483   3.218   2.666   3.811
 8868SOL    HW238484   3.281   2.756   3.706
 8869SOL     OW38485   2.139   1.836  20.221
 8869SOL    HW138486   2.109   1.919  20.186
 8869SOL    HW238487   2.059   1.792  20.250
 8870SOL     OW38488   3.088   0.185   2.566
 8870SOL    HW138489   3.166   0.134   2.587
 8870SOL    HW238490   3.105   0.271   2.604
 8871SOL     OW38491   4.336   4.573  16.054
 8871SOL    HW138492   4.426   4.565  16.024
 8871SOL    HW238493   4.342   4.626  16.134
 8872SOL     OW38494   2.327   3.246  17.708
 8872SOL    HW138495   2.407   3.281  17.747
 8872SOL    HW238496   2.278   3.324  17.680
 8873SOL     OW38497   4.092   0.863   2.813
 8873SOL    HW138498   4.164   0.829   2.865
 8873SOL    HW238499   4.114   0.841   2.722
 8874SOL     OW38500   1.604   4.179  17.305
 8874SOL    HW138501   1.523   4.228  17.319
 8874SOL    HW238502   1.632   4.152  17.392
 8875SOL     OW38503   0.806   3.727   6.127
 8875SOL    HW138504   0.739   3.665   6.154
 8875SOL    HW238505   0.759   3.806   6.101
 8876SOL     OW38506   3.926   3.643   2.128
 8876SOL    HW138507   3.958   3.691   2.052
 8876SOL    HW238508   3.847   3.690   2.155
 8877SOL     OW38509   2.076   2.527  18.153
 8877SOL    HW138510   1.997   2.563  18.115
 8877SOL    HW238511   2.141   2.596  18.143
 8878SOL     OW38512   3.378   2.373   4.547
 8878SOL    HW138513   3.466   2.395   4.516
 8878SOL    HW238514   3.337   2.327   4.474
 8879SOL     OW38515   1.610   1.843  20.401
 8879SOL    HW138516   1.519   1.812  20.408
 8879SOL    HW238517   1.604   1.919  20.343
 8880SOL     OW38518   4.133   4.062   1.345
 8880SOL    HW138519   4.139   4.111   1.428
 8880SOL    HW238520   4.215   4.082   1.300
 8881SOL     OW38521   3.596   2.670   0.785
 8881SOL    HW138522   3.558   2.619   0.713
 8881SOL    HW238523   3.579   2.761   0.761
 8882SOL     OW38524   1.481   3.013  17.938
 8882SOL    HW138525   1.542   2.977  17.873
 8882SOL    HW238526   1.419   2.942  17.955
 8883SOL     OW38527   4.610   3.614   4.419
 8883SOL    HW138528   4.546   3.568   4.365
 8883SOL    HW238529   4.604   3.706   4.391
 8884SOL     OW38530   4.041   1.669   5.259
 8884SOL    HW138531   4.022   1.578   5.281
 8884SOL    HW238532   4.087   1.703   5.336
 8885SOL     OW38533   1.746   1.215   4.361
 8885SOL    HW138534   1.661   1.210   4.317
 8885SOL    HW238535   1.808   1.235   4.291
 8886SOL     OW38536   3.081   1.938  16.900
 8886SOL    HW138537   2.997   1.938  16.946
 8886SOL    HW238538   3.132   2.007  16.942
 8887SOL     OW38539   1.280   4.637   0.444
 8887SOL    HW138540   1.272   4.663   0.353
 8887SOL    HW238541   1.330   4.707   0.486
 8888SOL     OW38542   3.643   1.254  21.039
 8888SOL    HW138543   3.583   1.258  20.965
 8888SOL    HW238544   3.610   1.317  21.102
 8889SOL     OW38545   1.173   2.925   5.499
 8889SOL    HW138546   1.227   2.909   5.422
 8889SOL    HW238547   1.090   2.956   5.464
 8890SOL     OW38548   4.534   1.890  17.597
 8890SOL    HW138549   4.573   1.913  17.682
 8890SOL    HW238550   4.599   1.920  17.533
 8891SOL     OW38551   1.577   1.860   6.240
 8891SOL    HW138552   1.549   1.805   6.167
 8891SOL    HW238553   1.642   1.919   6.202
 8892SOL     OW38554   1.629   2.084  16.087
 8892SOL    HW138555   1.717   2.070  16.123
 8892SOL    HW238556   1.637   2.165  16.035
 8893SOL     OW38557   3.993   2.054   1.779
 8893SOL    HW138558   4.047   2.072   1.856
 8893SOL    HW238559   3.987   2.138   1.734
 8894SOL     OW38560   3.276   1.348  21.050
 8894SOL    HW138561   3.200   1.367  21.106
 8894SOL    HW238562   3.352   1.362  21.107
 8895SOL     OW38563   4.608   2.986  16.625
 8895SOL    HW138564   4.688   2.941  16.598
 8895SOL    HW238565   4.557   2.994  16.545
 8896SOL     OW38566   0.775   4.124   5.980
 8896SOL    HW138567   0.813   4.188   5.921
 8896SOL    HW238568   0.825   4.132   6.061
 8897SOL     OW38569   3.148   2.856  20.255
 8897SOL    HW138570   3.116   2.771  20.287
 8897SOL    HW238571   3.087   2.920  20.292
 8898SOL     OW38572   4.145   2.709  18.947
 8898SOL    HW138573   4.059   2.671  18.928
 8898SOL    HW238574   4.198   2.688  18.870
 8899SOL     OW38575   2.900   2.336  16.829
 8899SOL    HW138576   2.931   2.292  16.907
 8899SOL    HW238577   2.913   2.429  16.846
 8900SOL     OW38578   0.211   2.283   7.576
 8900SOL    HW138579   0.126   2.239   7.578
 8900SOL    HW238580   0.247   2.264   7.490
 8901SOL     OW38581   3.958   4.342  14.764
 8901SOL    HW138582   3.867   4.341  14.793
 8901SOL    HW238583   3.998   4.413  14.815
 8902SOL     OW38584   3.619   4.705   4.706
 8902SOL    HW138585   3.678   4.779   4.720
 8902SOL    HW238586   3.559   4.735   4.638
 8903SOL     OW38587   3.959   1.926  19.580
 8903SOL    HW138588   3.978   1.852  19.523
 8903SOL    HW238589   3.868   1.947  19.561
 8904SOL     OW38590   2.468   0.598   3.500
 8904SOL    HW138591   2.484   0.512   3.461
 8904SOL    HW238592   2.457   0.580   3.594
 8905SOL     OW38593   4.234   0.800  19.523
 8905SOL    HW138594   4.218   0.815  19.616
 8905SOL    HW238595   4.291   0.872  19.497
 8906SOL     OW38596   1.178   3.501   6.874
 8906SOL    HW138597   1.116   3.481   6.944
 8906SOL    HW238598   1.219   3.583   6.902
 8907SOL     OW38599   3.726   3.390  12.519
 8907SOL    HW138600   3.708   3.345  12.436
 8907SOL    HW238601   3.796   3.339  12.559
 8908SOL     OW38602   0.470   2.942   2.005
 8908SOL    HW138603   0.560   2.954   1.974
 8908SOL    HW238604   0.461   2.847   2.016
 8909SOL     OW38605   4.508   3.518   6.784
 8909SOL    HW138606   4.473   3.430   6.798
 8909SOL    HW238607   4.600   3.512   6.811
 8910SOL     OW38608   4.699   1.131   2.333
 8910SOL    HW138609   0.000   1.118   2.370
 8910SOL    HW238610   4.686   1.057   2.275
 8911SOL     OW38611   2.177   1.132   0.351
 8911SOL    HW138612   2.271   1.115   0.342
 8911SOL    HW238613   2.147   1.145   0.261
 8912SOL     OW38614   0.614   0.620  16.684
 8912SOL    HW138615   0.642   0.691  16.625
 8912SOL    HW238616   0.548   0.660  16.740
 8913SOL     OW38617   4.290   1.347   1.944
 8913SOL    HW138618   4.246   1.432   1.938
 8913SOL    HW238619   4.348   1.356   2.020
 8914SOL     OW38620   1.064   1.782  19.835
 8914SOL    HW138621   1.036   1.757  19.747
 8914SOL    HW238622   1.042   1.875  19.843
 8915SOL     OW38623   3.530   4.281  20.416
 8915SOL    HW138624   3.471   4.302  20.489
 8915SOL    HW238625   3.481   4.306  20.338
 8916SOL     OW38626   0.654   1.746   5.652
 8916SOL    HW138627   0.749   1.740   5.641
 8916SOL    HW238628   0.618   1.684   5.589
 8917SOL     OW38629   2.760   4.491   0.708
 8917SOL    HW138630   2.770   4.542   0.788
 8917SOL    HW238631   2.849   4.481   0.674
 8918SOL     OW38632   1.585   4.311   7.158
 8918SOL    HW138633   1.621   4.230   7.193
 8918SOL    HW238634   1.496   4.315   7.195
 8919SOL     OW38635   3.409   1.595  18.727
 8919SOL    HW138636   3.377   1.681  18.698
 8919SOL    HW238637   3.334   1.536  18.713
 8920SOL     OW38638   0.318   3.443   5.290
 8920SOL    HW138639   0.245   3.435   5.228
 8920SOL    HW238640   0.329   3.537   5.303
 8921SOL     OW38641   0.816   3.659  14.996
 8921SOL    HW138642   0.853   3.606  15.066
 8921SOL    HW238643   0.722   3.662  15.015
 8922SOL     OW38644   0.578   4.221   4.950
 8922SOL    HW138645   0.645   4.281   4.985
 8922SOL    HW238646   0.606   4.135   4.981
 8923SOL     OW38647   4.198   0.139   3.997
 8923SOL    HW138648   4.205   0.139   3.902
 8923SOL    HW238649   4.271   0.084   4.027
 8924SOL     OW38650   0.050   0.758  19.324
 8924SOL    HW138651   0.041   0.665  19.345
 8924SOL    HW238652   0.145   0.772  19.319
 8925SOL     OW38653   2.150   2.953  16.968
 8925SOL    HW138654   2.224   2.928  16.914
 8925SOL    HW238655   2.182   3.025  17.022
 8926SOL     OW38656   2.630   2.959   5.096
 8926SOL    HW138657   2.570   3.010   5.151
 8926SOL    HW238658   2.582   2.879   5.075
 8927SOL     OW38659   1.222   4.422   2.103
 8927SOL    HW138660   1.138   4.459   2.078
 8927SOL    HW238661   1.242   4.360   2.033
 8928SOL     OW38662   1.376   1.467   2.294
 8928SOL    HW138663   1.449   1.530   2.292
 8928SOL    HW238664   1.392   1.409   2.220
 8929SOL     OW38665   3.457   2.433   9.022
 8929SOL    HW138666   3.454   2.351   9.071
 8929SOL    HW238667   3.452   2.501   9.089
 8930SOL     OW38668   0.594   0.404  11.045
 8930SOL    HW138669   0.530   0.418  10.975
 8930SOL    HW238670   0.679   0.414  11.002
 8931SOL     OW38671   0.959   0.080  12.148
 8931SOL    HW138672   1.032   0.038  12.103
 8931SOL    HW238673   0.990   0.167  12.170
 8932SOL     OW38674   3.790   1.183  16.589
 8932SOL    HW138675   3.811   1.255  16.647
 8932SOL    HW238676   3.834   1.203  16.507
 8933SOL     OW38677   0.710   0.760  20.218
 8933SOL    HW138678   0.643   0.800  20.274
 8933SOL    HW238679   0.720   0.672  20.252
 8934SOL     OW38680   4.649   0.960   1.706
 8934SOL    HW138681   4.674   1.022   1.637
 8934SOL    HW238682   4.658   1.010   1.787
 8935SOL     OW38683   2.217   2.567  20.468
 8935SOL    HW138684   2.242   2.478  20.492
 8935SOL    HW238685   2.249   2.579  20.379
 8936SOL     OW38686   1.586   1.382  19.123
 8936SOL    HW138687   1.678   1.403  19.107
 8936SOL    HW238688   1.569   1.306  19.068
 8937SOL     OW38689   4.762   3.441   6.921
 8937SOL    HW138690   0.045   3.468   6.981
 8937SOL    HW238691   0.007   3.360   6.881
 8938SOL     OW38692   2.402   1.464   5.249
 8938SOL    HW138693   2.389   1.534   5.312
 8938SOL    HW238694   2.468   1.407   5.289
 8939SOL     OW38695   4.770   1.841   2.588
 8939SOL    HW138696   0.023   1.797   2.513
 8939SOL    HW238697   4.736   1.769   2.642
 8940SOL     OW38698   1.954   2.945   1.703
 8940SOL    HW138699   1.964   2.985   1.616
 8940SOL    HW238700   1.877   2.987   1.740
 8941SOL     OW38701   4.758   1.870   1.833
 8941SOL    HW138702   4.686   1.882   1.771
 8941SOL    HW238703   4.755   1.948   1.889
 8942SOL     OW38704   0.619   2.007  15.708
 8942SOL    HW138705   0.692   2.028  15.766
 8942SOL    HW238706   0.587   1.922  15.738
 8943SOL     OW38707   3.221   0.464   3.043
 8943SOL    HW138708   3.161   0.473   3.117
 8943SOL    HW238709   3.205   0.542   2.989
 8944SOL     OW38710   2.637   3.167  19.405
 8944SOL    HW138711   2.616   3.176  19.313
 8944SOL    HW238712   2.569   3.216  19.451
 8945SOL     OW38713   2.417   3.202  16.775
 8945SOL    HW138714   2.324   3.225  16.782
 8945SOL    HW238715   2.443   3.234  16.689
 8946SOL     OW38716   1.095   4.449   1.726
 8946SOL    HW138717   1.175   4.449   1.779
 8946SOL    HW238718   1.039   4.515   1.768
 8947SOL     OW38719   3.425   1.483   4.319
 8947SOL    HW138720   3.393   1.574   4.319
 8947SOL    HW238721   3.397   1.448   4.404
 8948SOL     OW38722   4.039   2.347   8.938
 8948SOL    HW138723   4.056   2.380   9.027
 8948SOL    HW238724   3.944   2.350   8.929
 8949SOL     OW38725   2.470   3.311   9.210
 8949SOL    HW138726   2.455   3.394   9.166
 8949SOL    HW238727   2.530   3.332   9.281
 8950SOL     OW38728   1.474   0.179  14.080
 8950SOL    HW138729   1.521   0.256  14.049
 8950SOL    HW238730   1.491   0.177  14.174
 8951SOL     OW38731   2.134   1.589   7.325
 8951SOL    HW138732   2.097   1.605   7.412
 8951SOL    HW238733   2.226   1.569   7.341
 8952SOL     OW38734   3.470   4.486  18.444
 8952SOL    HW138735   3.378   4.501  18.422
 8952SOL    HW238736   3.492   4.556  18.506
 8953SOL     OW38737   2.413   2.876  19.621
 8953SOL    HW138738   2.438   2.826  19.699
 8953SOL    HW238739   2.318   2.885  19.628
 8954SOL     OW38740   3.310   0.049   5.680
 8954SOL    HW138741   3.216   0.071   5.679
 8954SOL    HW238742   3.325   0.013   5.767
 8955SOL     OW38743   1.599   3.726  19.965
 8955SOL    HW138744   1.530   3.778  19.924
 8955SOL    HW238745   1.568   3.709  20.054
 8956SOL     OW38746   3.266   4.766  18.576
 8956SOL    HW138747   3.357   4.775  18.604
 8956SOL    HW238748   3.238   4.681  18.609
 8957SOL     OW38749   4.304   0.160   0.238
 8957SOL    HW138750   4.359   0.124   0.169
 8957SOL    HW238751   4.290   0.088   0.299
 8958SOL     OW38752   1.319   2.530   0.320
 8958SOL    HW138753   1.363   2.460   0.367
 8958SOL    HW238754   1.257   2.486   0.262
 8959SOL     OW38755   0.487   1.584  17.061
 8959SOL    HW138756   0.571   1.576  17.107
 8959SOL    HW238757   0.512   1.606  16.971
 8960SOL     OW38758   2.008   1.378   4.303
 8960SOL    HW138759   1.999   1.416   4.390
 8960SOL    HW238760   2.051   1.293   4.317
 8961SOL     OW38761   0.523   3.053   3.300
 8961SOL    HW138762   0.573   3.001   3.237
 8961SOL    HW238763   0.588   3.082   3.364
 8962SOL     OW38764   0.214   1.612  17.199
 8962SOL    HW138765   0.146   1.642  17.140
 8962SOL    HW238766   0.295   1.621  17.149
 8963SOL     OW38767   1.258   1.088   3.483
 8963SOL    HW138768   1.308   1.170   3.477
 8963SOL    HW238769   1.190   1.096   3.416
 8964SOL     OW38770   3.152   4.338   2.352
 8964SOL    HW138771   3.214   4.314   2.283
 8964SOL    HW238772   3.203   4.334   2.432
 8965SOL     OW38773   3.650   3.200  19.085
 8965SOL    HW138774   3.639   3.181  19.178
 8965SOL    HW238775   3.733   3.157  19.063
 8966SOL     OW38776   1.989   4.630  14.356
 8966SOL    HW138777   1.928   4.558  14.370
 8966SOL    HW238778   2.054   4.594  14.295
 8967SOL     OW38779   4.233   3.242   2.329
 8967SOL    HW138780   4.272   3.311   2.276
 8967SOL    HW238781   4.142   3.269   2.340
 8968SOL     OW38782   2.875   0.717   5.371
 8968SOL    HW138783   2.924   0.767   5.306
 8968SOL    HW238784   2.819   0.659   5.318
 8969SOL     OW38785   3.924   0.811   2.284
 8969SOL    HW138786   3.836   0.848   2.291
 8969SOL    HW238787   3.979   0.870   2.337
 8970SOL     OW38788   2.684   2.175   4.281
 8970SOL    HW138789   2.614   2.233   4.251
 8970SOL    HW238790   2.712   2.128   4.202
 8971SOL     OW38791   1.819   2.936  20.900
 8971SOL    HW138792   1.857   2.993  20.967
 8971SOL    HW238793   1.855   2.969  20.817
 8972SOL     OW38794   1.959   2.668   3.835
 8972SOL    HW138795   1.932   2.577   3.823
 8972SOL    HW238796   2.038   2.677   3.781
 8973SOL     OW38797   3.387   1.715  16.419
 8973SOL    HW138798   3.406   1.627  16.388
 8973SOL    HW238799   3.393   1.708  16.514
 8974SOL     OW38800   0.128   2.623   1.629
 8974SOL    HW138801   0.105   2.712   1.656
 8974SOL    HW238802   0.179   2.635   1.548
 8975SOL     OW38803   0.010   1.778   0.966
 8975SOL    HW138804   0.055   1.839   1.025
 8975SOL    HW238805   4.730   1.832   0.923
 8976SOL     OW38806   0.255   0.530  13.529
 8976SOL    HW138807   0.166   0.565  13.524
 8976SOL    HW238808   0.281   0.513  13.439
 8977SOL     OW38809   0.404   3.043   0.210
 8977SOL    HW138810   0.404   3.088   0.125
 8977SOL    HW238811   0.497   3.036   0.233
 8978SOL     OW38812   2.804   2.616  15.522
 8978SOL    HW138813   2.729   2.565  15.553
 8978SOL    HW238814   2.786   2.630  15.429
 8979SOL     OW38815   4.072   2.583   4.221
 8979SOL    HW138816   4.067   2.489   4.203
 8979SOL    HW238817   4.100   2.589   4.313
 8980SOL     OW38818   3.357   2.597   3.198
 8980SOL    HW138819   3.357   2.658   3.271
 8980SOL    HW238820   3.404   2.520   3.231
 8981SOL     OW38821   2.041   2.420   4.219
 8981SOL    HW138822   1.982   2.491   4.191
 8981SOL    HW238823   2.047   2.363   4.142
 8982SOL     OW38824   3.565   1.570   7.083
 8982SOL    HW138825   3.570   1.653   7.035
 8982SOL    HW238826   3.502   1.587   7.153
 8983SOL     OW38827   4.557   3.724  18.651
 8983SOL    HW138828   4.462   3.725  18.656
 8983SOL    HW238829   4.579   3.797  18.594
 8984SOL     OW38830   1.376   1.684   0.944
 8984SOL    HW138831   1.314   1.679   0.871
 8984SOL    HW238832   1.328   1.728   1.014
 8985SOL     OW38833   2.857   3.988   1.462
 8985SOL    HW138834   2.855   3.951   1.374
 8985SOL    HW238835   2.941   3.961   1.498
 8986SOL     OW38836   3.903   3.001  20.166
 8986SOL    HW138837   3.906   3.062  20.092
 8986SOL    HW238838   3.822   2.952  20.154
 8987SOL     OW38839   2.766   1.409   4.647
 8987SOL    HW138840   2.681   1.441   4.619
 8987SOL    HW238841   2.807   1.483   4.692
 8988SOL     OW38842   3.291   2.374  16.841
 8988SOL    HW138843   3.356   2.422  16.893
 8988SOL    HW238844   3.257   2.308  16.901
 8989SOL     OW38845   4.663   1.022  19.078
 8989SOL    HW138846   4.618   1.102  19.102
 8989SOL    HW238847   4.756   1.045  19.075
 8990SOL     OW38848   0.919   3.850  16.991
 8990SOL    HW138849   0.989   3.837  17.055
 8990SOL    HW238850   0.880   3.763  16.981
 8991SOL     OW38851   3.138   4.092  17.194
 8991SOL    HW138852   3.139   4.181  17.161
 8991SOL    HW238853   3.113   4.038  17.118
 8992SOL     OW38854   2.072   3.733   2.396
 8992SOL    HW138855   2.165   3.719   2.378
 8992SOL    HW238856   2.070   3.770   2.484
 8993SOL     OW38857   0.612   3.730  15.346
 8993SOL    HW138858   0.683   3.704  15.286
 8993SOL    HW238859   0.597   3.822  15.327
 8994SOL     OW38860   0.980   1.016   7.996
 8994SOL    HW138861   0.907   1.046   7.943
 8994SOL    HW238862   1.002   1.091   8.051
 8995SOL     OW38863   0.870   1.565   8.178
 8995SOL    HW138864   0.949   1.616   8.160
 8995SOL    HW238865   0.839   1.598   8.262
 8996SOL     OW38866   1.664   1.432   1.091
 8996SOL    HW138867   1.677   1.448   1.184
 8996SOL    HW238868   1.752   1.416   1.057
 8997SOL     OW38869   4.656   0.439  11.095
 8997SOL    HW138870   4.656   0.402  11.184
 8997SOL    HW238871   4.742   0.479  11.086
 8998SOL     OW38872   3.063   0.566   9.791
 8998SOL    HW138873   3.044   0.655   9.763
 8998SOL    HW238874   3.061   0.569   9.887
 8999SOL     OW38875   4.456   2.992  21.058
 8999SOL    HW138876   4.446   2.908  21.103
 8999SOL    HW238877   4.461   2.969  20.965
 9000SOL     OW38878   3.052   1.168  10.208
 9000SOL    HW138879   3.043   1.234  10.277
 9000SOL    HW238880   3.125   1.200  10.154
 9001SOL     OW38881   1.680   0.600   4.938
 9001SOL    HW138882   1.722   0.539   4.878
 9001SOL    HW238883   1.591   0.566   4.949
 9002SOL     OW38884   4.527   3.952  10.448
 9002SOL    HW138885   4.464   4.023  10.435
 9002SOL    HW238886   4.475   3.872  10.440
 9003SOL     OW38887   2.027   1.019   8.618
 9003SOL    HW138888   2.114   0.996   8.649
 9003SOL    HW238889   1.988   0.936   8.590
 9004SOL     OW38890   2.020   1.616   8.607
 9004SOL    HW138891   2.081   1.660   8.547
 9004SOL    HW238892   2.059   1.629   8.694
 9005SOL     OW38893   2.412   2.208   7.621
 9005SOL    HW138894   2.475   2.140   7.643
 9005SOL    HW238895   2.359   2.218   7.700
 9006SOL     OW38896   4.317   1.351   8.782
 9006SOL    HW138897   4.356   1.437   8.801
 9006SOL    HW238898   4.331   1.339   8.688
 9007SOL     OW38899   1.737   1.013   9.747
 9007SOL    HW138900   1.738   0.991   9.654
 9007SOL    HW238901   1.807   1.076   9.759
 9008SOL     OW38902   4.623   0.642   8.585
 9008SOL    HW138903   4.567   0.567   8.565
 9008SOL    HW238904   4.580   0.684   8.659
 9009SOL     OW38905   0.467   0.630   9.810
 9009SOL    HW138906   0.412   0.559   9.844
 9009SOL    HW238907   0.556   0.603   9.829
 9010SOL     OW38908   3.816   0.627  10.177
 9010SOL    HW138909   3.768   0.697  10.221
 9010SOL    HW238910   3.823   0.558  10.243
 9011SOL     OW38911   3.716   0.010   8.679
 9011SOL    HW138912   3.691   4.705   8.684
 9011SOL    HW238913   3.782   0.012   8.609
 9012SOL     OW38914   1.560   1.030  10.528
 9012SOL    HW138915   1.648   1.068  10.519
 9012SOL    HW238916   1.501   1.105  10.519
 9013SOL     OW38917   4.488   0.571   9.468
 9013SOL    HW138918   4.473   0.492   9.520
 9013SOL    HW238919   4.403   0.590   9.428
 9014SOL     OW38920   3.830   0.428  10.353
 9014SOL    HW138921   3.919   0.436  10.388
 9014SOL    HW238922   3.812   0.334  10.355
 9015SOL     OW38923   0.380   0.873  10.352
 9015SOL    HW138924   0.443   0.941  10.326
 9015SOL    HW238925   0.295   0.915  10.342
 9016SOL     OW38926   0.360   0.369   9.908
 9016SOL    HW138927   0.444   0.325   9.921
 9016SOL    HW238928   0.313   0.312   9.846
 9017SOL     OW38929   2.278   0.513   9.969
 9017SOL    HW138930   2.197   0.479  10.007
 9017SOL    HW238931   2.249   0.576   9.903
 9018SOL     OW38932   1.374   0.994   8.265
 9018SOL    HW138933   1.413   0.941   8.196
 9018SOL    HW238934   1.313   0.936   8.309
 9019SOL     OW38935   0.509   0.301  12.242
 9019SOL    HW138936   0.493   0.225  12.185
 9019SOL    HW238937   0.582   0.347  12.200
 9020SOL     OW38938   0.688   1.478  10.054
 9020SOL    HW138939   0.763   1.437  10.097
 9020SOL    HW238940   0.704   1.572  10.063
 9021SOL     OW38941   0.826   0.097   9.292
 9021SOL    HW138942   0.817   0.090   9.197
 9021SOL    HW238943   0.918   0.120   9.305
 9022SOL     OW38944   4.370   4.170  10.455
 9022SOL    HW138945   4.385   4.232  10.526
 9022SOL    HW238946   4.275   4.158  10.453
 9023SOL     OW38947   0.489   1.345  10.230
 9023SOL    HW138948   0.501   1.373  10.139
 9023SOL    HW238949   0.401   1.377  10.253
 9024SOL     OW38950   2.858   0.991  10.125
 9024SOL    HW138951   2.922   1.057  10.151
 9024SOL    HW238952   2.774   1.029  10.147
 9025SOL     OW38953   4.482   4.626  11.206
 9025SOL    HW138954   4.469   4.623  11.300
 9025SOL    HW238955   4.521   4.542  11.183
 9026SOL     OW38956   1.461   1.360  10.312
 9026SOL    HW138957   1.508   1.280  10.290
 9026SOL    HW238958   1.514   1.431  10.275
 9027SOL     OW38959   1.599   1.676   9.866
 9027SOL    HW138960   1.614   1.746   9.802
 9027SOL    HW238961   1.687   1.648   9.892
 9028SOL     OW38962   1.853   1.790  14.037
 9028SOL    HW138963   1.775   1.735  14.032
 9028SOL    HW238964   1.820   1.879  14.045
 9029SOL     OW38965   3.172   4.501   9.669
 9029SOL    HW138966   3.228   4.565   9.714
 9029SOL    HW238967   3.147   4.545   9.587
 9030SOL     OW38968   0.361   4.576  10.722
 9030SOL    HW138969   0.368   4.544  10.812
 9030SOL    HW238970   0.317   4.661  10.730
 9031SOL     OW38971   4.197   4.692  10.051
 9031SOL    HW138972   4.288   4.662  10.044
 9031SOL    HW238973   4.204   4.784  10.075
 9032SOL     OW38974   4.196   0.199  10.412
 9032SOL    HW138975   4.146   0.214  10.332
 9032SOL    HW238976   4.165   0.265  10.474
 9033SOL     OW38977   2.047   2.352  12.763
 9033SOL    HW138978   2.056   2.444  12.786
 9033SOL    HW238979   1.967   2.347  12.712
 9034SOL     OW38980   4.433   2.413  12.813
 9034SOL    HW138981   4.512   2.448  12.854
 9034SOL    HW238982   4.434   2.451  12.725
 9035SOL     OW38983   2.027   2.554  18.993
 9035SOL    HW138984   2.037   2.620  18.924
 9035SOL    HW238985   2.083   2.585  19.064
 9036SOL     OW38986   1.283   1.924  10.731
 9036SOL    HW138987   1.378   1.917  10.741
 9036SOL    HW238988   1.267   2.018  10.721
 9037SOL     OW38989   0.429   4.785  18.253
 9037SOL    HW138990   0.448   4.716  18.190
 9037SOL    HW238991   0.342   4.765  18.286
 9038SOL     OW38992   0.715   0.590   9.852
 9038SOL    HW138993   0.759   0.544   9.924
 9038SOL    HW238994   0.776   0.584   9.779
 9039SOL     OW38995   3.383   2.752   2.224
 9039SOL    HW138996   3.404   2.805   2.302
 9039SOL    HW238997   3.292   2.774   2.204
 9040SOL     OW38998   4.515   3.784  11.198
 9040SOL    HW138999   4.576   3.818  11.134
 9040SOL    HW239000   4.460   3.860  11.221
 9041SOL     OW39001   1.320   2.890  13.363
 9041SOL    HW139002   1.227   2.874  13.380
 9041SOL    HW239003   1.351   2.808  13.326
 9042SOL     OW39004   0.059   0.370  10.280
 9042SOL    HW139005   4.778   0.302  10.284
 9042SOL    HW239006   0.060   0.408  10.368
 9043SOL     OW39007   2.694   0.726  12.847
 9043SOL    HW139008   2.713   0.655  12.909
 9043SOL    HW239009   2.605   0.754  12.869
 9044SOL     OW39010   0.104   0.388  10.565
 9044SOL    HW139011   0.194   0.384  10.533
 9044SOL    HW239012   0.111   0.428  10.652
 9045SOL     OW39013   4.100   1.762  12.690
 9045SOL    HW139014   4.022   1.745  12.743
 9045SOL    HW239015   4.170   1.777  12.754
 9046SOL     OW39016   2.694   1.087   3.816
 9046SOL    HW139017   2.742   1.005   3.828
 9046SOL    HW239018   2.705   1.107   3.723
 9047SOL     OW39019   4.012   3.118  11.069
 9047SOL    HW139020   4.038   3.149  10.982
 9047SOL    HW239021   3.957   3.042  11.053
 9048SOL     OW39022   0.304   0.993  21.214
 9048SOL    HW139023   0.350   0.984  21.131
 9048SOL    HW239024   0.373   0.989   0.036
 9049SOL     OW39025   1.677   2.352  14.110
 9049SOL    HW139026   1.611   2.358  14.179
 9049SOL    HW239027   1.634   2.385  14.032
 9050SOL     OW39028   3.778   4.634   9.734
 9050SOL    HW139029   3.873   4.626   9.742
 9050SOL    HW239030   3.752   4.685   9.811
 9051SOL     OW39031   3.183   3.793  15.659
 9051SOL    HW139032   3.119   3.827  15.722
 9051SOL    HW239033   3.238   3.869  15.638
 9052SOL     OW39034   4.629   2.092  12.826
 9052SOL    HW139035   4.656   2.059  12.911
 9052SOL    HW239036   4.563   2.159  12.845
 9053SOL     OW39037   0.696   1.646  12.884
 9053SOL    HW139038   0.641   1.725  12.874
 9053SOL    HW239039   0.785   1.678  12.870
 9054SOL     OW39040   0.286   0.360  11.589
 9054SOL    HW139041   0.242   0.304  11.653
 9054SOL    HW239042   0.379   0.347  11.607
 9055SOL     OW39043   0.601   1.122  10.373
 9055SOL    HW139044   0.554   1.202  10.349
 9055SOL    HW239045   0.657   1.104  10.298
 9056SOL     OW39046   0.571   1.439  11.236
 9056SOL    HW139047   0.602   1.510  11.179
 9056SOL    HW239048   0.630   1.441  11.311
 9057SOL     OW39049   1.339   0.282   9.980
 9057SOL    HW139050   1.257   0.322   9.953
 9057SOL    HW239051   1.340   0.291  10.075
 9058SOL     OW39052   0.790   0.398  10.608
 9058SOL    HW139053   0.881   0.426  10.619
 9058SOL    HW239054   0.785   0.315  10.656
 9059SOL     OW39055   2.285   0.526  12.848
 9059SOL    HW139056   2.211   0.549  12.903
 9059SOL    HW239057   2.265   0.438  12.817
 9060SOL     OW39058   0.867   1.299  11.347
 9060SOL    HW139059   0.916   1.267  11.271
 9060SOL    HW239060   0.823   1.221  11.381
 9061SOL     OW39061   1.933   0.403   5.015
 9061SOL    HW139062   1.917   0.430   4.924
 9061SOL    HW239063   1.952   0.310   5.009
 9062SOL     OW39064   3.521   4.553  13.978
 9062SOL    HW139065   3.581   4.560  13.904
 9062SOL    HW239066   3.459   4.625  13.966
 9063SOL     OW39067   2.824   2.918   5.579
 9063SOL    HW139068   2.802   2.874   5.497
 9063SOL    HW239069   2.792   2.859   5.648
 9064SOL     OW39070   3.137   2.543  12.155
 9064SOL    HW139071   3.042   2.545  12.168
 9064SOL    HW239072   3.169   2.482  12.221
 9065SOL     OW39073   1.763   0.898  16.455
 9065SOL    HW139074   1.817   0.966  16.495
 9065SOL    HW239075   1.789   0.818  16.500
 9066SOL     OW39076   2.271   1.035  19.781
 9066SOL    HW139077   2.250   1.098  19.713
 9066SOL    HW239078   2.196   0.976  19.785
 9067SOL     OW39079   4.082   1.503   0.624
 9067SOL    HW139080   4.168   1.498   0.584
 9067SOL    HW239081   4.022   1.523   0.552
 9068SOL     OW39082   2.866   1.964   1.390
 9068SOL    HW139083   2.791   1.910   1.365
 9068SOL    HW239084   2.874   2.028   1.320
 9069SOL     OW39085   0.294   0.489  10.161
 9069SOL    HW139086   0.312   0.454  10.074
 9069SOL    HW239087   0.216   0.442  10.190
 9070SOL     OW39088   4.125   1.978  16.954
 9070SOL    HW139089   4.035   1.992  16.984
 9070SOL    HW239090   4.173   1.951  17.033
 9071SOL     OW39091   3.174   0.810  12.941
 9071SOL    HW139092   3.122   0.864  12.880
 9071SOL    HW239093   3.246   0.867  12.967
 9072SOL     OW39094   1.480   0.660  19.962
 9072SOL    HW139095   1.481   0.671  19.867
 9072SOL    HW239096   1.387   0.655  19.984
 9073SOL     OW39097   2.077   1.366  20.376
 9073SOL    HW139098   2.056   1.337  20.287
 9073SOL    HW239099   2.107   1.287  20.420
 9074SOL     OW39100   1.159   1.428  11.134
 9074SOL    HW139101   1.253   1.426  11.116
 9074SOL    HW239102   1.130   1.337  11.126
 9075SOL     OW39103   1.932   1.143   4.987
 9075SOL    HW139104   1.995   1.212   4.965
 9075SOL    HW239105   1.852   1.167   4.941
 9076SOL     OW39106   0.035   3.161   5.932
 9076SOL    HW139107   4.761   3.119   5.993
 9076SOL    HW239108   4.776   3.240   5.904
 9077SOL     OW39109   4.485   0.518  15.272
 9077SOL    HW139110   4.557   0.581  15.278
 9077SOL    HW239111   4.525   0.433  15.289
 9078SOL     OW39112   4.350   2.259   4.088
 9078SOL    HW139113   4.440   2.268   4.058
 9078SOL    HW239114   4.355   2.268   4.184
 9079SOL     OW39115   1.146   2.563   2.870
 9079SOL    HW139116   1.091   2.562   2.949
 9079SOL    HW239117   1.132   2.649   2.832
 9080SOL     OW39118   1.655   1.439   1.368
 9080SOL    HW139119   1.577   1.437   1.423
 9080SOL    HW239120   1.700   1.520   1.393
 9081SOL     OW39121   0.959   0.835   5.182
 9081SOL    HW139122   1.047   0.819   5.218
 9081SOL    HW239123   0.925   0.909   5.232
 9082SOL     OW39124   4.429   0.251  19.808
 9082SOL    HW139125   4.392   0.339  19.816
 9082SOL    HW239126   4.401   0.220  19.722
 9083SOL     OW39127   0.922   3.610  18.505
 9083SOL    HW139128   1.005   3.607  18.456
 9083SOL    HW239129   0.924   3.531  18.559
 9084SOL     OW39130   3.917   0.136   2.337
 9084SOL    HW139131   3.914   0.086   2.419
 9084SOL    HW239132   3.844   0.101   2.285
 9085SOL     OW39133   3.625   2.070   4.373
 9085SOL    HW139134   3.545   2.083   4.322
 9085SOL    HW239135   3.692   2.122   4.328
 9086SOL     OW39136   0.754   1.886   1.493
 9086SOL    HW139137   0.781   1.874   1.402
 9086SOL    HW239138   0.820   1.945   1.530
 9087SOL     OW39139   1.042   3.590   2.210
 9087SOL    HW139140   1.104   3.648   2.255
 9087SOL    HW239141   0.970   3.578   2.272
 9088SOL     OW39142   3.260   0.994   2.915
 9088SOL    HW139143   3.193   1.057   2.888
 9088SOL    HW239144   3.283   1.021   3.004
 9089SOL     OW39145   3.297   1.364  19.568
 9089SOL    HW139146   3.339   1.450  19.560
 9089SOL    HW239147   3.355   1.315  19.626
 9090SOL     OW39148   1.579   3.396   0.370
 9090SOL    HW139149   1.602   3.347   0.291
 9090SOL    HW239150   1.487   3.375   0.385
 9091SOL     OW39151   3.581   3.794   2.613
 9091SOL    HW139152   3.486   3.810   2.613
 9091SOL    HW239153   3.602   3.774   2.705
 9092SOL     OW39154   4.400   0.298   5.734
 9092SOL    HW139155   4.474   0.250   5.769
 9092SOL    HW239156   4.436   0.348   5.661
 9093SOL     OW39157   4.118   1.219   8.515
 9093SOL    HW139158   4.106   1.251   8.604
 9093SOL    HW239159   4.169   1.139   8.526
 9094SOL     OW39160   0.925   4.758  18.703
 9094SOL    HW139161   0.833   4.730  18.708
 9094SOL    HW239162   0.976   4.679  18.719
 9095SOL     OW39163   2.578   0.974  16.647
 9095SOL    HW139164   2.571   1.036  16.720
 9095SOL    HW239165   2.595   0.890  16.689
 9096SOL     OW39166   2.426   1.586  18.637
 9096SOL    HW139167   2.436   1.491  18.644
 9096SOL    HW239168   2.470   1.610  18.556
 9097SOL     OW39169   1.511   4.761  21.019
 9097SOL    HW139170   1.605   4.781  21.024
 9097SOL    HW239171   1.506   4.666  21.026
 9098SOL     OW39172   3.772   2.807   4.570
 9098SOL    HW139173   3.854   2.760   4.583
 9098SOL    HW239174   3.735   2.817   4.658
 9099SOL     OW39175   0.951   1.558   4.244
 9099SOL    HW139176   1.026   1.586   4.192
 9099SOL    HW239177   0.963   1.463   4.253
 9100SOL     OW39178   3.762   3.901  19.035
 9100SOL    HW139179   3.743   3.989  19.003
 9100SOL    HW239180   3.739   3.904  19.128
 9101SOL     OW39181   3.079   3.764   3.441
 9101SOL    HW139182   3.081   3.850   3.398
 9101SOL    HW239183   3.169   3.750   3.470
 9102SOL     OW39184   0.782   0.776  18.270
 9102SOL    HW139185   0.782   0.747  18.179
 9102SOL    HW239186   0.814   0.867  18.266
 9103SOL     OW39187   4.035   1.027   2.095
 9103SOL    HW139188   3.949   1.067   2.082
 9103SOL    HW239189   4.069   1.069   2.174
 9104SOL     OW39190   0.026   1.505  20.911
 9104SOL    HW139191   4.757   1.557  20.853
 9104SOL    HW239192   0.026   1.554  20.993
 9105SOL     OW39193   2.249   2.540  13.669
 9105SOL    HW139194   2.257   2.474  13.738
 9105SOL    HW239195   2.155   2.550  13.657
 9106SOL     OW39196   4.124   2.105   0.784
 9106SOL    HW139197   4.136   2.060   0.701
 9106SOL    HW239198   4.078   2.185   0.762
 9107SOL     OW39199   3.955   0.543  18.774
 9107SOL    HW139200   3.955   0.587  18.859
 9107SOL    HW239201   3.867   0.557  18.739
 9108SOL     OW39202   1.315   3.464  13.836
 9108SOL    HW139203   1.376   3.455  13.909
 9108SOL    HW239204   1.357   3.527  13.777
 9109SOL     OW39205   4.658   2.188  15.792
 9109SOL    HW139206   4.613   2.270  15.810
 9109SOL    HW239207   4.634   2.131  15.866
 9110SOL     OW39208   4.250   3.153   4.270
 9110SOL    HW139209   4.158   3.160   4.244
 9110SOL    HW239210   4.266   3.059   4.275
 9111SOL     OW39211   1.203   3.648   5.422
 9111SOL    HW139212   1.231   3.653   5.513
 9111SOL    HW239213   1.250   3.572   5.386
 9112SOL     OW39214   1.516   4.391   6.427
 9112SOL    HW139215   1.503   4.486   6.418
 9112SOL    HW239216   1.446   4.353   6.373
 9113SOL     OW39217   4.115   3.412   6.648
 9113SOL    HW139218   4.059   3.348   6.692
 9113SOL    HW239219   4.187   3.428   6.710
 9114SOL     OW39220   1.355   1.740  20.412
 9114SOL    HW139221   1.341   1.758  20.505
 9114SOL    HW239222   1.282   1.784  20.368
 9115SOL     OW39223   1.766   1.750   3.010
 9115SOL    HW139224   1.793   1.744   2.918
 9115SOL    HW239225   1.671   1.737   3.008
 9116SOL     OW39226   4.722   0.201  11.520
 9116SOL    HW139227   4.662   0.251  11.576
 9116SOL    HW239228   4.785   0.162  11.582
 9117SOL     OW39229   1.526   0.759  16.524
 9117SOL    HW139230   1.564   0.672  16.535
 9117SOL    HW239231   1.592   0.808  16.475
 9118SOL     OW39232   2.178   3.322   1.942
 9118SOL    HW139233   2.101   3.308   1.997
 9118SOL    HW239234   2.149   3.298   1.854
 9119SOL     OW39235   0.882   2.465  15.677
 9119SOL    HW139236   0.898   2.371  15.670
 9119SOL    HW239237   0.863   2.493  15.588
 9120SOL     OW39238   0.792   2.253  19.163
 9120SOL    HW139239   0.749   2.259  19.078
 9120SOL    HW239240   0.817   2.161  19.171
 9121SOL     OW39241   0.322   1.061   1.081
 9121SOL    HW139242   0.377   1.046   1.004
 9121SOL    HW239243   0.236   1.082   1.045
 9122SOL     OW39244   4.099   2.220  16.788
 9122SOL    HW139245   4.103   2.138  16.837
 9122SOL    HW239246   4.189   2.255  16.793
 9123SOL     OW39247   4.397   2.690   4.975
 9123SOL    HW139248   4.447   2.688   5.057
 9123SOL    HW239249   4.452   2.643   4.913
 9124SOL     OW39250   1.387   0.135   8.877
 9124SOL    HW139251   1.393   0.200   8.947
 9124SOL    HW239252   1.298   0.100   8.884
 9125SOL     OW39253   3.631   3.979   6.029
 9125SOL    HW139254   3.558   3.973   6.090
 9125SOL    HW239255   3.676   3.894   6.037
 9126SOL     OW39256   2.768   1.878   2.154
 9126SOL    HW139257   2.782   1.882   2.060
 9126SOL    HW239258   2.772   1.784   2.175
 9127SOL     OW39259   0.780   4.496   2.680
 9127SOL    HW139260   0.838   4.525   2.751
 9127SOL    HW239261   0.711   4.447   2.724
 9128SOL     OW39262   1.102   0.253   3.241
 9128SOL    HW139263   1.164   0.311   3.286
 9128SOL    HW239264   1.150   0.171   3.231
 9129SOL     OW39265   2.679   2.532  15.882
 9129SOL    HW139266   2.672   2.622  15.913
 9129SOL    HW239267   2.644   2.479  15.954
 9130SOL     OW39268   0.967   1.975  15.241
 9130SOL    HW139269   1.046   1.921  15.254
 9130SOL    HW239270   0.897   1.924  15.281
 9131SOL     OW39271   3.664   3.358   5.633
 9131SOL    HW139272   3.753   3.371   5.665
 9131SOL    HW239273   3.609   3.370   5.710
 9132SOL     OW39274   1.765   3.196  16.620
 9132SOL    HW139275   1.791   3.250  16.546
 9132SOL    HW239276   1.847   3.174  16.663
 9133SOL     OW39277   2.041   2.760  16.616
 9133SOL    HW139278   2.011   2.753  16.707
 9133SOL    HW239279   2.136   2.748  16.621
 9134SOL     OW39280   0.505   4.715   8.072
 9134SOL    HW139281   0.599   4.704   8.081
 9134SOL    HW239282   0.467   4.655   8.136
 9135SOL     OW39283   2.194   3.581   8.005
 9135SOL    HW139284   2.223   3.501   8.050
 9135SOL    HW239285   2.157   3.551   7.923
 9136SOL     OW39286   2.113   4.636   0.271
 9136SOL    HW139287   2.208   4.650   0.279
 9136SOL    HW239288   2.087   4.693   0.199
 9137SOL     OW39289   3.063   2.535  15.007
 9137SOL    HW139290   3.143   2.587  15.009
 9137SOL    HW239291   3.065   2.485  15.089
 9138SOL     OW39292   2.085   0.293   5.991
 9138SOL    HW139293   2.160   0.235   6.005
 9138SOL    HW239294   2.109   0.374   6.037
 9139SOL     OW39295   1.505   1.411  17.201
 9139SOL    HW139296   1.412   1.412  17.222
 9139SOL    HW239297   1.548   1.434  17.284
 9140SOL     OW39298   3.175   2.245   4.377
 9140SOL    HW139299   3.108   2.276   4.316
 9140SOL    HW239300   3.255   2.241   4.325
 9141SOL     OW39301   2.623   4.113   0.870
 9141SOL    HW139302   2.696   4.054   0.887
 9141SOL    HW239303   2.636   4.185   0.932
 9142SOL     OW39304   0.124   4.212   2.447
 9142SOL    HW139305   0.146   4.123   2.421
 9142SOL    HW239306   0.050   4.237   2.392
 9143SOL     OW39307   2.135   0.086  19.062
 9143SOL    HW139308   2.197   0.155  19.086
 9143SOL    HW239309   2.183   0.030  19.002
 9144SOL     OW39310   0.485   1.639  16.130
 9144SOL    HW139311   0.474   1.544  16.133
 9144SOL    HW239312   0.400   1.674  16.154
 9145SOL     OW39313   1.395   1.388   8.406
 9145SOL    HW139314   1.318   1.423   8.450
 9145SOL    HW239315   1.467   1.404   8.467
 9146SOL     OW39316   3.354   1.546   5.257
 9146SOL    HW139317   3.442   1.546   5.294
 9146SOL    HW239318   3.328   1.639   5.258
 9147SOL     OW39319   2.746   1.913  19.033
 9147SOL    HW139320   2.654   1.907  19.058
 9147SOL    HW239321   2.789   1.952  19.110
 9148SOL     OW39322   4.351   1.746  20.583
 9148SOL    HW139323   4.258   1.767  20.594
 9148SOL    HW239324   4.395   1.830  20.592
 9149SOL     OW39325   0.969   3.401  16.895
 9149SOL    HW139326   1.048   3.349  16.885
 9149SOL    HW239327   0.930   3.403  16.808
 9150SOL     OW39328   4.553   1.050  20.179
 9150SOL    HW139329   4.598   1.133  20.194
 9150SOL    HW239330   4.533   1.017  20.266
 9151SOL     OW39331   2.539   1.226   5.336
 9151SOL    HW139332   2.524   1.198   5.426
 9151SOL    HW239333   2.563   1.146   5.290
 9152SOL     OW39334   3.096   2.802   2.196
 9152SOL    HW139335   3.050   2.828   2.117
 9152SOL    HW239336   3.030   2.757   2.249
 9153SOL     OW39337   2.134   2.922   0.971
 9153SOL    HW139338   2.136   2.874   0.889
 9153SOL    HW239339   2.088   2.863   1.032
 9154SOL     OW39340   3.864   1.191  19.487
 9154SOL    HW139341   3.840   1.104  19.457
 9154SOL    HW239342   3.937   1.177  19.547
 9155SOL     OW39343   4.441   2.293   5.434
 9155SOL    HW139344   4.507   2.329   5.374
 9155SOL    HW239345   4.491   2.250   5.502
 9156SOL     OW39346   0.483   1.366  13.168
 9156SOL    HW139347   0.529   1.450  13.166
 9156SOL    HW239348   0.474   1.341  13.075
 9157SOL     OW39349   2.025   3.452  20.815
 9157SOL    HW139350   2.006   3.544  20.829
 9157SOL    HW239351   1.940   3.408  20.826
 9158SOL     OW39352   2.211   0.825   3.966
 9158SOL    HW139353   2.196   0.911   4.004
 9158SOL    HW239354   2.288   0.836   3.910
 9159SOL     OW39355   4.314   0.264  20.187
 9159SOL    HW139356   4.279   0.345  20.151
 9159SOL    HW239357   4.248   0.198  20.164
 9160SOL     OW39358   0.967   1.710   2.396
 9160SOL    HW139359   0.943   1.641   2.334
 9160SOL    HW239360   1.026   1.666   2.458
 9161SOL     OW39361   3.295   2.350  14.454
 9161SOL    HW139362   3.316   2.407  14.528
 9161SOL    HW239363   3.374   2.296  14.442
 9162SOL     OW39364   3.174   2.123  18.092
 9162SOL    HW139365   3.087   2.099  18.123
 9162SOL    HW239366   3.163   2.138  17.998
 9163SOL     OW39367   4.768   2.515   3.471
 9163SOL    HW139368   4.700   2.449   3.457
 9163SOL    HW239369   4.737   2.565   3.546
 9164SOL     OW39370   0.058   2.146  18.174
 9164SOL    HW139371   0.020   2.232  18.158
 9164SOL    HW239372   0.153   2.162  18.171
 9165SOL     OW39373   3.921   1.817  18.505
 9165SOL    HW139374   3.873   1.738  18.528
 9165SOL    HW239375   3.869   1.888  18.543
 9166SOL     OW39376   3.244   4.319   5.529
 9166SOL    HW139377   3.184   4.246   5.517
 9166SOL    HW239378   3.274   4.340   5.441
 9167SOL     OW39379   1.646   4.551   3.220
 9167SOL    HW139380   1.671   4.640   3.198
 9167SOL    HW239381   1.685   4.497   3.151
 9168SOL     OW39382   2.401   2.762  14.670
 9168SOL    HW139383   2.378   2.790  14.758
 9168SOL    HW239384   2.416   2.667  14.678
 9169SOL     OW39385   3.193   2.119  21.166
 9169SOL    HW139386   3.117   2.123  21.108
 9169SOL    HW239387   3.171   2.051  21.230
 9170SOL     OW39388   0.992   1.682   0.562
 9170SOL    HW139389   1.051   1.754   0.539
 9170SOL    HW239390   1.050   1.615   0.599
 9171SOL     OW39391   0.920   0.874   4.313
 9171SOL    HW139392   0.871   0.950   4.284
 9171SOL    HW239393   1.011   0.894   4.293
 9172SOL     OW39394   2.385   2.829  16.847
 9172SOL    HW139395   2.368   2.862  16.759
 9172SOL    HW239396   2.408   2.737  16.834
 9173SOL     OW39397   3.225   4.145  21.188
 9173SOL    HW139398   3.299   4.189  21.144
 9173SOL    HW239399   3.246   4.052  21.181
 9174SOL     OW39400   4.055   2.829  17.181
 9174SOL    HW139401   4.011   2.871  17.255
 9174SOL    HW239402   4.128   2.887  17.159
 9175SOL     OW39403   1.233   3.470  21.230
 9175SOL    HW139404   1.322   3.495  21.204
 9175SOL    HW239405   1.228   3.377  21.207
 9176SOL     OW39406   4.614   4.665  14.528
 9176SOL    HW139407   4.525   4.651  14.562
 9176SOL    HW239408   4.624   4.760  14.526
 9177SOL     OW39409   1.706   2.421   5.016
 9177SOL    HW139410   1.637   2.469   5.062
 9177SOL    HW239411   1.784   2.436   5.068
 9178SOL     OW39412   2.153   2.139  19.117
 9178SOL    HW139413   2.162   2.208  19.051
 9178SOL    HW239414   2.242   2.128  19.152
 9179SOL     OW39415   3.116   4.026   7.819
 9179SOL    HW139416   3.115   4.063   7.731
 9179SOL    HW239417   3.036   3.974   7.824
 9180SOL     OW39418   0.207   3.743  15.390
 9180SOL    HW139419   0.136   3.774  15.445
 9180SOL    HW239420   0.251   3.677  15.443
 9181SOL     OW39421   1.094   3.051   2.242
 9181SOL    HW139422   1.023   3.114   2.249
 9181SOL    HW239423   1.125   3.059   2.151
 9182SOL     OW39424   1.158   1.886   2.052
 9182SOL    HW139425   1.174   1.941   1.975
 9182SOL    HW239426   1.157   1.797   2.017
 9183SOL     OW39427   0.880   2.902   5.368
 9183SOL    HW139428   0.917   2.909   5.280
 9183SOL    HW239429   0.836   2.817   5.369
 9184SOL     OW39430   3.856   1.198   8.348
 9184SOL    HW139431   3.932   1.173   8.401
 9184SOL    HW239432   3.835   1.118   8.299
 9185SOL     OW39433   2.376   0.188   6.313
 9185SOL    HW139434   2.290   0.147   6.312
 9185SOL    HW239435   2.358   0.282   6.314
 9186SOL     OW39436   1.867   2.244   2.860
 9186SOL    HW139437   1.861   2.327   2.906
 9186SOL    HW239438   1.949   2.205   2.892
 9187SOL     OW39439   2.941   3.616  18.211
 9187SOL    HW139440   2.860   3.573  18.238
 9187SOL    HW239441   2.976   3.655  18.291
 9188SOL     OW39442   3.495   1.095   2.636
 9188SOL    HW139443   3.485   1.134   2.550
 9188SOL    HW239444   3.417   1.041   2.647
 9189SOL     OW39445   3.761   0.217   0.235
 9189SOL    HW139446   3.843   0.246   0.275
 9189SOL    HW239447   3.699   0.211   0.308
 9190SOL     OW39448   4.478   3.565  14.974
 9190SOL    HW139449   4.415   3.583  14.904
 9190SOL    HW239450   4.427   3.574  15.055
 9191SOL     OW39451   4.194   1.876   3.975
 9191SOL    HW139452   4.188   1.964   3.937
 9191SOL    HW239453   4.229   1.890   4.063
 9192SOL     OW39454   4.012   4.500  13.574
 9192SOL    HW139455   4.024   4.519  13.668
 9192SOL    HW239456   4.100   4.478  13.543
 9193SOL     OW39457   0.622   3.243   2.746
 9193SOL    HW139458   0.576   3.160   2.741
 9193SOL    HW239459   0.697   3.234   2.687
 9194SOL     OW39460   3.558   0.551   2.051
 9194SOL    HW139461   3.604   0.518   2.129
 9194SOL    HW239462   3.540   0.473   1.999
 9195SOL     OW39463   3.780   0.520   5.140
 9195SOL    HW139464   3.788   0.497   5.048
 9195SOL    HW239465   3.865   0.498   5.178
 9196SOL     OW39466   1.203   0.666   7.176
 9196SOL    HW139467   1.194   0.702   7.087
 9196SOL    HW239468   1.113   0.661   7.208
 9197SOL     OW39469   0.498   1.033   0.854
 9197SOL    HW139470   0.594   1.035   0.846
 9197SOL    HW239471   0.467   1.095   0.789
 9198SOL     OW39472   2.237   3.324   5.965
 9198SOL    HW139473   2.274   3.317   5.877
 9198SOL    HW239474   2.221   3.233   5.991
 9199SOL     OW39475   1.948   4.412   6.332
 9199SOL    HW139476   2.022   4.457   6.292
 9199SOL    HW239477   1.968   4.412   6.426
 9200SOL     OW39478   1.185   4.777   6.357
 9200SOL    HW139479   1.173   4.781   6.452
 9200SOL    HW239480   1.192   0.082   6.330
 9201SOL     OW39481   2.208   0.217   3.486
 9201SOL    HW139482   2.266   0.230   3.411
 9201SOL    HW239483   2.189   0.305   3.517
 9202SOL     OW39484   3.033   3.600  15.956
 9202SOL    HW139485   3.076   3.550  15.886
 9202SOL    HW239486   3.090   3.676  15.969
 9203SOL     OW39487   4.721   2.805   4.434
 9203SOL    HW139488   4.781   2.774   4.502
 9203SOL    HW239489   4.752   2.893   4.414
 9204SOL     OW39490   2.643   1.388  17.395
 9204SOL    HW139491   2.582   1.395  17.321
 9204SOL    HW239492   2.707   1.323  17.368
 9205SOL     OW39493   0.040   2.179   1.924
 9205SOL    HW139494   0.135   2.167   1.921
 9205SOL    HW239495   0.026   2.265   1.884
 9206SOL     OW39496   3.521   0.490   1.387
 9206SOL    HW139497   3.545   0.556   1.322
 9206SOL    HW239498   3.584   0.502   1.457
 9207SOL     OW39499   0.111   4.200   5.175
 9207SOL    HW139500   0.098   4.112   5.141
 9207SOL    HW239501   0.205   4.206   5.192
 9208SOL     OW39502   4.540   4.673   5.026
 9208SOL    HW139503   4.473   4.652   5.092
 9208SOL    HW239504   4.548   4.593   4.974
 9209SOL     OW39505   2.559   4.442  14.548
 9209SOL    HW139506   2.470   4.468  14.525
 9209SOL    HW239507   2.589   4.509  14.609
 9210SOL     OW39508   0.668   2.248   3.959
 9210SOL    HW139509   0.662   2.342   3.973
 9210SOL    HW239510   0.647   2.210   4.045
 9211SOL     OW39511   1.273   2.229   0.562
 9211SOL    HW139512   1.254   2.261   0.650
 9211SOL    HW239513   1.190   2.193   0.531
 9212SOL     OW39514   1.051   0.369  17.994
 9212SOL    HW139515   1.033   0.290  18.046
 9212SOL    HW239516   1.146   0.382  18.003
 9213SOL     OW39517   0.985   4.390   4.837
 9213SOL    HW139518   1.070   4.391   4.881
 9213SOL    HW239519   0.922   4.376   4.908
 9214SOL     OW39520   0.274   3.402   0.807
 9214SOL    HW139521   0.226   3.460   0.867
 9214SOL    HW239522   0.295   3.458   0.732
 9215SOL     OW39523   1.928   2.177  17.556
 9215SOL    HW139524   1.863   2.230  17.509
 9215SOL    HW239525   1.878   2.103  17.590
 9216SOL     OW39526   1.359   1.337  19.515
 9216SOL    HW139527   1.266   1.346  19.492
 9216SOL    HW239528   1.383   1.251  19.481
 9217SOL     OW39529   3.833   0.498  16.674
 9217SOL    HW139530   3.851   0.561  16.605
 9217SOL    HW239531   3.912   0.446  16.681
 9218SOL     OW39532   4.298   4.053   3.297
 9218SOL    HW139533   4.320   4.032   3.206
 9218SOL    HW239534   4.333   4.140   3.311
 9219SOL     OW39535   4.177   1.051   3.118
 9219SOL    HW139536   4.208   1.133   3.080
 9219SOL    HW239537   4.091   1.038   3.080
 9220SOL     OW39538   3.464   2.371  12.634
 9220SOL    HW139539   3.415   2.344  12.712
 9220SOL    HW239540   3.482   2.464  12.648
 9221SOL     OW39541   4.474   0.580  18.572
 9221SOL    HW139542   4.423   0.628  18.638
 9221SOL    HW239543   4.563   0.613  18.583
 9222SOL     OW39544   3.095   1.266  15.808
 9222SOL    HW139545   3.119   1.357  15.825
 9222SOL    HW239546   3.091   1.225  15.894
 9223SOL     OW39547   1.388   4.117   4.739
 9223SOL    HW139548   1.399   4.079   4.826
 9223SOL    HW239549   1.442   4.196   4.740
 9224SOL     OW39550   3.586   1.700  18.441
 9224SOL    HW139551   3.499   1.732  18.467
 9224SOL    HW239552   3.625   1.773  18.393
 9225SOL     OW39553   1.095   0.736   3.838
 9225SOL    HW139554   1.001   0.726   3.830
 9225SOL    HW239555   1.130   0.649   3.821
 9226SOL     OW39556   2.239   0.628  19.754
 9226SOL    HW139557   2.177   0.566  19.791
 9226SOL    HW239558   2.262   0.686  19.827
 9227SOL     OW39559   2.778   3.107  18.500
 9227SOL    HW139560   2.807   3.019  18.524
 9227SOL    HW239561   2.849   3.143  18.447
 9228SOL     OW39562   4.456   0.224   3.829
 9228SOL    HW139563   4.533   0.278   3.810
 9228SOL    HW239564   4.489   0.153   3.883
 9229SOL     OW39565   0.584   1.578  19.320
 9229SOL    HW139566   0.671   1.579  19.360
 9229SOL    HW239567   0.525   1.606  19.390
 9230SOL     OW39568   2.179   3.614  20.657
 9230SOL    HW139569   2.254   3.555  20.665
 9230SOL    HW239570   2.107   3.559  20.628
 9231SOL     OW39571   1.866   3.802  15.635
 9231SOL    HW139572   1.771   3.801  15.649
 9231SOL    HW239573   1.902   3.762  15.714
 9232SOL     OW39574   0.141   2.152  15.829
 9232SOL    HW139575   0.055   2.130  15.793
 9232SOL    HW239576   0.160   2.239  15.794
 9233SOL     OW39577   3.671   1.944  20.480
 9233SOL    HW139578   3.729   1.984  20.545
 9233SOL    HW239579   3.680   1.850  20.495
 9234SOL     OW39580   0.583   0.920   4.919
 9234SOL    HW139581   0.678   0.924   4.917
 9234SOL    HW239582   0.557   1.005   4.956
 9235SOL     OW39583   4.573   0.866  20.603
 9235SOL    HW139584   4.541   0.891  20.690
 9235SOL    HW239585   4.580   0.771  20.607
 9236SOL     OW39586   1.492   1.108   0.999
 9236SOL    HW139587   1.464   1.172   1.065
 9236SOL    HW239588   1.413   1.061   0.975
 9237SOL     OW39589   1.023   0.039   1.448
 9237SOL    HW139590   0.961   0.104   1.482
 9237SOL    HW239591   1.022   0.053   1.353
 9238SOL     OW39592   4.753   3.364  19.092
 9238SOL    HW139593   4.691   3.293  19.077
 9238SOL    HW239594   4.742   3.386  19.185
 9239SOL     OW39595   2.453   1.976  17.109
 9239SOL    HW139596   2.361   1.967  17.134
 9239SOL    HW239597   2.471   2.069  17.117
 9240SOL     OW39598   3.790   2.076   5.237
 9240SOL    HW139599   3.768   2.131   5.162
 9240SOL    HW239600   3.822   1.995   5.199
 9241SOL     OW39601   4.084   2.265  17.564
 9241SOL    HW139602   4.031   2.342  17.587
 9241SOL    HW239603   4.132   2.292  17.486
 9242SOL     OW39604   0.634   0.473   4.385
 9242SOL    HW139605   0.693   0.476   4.310
 9242SOL    HW239606   0.657   0.393   4.431
 9243SOL     OW39607   1.151   1.547   5.462
 9243SOL    HW139608   1.185   1.576   5.377
 9243SOL    HW239609   1.106   1.465   5.443
 9244SOL     OW39610   1.374   0.488   3.924
 9244SOL    HW139611   1.319   0.429   3.872
 9244SOL    HW239612   1.363   0.458   4.014
 9245SOL     OW39613   4.497   3.324  18.292
 9245SOL    HW139614   4.586   3.315  18.325
 9245SOL    HW239615   4.507   3.369  18.208
 9246SOL     OW39616   2.929   0.666  16.855
 9246SOL    HW139617   2.966   0.660  16.943
 9246SOL    HW239618   2.982   0.606  16.802
 9247SOL     OW39619   1.689   3.448   4.856
 9247SOL    HW139620   1.711   3.388   4.785
 9247SOL    HW239621   1.676   3.392   4.932
 9248SOL     OW39622   0.181   4.637   2.608
 9248SOL    HW139623   0.090   4.612   2.594
 9248SOL    HW239624   0.233   4.563   2.576
 9249SOL     OW39625   4.255   0.832  15.305
 9249SOL    HW139626   4.325   0.790  15.355
 9249SOL    HW239627   4.198   0.871  15.372
 9250SOL     OW39628   0.324   1.545   1.549
 9250SOL    HW139629   0.385   1.613   1.520
 9250SOL    HW239630   0.245   1.593   1.576
 9251SOL     OW39631   4.379   3.428   2.170
 9251SOL    HW139632   4.445   3.376   2.126
 9251SOL    HW239633   4.327   3.467   2.100
 9252SOL     OW39634   0.199   0.491   1.369
 9252SOL    HW139635   0.170   0.532   1.288
 9252SOL    HW239636   0.118   0.459   1.411
 9253SOL     OW39637   3.412   0.030   4.145
 9253SOL    HW139638   3.355   0.039   4.221
 9253SOL    HW239639   3.354   0.037   4.070
 9254SOL     OW39640   0.679   4.277  19.801
 9254SOL    HW139641   0.775   4.282  19.802
 9254SOL    HW239642   0.656   4.261  19.893
 9255SOL     OW39643   4.191   2.043   5.196
 9255SOL    HW139644   4.218   2.119   5.248
 9255SOL    HW239645   4.244   1.971   5.229
 9256SOL     OW39646   0.170   2.120  11.857
 9256SOL    HW139647   0.164   2.169  11.775
 9256SOL    HW239648   0.263   2.098  11.865
 9257SOL     OW39649   1.284   4.581  17.487
 9257SOL    HW139650   1.196   4.613  17.504
 9257SOL    HW239651   1.321   4.644  17.425
 9258SOL     OW39652   3.693   2.283  15.329
 9258SOL    HW139653   3.770   2.278  15.272
 9258SOL    HW239654   3.652   2.367  15.306
 9259SOL     OW39655   1.154   4.303  16.710
 9259SOL    HW139656   1.180   4.219  16.748
 9259SOL    HW239657   1.067   4.287  16.673
 9260SOL     OW39658   0.062   3.610  21.172
 9260SOL    HW139659   0.119   3.617   0.004
 9260SOL    HW239660   0.079   3.523  21.137
 9261SOL     OW39661   2.521   0.498   5.533
 9261SOL    HW139662   2.471   0.417   5.550
 9261SOL    HW239663   2.578   0.475   5.460
 9262SOL     OW39664   2.930   4.305  16.079
 9262SOL    HW139665   2.998   4.323  16.144
 9262SOL    HW239666   2.861   4.259  16.128
 9263SOL     OW39667   3.216   0.514   5.532
 9263SOL    HW139668   3.299   0.468   5.518
 9263SOL    HW239669   3.168   0.502   5.450
 9264SOL     OW39670   2.026   2.991   4.797
 9264SOL    HW139671   2.097   3.030   4.849
 9264SOL    HW239672   1.988   2.925   4.854
 9265SOL     OW39673   2.670   3.528   4.336
 9265SOL    HW139674   2.638   3.558   4.421
 9265SOL    HW239675   2.715   3.604   4.299
 9266SOL     OW39676   3.027   0.263   5.379
 9266SOL    HW139677   3.005   0.344   5.333
 9266SOL    HW239678   3.007   0.282   5.471
 9267SOL     OW39679   2.289   4.037  16.938
 9267SOL    HW139680   2.278   4.056  17.032
 9267SOL    HW239681   2.205   4.061  16.899
 9268SOL     OW39682   4.614   2.753   1.975
 9268SOL    HW139683   4.534   2.764   1.923
 9268SOL    HW239684   4.610   2.663   2.006
 9269SOL     OW39685   2.292   2.274   5.381
 9269SOL    HW139686   2.226   2.243   5.444
 9269SOL    HW239687   2.375   2.263   5.427
 9270SOL     OW39688   1.966   2.545  13.728
 9270SOL    HW139689   1.949   2.522  13.820
 9270SOL    HW239690   1.921   2.477  13.678
 9271SOL     OW39691   3.696   4.209   3.610
 9271SOL    HW139692   3.717   4.258   3.531
 9271SOL    HW239693   3.746   4.252   3.680
 9272SOL     OW39694   4.644   1.029   0.448
 9272SOL    HW139695   4.586   1.035   0.525
 9272SOL    HW239696   4.732   1.020   0.485
 9273SOL     OW39697   0.043   1.755  18.845
 9273SOL    HW139698   0.112   1.790  18.788
 9273SOL    HW239699   4.778   1.700  18.787
 9274SOL     OW39700   4.108   2.885  14.638
 9274SOL    HW139701   4.127   2.952  14.704
 9274SOL    HW239702   4.028   2.916  14.594
 9275SOL     OW39703   2.876   4.676   2.047
 9275SOL    HW139704   2.844   4.760   2.081
 9275SOL    HW239705   2.803   4.641   1.997
 9276SOL     OW39706   3.170   3.824   4.225
 9276SOL    HW139707   3.168   3.810   4.320
 9276SOL    HW239708   3.118   3.751   4.189
 9277SOL     OW39709   2.403   1.917   8.241
 9277SOL    HW139710   2.414   1.843   8.302
 9277SOL    HW239711   2.439   1.992   8.288
 9278SOL     OW39712   4.530   3.679   2.785
 9278SOL    HW139713   4.569   3.598   2.752
 9278SOL    HW239714   4.600   3.721   2.835
 9279SOL     OW39715   2.717   1.793   8.137
 9279SOL    HW139716   2.742   1.714   8.186
 9279SOL    HW239717   2.622   1.797   8.146
 9280SOL     OW39718   3.949   3.497   4.977
 9280SOL    HW139719   3.991   3.502   5.063
 9280SOL    HW239720   4.019   3.517   4.915
 9281SOL     OW39721   1.812   0.500   4.526
 9281SOL    HW139722   1.782   0.502   4.435
 9281SOL    HW239723   1.805   0.591   4.556
 9282SOL     OW39724   2.925   1.530  16.140
 9282SOL    HW139725   2.947   1.554  16.230
 9282SOL    HW239726   3.006   1.546  16.092
 9283SOL     OW39727   3.383   2.343   8.755
 9283SOL    HW139728   3.460   2.333   8.700
 9283SOL    HW239729   3.414   2.321   8.843
 9284SOL     OW39730   2.266   0.695  14.698
 9284SOL    HW139731   2.191   0.704  14.639
 9284SOL    HW239732   2.336   0.743  14.653
 9285SOL     OW39733   4.546   2.578   4.770
 9285SOL    HW139734   4.641   2.583   4.781
 9285SOL    HW239735   4.534   2.541   4.683
 9286SOL     OW39736   4.465   1.743   4.308
 9286SOL    HW139737   4.481   1.771   4.398
 9286SOL    HW239738   4.507   1.809   4.254
 9287SOL     OW39739   2.032   3.464  17.775
 9287SOL    HW139740   2.117   3.485  17.813
 9287SOL    HW239741   2.033   3.506  17.689
 9288SOL     OW39742   1.384   0.803  19.423
 9288SOL    HW139743   1.357   0.716  19.396
 9288SOL    HW239744   1.417   0.845  19.344
 9289SOL     OW39745   0.881   0.566   5.147
 9289SOL    HW139746   0.801   0.551   5.097
 9289SOL    HW239747   0.913   0.650   5.117
 9290SOL     OW39748   3.366   1.241  20.097
 9290SOL    HW139749   3.284   1.238  20.147
 9290SOL    HW239750   3.342   1.209  20.010
 9291SOL     OW39751   0.314   0.026  21.190
 9291SOL    HW139752   0.330   0.052  21.099
 9291SOL    HW239753   0.223   4.783  21.190
 9292SOL     OW39754   3.967   2.741   7.625
 9292SOL    HW139755   4.024   2.817   7.632
 9292SOL    HW239756   4.018   2.668   7.660
 9293SOL     OW39757   2.220   1.169   2.574
 9293SOL    HW139758   2.147   1.130   2.621
 9293SOL    HW239759   2.298   1.128   2.611
 9294SOL     OW39760   0.688   0.950  15.990
 9294SOL    HW139761   0.756   0.972  15.926
 9294SOL    HW239762   0.700   0.856  16.006
 9295SOL     OW39763   2.478   2.246  12.974
 9295SOL    HW139764   2.396   2.224  12.930
 9295SOL    HW239765   2.484   2.342  12.966
 9296SOL     OW39766   0.979   0.912   1.590
 9296SOL    HW139767   1.057   0.944   1.545
 9296SOL    HW239768   0.921   0.882   1.520
 9297SOL     OW39769   2.640   1.101   6.245
 9297SOL    HW139770   2.596   1.186   6.249
 9297SOL    HW239771   2.717   1.112   6.300
 9298SOL     OW39772   0.007   2.414  18.122
 9298SOL    HW139773   0.042   2.384  18.038
 9298SOL    HW239774   4.782   2.508  18.110
 9299SOL     OW39775   2.552   0.349  14.329
 9299SOL    HW139776   2.510   0.392  14.404
 9299SOL    HW239777   2.548   0.255  14.350
 9300SOL     OW39778   4.558   4.157  21.038
 9300SOL    HW139779   4.574   4.203  20.956
 9300SOL    HW239780   4.468   4.126  21.031
 9301SOL     OW39781   3.493   0.055  14.910
 9301SOL    HW139782   3.408   0.073  14.949
 9301SOL    HW239783   3.480   0.070  14.816
 9302SOL     OW39784   1.655   0.977  16.044
 9302SOL    HW139785   1.733   0.989  16.099
 9302SOL    HW239786   1.585   1.021  16.092
 9303SOL     OW39787   2.725   1.266   6.750
 9303SOL    HW139788   2.775   1.336   6.708
 9303SOL    HW239789   2.663   1.237   6.683
 9304SOL     OW39790   2.191   0.466  21.159
 9304SOL    HW139791   2.140   0.460  21.240
 9304SOL    HW239792   2.127   0.451  21.089
 9305SOL     OW39793   3.053   1.533  14.738
 9305SOL    HW139794   3.009   1.479  14.804
 9305SOL    HW239795   3.049   1.480  14.658
 9306SOL     OW39796   4.133   4.082   5.428
 9306SOL    HW139797   4.075   4.014   5.462
 9306SOL    HW239798   4.185   4.109   5.504
 9307SOL     OW39799   3.993   0.043   2.576
 9307SOL    HW139800   3.959   4.755   2.625
 9307SOL    HW239801   4.086   0.047   2.601
 9308SOL     OW39802   3.957   2.822   0.624
 9308SOL    HW139803   3.994   2.740   0.657
 9308SOL    HW239804   4.018   2.889   0.653
 9309SOL     OW39805   2.220   4.533   5.351
 9309SOL    HW139806   2.227   4.625   5.378
 9309SOL    HW239807   2.310   4.504   5.340
 9310SOL     OW39808   2.183   2.231  17.575
 9310SOL    HW139809   2.093   2.206  17.553
 9310SOL    HW239810   2.227   2.147  17.591
 9311SOL     OW39811   0.527   1.572  17.915
 9311SOL    HW139812   0.527   1.649  17.859
 9311SOL    HW239813   0.442   1.531  17.902
 9312SOL     OW39814   2.222   4.049  13.916
 9312SOL    HW139815   2.157   4.036  13.847
 9312SOL    HW239816   2.306   4.048  13.869
 9313SOL     OW39817   3.480   4.609   0.053
 9313SOL    HW139818   3.544   4.668   0.092
 9313SOL    HW239819   3.479   4.532   0.110
 9314SOL     OW39820   3.114   3.687   3.015
 9314SOL    HW139821   3.065   3.704   2.935
 9314SOL    HW239822   3.163   3.606   2.997
 9315SOL     OW39823   0.834   4.452   0.893
 9315SOL    HW139824   0.895   4.438   0.966
 9315SOL    HW239825   0.789   4.534   0.916
 9316SOL     OW39826   2.923   3.155  17.484
 9316SOL    HW139827   3.007   3.201  17.472
 9316SOL    HW239828   2.943   3.087  17.549
 9317SOL     OW39829   0.112   3.949  16.410
 9317SOL    HW139830   0.075   3.885  16.470
 9317SOL    HW239831   0.187   3.905  16.370
 9318SOL     OW39832   0.200   1.006  16.786
 9318SOL    HW139833   0.265   1.016  16.717
 9318SOL    HW239834   0.198   1.091  16.830
 9319SOL     OW39835   1.790   3.439  15.833
 9319SOL    HW139836   1.762   3.530  15.824
 9319SOL    HW239837   1.835   3.420  15.751
 9320SOL     OW39838   1.541   3.495   5.341
 9320SOL    HW139839   1.449   3.467   5.337
 9320SOL    HW239840   1.591   3.414   5.332
 9321SOL     OW39841   0.263   0.016   3.805
 9321SOL    HW139842   0.232   4.720   3.769
 9321SOL    HW239843   0.355   0.000   3.827
 9322SOL     OW39844   4.595   2.629   0.136
 9322SOL    HW139845   4.675   2.669   0.170
 9322SOL    HW239846   4.539   2.617   0.213
 9323SOL     OW39847   0.220   1.239   6.270
 9323SOL    HW139848   0.256   1.328   6.268
 9323SOL    HW239849   0.175   1.231   6.185
 9324SOL     OW39850   0.496   4.218  17.524
 9324SOL    HW139851   0.445   4.137  17.530
 9324SOL    HW239852   0.559   4.212  17.596
 9325SOL     OW39853   0.917   2.348   2.588
 9325SOL    HW139854   0.911   2.252   2.581
 9325SOL    HW239855   1.006   2.364   2.618
 9326SOL     OW39856   1.562   0.765  15.140
 9326SOL    HW139857   1.572   0.758  15.045
 9326SOL    HW239858   1.642   0.809  15.169
 9327SOL     OW39859   0.797   2.807   1.621
 9327SOL    HW139860   0.733   2.858   1.571
 9327SOL    HW239861   0.876   2.861   1.620
 9328SOL     OW39862   1.637   0.378   7.476
 9328SOL    HW139863   1.605   0.306   7.422
 9328SOL    HW239864   1.640   0.453   7.416
 9329SOL     OW39865   0.530   2.183   0.461
 9329SOL    HW139866   0.512   2.234   0.382
 9329SOL    HW239867   0.522   2.247   0.532
 9330SOL     OW39868   1.413   3.790  18.664
 9330SOL    HW139869   1.368   3.711  18.695
 9330SOL    HW239870   1.503   3.780  18.696
 9331SOL     OW39871   3.178   2.049  19.109
 9331SOL    HW139872   3.136   1.986  19.051
 9331SOL    HW239873   3.245   2.090  19.056
 9332SOL     OW39874   0.090   2.972  12.804
 9332SOL    HW139875   0.167   3.010  12.760
 9332SOL    HW239876   0.125   2.934  12.885
 9333SOL     OW39877   1.445   2.173  16.758
 9333SOL    HW139878   1.470   2.262  16.731
 9333SOL    HW239879   1.352   2.167  16.737
 9334SOL     OW39880   2.334   1.681  19.324
 9334SOL    HW139881   2.259   1.685  19.384
 9334SOL    HW239882   2.295   1.666  19.238
 9335SOL     OW39883   1.855   0.219   6.150
 9335SOL    HW139884   1.925   0.257   6.097
 9335SOL    HW239885   1.833   0.287   6.213
 9336SOL     OW39886   1.891   0.135  17.682
 9336SOL    HW139887   1.916   0.225  17.661
 9336SOL    HW239888   1.972   0.093  17.712
 9337SOL     OW39889   1.048   2.340   6.710
 9337SOL    HW139890   1.005   2.369   6.790
 9337SOL    HW239891   1.097   2.262   6.736
 9338SOL     OW39892   2.357   3.454  18.923
 9338SOL    HW139893   2.418   3.527  18.930
 9338SOL    HW239894   2.310   3.470  18.842
 9339SOL     OW39895   3.521   0.152  20.631
 9339SOL    HW139896   3.526   0.206  20.710
 9339SOL    HW239897   3.599   0.096  20.635
 9340SOL     OW39898   0.601   1.287  18.395
 9340SOL    HW139899   0.610   1.242  18.311
 9340SOL    HW239900   0.685   1.270  18.439
 9341SOL     OW39901   2.133   0.161   0.260
 9341SOL    HW139902   2.219   0.125   0.282
 9341SOL    HW239903   2.107   0.115   0.180
 9342SOL     OW39904   0.630   1.859  13.206
 9342SOL    HW139905   0.586   1.918  13.144
 9342SOL    HW239906   0.723   1.868  13.187
 9343SOL     OW39907   0.696   2.435  13.665
 9343SOL    HW139908   0.718   2.407  13.754
 9343SOL    HW239909   0.675   2.353  13.620
 9344SOL     OW39910   1.070   3.285   0.828
 9344SOL    HW139911   1.000   3.221   0.832
 9344SOL    HW239912   1.027   3.369   0.845
 9345SOL     OW39913   4.521   1.679   1.161
 9345SOL    HW139914   4.528   1.744   1.231
 9345SOL    HW239915   4.611   1.658   1.137
 9346SOL     OW39916   1.638   0.304  15.288
 9346SOL    HW139917   1.734   0.298  15.298
 9346SOL    HW239918   1.604   0.274  15.373
 9347SOL     OW39919   3.226   2.722   6.204
 9347SOL    HW139920   3.255   2.681   6.285
 9347SOL    HW239921   3.252   2.661   6.135
 9348SOL     OW39922   2.722   0.776   0.547
 9348SOL    HW139923   2.750   0.806   0.633
 9348SOL    HW239924   2.704   0.856   0.498
 9349SOL     OW39925   3.352   1.703  21.135
 9349SOL    HW139926   3.277   1.693  21.194
 9349SOL    HW239927   3.316   1.690  21.047
 9350SOL     OW39928   1.947   0.542  15.338
 9350SOL    HW139929   1.853   0.551  15.351
 9350SOL    HW239930   1.986   0.602  15.401
 9351SOL     OW39931   2.074   4.270  13.962
 9351SOL    HW139932   2.137   4.198  13.965
 9351SOL    HW239933   2.046   4.281  14.053
 9352SOL     OW39934   1.537   2.941   6.205
 9352SOL    HW139935   1.612   2.917   6.150
 9352SOL    HW239936   1.512   3.028   6.176
 9353SOL     OW39937   2.040   3.562   1.014
 9353SOL    HW139938   2.100   3.562   0.941
 9353SOL    HW239939   2.022   3.470   1.031
 9354SOL     OW39940   3.992   3.126   8.251
 9354SOL    HW139941   3.957   3.107   8.164
 9354SOL    HW239942   3.950   3.207   8.278
 9355SOL     OW39943   0.248   4.383  16.117
 9355SOL    HW139944   0.179   4.429  16.166
 9355SOL    HW239945   0.204   4.307  16.080
 9356SOL     OW39946   3.941   0.680  19.000
 9356SOL    HW139947   3.950   0.642  19.087
 9356SOL    HW239948   4.006   0.751  18.997
 9357SOL     OW39949   1.163   0.143  20.142
 9357SOL    HW139950   1.257   0.149  20.158
 9357SOL    HW239951   1.139   0.229  20.108
 9358SOL     OW39952   4.254   1.596   4.041
 9358SOL    HW139953   4.259   1.598   4.137
 9358SOL    HW239954   4.252   1.688   4.015
 9359SOL     OW39955   0.025   3.031  15.954
 9359SOL    HW139956   4.784   3.040  16.045
 9359SOL    HW239957   4.741   2.983  15.911
 9360SOL     OW39958   2.671   0.423  16.220
 9360SOL    HW139959   2.766   0.428  16.230
 9360SOL    HW239960   2.645   0.510  16.192
 9361SOL     OW39961   1.387   0.495  17.209
 9361SOL    HW139962   1.347   0.582  17.212
 9361SOL    HW239963   1.430   0.485  17.294
 9362SOL     OW39964   4.428   3.282   2.665
 9362SOL    HW139965   4.419   3.230   2.745
 9362SOL    HW239966   4.442   3.217   2.596
 9363SOL     OW39967   4.710   2.450   3.823
 9363SOL    HW139968   4.696   2.540   3.794
 9363SOL    HW239969   0.000   2.421   3.774
 9364SOL     OW39970   3.143   0.107  20.989
 9364SOL    HW139971   3.120   0.022  20.951
 9364SOL    HW239972   3.227   0.091  21.033
 9365SOL     OW39973   3.737   1.267   5.426
 9365SOL    HW139974   3.666   1.213   5.462
 9365SOL    HW239975   3.763   1.323   5.499
 9366SOL     OW39976   0.734   3.750   0.606
 9366SOL    HW139977   0.754   3.764   0.698
 9366SOL    HW239978   0.769   3.664   0.586
 9367SOL     OW39979   1.361   3.024  15.399
 9367SOL    HW139980   1.373   3.081  15.323
 9367SOL    HW239981   1.267   3.023  15.413
 9368SOL     OW39982   4.378   1.258  15.008
 9368SOL    HW139983   4.315   1.322  14.976
 9368SOL    HW239984   4.327   1.202  15.068
 9369SOL     OW39985   4.689   2.770  16.204
 9369SOL    HW139986   4.777   2.804  16.215
 9369SOL    HW239987   4.644   2.836  16.151
 9370SOL     OW39988   3.173   2.172  17.012
 9370SOL    HW139989   3.243   2.174  17.078
 9370SOL    HW239990   3.093   2.187  17.062
 9371SOL     OW39991   2.064   3.075   4.345
 9371SOL    HW139992   2.120   3.136   4.393
 9371SOL    HW239993   2.018   3.131   4.281
 9372SOL     OW39994   4.034   0.583   0.079
 9372SOL    HW139995   4.052   0.558  21.233
 9372SOL    HW239996   4.114   0.628   0.108
 9373SOL     OW39997   2.163   2.256  15.169
 9373SOL    HW139998   2.094   2.288  15.112
 9373SOL    HW239999   2.183   2.330  15.227
 9374SOL     OW40000   4.052   0.382  16.450
 9374SOL    HW140001   4.131   0.391  16.504
 9374SOL    HW240002   4.066   0.442  16.377
 9375SOL     OW40003   0.237   3.414  19.960
 9375SOL    HW140004   0.220   3.490  19.904
 9375SOL    HW240005   0.321   3.433  20.001
 9376SOL     OW40006   0.363   4.480   6.146
 9376SOL    HW140007   0.300   4.438   6.205
 9376SOL    HW240008   0.317   4.557   6.112
 9377SOL     OW40009   3.178   2.578  20.333
 9377SOL    HW140010   3.228   2.599  20.411
 9377SOL    HW240011   3.144   2.490  20.350
 9378SOL     OW40012   2.921   4.386  17.116
 9378SOL    HW140013   2.949   4.411  17.028
 9378SOL    HW240014   2.861   4.313  17.102
 9379SOL     OW40015   3.884   3.094   6.283
 9379SOL    HW140016   3.819   3.157   6.313
 9379SOL    HW240017   3.945   3.086   6.356
 9380SOL     OW40018   0.162   2.128  17.619
 9380SOL    HW140019   0.079   2.120  17.573
 9380SOL    HW240020   0.192   2.038  17.631
 9381SOL     OW40021   4.690   3.982  15.317
 9381SOL    HW140022   4.631   4.034  15.371
 9381SOL    HW240023   4.752   3.944  15.379
 9382SOL     OW40024   0.794   3.370   8.391
 9382SOL    HW140025   0.887   3.387   8.374
 9382SOL    HW240026   0.783   3.277   8.374
 9383SOL     OW40027   1.822   4.289   0.492
 9383SOL    HW140028   1.850   4.371   0.450
 9383SOL    HW240029   1.881   4.279   0.566
 9384SOL     OW40030   2.278   4.147  19.699
 9384SOL    HW140031   2.265   4.138  19.794
 9384SOL    HW240032   2.349   4.210  19.690
 9385SOL     OW40033   1.339   1.763  19.029
 9385SOL    HW140034   1.320   1.843  18.980
 9385SOL    HW240035   1.400   1.790  19.097
 9386SOL     OW40036   0.020   4.633  20.370
 9386SOL    HW140037   0.003   4.711  20.423
 9386SOL    HW240038   4.745   4.639  20.298
 9387SOL     OW40039   2.034   3.952   6.464
 9387SOL    HW140040   2.090   3.955   6.386
 9387SOL    HW240041   1.965   3.890   6.441
 9388SOL     OW40042   2.329   0.722   6.314
 9388SOL    HW140043   2.258   0.773   6.276
 9388SOL    HW240044   2.364   0.777   6.384
 9389SOL     OW40045   0.877   4.021  11.497
 9389SOL    HW140046   0.947   4.065  11.448
 9389SOL    HW240047   0.835   4.091  11.546
 9390SOL     OW40048   4.127   4.273  16.137
 9390SOL    HW140049   4.122   4.194  16.190
 9390SOL    HW240050   4.196   4.254  16.073
 9391SOL     OW40051   0.257   0.418  11.142
 9391SOL    HW140052   0.346   0.396  11.170
 9391SOL    HW240053   0.201   0.375  11.206
 9392SOL     OW40054   4.582   3.596  19.477
 9392SOL    HW140055   4.545   3.525  19.530
 9392SOL    HW240056   4.665   3.617  19.520
 9393SOL     OW40057   1.036   0.895  16.307
 9393SOL    HW140058   1.038   0.913  16.213
 9393SOL    HW240059   1.113   0.840  16.322
 9394SOL     OW40060   4.778   0.362  17.896
 9394SOL    HW140061   0.030   0.290  17.946
 9394SOL    HW240062   0.065   0.404  17.853
 9395SOL     OW40063   3.111   2.013  16.129
 9395SOL    HW140064   3.193   2.057  16.104
 9395SOL    HW240065   3.128   1.976  16.215
 9396SOL     OW40066   4.777   2.523   4.322
 9396SOL    HW140067   0.002   2.444   4.269
 9396SOL    HW240068   0.074   2.569   4.314
 9397SOL     OW40069   2.218   3.148   1.112
 9397SOL    HW140070   2.185   3.072   1.064
 9397SOL    HW240071   2.142   3.204   1.123
 9398SOL     OW40072   2.919   3.848  18.394
 9398SOL    HW140073   2.829   3.849  18.360
 9398SOL    HW240074   2.913   3.893  18.478
 9399SOL     OW40075   3.495   4.036  11.902
 9399SOL    HW140076   3.487   4.009  11.810
 9399SOL    HW240077   3.581   4.078  11.907
 9400SOL     OW40078   3.139   3.683   1.202
 9400SOL    HW140079   3.160   3.650   1.290
 9400SOL    HW240080   3.056   3.641   1.180
 9401SOL     OW40081   3.200   1.307   2.475
 9401SOL    HW140082   3.136   1.377   2.466
 9401SOL    HW240083   3.268   1.329   2.412
 9402SOL     OW40084   3.339   2.470  18.693
 9402SOL    HW140085   3.251   2.434  18.694
 9402SOL    HW240086   3.332   2.549  18.640
 9403SOL     OW40087   3.241   3.049   7.942
 9403SOL    HW140088   3.303   3.070   8.012
 9403SOL    HW240089   3.244   3.124   7.883
 9404SOL     OW40090   3.683   0.097   0.000
 9404SOL    HW140091   3.608   0.157   0.004
 9404SOL    HW240092   3.733   0.117   0.080
 9405SOL     OW40093   1.184   4.075  16.861
 9405SOL    HW140094   1.219   4.063  16.949
 9405SOL    HW240095   1.092   4.099  16.874
 9406SOL     OW40096   0.488   1.610  18.642
 9406SOL    HW140097   0.497   1.682  18.579
 9406SOL    HW240098   0.435   1.545  18.596
 9407SOL     OW40099   3.617   4.680   5.737
 9407SOL    HW140100   3.654   4.615   5.678
 9407SOL    HW240101   3.566   4.738   5.681
 9408SOL     OW40102   1.953   4.229   6.031
 9408SOL    HW140103   2.020   4.182   5.981
 9408SOL    HW240104   1.951   4.316   5.991
 9409SOL     OW40105   0.808   3.713  18.708
 9409SOL    HW140106   0.718   3.716  18.678
 9409SOL    HW240107   0.859   3.691  18.630
 9410SOL     OW40108   2.022   2.027  15.680
 9410SOL    HW140109   2.081   1.961  15.716
 9410SOL    HW240110   1.939   2.011  15.723
 9411SOL     OW40111   3.308   3.776   1.861
 9411SOL    HW140112   3.317   3.746   1.951
 9411SOL    HW240113   3.214   3.779   1.845
 9412SOL     OW40114   2.859   3.458  17.991
 9412SOL    HW140115   2.903   3.516  18.054
 9412SOL    HW240116   2.768   3.456  18.021
 9413SOL     OW40117   1.566   2.472  19.361
 9413SOL    HW140118   1.633   2.418  19.317
 9413SOL    HW240119   1.538   2.419  19.436
 9414SOL     OW40120   1.206   4.686   5.612
 9414SOL    HW140121   1.195   4.593   5.634
 9414SOL    HW240122   1.195   4.690   5.517
 9415SOL     OW40123   1.109   0.185   9.086
 9415SOL    HW140124   1.034   0.245   9.079
 9415SOL    HW240125   1.168   0.227   9.148
 9416SOL     OW40126   0.961   3.541  20.864
 9416SOL    HW140127   1.045   3.552  20.909
 9416SOL    HW240128   0.921   3.628  20.866
 9417SOL     OW40129   3.436   3.584   4.431
 9417SOL    HW140130   3.493   3.654   4.399
 9417SOL    HW240131   3.463   3.570   4.522
 9418SOL     OW40132   1.844   1.847   0.856
 9418SOL    HW140133   1.855   1.929   0.904
 9418SOL    HW240134   1.787   1.793   0.911
 9419SOL     OW40135   0.689   3.158   6.467
 9419SOL    HW140136   0.622   3.168   6.399
 9419SOL    HW240137   0.771   3.184   6.424
 9420SOL     OW40138   4.780   3.317   0.394
 9420SOL    HW140139   0.060   3.263   0.352
 9420SOL    HW240140   4.697   3.281   0.363
 9421SOL     OW40141   2.581   4.465   5.101
 9421SOL    HW140142   2.622   4.546   5.131
 9421SOL    HW240143   2.636   4.436   5.028
 9422SOL     OW40144   3.904   2.036   1.363
 9422SOL    HW140145   3.828   2.073   1.408
 9422SOL    HW240146   3.868   1.966   1.308
 9423SOL     OW40147   0.397   0.772  13.513
 9423SOL    HW140148   0.382   0.680  13.534
 9423SOL    HW240149   0.331   0.819  13.563
 9424SOL     OW40150   0.872   0.747   0.332
 9424SOL    HW140151   0.870   0.698   0.250
 9424SOL    HW240152   0.858   0.838   0.306
 9425SOL     OW40153   2.430   4.664  17.206
 9425SOL    HW140154   2.496   4.604  17.170
 9425SOL    HW240155   2.457   4.678  17.296
 9426SOL     OW40156   1.757   3.071   1.860
 9426SOL    HW140157   1.683   3.012   1.851
 9426SOL    HW240158   1.726   3.155   1.827
 9427SOL     OW40159   1.910   4.490  20.974
 9427SOL    HW140160   1.973   4.427  20.938
 9427SOL    HW240161   1.889   4.547  20.901
 9428SOL     OW40162   0.156   1.151   1.926
 9428SOL    HW140163   0.130   1.237   1.894
 9428SOL    HW240164   0.247   1.141   1.899
 9429SOL     OW40165   3.395   0.607  20.660
 9429SOL    HW140166   3.471   0.604  20.718
 9429SOL    HW240167   3.345   0.529  20.683
 9430SOL     OW40168   1.238   3.007  17.645
 9430SOL    HW140169   1.282   3.082  17.605
 9430SOL    HW240170   1.147   3.013  17.615
 9431SOL     OW40171   2.290   0.105  20.430
 9431SOL    HW140172   2.226   0.095  20.501
 9431SOL    HW240173   2.275   0.029  20.373
 9432SOL     OW40174   3.528   4.704  18.639
 9432SOL    HW140175   3.607   4.758  18.649
 9432SOL    HW240176   3.540   4.632  18.701
 9433SOL     OW40177   1.924   0.277   6.555
 9433SOL    HW140178   1.975   0.198   6.538
 9433SOL    HW240179   1.974   0.348   6.516
 9434SOL     OW40180   2.262   1.359   4.451
 9434SOL    HW140181   2.176   1.358   4.493
 9434SOL    HW240182   2.243   1.346   4.358
 9435SOL     OW40183   0.037   2.433  19.915
 9435SOL    HW140184   0.109   2.468  19.967
 9435SOL    HW240185   0.070   2.351  19.879
 9436SOL     OW40186   4.036   3.725   4.733
 9436SOL    HW140187   4.069   3.646   4.775
 9436SOL    HW240188   4.042   3.792   4.802
 9437SOL     OW40189   0.402   2.114   3.628
 9437SOL    HW140190   0.480   2.169   3.620
 9437SOL    HW240191   0.333   2.174   3.655
 9438SOL     OW40192   0.210   4.719  18.396
 9438SOL    HW140193   0.116   4.697  18.395
 9438SOL    HW240194   0.223   4.765  18.479
 9439SOL     OW40195   2.031   0.877  17.310
 9439SOL    HW140196   1.976   0.816  17.359
 9439SOL    HW240197   1.986   0.961  17.317
 9440SOL     OW40198   4.203   2.465   2.981
 9440SOL    HW140199   4.191   2.478   3.075
 9440SOL    HW240200   4.298   2.456   2.970
 9441SOL     OW40201   0.147   1.039  14.304
 9441SOL    HW140202   0.068   0.987  14.316
 9441SOL    HW240203   0.219   0.982  14.333
 9442SOL     OW40204   1.753   2.095   1.219
 9442SOL    HW140205   1.801   2.080   1.137
 9442SOL    HW240206   1.669   2.051   1.205
 9443SOL     OW40207   3.899   0.712  11.800
 9443SOL    HW140208   3.900   0.806  11.815
 9443SOL    HW240209   3.991   0.689  11.785
 9444SOL     OW40210   1.404   4.587  18.168
 9444SOL    HW140211   1.365   4.503  18.189
 9444SOL    HW240212   1.420   4.584  18.074
 9445SOL     OW40213   3.412   2.076  20.065
 9445SOL    HW140214   3.373   1.990  20.048
 9445SOL    HW240215   3.344   2.124  20.113
 9446SOL     OW40216   3.848   4.567   0.637
 9446SOL    HW140217   3.828   4.513   0.560
 9446SOL    HW240218   3.885   4.505   0.700
 9447SOL     OW40219   2.051   3.878  13.087
 9447SOL    HW140220   2.120   3.821  13.053
 9447SOL    HW240221   2.097   3.956  13.116
 9448SOL     OW40222   2.220   2.077   4.407
 9448SOL    HW140223   2.209   2.039   4.320
 9448SOL    HW240224   2.145   2.045   4.457
 9449SOL     OW40225   3.013   1.300   6.907
 9449SOL    HW140226   2.949   1.289   6.836
 9449SOL    HW240227   3.022   1.212   6.945
 9450SOL     OW40228   4.577   0.883  18.550
 9450SOL    HW140229   4.489   0.870  18.516
 9450SOL    HW240230   4.571   0.859  18.642
 9451SOL     OW40231   2.908   3.972   0.917
 9451SOL    HW140232   2.930   4.015   0.835
 9451SOL    HW240233   2.982   3.989   0.975
 9452SOL     OW40234   2.095   1.517   1.909
 9452SOL    HW140235   2.061   1.586   1.966
 9452SOL    HW240236   2.038   1.520   1.832
 9453SOL     OW40237   2.611   1.705  18.069
 9453SOL    HW140238   2.526   1.670  18.096
 9453SOL    HW240239   2.672   1.634  18.088
 9454SOL     OW40240   2.077   4.417  17.917
 9454SOL    HW140241   1.998   4.409  17.863
 9454SOL    HW240242   2.051   4.475  17.989
 9455SOL     OW40243   2.716   3.999  17.923
 9455SOL    HW140244   2.750   3.918  17.960
 9455SOL    HW240245   2.744   3.999  17.832
 9456SOL     OW40246   0.208   4.766   5.204
 9456SOL    HW140247   0.280   4.728   5.254
 9456SOL    HW240248   0.146   0.010   5.270
 9457SOL     OW40249   4.269   2.621  17.848
 9457SOL    HW140250   4.353   2.581  17.828
 9457SOL    HW240251   4.205   2.550  17.839
 9458SOL     OW40252   1.266   3.468   6.134
 9458SOL    HW140253   1.289   3.468   6.041
 9458SOL    HW240254   1.237   3.558   6.151
 9459SOL     OW40255   4.392   0.282  16.778
 9459SOL    HW140256   4.472   0.321  16.813
 9459SOL    HW240257   4.376   0.205  16.833
 9460SOL     OW40258   4.701   3.440  20.783
 9460SOL    HW140259   4.672   3.394  20.704
 9460SOL    HW240260   4.743   3.372  20.835
 9461SOL     OW40261   4.259   2.743  19.925
 9461SOL    HW140262   4.173   2.785  19.926
 9461SOL    HW240263   4.244   2.659  19.881
 9462SOL     OW40264   0.126   1.187   3.486
 9462SOL    HW140265   0.169   1.178   3.402
 9462SOL    HW240266   0.192   1.159   3.550
 9463SOL     OW40267   1.999   1.390  18.278
 9463SOL    HW140268   1.923   1.431  18.237
 9463SOL    HW240269   1.971   1.371  18.367
 9464SOL     OW40270   1.736   1.531  18.050
 9464SOL    HW140271   1.804   1.516  17.984
 9464SOL    HW240272   1.673   1.460  18.034
 9465SOL     OW40273   1.684   2.051   2.819
 9465SOL    HW140274   1.737   1.973   2.799
 9465SOL    HW240275   1.749   2.117   2.843
 9466SOL     OW40276   2.892   2.537  12.922
 9466SOL    HW140277   2.824   2.604  12.915
 9466SOL    HW240278   2.844   2.456  12.942
 9467SOL     OW40279   4.601   0.783  17.313
 9467SOL    HW140280   4.610   0.759  17.406
 9467SOL    HW240281   4.581   0.700  17.269
 9468SOL     OW40282   2.946   3.403   1.911
 9468SOL    HW140283   2.926   3.348   1.986
 9468SOL    HW240284   2.910   3.489   1.934
 9469SOL     OW40285   1.885   4.758  19.940
 9469SOL    HW140286   1.953   4.707  19.984
 9469SOL    HW240287   1.921   4.776  19.853
 9470SOL     OW40288   0.061   1.600   1.303
 9470SOL    HW140289   0.001   1.591   1.377
 9470SOL    HW240290   0.112   1.679   1.324
 9471SOL     OW40291   4.603   1.309   2.524
 9471SOL    HW140292   4.552   1.244   2.572
 9471SOL    HW240293   4.640   1.261   2.450
 9472SOL     OW40294   2.860   1.120  14.607
 9472SOL    HW140295   2.912   1.064  14.550
 9472SOL    HW240296   2.910   1.202  14.611
 9473SOL     OW40297   1.234   1.958  19.223
 9473SOL    HW140298   1.162   1.916  19.271
 9473SOL    HW240299   1.205   2.049  19.213
 9474SOL     OW40300   1.082   3.039   4.133
 9474SOL    HW140301   1.039   2.958   4.102
 9474SOL    HW240302   1.010   3.092   4.168
 9475SOL     OW40303   1.643   0.709  19.208
 9475SOL    HW140304   1.582   0.648  19.167
 9475SOL    HW240305   1.660   0.673  19.295
 9476SOL     OW40306   4.114   1.557   6.518
 9476SOL    HW140307   4.031   1.509   6.510
 9476SOL    HW240308   4.127   1.597   6.433
 9477SOL     OW40309   1.882   3.897   0.327
 9477SOL    HW140310   1.882   3.980   0.279
 9477SOL    HW240311   1.837   3.836   0.268
 9478SOL     OW40312   0.944   1.513  18.230
 9478SOL    HW140313   0.894   1.564  18.166
 9478SOL    HW240314   1.010   1.467  18.178
 9479SOL     OW40315   0.688   1.354  19.955
 9479SOL    HW140316   0.674   1.444  19.984
 9479SOL    HW240317   0.691   1.359  19.859
 9480SOL     OW40318   3.194   1.090  15.574
 9480SOL    HW140319   3.241   1.172  15.591
 9480SOL    HW240320   3.110   1.100  15.618
 9481SOL     OW40321   3.831   2.751   1.238
 9481SOL    HW140322   3.757   2.708   1.196
 9481SOL    HW240323   3.908   2.707   1.201
 9482SOL     OW40324   3.122   2.737  18.584
 9482SOL    HW140325   3.165   2.668  18.534
 9482SOL    HW240326   3.113   2.700  18.672
 9483SOL     OW40327   3.163   3.464   2.482
 9483SOL    HW140328   3.194   3.435   2.568
 9483SOL    HW240329   3.127   3.551   2.497
 9484SOL     OW40330   3.412   4.618  19.150
 9484SOL    HW140331   3.459   4.535  19.151
 9484SOL    HW240332   3.409   4.643  19.058
 9485SOL     OW40333   4.770   0.430   6.184
 9485SOL    HW140334   0.061   0.376   6.168
 9485SOL    HW240335   4.781   0.505   6.125
 9486SOL     OW40336   2.466   1.720   3.031
 9486SOL    HW140337   2.376   1.720   3.000
 9486SOL    HW240338   2.461   1.753   3.121
 9487SOL     OW40339   1.945   1.289  16.265
 9487SOL    HW140340   1.858   1.253  16.282
 9487SOL    HW240341   1.990   1.222  16.214
 9488SOL     OW40342   2.121   4.355  15.506
 9488SOL    HW140343   2.067   4.282  15.476
 9488SOL    HW240344   2.159   4.325  15.588
 9489SOL     OW40345   3.079   2.853   1.705
 9489SOL    HW140346   3.005   2.892   1.658
 9489SOL    HW240347   3.042   2.824   1.789
 9490SOL     OW40348   1.014   4.129   4.055
 9490SOL    HW140349   0.973   4.177   4.127
 9490SOL    HW240350   0.984   4.174   3.976
 9491SOL     OW40351   2.015   0.251  17.932
 9491SOL    HW140352   1.922   0.228  17.934
 9491SOL    HW240353   2.023   0.313  17.859
 9492SOL     OW40354   2.807   3.019  16.114
 9492SOL    HW140355   2.757   3.100  16.107
 9492SOL    HW240356   2.887   3.044  16.160
 9493SOL     OW40357   3.151   4.243  13.337
 9493SOL    HW140358   3.088   4.216  13.270
 9493SOL    HW240359   3.217   4.292  13.289
 9494SOL     OW40360   2.283   4.732  14.736
 9494SOL    HW140361   2.222   4.746  14.663
 9494SOL    HW240362   2.369   4.724  14.695
 9495SOL     OW40363   3.990   0.520  17.647
 9495SOL    HW140364   3.965   0.610  17.668
 9495SOL    HW240365   3.953   0.504  17.560
 9496SOL     OW40366   1.594   4.302   6.891
 9496SOL    HW140367   1.608   4.342   6.977
 9496SOL    HW240368   1.608   4.373   6.828
 9497SOL     OW40369   2.319   3.346  15.730
 9497SOL    HW140370   2.278   3.259  15.732
 9497SOL    HW240371   2.410   3.330  15.752
 9498SOL     OW40372   0.901   3.382  14.642
 9498SOL    HW140373   0.972   3.345  14.694
 9498SOL    HW240374   0.944   3.444  14.583
 9499SOL     OW40375   2.999   0.927  14.479
 9499SOL    HW140376   2.965   0.837  14.472
 9499SOL    HW240377   3.094   0.916  14.478
 9500SOL     OW40378   3.118   0.548   5.781
 9500SOL    HW140379   3.134   0.532   5.688
 9500SOL    HW240380   3.029   0.584   5.784
 9501SOL     OW40381   2.034   0.572  19.412
 9501SOL    HW140382   1.956   0.533  19.451
 9501SOL    HW240383   2.022   0.561  19.318
 9502SOL     OW40384   4.574   3.173   0.501
 9502SOL    HW140385   4.595   3.102   0.442
 9502SOL    HW240386   4.656   3.192   0.547
 9503SOL     OW40387   2.453   0.949  14.721
 9503SOL    HW140388   2.465   0.945  14.627
 9503SOL    HW240389   2.361   0.971  14.733
 9504SOL     OW40390   3.315   1.754  18.473
 9504SOL    HW140391   3.296   1.827  18.414
 9504SOL    HW240392   3.247   1.690  18.454
 9505SOL     OW40393   1.841   1.171   1.264
 9505SOL    HW140394   1.776   1.214   1.319
 9505SOL    HW240395   1.925   1.199   1.299
 9506SOL     OW40396   1.576   1.166   3.269
 9506SOL    HW140397   1.643   1.186   3.334
 9506SOL    HW240398   1.609   1.205   3.188
 9507SOL     OW40399   4.509   2.572   4.289
 9507SOL    HW140400   4.520   2.542   4.199
 9507SOL    HW240401   4.598   2.594   4.318
 9508SOL     OW40402   0.488   2.254  16.750
 9508SOL    HW140403   0.431   2.327  16.774
 9508SOL    HW240404   0.548   2.246  16.824
 9509SOL     OW40405   3.523   3.502   6.435
 9509SOL    HW140406   3.587   3.486   6.367
 9509SOL    HW240407   3.470   3.422   6.438
 9510SOL     OW40408   3.141   3.619  15.179
 9510SOL    HW140409   3.111   3.607  15.269
 9510SOL    HW240410   3.178   3.534  15.156
 9511SOL     OW40411   0.910   1.139   1.746
 9511SOL    HW140412   0.933   1.057   1.703
 9511SOL    HW240413   0.870   1.112   1.829
 9512SOL     OW40414   1.395   1.072   2.325
 9512SOL    HW140415   1.423   0.980   2.317
 9512SOL    HW240416   1.458   1.120   2.271
 9513SOL     OW40417   1.165   1.308  16.736
 9513SOL    HW140418   1.093   1.245  16.730
 9513SOL    HW240419   1.244   1.256  16.720
 9514SOL     OW40420   0.560   2.995   5.782
 9514SOL    HW140421   0.627   2.935   5.814
 9514SOL    HW240422   0.485   2.981   5.840
 9515SOL     OW40423   3.601   1.291  19.602
 9515SOL    HW140424   3.680   1.266  19.555
 9515SOL    HW240425   3.622   1.375  19.642
 9516SOL     OW40426   1.397   4.098  19.310
 9516SOL    HW140427   1.482   4.122  19.347
 9516SOL    HW240428   1.354   4.182  19.293
 9517SOL     OW40429   4.717   3.747  19.679
 9517SOL    HW140430   4.693   3.825  19.729
 9517SOL    HW240431   0.019   3.764  19.648
 9518SOL     OW40432   0.158   2.627  14.484
 9518SOL    HW140433   0.122   2.540  14.500
 9518SOL    HW240434   0.103   2.685  14.536
 9519SOL     OW40435   3.923   3.104   3.234
 9519SOL    HW140436   3.843   3.055   3.252
 9519SOL    HW240437   3.961   3.061   3.157
 9520SOL     OW40438   2.748   2.314  12.898
 9520SOL    HW140439   2.720   2.338  12.810
 9520SOL    HW240440   2.677   2.259  12.932
 9521SOL     OW40441   2.575   2.146   1.283
 9521SOL    HW140442   2.515   2.149   1.357
 9521SOL    HW240443   2.572   2.054   1.254
 9522SOL     OW40444   2.508   2.588   4.185
 9522SOL    HW140445   2.412   2.579   4.186
 9522SOL    HW240446   2.535   2.562   4.273
 9523SOL     OW40447   3.940   4.198  17.671
 9523SOL    HW140448   3.926   4.193  17.766
 9523SOL    HW240449   3.927   4.108  17.640
 9524SOL     OW40450   2.871   4.705   5.908
 9524SOL    HW140451   2.940   4.718   5.973
 9524SOL    HW240452   2.801   4.660   5.955
 9525SOL     OW40453   4.649   3.318   4.305
 9525SOL    HW140454   4.725   3.307   4.362
 9525SOL    HW240455   4.576   3.283   4.356
 9526SOL     OW40456   1.902   1.804   6.136
 9526SOL    HW140457   1.882   1.750   6.060
 9526SOL    HW240458   1.912   1.892   6.101
 9527SOL     OW40459   2.533   0.097   3.569
 9527SOL    HW140460   2.519   0.011   3.531
 9527SOL    HW240461   2.482   0.096   3.650
 9528SOL     OW40462   0.550   1.728   1.587
 9528SOL    HW140463   0.614   1.697   1.652
 9528SOL    HW240464   0.599   1.791   1.534
 9529SOL     OW40465   0.057   3.912   5.884
 9529SOL    HW140466   0.139   3.896   5.930
 9529SOL    HW240467   4.776   3.877   5.941
 9530SOL     OW40468   4.120   0.871  19.075
 9530SOL    HW140469   4.117   0.966  19.087
 9530SOL    HW240470   4.184   0.841  19.140
 9531SOL     OW40471   0.043   2.286   4.716
 9531SOL    HW140472   0.111   2.225   4.686
 9531SOL    HW240473   0.053   2.362   4.658
 9532SOL     OW40474   0.926   0.310   4.726
 9532SOL    HW140475   0.838   0.309   4.691
 9532SOL    HW240476   0.979   0.263   4.662
 9533SOL     OW40477   2.624   4.283  18.958
 9533SOL    HW140478   2.678   4.323  18.890
 9533SOL    HW240479   2.645   4.334  19.037
 9534SOL     OW40480   2.108   4.707   1.868
 9534SOL    HW140481   2.174   4.717   1.799
 9534SOL    HW240482   2.054   4.633   1.839
 9535SOL     OW40483   1.940   3.481   7.465
 9535SOL    HW140484   1.874   3.456   7.530
 9535SOL    HW240485   1.981   3.398   7.440
 9536SOL     OW40486   3.983   0.352   2.184
 9536SOL    HW140487   3.967   0.299   2.262
 9536SOL    HW240488   4.075   0.377   2.190
 9537SOL     OW40489   2.000   4.051   1.712
 9537SOL    HW140490   2.054   3.972   1.719
 9537SOL    HW240491   1.951   4.054   1.794
 9538SOL     OW40492   2.876   1.712  20.815
 9538SOL    HW140493   2.824   1.656  20.872
 9538SOL    HW240494   2.843   1.693  20.727
 9539SOL     OW40495   3.973   4.370   1.276
 9539SOL    HW140496   3.986   4.286   1.319
 9539SOL    HW240497   3.970   4.434   1.347
 9540SOL     OW40498   4.159   0.546   2.743
 9540SOL    HW140499   4.106   0.473   2.776
 9540SOL    HW240500   4.248   0.512   2.742
 9541SOL     OW40501   4.413   3.851   1.188
 9541SOL    HW140502   4.404   3.826   1.096
 9541SOL    HW240503   4.502   3.823   1.212
 9542SOL     OW40504   2.763   2.050  19.262
 9542SOL    HW140505   2.756   1.992  19.338
 9542SOL    HW240506   2.724   2.132  19.290
 9543SOL     OW40507   0.040   0.042  21.110
 9543SOL    HW140508   4.766   4.760  21.082
 9543SOL    HW240509   4.781   0.086  21.182
 9544SOL     OW40510   1.176   3.926  20.175
 9544SOL    HW140511   1.150   3.935  20.266
 9544SOL    HW240512   1.097   3.946  20.125
 9545SOL     OW40513   1.958   1.385  17.205
 9545SOL    HW140514   1.984   1.431  17.285
 9545SOL    HW240515   1.873   1.345  17.226
 9546SOL     OW40516   1.832   0.070   1.312
 9546SOL    HW140517   1.924   0.046   1.299
 9546SOL    HW240518   1.819   0.146   1.255
 9547SOL     OW40519   0.061   3.739  19.225
 9547SOL    HW140520   4.756   3.726  19.246
 9547SOL    HW240521   0.073   3.694  19.141
 9548SOL     OW40522   2.952   2.851   6.444
 9548SOL    HW140523   2.877   2.793   6.461
 9548SOL    HW240524   2.986   2.822   6.360
 9549SOL     OW40525   3.508   1.473   8.323
 9549SOL    HW140526   3.437   1.412   8.301
 9549SOL    HW240527   3.464   1.544   8.371
 9550SOL     OW40528   3.223   0.284  15.954
 9550SOL    HW140529   3.189   0.194  15.960
 9550SOL    HW240530   3.231   0.312  16.046
 9551SOL     OW40531   0.431   2.759  15.523
 9551SOL    HW140532   0.388   2.714  15.451
 9551SOL    HW240533   0.501   2.701  15.550
 9552SOL     OW40534   2.027   4.745  15.394
 9552SOL    HW140535   1.985   0.032  15.350
 9552SOL    HW240536   2.078   4.702  15.325
 9553SOL     OW40537   3.464   0.373   5.579
 9553SOL    HW140538   3.417   0.305   5.627
 9553SOL    HW240539   3.446   0.454   5.627
 9554SOL     OW40540   4.150   2.774  20.857
 9554SOL    HW140541   4.220   2.731  20.906
 9554SOL    HW240542   4.168   2.868  20.865
 9555SOL     OW40543   4.179   2.688   2.399
 9555SOL    HW140544   4.085   2.672   2.402
 9555SOL    HW240545   4.202   2.683   2.306
 9556SOL     OW40546   2.234   3.003   1.450
 9556SOL    HW140547   2.304   3.055   1.410
 9556SOL    HW240548   2.167   3.066   1.473
 9557SOL     OW40549   0.552   4.442  14.113
 9557SOL    HW140550   0.549   4.469  14.021
 9557SOL    HW240551   0.638   4.469  14.143
 9558SOL     OW40552   4.256   2.725   4.667
 9558SOL    HW140553   4.303   2.673   4.732
 9558SOL    HW240554   4.257   2.814   4.703
 9559SOL     OW40555   4.317   3.262   1.296
 9559SOL    HW140556   4.289   3.229   1.210
 9559SOL    HW240557   4.376   3.334   1.276
 9560SOL     OW40558   1.432   4.200  15.724
 9560SOL    HW140559   1.436   4.235  15.636
 9560SOL    HW240560   1.491   4.125  15.723
 9561SOL     OW40561   4.423   4.027  14.318
 9561SOL    HW140562   4.453   4.079  14.244
 9561SOL    HW240563   4.343   3.983  14.286
 9562SOL     OW40564   1.318   4.332  18.166
 9562SOL    HW140565   1.325   4.311  18.073
 9562SOL    HW240566   1.229   4.308  18.191
 9563SOL     OW40567   0.106   4.608   3.687
 9563SOL    HW140568   0.060   4.662   3.624
 9563SOL    HW240569   0.172   4.561   3.636
 9564SOL     OW40570   0.681   1.622  20.012
 9564SOL    HW140571   0.633   1.698  20.045
 9564SOL    HW240572   0.769   1.631  20.050
 9565SOL     OW40573   2.851   2.587   2.564
 9565SOL    HW140574   2.857   2.568   2.658
 9565SOL    HW240575   2.772   2.542   2.535
 9566SOL     OW40576   3.189   2.967   5.927
 9566SOL    HW140577   3.265   3.011   5.887
 9566SOL    HW240578   3.113   3.013   5.891
 9567SOL     OW40579   3.126   4.108  14.868
 9567SOL    HW140580   3.179   4.183  14.895
 9567SOL    HW240581   3.045   4.147  14.835
 9568SOL     OW40582   0.729   4.483   1.823
 9568SOL    HW140583   0.642   4.513   1.847
 9568SOL    HW240584   0.733   4.393   1.854
 9569SOL     OW40585   0.703   3.323  18.685
 9569SOL    HW140586   0.713   3.229  18.701
 9569SOL    HW240587   0.641   3.353  18.751
 9570SOL     OW40588   1.286   0.977  18.821
 9570SOL    HW140589   1.292   1.071  18.839
 9570SOL    HW240590   1.211   0.948  18.873
 9571SOL     OW40591   0.059   3.160   5.180
 9571SOL    HW140592   0.114   3.232   5.150
 9571SOL    HW240593   4.756   3.191   5.169
 9572SOL     OW40594   0.750   0.399   2.701
 9572SOL    HW140595   0.775   0.433   2.614
 9572SOL    HW240596   0.695   0.323   2.682
 9573SOL     OW40597   3.578   0.962   3.552
 9573SOL    HW140598   3.620   0.952   3.638
 9573SOL    HW240599   3.630   0.907   3.493
 9574SOL     OW40600   3.772   1.108  18.982
 9574SOL    HW140601   3.745   1.026  19.024
 9574SOL    HW240602   3.799   1.164  19.055
 9575SOL     OW40603   1.436   1.132   3.951
 9575SOL    HW140604   1.464   1.209   3.901
 9575SOL    HW240605   1.434   1.061   3.887
 9576SOL     OW40606   0.239   3.125   6.333
 9576SOL    HW140607   0.263   3.184   6.262
 9576SOL    HW240608   0.238   3.179   6.411
 9577SOL     OW40609   3.957   4.601  17.174
 9577SOL    HW140610   3.916   4.625  17.090
 9577SOL    HW240611   3.961   4.506  17.172
 9578SOL     OW40612   4.485   3.490   1.230
 9578SOL    HW140613   4.409   3.497   1.172
 9578SOL    HW240614   4.518   3.579   1.237
 9579SOL     OW40615   4.144   1.456  16.838
 9579SOL    HW140616   4.227   1.481  16.877
 9579SOL    HW240617   4.092   1.424  16.912
 9580SOL     OW40618   0.784   1.306   5.893
 9580SOL    HW140619   0.835   1.341   5.966
 9580SOL    HW240620   0.822   1.220   5.876
 9581SOL     OW40621   3.924   2.394   3.286
 9581SOL    HW140622   3.974   2.473   3.306
 9581SOL    HW240623   3.857   2.391   3.354
 9582SOL     OW40624   0.733   4.131   5.395
 9582SOL    HW140625   0.766   4.098   5.311
 9582SOL    HW240626   0.671   4.065   5.424
 9583SOL     OW40627   0.766   2.860   5.912
 9583SOL    HW140628   0.730   2.806   5.982
 9583SOL    HW240629   0.814   2.929   5.958
 9584SOL     OW40630   0.259   2.681   2.667
 9584SOL    HW140631   0.269   2.693   2.762
 9584SOL    HW240632   0.343   2.646   2.638
 9585SOL     OW40633   4.309   1.242  19.425
 9585SOL    HW140634   4.226   1.289  19.413
 9585SOL    HW240635   4.376   1.304  19.395
 9586SOL     OW40636   4.690   4.127  16.554
 9586SOL    HW140637   4.685   4.219  16.530
 9586SOL    HW240638   4.759   4.091  16.498
 9587SOL     OW40639   4.200   3.126   2.968
 9587SOL    HW140640   4.223   3.217   2.988
 9587SOL    HW240641   4.274   3.093   2.918
 9588SOL     OW40642   4.405   4.443  13.274
 9588SOL    HW140643   4.452   4.369  13.236
 9588SOL    HW240644   4.448   4.520  13.236
 9589SOL     OW40645   1.827   2.373   4.782
 9589SOL    HW140646   1.770   2.369   4.859
 9589SOL    HW240647   1.773   2.339   4.710
 9590SOL     OW40648   1.194   2.411  17.423
 9590SOL    HW140649   1.257   2.352  17.463
 9590SOL    HW240650   1.160   2.462  17.496
 9591SOL     OW40651   0.394   4.528  14.412
 9591SOL    HW140652   0.376   4.551  14.503
 9591SOL    HW240653   0.485   4.552  14.398
 9592SOL     OW40654   4.463   4.223   4.463
 9592SOL    HW140655   4.518   4.288   4.507
 9592SOL    HW240656   4.436   4.266   4.382
 9593SOL     OW40657   0.862   3.198  19.141
 9593SOL    HW140658   0.866   3.260  19.214
 9593SOL    HW240659   0.846   3.113  19.182
 9594SOL     OW40660   0.424   3.372   2.597
 9594SOL    HW140661   0.505   3.350   2.645
 9594SOL    HW240662   0.426   3.316   2.520
 9595SOL     OW40663   1.267   3.612  15.677
 9595SOL    HW140664   1.359   3.627  15.658
 9595SOL    HW240665   1.225   3.696  15.661
 9596SOL     OW40666   4.561   1.945  19.404
 9596SOL    HW140667   4.565   1.857  19.365
 9596SOL    HW240668   4.651   1.964  19.430
 9597SOL     OW40669   0.140   3.076  21.128
 9597SOL    HW140670   0.098   3.010  21.074
 9597SOL    HW240671   0.218   3.102  21.080
 9598SOL     OW40672   0.075   4.395   4.977
 9598SOL    HW140673   0.070   4.450   5.056
 9598SOL    HW240674   0.047   4.308   5.007
 9599SOL     OW40675   2.938   2.347  21.161
 9599SOL    HW140676   2.993   2.344  21.239
 9599SOL    HW240677   2.949   2.261  21.120
 9600SOL     OW40678   2.233   0.026   2.427
 9600SOL    HW140679   2.309   0.001   2.375
 9600SOL    HW240680   2.265   0.096   2.484
 9601SOL     OW40681   4.491   0.710   1.729
 9601SOL    HW140682   4.507   0.667   1.814
 9601SOL    HW240683   4.554   0.782   1.727
 9602SOL     OW40684   4.210   2.166   3.883
 9602SOL    HW140685   4.275   2.120   3.830
 9602SOL    HW240686   4.258   2.194   3.961
 9603SOL     OW40687   0.118   3.294   5.474
 9603SOL    HW140688   0.070   3.344   5.539
 9603SOL    HW240689   0.131   3.355   5.401
 9604SOL     OW40690   3.005   1.749   8.282
 9604SOL    HW140691   3.002   1.841   8.306
 9604SOL    HW240692   2.938   1.741   8.213
 9605SOL     OW40693   1.238   3.309  16.885
 9605SOL    HW140694   1.294   3.232  16.894
 9605SOL    HW240695   1.236   3.326  16.790
 9606SOL     OW40696   4.442   4.157  16.699
 9606SOL    HW140697   4.533   4.136  16.676
 9606SOL    HW240698   4.413   4.215  16.629
 9607SOL     OW40699   3.491   4.044  14.820
 9607SOL    HW140700   3.566   4.042  14.879
 9607SOL    HW240701   3.424   4.094  14.868
 9608SOL     OW40702   4.053   3.351  19.035
 9608SOL    HW140703   4.083   3.264  19.059
 9608SOL    HW240704   4.065   3.404  19.114
 9609SOL     OW40705   3.153   3.967  19.420
 9609SOL    HW140706   3.149   3.887  19.367
 9609SOL    HW240707   3.246   3.980  19.438
 9610SOL     OW40708   3.526   1.847   0.031
 9610SOL    HW140709   3.519   1.942   0.015
 9610SOL    HW240710   3.445   1.811  21.239
 9611SOL     OW40711   2.863   1.765   0.957
 9611SOL    HW140712   2.940   1.809   0.922
 9611SOL    HW240713   2.855   1.798   1.047
 9612SOL     OW40714   4.174   3.574   3.738
 9612SOL    HW140715   4.113   3.633   3.783
 9612SOL    HW240716   4.228   3.537   3.808
 9613SOL     OW40717   3.703   2.133   3.467
 9613SOL    HW140718   3.625   2.078   3.464
 9613SOL    HW240719   3.761   2.097   3.400
 9614SOL     OW40720   2.408   0.109   0.970
 9614SOL    HW140721   2.417   0.043   0.902
 9614SOL    HW240722   2.481   0.092   1.029
 9615SOL     OW40723   0.629   0.637  18.740
 9615SOL    HW140724   0.620   0.575  18.668
 9615SOL    HW240725   0.690   0.595  18.801
 9616SOL     OW40726   3.056   3.178  19.311
 9616SOL    HW140727   2.997   3.186  19.386
 9616SOL    HW240728   3.143   3.175  19.350
 9617SOL     OW40729   3.922   2.073  19.878
 9617SOL    HW140730   3.975   2.023  19.817
 9617SOL    HW240731   3.832   2.060  19.849
 9618SOL     OW40732   3.272   4.480   3.102
 9618SOL    HW140733   3.347   4.486   3.042
 9618SOL    HW240734   3.299   4.414   3.166
 9619SOL     OW40735   2.065   1.158  21.110
 9619SOL    HW140736   2.044   1.226  21.045
 9619SOL    HW240737   2.070   1.077  21.059
 9620SOL     OW40738   1.302   4.117   5.721
 9620SOL    HW140739   1.384   4.091   5.765
 9620SOL    HW240740   1.267   4.186   5.776
 9621SOL     OW40741   2.304   0.008  15.943
 9621SOL    HW140742   2.399   4.786  15.941
 9621SOL    HW240743   2.271   4.717  15.899
 9622SOL     OW40744   0.221   2.113   4.624
 9622SOL    HW140745   0.303   2.153   4.654
 9622SOL    HW240746   0.247   2.054   4.554
 9623SOL     OW40747   2.475   1.916  19.409
 9623SOL    HW140748   2.426   1.842  19.374
 9623SOL    HW240749   2.448   1.922  19.500
 9624SOL     OW40750   0.596   3.710   1.722
 9624SOL    HW140751   0.621   3.775   1.788
 9624SOL    HW240752   0.604   3.626   1.767
 9625SOL     OW40753   3.515   1.958   6.698
 9625SOL    HW140754   3.560   2.023   6.751
 9625SOL    HW240755   3.553   1.967   6.610
 9626SOL     OW40756   4.468   4.153   2.158
 9626SOL    HW140757   4.495   4.226   2.103
 9626SOL    HW240758   4.529   4.154   2.231
 9627SOL     OW40759   0.680   0.523  17.579
 9627SOL    HW140760   0.701   0.516  17.672
 9627SOL    HW240761   0.657   0.434  17.553
 9628SOL     OW40762   3.503   4.620   1.094
 9628SOL    HW140763   3.569   4.689   1.096
 9628SOL    HW240764   3.437   4.650   1.031
 9629SOL     OW40765   3.483   3.310   4.939
 9629SOL    HW140766   3.521   3.391   4.905
 9629SOL    HW240767   3.411   3.290   4.879
 9630SOL     OW40768   3.735   4.180  11.769
 9630SOL    HW140769   3.752   4.180  11.864
 9630SOL    HW240770   3.688   4.262  11.753
 9631SOL     OW40771   1.596   3.558   1.594
 9631SOL    HW140772   1.538   3.559   1.518
 9631SOL    HW240773   1.682   3.535   1.558
 9632SOL     OW40774   2.710   0.876  14.155
 9632SOL    HW140775   2.686   0.948  14.213
 9632SOL    HW240776   2.802   0.892  14.134
 9633SOL     OW40777   3.360   4.321   3.333
 9633SOL    HW140778   3.304   4.348   3.406
 9633SOL    HW240779   3.449   4.343   3.362
 9634SOL     OW40780   3.496   2.279   4.777
 9634SOL    HW140781   3.518   2.199   4.728
 9634SOL    HW240782   3.445   2.331   4.715
 9635SOL     OW40783   1.009   2.055  17.216
 9635SOL    HW140784   1.104   2.064  17.230
 9635SOL    HW240785   0.986   1.975  17.264
 9636SOL     OW40786   2.488   0.136  18.208
 9636SOL    HW140787   2.478   0.198  18.281
 9636SOL    HW240788   2.568   0.087  18.230
 9637SOL     OW40789   4.091   1.131   4.459
 9637SOL    HW140790   4.052   1.179   4.532
 9637SOL    HW240791   4.130   1.198   4.404
 9638SOL     OW40792   3.104   2.121  20.131
 9638SOL    HW140793   3.130   2.112  20.223
 9638SOL    HW240794   3.126   2.211  20.109
 9639SOL     OW40795   4.555   4.279   3.528
 9639SOL    HW140796   4.588   4.215   3.465
 9639SOL    HW240797   4.633   4.306   3.577
 9640SOL     OW40798   0.702   1.659  16.606
 9640SOL    HW140799   0.737   1.625  16.523
 9640SOL    HW240800   0.776   1.706  16.645
 9641SOL     OW40801   1.083   3.851   1.356
 9641SOL    HW140802   1.163   3.800   1.368
 9641SOL    HW240803   1.099   3.934   1.400
 9642SOL     OW40804   2.619   3.603   1.976
 9642SOL    HW140805   2.684   3.651   1.924
 9642SOL    HW240806   2.544   3.593   1.918
 9643SOL     OW40807   3.438   0.084  19.354
 9643SOL    HW140808   3.350   0.100  19.321
 9643SOL    HW240809   3.448   4.776  19.352
 9644SOL     OW40810   3.321   3.820  19.118
 9644SOL    HW140811   3.392   3.759  19.101
 9644SOL    HW240812   3.298   3.805  19.209
 9645SOL     OW40813   3.288   1.352   3.506
 9645SOL    HW140814   3.334   1.426   3.466
 9645SOL    HW240815   3.330   1.275   3.471
 9646SOL     OW40816   4.394   0.634  15.029
 9646SOL    HW140817   4.345   0.559  14.996
 9646SOL    HW240818   4.423   0.607  15.116
 9647SOL     OW40819   0.385   1.373  16.708
 9647SOL    HW140820   0.327   1.444  16.735
 9647SOL    HW240821   0.386   1.379  16.612
 9648SOL     OW40822   3.106   1.713   4.116
 9648SOL    HW140823   3.132   1.768   4.041
 9648SOL    HW240824   3.015   1.690   4.097
 9649SOL     OW40825   2.745   3.929  15.999
 9649SOL    HW140826   2.801   3.882  16.061
 9649SOL    HW240827   2.740   4.018  16.034
 9650SOL     OW40828   1.284   4.627   6.132
 9650SOL    HW140829   1.241   4.675   6.204
 9650SOL    HW240830   1.297   4.539   6.166
 9651SOL     OW40831   2.577   2.246  19.320
 9651SOL    HW140832   2.554   2.338  19.306
 9651SOL    HW240833   2.530   2.221  19.399
 9652SOL     OW40834   4.469   2.061   3.756
 9652SOL    HW140835   4.531   1.991   3.734
 9652SOL    HW240836   4.522   2.129   3.797
 9653SOL     OW40837   3.213   2.178   2.258
 9653SOL    HW140838   3.252   2.104   2.306
 9653SOL    HW240839   3.185   2.140   2.174
 9654SOL     OW40840   0.685   2.259  18.918
 9654SOL    HW140841   0.711   2.185  18.864
 9654SOL    HW240842   0.649   2.323  18.855
 9655SOL     OW40843   4.029   4.719   3.387
 9655SOL    HW140844   3.968   4.654   3.424
 9655SOL    HW240845   3.982   0.015   3.395
 9656SOL     OW40846   0.014   0.196   4.388
 9656SOL    HW140847   4.770   0.165   4.303
 9656SOL    HW240848   4.768   0.131   4.450
 9657SOL     OW40849   2.343   2.443  14.540
 9657SOL    HW140850   2.340   2.390  14.620
 9657SOL    HW240851   2.426   2.418  14.498
 9658SOL     OW40852   3.441   0.240   3.009
 9658SOL    HW140853   3.371   0.210   3.068
 9658SOL    HW240854   3.417   0.330   2.987
 9659SOL     OW40855   0.880   0.399   0.448
 9659SOL    HW140856   0.929   0.342   0.390
 9659SOL    HW240857   0.937   0.411   0.525
 9660SOL     OW40858   1.129   1.722   6.187
 9660SOL    HW140859   1.183   1.734   6.265
 9660SOL    HW240860   1.092   1.809   6.170
 9661SOL     OW40861   1.070   0.852  18.970
 9661SOL    HW140862   0.993   0.871  18.916
 9661SOL    HW240863   1.053   0.895  19.053
 9662SOL     OW40864   4.544   2.636  19.670
 9662SOL    HW140865   4.578   2.650  19.758
 9662SOL    HW240866   4.622   2.624  19.616
 9663SOL     OW40867   1.689   1.348   1.728
 9663SOL    HW140868   1.644   1.267   1.703
 9663SOL    HW240869   1.733   1.377   1.648
 9664SOL     OW40870   2.056   1.592   5.409
 9664SOL    HW140871   2.059   1.560   5.500
 9664SOL    HW240872   2.072   1.686   5.416
 9665SOL     OW40873   1.332   4.046  16.080
 9665SOL    HW140874   1.269   4.062  16.150
 9665SOL    HW240875   1.319   4.120  16.020
 9666SOL     OW40876   0.712   4.332   1.600
 9666SOL    HW140877   0.679   4.399   1.660
 9666SOL    HW240878   0.797   4.308   1.636
 9667SOL     OW40879   3.186   2.385   2.872
 9667SOL    HW140880   3.261   2.442   2.856
 9667SOL    HW240881   3.152   2.366   2.784
 9668SOL     OW40882   2.904   3.598   3.540
 9668SOL    HW140883   2.930   3.506   3.532
 9668SOL    HW240884   2.974   3.646   3.495
 9669SOL     OW40885   0.379   0.224  19.502
 9669SOL    HW140886   0.302   0.258  19.547
 9669SOL    HW240887   0.422   0.168  19.567
 9670SOL     OW40888   4.492   1.880   8.124
 9670SOL    HW140889   4.406   1.898   8.163
 9670SOL    HW240890   4.555   1.920   8.183
 9671SOL     OW40891   1.061   3.131  17.865
 9671SOL    HW140892   1.042   3.222  17.888
 9671SOL    HW240893   1.132   3.137  17.801
 9672SOL     OW40894   1.313   1.743   6.380
 9672SOL    HW140895   1.314   1.754   6.475
 9672SOL    HW240896   1.400   1.771   6.353
 9673SOL     OW40897   1.919   1.463  15.955
 9673SOL    HW140898   1.926   1.412  15.874
 9673SOL    HW240899   1.980   1.536  15.942
 9674SOL     OW40900   1.614   3.899   5.632
 9674SOL    HW140901   1.666   3.931   5.706
 9674SOL    HW240902   1.647   3.811   5.615
 9675SOL     OW40903   1.736   0.012   3.161
 9675SOL    HW140904   1.797   0.028   3.233
 9675SOL    HW240905   1.792   0.003   3.084
 9676SOL     OW40906   1.127   1.936  13.936
 9676SOL    HW140907   1.175   1.854  13.943
 9676SOL    HW240908   1.071   1.938  14.014
 9677SOL     OW40909   0.828   2.696   3.680
 9677SOL    HW140910   0.747   2.672   3.634
 9677SOL    HW240911   0.895   2.639   3.643
 9678SOL     OW40912   4.775   2.623  20.275
 9678SOL    HW140913   4.770   2.591  20.185
 9678SOL    HW240914   4.705   2.687  20.282
 9679SOL     OW40915   3.356   1.655   7.219
 9679SOL    HW140916   3.297   1.728   7.203
 9679SOL    HW240917   3.298   1.580   7.232
 9680SOL     OW40918   3.266   2.191  16.538
 9680SOL    HW140919   3.251   2.101  16.566
 9680SOL    HW240920   3.180   2.234  16.546
 9681SOL     OW40921   3.437   0.674  20.388
 9681SOL    HW140922   3.383   0.596  20.371
 9681SOL    HW240923   3.439   0.680  20.484
 9682SOL     OW40924   0.340   1.483   1.931
 9682SOL    HW140925   0.249   1.455   1.923
 9682SOL    HW240926   0.379   1.463   1.846
 9683SOL     OW40927   2.202   4.235   0.239
 9683SOL    HW140928   2.250   4.175   0.296
 9683SOL    HW240929   2.134   4.180   0.200
 9684SOL     OW40930   2.627   0.046  15.924
 9684SOL    HW140931   2.719   0.053  15.948
 9684SOL    HW240932   2.607   4.739  15.933
 9685SOL     OW40933   0.080   4.518   7.375
 9685SOL    HW140934   0.046   4.471   7.451
 9685SOL    HW240935   0.059   4.610   7.393
 9686SOL     OW40936   2.142   2.695  20.686
 9686SOL    HW140937   2.108   2.627  20.744
 9686SOL    HW240938   2.180   2.647  20.612
 9687SOL     OW40939   1.169   3.935  18.806
 9687SOL    HW140940   1.178   4.015  18.859
 9687SOL    HW240941   1.259   3.907  18.790
 9688SOL     OW40942   3.434   1.685   6.622
 9688SOL    HW140943   3.523   1.719   6.615
 9688SOL    HW240944   3.428   1.619   6.554
 9689SOL     OW40945   3.856   3.979  16.078
 9689SOL    HW140946   3.811   3.941  16.003
 9689SOL    HW240947   3.934   3.925  16.089
 9690SOL     OW40948   3.985   0.935  20.042
 9690SOL    HW140949   4.061   0.914  20.097
 9690SOL    HW240950   3.943   0.850  20.026
 9691SOL     OW40951   0.736   0.599   1.410
 9691SOL    HW140952   0.805   0.556   1.360
 9691SOL    HW240953   0.748   0.693   1.392
 9692SOL     OW40954   3.201   2.373  20.077
 9692SOL    HW140955   3.144   2.437  20.035
 9692SOL    HW240956   3.289   2.396  20.046
 9693SOL     OW40957   4.206   0.826   6.712
 9693SOL    HW140958   4.125   0.875   6.700
 9693SOL    HW240959   4.269   0.868   6.654
 9694SOL     OW40960   0.247   2.915  18.294
 9694SOL    HW140961   0.185   2.972  18.248
 9694SOL    HW240962   0.333   2.955  18.278
 9695SOL     OW40963   3.621   2.474  18.113
 9695SOL    HW140964   3.569   2.401  18.080
 9695SOL    HW240965   3.619   2.464  18.208
 9696SOL     OW40966   0.897   1.856   1.177
 9696SOL    HW140967   0.904   1.949   1.200
 9696SOL    HW240968   0.903   1.855   1.081
 9697SOL     OW40969   2.701   4.019  13.675
 9697SOL    HW140970   2.780   3.981  13.713
 9697SOL    HW240971   2.678   3.960  13.604
 9698SOL     OW40972   1.363   3.884   0.195
 9698SOL    HW140973   1.304   3.873   0.270
 9698SOL    HW240974   1.316   3.943   0.136
 9699SOL     OW40975   3.819   3.769   9.376
 9699SOL    HW140976   3.789   3.795   9.463
 9699SOL    HW240977   3.896   3.714   9.393
 9700SOL     OW40978   3.522   3.977   0.116
 9700SOL    HW140979   3.549   4.015   0.199
 9700SOL    HW240980   3.431   3.952   0.129
 9701SOL     OW40981   4.178   4.694  19.849
 9701SOL    HW140982   4.198   4.674  19.757
 9701SOL    HW240983   4.092   4.655  19.864
 9702SOL     OW40984   4.068   0.404   5.205
 9702SOL    HW140985   4.122   0.325   5.204
 9702SOL    HW240986   4.095   0.453   5.128
 9703SOL     OW40987   4.256   3.266  13.939
 9703SOL    HW140988   4.283   3.176  13.958
 9703SOL    HW240989   4.183   3.256  13.877
 9704SOL     OW40990   1.390   3.905  19.888
 9704SOL    HW140991   1.352   3.908  19.976
 9704SOL    HW240992   1.410   3.997  19.868
 9705SOL     OW40993   1.380   1.201   1.572
 9705SOL    HW140994   1.469   1.195   1.539
 9705SOL    HW240995   1.380   1.146   1.651
 9706SOL     OW40996   0.197   4.196  15.427
 9706SOL    HW140997   0.219   4.180  15.335
 9706SOL    HW240998   0.272   4.245  15.461
 9707SOL     OW40999   1.850   3.965   4.256
 9707SOL    HW141000   1.860   3.873   4.279
 9707SOL    HW241001   1.940   3.996   4.241
 9708SOL     OW41002   0.943   0.569   3.553
 9708SOL    HW141003   0.971   0.483   3.520
 9708SOL    HW241004   1.018   0.626   3.536
 9709SOL     OW41005   3.611   3.821   4.766
 9709SOL    HW141006   3.660   3.848   4.688
 9709SOL    HW241007   3.637   3.730   4.780
 9710SOL     OW41008   3.509   3.896  20.617
 9710SOL    HW141009   3.569   3.839  20.568
 9710SOL    HW241010   3.491   3.848  20.698
 9711SOL     OW41011   2.649   3.871   3.058
 9711SOL    HW141012   2.567   3.887   3.106
 9711SOL    HW241013   2.716   3.870   3.126
 9712SOL     OW41014   3.912   4.463  17.571
 9712SOL    HW141015   3.887   4.490  17.659
 9712SOL    HW241016   3.878   4.374  17.563
 9713SOL     OW41017   0.386   1.351   4.024
 9713SOL    HW141018   0.385   1.403   4.104
 9713SOL    HW241019   0.414   1.264   4.051
 9714SOL     OW41020   4.011   0.681   5.502
 9714SOL    HW141021   3.977   0.625   5.572
 9714SOL    HW241022   4.054   0.753   5.548
 9715SOL     OW41023   1.336   4.569  16.016
 9715SOL    HW141024   1.416   4.533  15.976
 9715SOL    HW241025   1.272   4.499  16.010
 9716SOL     OW41026   4.704   0.383  16.724
 9716SOL    HW141027   0.007   0.396  16.754
 9716SOL    HW241028   4.713   0.359  16.631
 9717SOL     OW41029   4.304   4.388   3.875
 9717SOL    HW141030   4.390   4.393   3.917
 9717SOL    HW241031   4.280   4.479   3.856
 9718SOL     OW41032   4.713   3.856  13.971
 9718SOL    HW141033   4.729   3.922  14.039
 9718SOL    HW241034   4.676   3.905  13.898
 9719SOL     OW41035   1.686   0.121  15.855
 9719SOL    HW141036   1.755   0.103  15.920
 9719SOL    HW241037   1.613   0.155  15.907
 9720SOL     OW41038   1.458   3.963  14.722
 9720SOL    HW141039   1.466   3.868  14.711
 9720SOL    HW241040   1.501   4.000  14.645
 9721SOL     OW41041   4.545   0.445   6.063
 9721SOL    HW141042   4.632   0.439   6.103
 9721SOL    HW241043   4.499   0.513   6.112
 9722SOL     OW41044   1.944   1.988   5.440
 9722SOL    HW141045   1.910   2.067   5.482
 9722SOL    HW241046   1.944   2.009   5.347
 9723SOL     OW41047   1.706   1.848   5.493
 9723SOL    HW141048   1.691   1.893   5.576
 9723SOL    HW241049   1.797   1.869   5.471
 9724SOL     OW41050   1.529   2.001   2.286
 9724SOL    HW141051   1.441   1.964   2.298
 9724SOL    HW241052   1.582   1.958   2.352
 9725SOL     OW41053   0.983   3.962   0.623
 9725SOL    HW141054   1.002   3.884   0.676
 9725SOL    HW241055   0.920   4.012   0.676
 9726SOL     OW41056   3.553   3.055  16.538
 9726SOL    HW141057   3.508   3.050  16.453
 9726SOL    HW241058   3.573   2.965  16.560
 9727SOL     OW41059   0.812   2.110  15.030
 9727SOL    HW141060   0.791   2.039  14.969
 9727SOL    HW241061   0.848   2.065  15.106
 9728SOL     OW41062   2.268   0.018  17.513
 9728SOL    HW141063   2.221   0.101  17.524
 9728SOL    HW241064   2.243   4.775  17.425
 9729SOL     OW41065   0.988   4.464  18.775
 9729SOL    HW141066   0.984   4.424  18.688
 9729SOL    HW241067   0.965   4.394  18.835
 9730SOL     OW41068   3.235   3.567   3.720
 9730SOL    HW141069   3.272   3.533   3.801
 9730SOL    HW241070   3.215   3.488   3.669
 9731SOL     OW41071   1.783   3.316   3.990
 9731SOL    HW141072   1.754   3.379   4.056
 9731SOL    HW241073   1.702   3.274   3.960
 9732SOL     OW41074   0.452   0.317   0.926
 9732SOL    HW141075   0.480   0.352   0.841
 9732SOL    HW241076   0.523   0.260   0.953
 9733SOL     OW41077   3.052   1.688   2.054
 9733SOL    HW141078   3.021   1.765   2.006
 9733SOL    HW241079   3.003   1.615   2.016
 9734SOL     OW41080   0.438   4.738   3.032
 9734SOL    HW141081   0.406   4.733   3.122
 9734SOL    HW241082   0.496   0.027   3.031
 9735SOL     OW41083   1.935   4.132  21.092
 9735SOL    HW141084   1.992   4.209  21.087
 9735SOL    HW241085   1.846   4.168  21.094
 9736SOL     OW41086   3.744   1.074   2.105
 9736SOL    HW141087   3.732   1.034   2.019
 9736SOL    HW241088   3.666   1.047   2.155
 9737SOL     OW41089   4.036   1.535  13.619
 9737SOL    HW141090   4.011   1.583  13.698
 9737SOL    HW241091   3.963   1.550  13.558
 9738SOL     OW41092   0.587   0.748   0.404
 9738SOL    HW141093   0.670   0.782   0.372
 9738SOL    HW241094   0.609   0.662   0.441
 9739SOL     OW41095   4.477   1.706  17.795
 9739SOL    HW141096   4.499   1.633  17.738
 9739SOL    HW241097   4.538   1.776  17.771
 9740SOL     OW41098   2.749   1.863  19.464
 9740SOL    HW141099   2.658   1.880  19.486
 9740SOL    HW241100   2.782   1.807  19.534
 9741SOL     OW41101   1.670   4.245  20.132
 9741SOL    HW141102   1.699   4.226  20.043
 9741SOL    HW241103   1.727   4.315  20.161
 9742SOL     OW41104   2.518   3.255   3.539
 9742SOL    HW141105   2.473   3.194   3.596
 9742SOL    HW241106   2.493   3.342   3.572
 9743SOL     OW41107   1.446   0.954   4.333
 9743SOL    HW141108   1.425   0.862   4.313
 9743SOL    HW241109   1.534   0.950   4.371
 9744SOL     OW41110   1.596   1.385  14.092
 9744SOL    HW141111   1.559   1.396  14.179
 9744SOL    HW241112   1.680   1.342  14.107
 9745SOL     OW41113   0.562   0.662   5.600
 9745SOL    HW141114   0.609   0.680   5.681
 9745SOL    HW241115   0.588   0.573   5.576
 9746SOL     OW41116   1.686   4.680  18.487
 9746SOL    HW141117   1.626   4.752  18.509
 9746SOL    HW241118   1.662   4.656  18.398
 9747SOL     OW41119   2.235   3.861   7.850
 9747SOL    HW141120   2.296   3.813   7.906
 9747SOL    HW241121   2.152   3.860   7.898
 9748SOL     OW41122   1.467   3.338   5.033
 9748SOL    HW141123   1.441   3.430   5.030
 9748SOL    HW241124   1.390   3.289   5.004
 9749SOL     OW41125   4.088   3.065   0.665
 9749SOL    HW141126   4.163   3.059   0.605
 9749SOL    HW241127   4.043   3.145   0.638
 9750SOL     OW41128   4.208   1.342   3.707
 9750SOL    HW141129   4.235   1.397   3.634
 9750SOL    HW241130   4.272   1.270   3.708
 9751SOL     OW41131   2.360   1.254  19.572
 9751SOL    HW141132   2.319   1.212  19.497
 9751SOL    HW241133   2.448   1.277  19.543
 9752SOL     OW41134   1.041   2.025   0.244
 9752SOL    HW141135   1.119   2.069   0.210
 9752SOL    HW241136   1.040   1.940   0.201
 9753SOL     OW41137   3.062   1.785   9.434
 9753SOL    HW141138   3.008   1.743   9.501
 9753SOL    HW241139   3.151   1.752   9.451
 9754SOL     OW41140   4.326   1.088   4.967
 9754SOL    HW141141   4.337   1.101   4.873
 9754SOL    HW241142   4.238   1.050   4.976
 9755SOL     OW41143   1.805   2.715   1.441
 9755SOL    HW141144   1.894   2.749   1.431
 9755SOL    HW241145   1.809   2.660   1.519
 9756SOL     OW41146   2.397   2.575   6.447
 9756SOL    HW141147   2.326   2.536   6.498
 9756SOL    HW241148   2.472   2.517   6.461
 9757SOL     OW41149   3.562   2.150   7.109
 9757SOL    HW141150   3.537   2.240   7.131
 9757SOL    HW241151   3.626   2.126   7.176
 9758SOL     OW41152   0.598   3.525  20.365
 9758SOL    HW141153   0.531   3.507  20.432
 9758SOL    HW241154   0.627   3.614  20.384
 9759SOL     OW41155   1.414   2.085   5.234
 9759SOL    HW141156   1.456   2.057   5.153
 9759SOL    HW241157   1.441   2.020   5.299
 9760SOL     OW41158   3.031   3.130   3.647
 9760SOL    HW141159   2.941   3.162   3.650
 9760SOL    HW241160   3.057   3.120   3.739
 9761SOL     OW41161   1.050   0.251  13.625
 9761SOL    HW141162   1.101   0.176  13.658
 9761SOL    HW241163   1.084   0.326  13.674
 9762SOL     OW41164   1.049   4.493   0.417
 9762SOL    HW141165   1.058   4.475   0.510
 9762SOL    HW241166   1.111   4.564   0.400
 9763SOL     OW41167   0.304   2.349   3.470
 9763SOL    HW141168   0.254   2.400   3.535
 9763SOL    HW241169   0.246   2.344   3.394
 9764SOL     OW41170   2.934   1.212   4.710
 9764SOL    HW141171   2.938   1.162   4.629
 9764SOL    HW241172   2.870   1.281   4.693
 9765SOL     OW41173   4.000   2.029  15.294
 9765SOL    HW141174   4.072   2.027  15.356
 9765SOL    HW241175   4.033   1.981  15.218
 9766SOL     OW41176   1.960   1.296   0.518
 9766SOL    HW141177   1.991   1.225   0.463
 9766SOL    HW241178   1.868   1.274   0.535
 9767SOL     OW41179   0.243   3.224   3.344
 9767SOL    HW141180   0.241   3.295   3.279
 9767SOL    HW241181   0.254   3.145   3.291
 9768SOL     OW41182   1.219   4.352  15.441
 9768SOL    HW141183   1.192   4.261  15.456
 9768SOL    HW241184   1.314   4.351  15.452
 9769SOL     OW41185   2.023   1.014   0.814
 9769SOL    HW141186   1.937   1.046   0.842
 9769SOL    HW241187   2.016   1.008   0.719
 9770SOL     OW41188   3.597   3.282   4.475
 9770SOL    HW141189   3.540   3.304   4.402
 9770SOL    HW241190   3.624   3.192   4.457
 9771SOL     OW41191   3.518   4.020  18.573
 9771SOL    HW141192   3.480   3.935  18.553
 9771SOL    HW241193   3.587   4.002  18.636
 9772SOL     OW41194   1.245   3.991   7.842
 9772SOL    HW141195   1.181   4.006   7.911
 9772SOL    HW241196   1.228   3.902   7.812
 9773SOL     OW41197   1.587   1.697  19.155
 9773SOL    HW141198   1.614   1.618  19.202
 9773SOL    HW241199   1.644   1.700  19.078
 9774SOL     OW41200   0.191   4.503  17.066
 9774SOL    HW141201   0.280   4.500  17.100
 9774SOL    HW241202   0.187   4.585  17.016
 9775SOL     OW41203   3.090   4.354  19.426
 9775SOL    HW141204   3.010   4.323  19.467
 9775SOL    HW241205   3.068   4.361  19.333
 9776SOL     OW41206   0.332   2.066   1.502
 9776SOL    HW141207   0.373   2.076   1.588
 9776SOL    HW241208   0.262   2.132   1.502
 9777SOL     OW41209   2.893   0.447  19.458
 9777SOL    HW141210   2.961   0.514  19.471
 9777SOL    HW241211   2.923   0.373  19.510
 9778SOL     OW41212   3.735   1.232   7.344
 9778SOL    HW141213   3.747   1.184   7.263
 9778SOL    HW241214   3.664   1.186   7.390
 9779SOL     OW41215   0.623   4.214   1.944
 9779SOL    HW141216   0.535   4.217   1.984
 9779SOL    HW241217   0.672   4.154   2.001
 9780SOL     OW41218   0.190   0.401  10.891
 9780SOL    HW141219   0.217   0.410  10.982
 9780SOL    HW241220   0.272   0.392  10.842
 9781SOL     OW41221   2.100   1.395   3.401
 9781SOL    HW141222   2.129   1.442   3.479
 9781SOL    HW241223   2.113   1.457   3.329
 9782SOL     OW41224   1.521   4.620  19.949
 9782SOL    HW141225   1.498   4.555  20.015
 9782SOL    HW241226   1.576   4.684  19.995
 9783SOL     OW41227   3.742   3.382  17.045
 9783SOL    HW141228   3.744   3.292  17.079
 9783SOL    HW241229   3.690   3.430  17.109
 9784SOL     OW41230   1.113   3.489   1.788
 9784SOL    HW141231   1.072   3.559   1.736
 9784SOL    HW241232   1.191   3.465   1.738
 9785SOL     OW41233   0.978   0.973  19.198
 9785SOL    HW141234   0.906   0.921  19.234
 9785SOL    HW241235   1.012   1.022  19.273
 9786SOL     OW41236   4.403   1.469  14.749
 9786SOL    HW141237   4.460   1.486  14.824
 9786SOL    HW241238   4.316   1.495  14.779
 9787SOL     OW41239   0.602   3.938   6.141
 9787SOL    HW141240   0.666   3.941   6.212
 9787SOL    HW241241   0.552   4.019   6.151
 9788SOL     OW41242   0.627   4.264   3.989
 9788SOL    HW141243   0.617   4.247   3.895
 9788SOL    HW241244   0.618   4.358   3.998
 9789SOL     OW41245   0.867   2.204  18.231
 9789SOL    HW141246   0.874   2.114  18.199
 9789SOL    HW241247   0.901   2.258  18.159
 9790SOL     OW41248   1.409   1.855  17.282
 9790SOL    HW141249   1.382   1.945  17.259
 9790SOL    HW241250   1.495   1.845  17.242
 9791SOL     OW41251   3.594   0.685  18.934
 9791SOL    HW141252   3.642   0.640  18.865
 9791SOL    HW241253   3.588   0.776  18.904
 9792SOL     OW41254   0.939   4.566  19.246
 9792SOL    HW141255   1.031   4.556  19.270
 9792SOL    HW241256   0.890   4.539  19.323
 9793SOL     OW41257   2.908   4.240  19.641
 9793SOL    HW141258   2.909   4.148  19.666
 9793SOL    HW241259   2.950   4.285  19.714
 9794SOL     OW41260   2.818   1.743   4.563
 9794SOL    HW141261   2.861   1.715   4.644
 9794SOL    HW241262   2.750   1.804   4.592
 9795SOL     OW41263   1.484   4.239  19.793
 9795SOL    HW141264   1.548   4.308  19.814
 9795SOL    HW241265   1.525   4.189  19.723
 9796SOL     OW41266   1.022   1.446  18.482
 9796SOL    HW141267   0.989   1.496  18.407
 9796SOL    HW241268   1.017   1.506  18.556
 9797SOL     OW41269   0.344   0.326  15.213
 9797SOL    HW141270   0.378   0.314  15.125
 9797SOL    HW241271   0.421   0.323  15.270
 9798SOL     OW41272   0.568   1.564   4.430
 9798SOL    HW141273   0.623   1.547   4.507
 9798SOL    HW241274   0.485   1.520   4.449
 9799SOL     OW41275   2.927   4.658   3.219
 9799SOL    HW141276   2.928   4.589   3.286
 9799SOL    HW241277   2.840   4.697   3.226
 9800SOL     OW41278   1.039   0.066   1.159
 9800SOL    HW141279   0.949   0.035   1.148
 9800SOL    HW241280   1.082   0.042   1.076
 9801SOL     OW41281   4.628   0.650   0.858
 9801SOL    HW141282   4.686   0.720   0.889
 9801SOL    HW241283   4.680   0.605   0.791
 9802SOL     OW41284   2.342   2.468   8.865
 9802SOL    HW141285   2.268   2.455   8.924
 9802SOL    HW241286   2.311   2.530   8.799
 9803SOL     OW41287   0.651   2.923  16.121
 9803SOL    HW141288   0.711   2.998  16.123
 9803SOL    HW241289   0.678   2.873  16.044
 9804SOL     OW41290   2.441   1.737   3.965
 9804SOL    HW141291   2.518   1.702   3.920
 9804SOL    HW241292   2.466   1.826   3.990
 9805SOL     OW41293   0.534   0.464  19.658
 9805SOL    HW141294   0.524   0.374  19.626
 9805SOL    HW241295   0.465   0.513  19.614
 9806SOL     OW41296   2.340   3.847  15.680
 9806SOL    HW141297   2.285   3.791  15.735
 9806SOL    HW241298   2.426   3.845  15.722
 9807SOL     OW41299   1.687   1.672   4.394
 9807SOL    HW141300   1.640   1.589   4.405
 9807SOL    HW241301   1.763   1.649   4.341
 9808SOL     OW41302   1.472   3.455  15.077
 9808SOL    HW141303   1.450   3.494  15.162
 9808SOL    HW241304   1.394   3.470  15.023
 9809SOL     OW41305   2.619   0.826   8.269
 9809SOL    HW141306   2.658   0.896   8.322
 9809SOL    HW241307   2.630   0.747   8.321
 9810SOL     OW41308   3.048   1.298  15.359
 9810SOL    HW141309   3.019   1.274  15.447
 9810SOL    HW241310   3.055   1.393  15.360
 9811SOL     OW41311   3.777   3.548  14.419
 9811SOL    HW141312   3.833   3.559  14.342
 9811SOL    HW241313   3.696   3.510  14.384
 9812SOL     OW41314   4.278   4.492  13.508
 9812SOL    HW141315   4.314   4.459  13.426
 9812SOL    HW241316   4.349   4.484  13.571
 9813SOL     OW41317   4.341   4.732  15.271
 9813SOL    HW141318   4.317   0.036  15.252
 9813SOL    HW241319   4.340   4.688  15.186
 9814SOL     OW41320   2.673   4.378   4.658
 9814SOL    HW141321   2.601   4.335   4.705
 9814SOL    HW241322   2.746   4.316   4.664
 9815SOL     OW41323   2.073   0.882  18.605
 9815SOL    HW141324   2.025   0.841  18.677
 9815SOL    HW241325   2.143   0.820  18.585
 9816SOL     OW41326   4.179   2.359  19.071
 9816SOL    HW141327   4.098   2.410  19.074
 9816SOL    HW241328   4.180   2.321  18.983
 9817SOL     OW41329   4.479   4.036  15.853
 9817SOL    HW141330   4.433   4.019  15.936
 9817SOL    HW241331   4.549   3.971  15.851
 9818SOL     OW41332   3.355   0.150  12.805
 9818SOL    HW141333   3.318   0.221  12.753
 9818SOL    HW241334   3.317   0.162  12.893
 9819SOL     OW41335   1.973   0.830  16.910
 9819SOL    HW141336   1.930   0.802  16.991
 9819SOL    HW241337   2.011   0.750  16.874
 9820SOL     OW41338   3.093   4.092   5.475
 9820SOL    HW141339   3.151   4.063   5.546
 9820SOL    HW241340   3.025   4.025   5.472
 9821SOL     OW41341   0.620   0.118   3.130
 9821SOL    HW141342   0.648   0.038   3.176
 9821SOL    HW241343   0.614   0.184   3.199
 9822SOL     OW41344   2.334   1.119  19.108
 9822SOL    HW141345   2.388   1.181  19.059
 9822SOL    HW241346   2.249   1.120  19.062
 9823SOL     OW41347   4.463   2.135   0.887
 9823SOL    HW141348   4.425   2.057   0.926
 9823SOL    HW241349   4.485   2.109   0.798
 9824SOL     OW41350   0.810   0.989  21.242
 9824SOL    HW141351   0.788   0.943   0.078
 9824SOL    HW241352   0.770   0.936  21.173
 9825SOL     OW41353   1.781   4.373   2.754
 9825SOL    HW141354   1.834   4.410   2.825
 9825SOL    HW241355   1.841   4.314   2.708
 9826SOL     OW41356   3.573   1.115   1.107
 9826SOL    HW141357   3.482   1.092   1.088
 9826SOL    HW241358   3.600   1.167   1.031
 9827SOL     OW41359   3.216   4.365   1.986
 9827SOL    HW141360   3.238   4.389   1.897
 9827SOL    HW241361   3.301   4.352   2.029
 9828SOL     OW41362   2.271   0.047   1.387
 9828SOL    HW141363   2.338   0.111   1.410
 9828SOL    HW241364   2.190   0.081   1.426
 9829SOL     OW41365   2.952   4.234  13.694
 9829SOL    HW141366   2.960   4.305  13.758
 9829SOL    HW241367   2.942   4.155  13.746
 9830SOL     OW41368   0.662   0.820  16.505
 9830SOL    HW141369   0.654   0.777  16.420
 9830SOL    HW241370   0.694   0.908  16.485
 9831SOL     OW41371   1.677   2.718   3.810
 9831SOL    HW141372   1.639   2.635   3.782
 9831SOL    HW241373   1.771   2.705   3.802
 9832SOL     OW41374   1.784   3.850  17.712
 9832SOL    HW141375   1.828   3.775  17.672
 9832SOL    HW241376   1.780   3.916  17.643
 9833SOL     OW41377   3.354   0.034   3.652
 9833SOL    HW141378   3.375   0.126   3.637
 9833SOL    HW241379   3.261   0.027   3.629
 9834SOL     OW41380   3.560   0.650  16.880
 9834SOL    HW141381   3.521   0.697  16.954
 9834SOL    HW241382   3.629   0.596  16.919
 9835SOL     OW41383   3.220   0.743   2.478
 9835SOL    HW141384   3.175   0.665   2.446
 9835SOL    HW241385   3.218   0.804   2.404
 9836SOL     OW41386   1.022   1.958   4.011
 9836SOL    HW141387   0.993   1.867   4.023
 9836SOL    HW241388   1.104   1.952   3.962
 9837SOL     OW41389   0.998   1.244  19.707
 9837SOL    HW141390   1.079   1.211  19.668
 9837SOL    HW241391   0.960   1.168  19.752
 9838SOL     OW41392   2.881   3.784   3.190
 9838SOL    HW141393   2.931   3.853   3.234
 9838SOL    HW241394   2.947   3.734   3.141
 9839SOL     OW41395   1.128   3.226  12.556
 9839SOL    HW141396   1.111   3.307  12.604
 9839SOL    HW241397   1.210   3.193  12.593
 9840SOL     OW41398   1.473   0.117   1.454
 9840SOL    HW141399   1.466   0.114   1.358
 9840SOL    HW241400   1.405   0.179   1.481
 9841SOL     OW41401   4.506   2.995   3.147
 9841SOL    HW141402   4.511   2.915   3.199
 9841SOL    HW241403   4.595   3.028   3.144
 9842SOL     OW41404   4.499   4.513  18.518
 9842SOL    HW141405   4.454   4.452  18.460
 9842SOL    HW241406   4.429   4.566  18.557
 9843SOL     OW41407   0.536   0.202   5.711
 9843SOL    HW141408   0.571   0.284   5.746
 9843SOL    HW241409   0.590   0.184   5.634
 9844SOL     OW41410   0.249   2.151  20.384
 9844SOL    HW141411   0.177   2.166  20.444
 9844SOL    HW241412   0.217   2.181  20.299
 9845SOL     OW41413   0.032   0.799  19.843
 9845SOL    HW141414   4.738   0.829  19.801
 9845SOL    HW241415   0.073   0.879  19.876
 9846SOL     OW41416   4.002   3.524   1.846
 9846SOL    HW141417   4.000   3.459   1.775
 9846SOL    HW241418   3.912   3.526   1.879
 9847SOL     OW41419   2.951   3.031   4.270
 9847SOL    HW141420   2.879   3.032   4.207
 9847SOL    HW241421   2.954   2.942   4.303
 9848SOL     OW41422   3.503   3.565   3.053
 9848SOL    HW141423   3.460   3.605   3.128
 9848SOL    HW241424   3.533   3.480   3.085
 9849SOL     OW41425   3.498   3.726  13.694
 9849SOL    HW141426   3.555   3.786  13.742
 9849SOL    HW241427   3.551   3.694  13.621
 9850SOL     OW41428   3.968   3.857  18.831
 9850SOL    HW141429   3.890   3.879  18.882
 9850SOL    HW241430   4.037   3.913  18.867
 9851SOL     OW41431   4.745   4.549  17.913
 9851SOL    HW141432   4.757   4.629  17.863
 9851SOL    HW241433   4.660   4.559  17.955
 9852SOL     OW41434   4.177   0.066   5.717
 9852SOL    HW141435   4.108   0.036   5.659
 9852SOL    HW241436   4.229   0.127   5.664
 9853SOL     OW41437   1.497   4.474   5.327
 9853SOL    HW141438   1.465   4.404   5.384
 9853SOL    HW241439   1.564   4.519   5.380
 9854SOL     OW41440   2.464   3.113  17.029
 9854SOL    HW141441   2.375   3.136  17.055
 9854SOL    HW241442   2.474   3.151  16.942
 9855SOL     OW41443   2.006   4.323   4.735
 9855SOL    HW141444   1.989   4.237   4.697
 9855SOL    HW241445   1.989   4.384   4.664
 9856SOL     OW41446   0.576   1.219   4.715
 9856SOL    HW141447   0.563   1.281   4.643
 9856SOL    HW241448   0.513   1.149   4.698
 9857SOL     OW41449   3.820   4.710   5.892
 9857SOL    HW141450   3.885   4.702   5.822
 9857SOL    HW241451   3.739   4.679   5.851
 9858SOL     OW41452   1.992   4.499   5.993
 9858SOL    HW141453   1.911   4.539   6.024
 9858SOL    HW241454   2.042   4.571   5.955
 9859SOL     OW41455   0.640   1.927   5.839
 9859SOL    HW141456   0.728   1.962   5.829
 9859SOL    HW241457   0.631   1.863   5.768
 9860SOL     OW41458   1.684   0.867   4.039
 9860SOL    HW141459   1.614   0.818   3.997
 9860SOL    HW241460   1.650   0.885   4.127
 9861SOL     OW41461   0.794   3.408  20.059
 9861SOL    HW141462   0.719   3.360  20.095
 9861SOL    HW241463   0.840   3.343  20.006
 9862SOL     OW41464   0.603   3.472  13.999
 9862SOL    HW141465   0.675   3.422  13.961
 9862SOL    HW241466   0.615   3.464  14.093
 9863SOL     OW41467   0.538   1.277  16.339
 9863SOL    HW141468   0.632   1.265  16.342
 9863SOL    HW241469   0.511   1.239  16.256
 9864SOL     OW41470   3.765   3.813   2.425
 9864SOL    HW141471   3.841   3.798   2.481
 9864SOL    HW241472   3.690   3.809   2.485
 9865SOL     OW41473   3.872   1.610  15.388
 9865SOL    HW141474   3.910   1.581  15.471
 9865SOL    HW241475   3.831   1.694  15.408
 9866SOL     OW41476   0.154   4.073  17.806
 9866SOL    HW141477   0.135   4.133  17.878
 9866SOL    HW241478   0.077   4.017  17.800
 9867SOL     OW41479   4.771   0.520   2.604
 9867SOL    HW141480   0.025   0.435   2.589
 9867SOL    HW241481   0.010   0.573   2.529
 9868SOL     OW41482   1.253   0.316  17.722
 9868SOL    HW141483   1.275   0.274  17.639
 9868SOL    HW241484   1.167   0.280  17.744
 9869SOL     OW41485   1.053   2.638   2.209
 9869SOL    HW141486   1.092   2.699   2.272
 9869SOL    HW241487   0.960   2.660   2.209
 9870SOL     OW41488   3.789   0.444  20.558
 9870SOL    HW141489   3.710   0.421  20.509
 9870SOL    HW241490   3.862   0.417  20.502
 9871SOL     OW41491   0.589   1.737  15.860
 9871SOL    HW141492   0.593   1.667  15.795
 9871SOL    HW241493   0.537   1.700  15.931
 9872SOL     OW41494   0.777   3.092  18.353
 9872SOL    HW141495   0.795   3.032  18.279
 9872SOL    HW241496   0.746   3.035  18.423
 9873SOL     OW41497   2.314   1.446   2.819
 9873SOL    HW141498   2.381   1.416   2.758
 9873SOL    HW241499   2.292   1.368   2.871
 9874SOL     OW41500   2.295   1.401   4.993
 9874SOL    HW141501   2.350   1.409   5.071
 9874SOL    HW241502   2.206   1.410   5.026
 9875SOL     OW41503   0.965   1.920  20.992
 9875SOL    HW141504   1.050   1.905  20.952
 9875SOL    HW241505   0.918   1.837  20.981
 9876SOL     OW41506   1.171   0.681   6.883
 9876SOL    HW141507   1.189   0.665   6.790
 9876SOL    HW241508   1.162   0.776   6.890
 9877SOL     OW41509   4.412   0.073  16.935
 9877SOL    HW141510   4.341   0.011  16.916
 9877SOL    HW241511   4.426   0.065  17.030
 9878SOL     OW41512   3.407   2.762   4.163
 9878SOL    HW141513   3.357   2.824   4.216
 9878SOL    HW241514   3.470   2.725   4.224
 9879SOL     OW41515   3.934   4.564  20.935
 9879SOL    HW141516   3.978   4.565  21.020
 9879SOL    HW241517   3.890   4.479  20.932
 9880SOL     OW41518   3.281   0.751  19.135
 9880SOL    HW141519   3.248   0.753  19.046
 9880SOL    HW241520   3.316   0.839  19.151
 9881SOL     OW41521   0.202   0.810  15.071
 9881SOL    HW141522   0.164   0.776  14.990
 9881SOL    HW241523   0.129   0.816  15.132
 9882SOL     OW41524   4.254   0.075   2.694
 9882SOL    HW141525   4.325   0.127   2.731
 9882SOL    HW241526   4.242   0.003   2.756
 9883SOL     OW41527   0.910   0.572   5.420
 9883SOL    HW141528   0.870   0.590   5.335
 9883SOL    HW241529   0.994   0.617   5.417
 9884SOL     OW41530   1.880   3.496  16.097
 9884SOL    HW141531   1.889   3.533  16.009
 9884SOL    HW241532   1.811   3.429  16.088
 9885SOL     OW41533   2.707   4.539   6.053
 9885SOL    HW141534   2.645   4.569   6.119
 9885SOL    HW241535   2.745   4.459   6.090
 9886SOL     OW41536   3.810   3.533  20.919
 9886SOL    HW141537   3.831   3.578  21.001
 9886SOL    HW241538   3.873   3.568  20.856
 9887SOL     OW41539   3.194   2.657   0.897
 9887SOL    HW141540   3.175   2.662   0.803
 9887SOL    HW241541   3.277   2.704   0.907
 9888SOL     OW41542   2.370   4.232  18.874
 9888SOL    HW141543   2.368   4.148  18.828
 9888SOL    HW241544   2.461   4.241  18.903
 9889SOL     OW41545   0.086   0.327   1.928
 9889SOL    HW141546   0.105   0.257   1.866
 9889SOL    HW241547   0.066   0.403   1.873
 9890SOL     OW41548   0.669   1.188   2.731
 9890SOL    HW141549   0.599   1.146   2.681
 9890SOL    HW241550   0.668   1.279   2.701
 9891SOL     OW41551   3.324   3.015  16.044
 9891SOL    HW141552   3.244   2.965  16.029
 9891SOL    HW241553   3.293   3.104  16.063
 9892SOL     OW41554   1.313   0.051  16.171
 9892SOL    HW141555   1.373   0.032  16.243
 9892SOL    HW241556   1.317   4.760  16.115
 9893SOL     OW41557   2.302   0.246  15.374
 9893SOL    HW141558   2.368   0.227  15.307
 9893SOL    HW241559   2.222   0.264  15.325
 9894SOL     OW41560   1.856   3.530   1.524
 9894SOL    HW141561   1.898   3.605   1.483
 9894SOL    HW241562   1.882   3.455   1.469
 9895SOL     OW41563   2.460   1.785   0.052
 9895SOL    HW141564   2.438   1.725  21.225
 9895SOL    HW241565   2.489   1.728   0.123
 9896SOL     OW41566   3.361   1.814  19.777
 9896SOL    HW141567   3.287   1.758  19.754
 9896SOL    HW241568   3.384   1.789  19.866
 9897SOL     OW41569   1.387   4.611  15.536
 9897SOL    HW141570   1.477   4.582  15.546
 9897SOL    HW241571   1.339   4.567  15.606
 9898SOL     OW41572   4.330   2.364  16.831
 9898SOL    HW141573   4.325   2.454  16.799
 9898SOL    HW241574   4.420   2.355  16.864
 9899SOL     OW41575   4.443   3.157  16.936
 9899SOL    HW141576   4.537   3.176  16.947
 9899SOL    HW241577   4.404   3.242  16.918
 9900SOL     OW41578   3.477   2.136  20.614
 9900SOL    HW141579   3.562   2.103  20.587
 9900SOL    HW241580   3.454   2.201  20.548
 9901SOL     OW41581   4.322   3.195  16.615
 9901SOL    HW141582   4.252   3.135  16.639
 9901SOL    HW241583   4.354   3.229  16.699
 9902SOL     OW41584   0.392   4.553  14.823
 9902SOL    HW141585   0.469   4.547  14.767
 9902SOL    HW241586   0.420   4.515  14.907
 9903SOL     OW41587   2.151   4.277  13.172
 9903SOL    HW141588   2.190   4.313  13.251
 9903SOL    HW241589   2.061   4.257  13.196
 9904SOL     OW41590   3.530   1.691   3.067
 9904SOL    HW141591   3.560   1.778   3.092
 9904SOL    HW241592   3.571   1.632   3.130
 9905SOL     OW41593   1.704   2.788   4.489
 9905SOL    HW141594   1.682   2.752   4.576
 9905SOL    HW241595   1.626   2.837   4.463
 9906SOL     OW41596   1.847   0.755  19.755
 9906SOL    HW141597   1.880   0.840  19.785
 9906SOL    HW241598   1.786   0.727  19.824
 9907SOL     OW41599   1.394   1.232   5.430
 9907SOL    HW141600   1.369   1.298   5.494
 9907SOL    HW241601   1.320   1.170   5.429
 9908SOL     OW41602   3.558   3.134   0.756
 9908SOL    HW141603   3.629   3.093   0.707
 9908SOL    HW241604   3.599   3.167   0.836
 9909SOL     OW41605   3.822   3.420   7.648
 9909SOL    HW141606   3.769   3.394   7.724
 9909SOL    HW241607   3.781   3.500   7.616
 9910SOL     OW41608   2.336   4.095  15.429
 9910SOL    HW141609   2.414   4.043  15.413
 9910SOL    HW241610   2.264   4.031  15.429
 9911SOL     OW41611   0.277   0.819   4.037
 9911SOL    HW141612   0.207   0.884   4.038
 9911SOL    HW241613   0.236   0.740   4.072
 9912SOL     OW41614   3.746   2.005   3.171
 9912SOL    HW141615   3.831   2.049   3.180
 9912SOL    HW241616   3.731   2.003   3.077
 9913SOL     OW41617   0.780   0.868   1.380
 9913SOL    HW141618   0.760   0.885   1.288
 9913SOL    HW241619   0.761   0.951   1.424
 9914SOL     OW41620   3.573   1.015   5.090
 9914SOL    HW141621   3.527   0.994   5.009
 9914SOL    HW241622   3.532   0.959   5.156
 9915SOL     OW41623   3.103   1.624   5.733
 9915SOL    HW141624   3.139   1.622   5.644
 9915SOL    HW241625   3.156   1.561   5.782
 9916SOL     OW41626   0.158   3.829   0.986
 9916SOL    HW141627   0.233   3.863   1.034
 9916SOL    HW241628   0.120   3.906   0.943
 9917SOL     OW41629   0.039   0.108  14.307
 9917SOL    HW141630   0.096   0.129  14.233
 9917SOL    HW241631   0.097   0.071  14.373
 9918SOL     OW41632   2.415   0.779  18.895
 9918SOL    HW141633   2.376   0.718  18.833
 9918SOL    HW241634   2.353   0.781  18.968
 9919SOL     OW41635   1.341   4.021   6.461
 9919SOL    HW141636   1.314   4.101   6.416
 9919SOL    HW241637   1.436   4.026   6.464
 9920SOL     OW41638   2.954   3.344  18.787
 9920SOL    HW141639   3.012   3.292  18.843
 9920SOL    HW241640   2.871   3.297  18.790
 9921SOL     OW41641   0.493   2.042  13.061
 9921SOL    HW141642   0.408   1.999  13.070
 9921SOL    HW241643   0.483   2.096  12.982
 9922SOL     OW41644   1.151   1.238   2.912
 9922SOL    HW141645   1.140   1.270   2.822
 9922SOL    HW241646   1.087   1.288   2.963
 9923SOL     OW41647   2.941   0.764   1.340
 9923SOL    HW141648   3.013   0.738   1.283
 9923SOL    HW241649   2.962   0.854   1.366
 9924SOL     OW41650   3.827   2.564  17.348
 9924SOL    HW141651   3.782   2.486  17.316
 9924SOL    HW241652   3.847   2.614  17.268
 9925SOL     OW41653   3.558   0.639  20.860
 9925SOL    HW141654   3.646   0.654  20.824
 9925SOL    HW241655   3.553   0.695  20.937
 9926SOL     OW41656   2.913   2.613   4.170
 9926SOL    HW141657   2.984   2.648   4.117
 9926SOL    HW241658   2.949   2.605   4.258
 9927SOL     OW41659   4.291   2.207   3.136
 9927SOL    HW141660   4.248   2.270   3.079
 9927SOL    HW241661   4.380   2.241   3.147
 9928SOL     OW41662   3.229   4.381   7.608
 9928SOL    HW141663   3.191   4.296   7.584
 9928SOL    HW241664   3.288   4.402   7.536
 9929SOL     OW41665   2.853   1.916   9.060
 9929SOL    HW141666   2.870   1.929   9.153
 9929SOL    HW241667   2.912   1.978   9.016
 9930SOL     OW41668   4.687   2.833   4.979
 9930SOL    HW141669   4.717   2.864   5.065
 9930SOL    HW241670   4.633   2.905   4.946
 9931SOL     OW41671   2.228   3.031   5.986
 9931SOL    HW141672   2.321   3.031   5.960
 9931SOL    HW241673   2.203   2.939   5.985
 9932SOL     OW41674   1.205   1.885   0.509
 9932SOL    HW141675   1.258   1.942   0.565
 9932SOL    HW241676   1.268   1.846   0.448
 9933SOL     OW41677   3.889   1.056  18.229
 9933SOL    HW141678   3.937   1.131  18.264
 9933SOL    HW241679   3.829   1.093  18.164
 9934SOL     OW41680   3.462   3.656  17.540
 9934SOL    HW141681   3.456   3.745  17.572
 9934SOL    HW241682   3.407   3.605  17.600
 9935SOL     OW41683   0.479   1.340   1.636
 9935SOL    HW141684   0.567   1.370   1.611
 9935SOL    HW241685   0.420   1.405   1.598
 9936SOL     OW41686   0.142   4.534  17.671
 9936SOL    HW141687   0.139   4.520  17.766
 9936SOL    HW241688   0.230   4.566  17.654
 9937SOL     OW41689   1.992   3.464  20.480
 9937SOL    HW141690   1.917   3.510  20.518
 9937SOL    HW241691   1.982   3.373  20.510
 9938SOL     OW41692   1.980   3.125  16.264
 9938SOL    HW141693   2.021   3.114  16.349
 9938SOL    HW241694   1.895   3.081  16.272
 9939SOL     OW41695   1.704   0.590  20.991
 9939SOL    HW141696   1.686   0.678  21.025
 9939SOL    HW241697   1.627   0.539  21.018
 9940SOL     OW41698   4.489   2.013  20.061
 9940SOL    HW141699   4.428   1.946  20.031
 9940SOL    HW241700   4.476   2.087  20.001
 9941SOL     OW41701   1.426   0.508  15.171
 9941SOL    HW141702   1.495   0.447  15.196
 9941SOL    HW241703   1.470   0.574  15.116
 9942SOL     OW41704   3.778   4.287  19.299
 9942SOL    HW141705   3.779   4.354  19.368
 9942SOL    HW241706   3.855   4.306  19.246
 9943SOL     OW41707   1.876   1.415  15.336
 9943SOL    HW141708   1.970   1.394  15.329
 9943SOL    HW241709   1.849   1.376  15.419
 9944SOL     OW41710   0.458   2.727  16.309
 9944SOL    HW141711   0.508   2.792  16.259
 9944SOL    HW241712   0.421   2.669  16.243
 9945SOL     OW41713   2.819   0.616   9.010
 9945SOL    HW141714   2.747   0.635   8.949
 9945SOL    HW241715   2.851   0.702   9.037
 9946SOL     OW41716   0.567   2.620   3.597
 9946SOL    HW141717   0.514   2.577   3.665
 9946SOL    HW241718   0.575   2.553   3.529
 9947SOL     OW41719   0.399   3.929   4.641
 9947SOL    HW141720   0.436   3.987   4.574
 9947SOL    HW241721   0.305   3.946   4.639
 9948SOL     OW41722   4.231   4.670   2.881
 9948SOL    HW141723   4.227   4.581   2.845
 9948SOL    HW241724   4.181   4.665   2.962
 9949SOL     OW41725   4.447   2.519   7.175
 9949SOL    HW141726   4.469   2.603   7.136
 9949SOL    HW241727   4.452   2.534   7.269
 9950SOL     OW41728   1.308   1.603  18.765
 9950SOL    HW141729   1.345   1.661  18.832
 9950SOL    HW241730   1.264   1.534  18.814
 9951SOL     OW41731   3.786   0.954   1.025
 9951SOL    HW141732   3.736   0.885   0.981
 9951SOL    HW241733   3.721   1.022   1.043
 9952SOL     OW41734   0.068   2.510   4.594
 9952SOL    HW141735   0.062   2.580   4.659
 9952SOL    HW241736   0.010   2.538   4.524
 9953SOL     OW41737   3.326   4.399   1.230
 9953SOL    HW141738   3.363   4.485   1.251
 9953SOL    HW241739   3.300   4.363   1.315
 9954SOL     OW41740   2.015   3.576  17.505
 9954SOL    HW141741   2.087   3.526  17.468
 9954SOL    HW241742   2.034   3.667  17.483
 9955SOL     OW41743   3.693   2.950   1.382
 9955SOL    HW141744   3.743   2.877   1.345
 9955SOL    HW241745   3.740   2.972   1.463
 9956SOL     OW41746   3.794   1.917  13.841
 9956SOL    HW141747   3.841   1.932  13.759
 9956SOL    HW241748   3.759   2.003  13.865
 9957SOL     OW41749   3.102   0.483  18.857
 9957SOL    HW141750   3.196   0.468  18.860
 9957SOL    HW241751   3.085   0.544  18.929
 9958SOL     OW41752   2.776   0.425  19.829
 9958SOL    HW141753   2.723   0.409  19.751
 9958SOL    HW241754   2.717   0.407  19.902
 9959SOL     OW41755   0.178   2.633   5.245
 9959SOL    HW141756   0.209   2.695   5.311
 9959SOL    HW241757   0.208   2.548   5.277
 9960SOL     OW41758   0.167   4.680   1.792
 9960SOL    HW141759   0.125   4.657   1.709
 9960SOL    HW241760   0.112   4.640   1.859
 9961SOL     OW41761   2.012   1.619  17.033
 9961SOL    HW141762   2.067   1.576  16.967
 9961SOL    HW241763   1.977   1.547  17.086
 9962SOL     OW41764   1.546   0.483  16.059
 9962SOL    HW141765   1.603   0.441  16.123
 9962SOL    HW241766   1.503   0.411  16.013
 9963SOL     OW41767   2.026   1.126  19.660
 9963SOL    HW141768   2.050   1.046  19.613
 9963SOL    HW241769   2.007   1.097  19.749
 9964SOL     OW41770   2.408   3.734   2.687
 9964SOL    HW141771   2.357   3.726   2.767
 9964SOL    HW241772   2.386   3.822   2.654
 9965SOL     OW41773   1.766   2.013  14.993
 9965SOL    HW141774   1.788   1.979  14.906
 9965SOL    HW241775   1.671   2.024  14.992
 9966SOL     OW41776   3.555   1.674  17.939
 9966SOL    HW141777   3.565   1.677  18.035
 9966SOL    HW241778   3.644   1.673  17.905
 9967SOL     OW41779   2.276   1.067  19.380
 9967SOL    HW141780   2.297   0.979  19.411
 9967SOL    HW241781   2.309   1.069  19.290
 9968SOL     OW41782   2.077   2.075  14.008
 9968SOL    HW141783   2.071   2.111  13.919
 9968SOL    HW241784   1.986   2.065  14.036
 9969SOL     OW41785   4.138   0.169   4.334
 9969SOL    HW141786   4.233   0.181   4.330
 9969SOL    HW241787   4.114   0.133   4.248
 9970SOL     OW41788   0.306   4.377  20.537
 9970SOL    HW141789   0.293   4.465  20.575
 9970SOL    HW241790   0.265   4.382  20.451
 9971SOL     OW41791   1.196   3.746  20.913
 9971SOL    HW141792   1.257   3.819  20.905
 9971SOL    HW241793   1.162   3.754  21.002
 9972SOL     OW41794   1.894   3.640   8.368
 9972SOL    HW141795   1.887   3.717   8.425
 9972SOL    HW241796   1.970   3.592   8.400
 9973SOL     OW41797   0.308   3.156  20.798
 9973SOL    HW141798   0.376   3.203  20.751
 9973SOL    HW241799   0.315   3.066  20.767
 9974SOL     OW41800   2.812   3.580   0.086
 9974SOL    HW141801   2.797   3.670   0.117
 9974SOL    HW241802   2.846   3.534   0.163
 9975SOL     OW41803   0.357   4.628   5.386
 9975SOL    HW141804   0.379   4.653   5.476
 9975SOL    HW241805   0.320   4.540   5.394
 9976SOL     OW41806   2.659   3.816  19.426
 9976SOL    HW141807   2.681   3.732  19.467
 9976SOL    HW241808   2.715   3.819  19.348
 9977SOL     OW41809   2.133   0.668   2.214
 9977SOL    HW141810   2.081   0.674   2.294
 9977SOL    HW241811   2.093   0.731   2.154
 9978SOL     OW41812   3.132   2.617   1.420
 9978SOL    HW141813   3.040   2.595   1.406
 9978SOL    HW241814   3.135   2.712   1.409
 9979SOL     OW41815   1.491   4.559  17.900
 9979SOL    HW141816   1.500   4.515  17.816
 9979SOL    HW241817   1.557   4.628  17.899
 9980SOL     OW41818   2.555   0.334  19.146
 9980SOL    HW141819   2.526   0.421  19.174
 9980SOL    HW241820   2.651   0.341  19.143
 9981SOL     OW41821   4.717   2.661   0.505
 9981SOL    HW141822   4.741   2.723   0.436
 9981SOL    HW241823   4.643   2.613   0.468
 9982SOL     OW41824   3.705   2.776  17.006
 9982SOL    HW141825   3.680   2.789  17.097
 9982SOL    HW241826   3.785   2.725  17.010
 9983SOL     OW41827   0.785   4.644  17.435
 9983SOL    HW141828   0.782   4.702  17.359
 9983SOL    HW241829   0.763   4.558  17.400
 9984SOL     OW41830   3.192   4.746  18.309
 9984SOL    HW141831   3.187   0.038  18.256
 9984SOL    HW241832   3.207   4.778  18.398
 9985SOL     OW41833   2.134   0.441  14.578
 9985SOL    HW141834   2.089   0.378  14.521
 9985SOL    HW241835   2.118   0.526  14.536
 9986SOL     OW41836   0.176   0.497   2.245
 9986SOL    HW141837   0.263   0.466   2.270
 9986SOL    HW241838   0.155   0.563   2.310
 9987SOL     OW41839   3.463   0.835   1.959
 9987SOL    HW141840   3.551   0.873   1.952
 9987SOL    HW241841   3.479   0.744   1.986
 9988SOL     OW41842   4.202   1.470   0.141
 9988SOL    HW141843   4.198   1.443   0.232
 9988SOL    HW241844   4.274   1.534   0.138
 9989SOL     OW41845   0.789   3.490   0.618
 9989SOL    HW141846   0.843   3.446   0.552
 9989SOL    HW241847   0.839   3.481   0.699
 9990SOL     OW41848   1.987   3.822   8.999
 9990SOL    HW141849   1.952   3.740   9.033
 9990SOL    HW241850   2.077   3.824   9.032
 9991SOL     OW41851   2.214   4.645   1.613
 9991SOL    HW141852   2.163   4.570   1.582
 9991SOL    HW241853   2.222   4.702   1.536
 9992SOL     OW41854   1.442   0.775  19.680
 9992SOL    HW141855   1.485   0.851  19.718
 9992SOL    HW241856   1.436   0.796  19.587
 9993SOL     OW41857   3.465   2.573   1.964
 9993SOL    HW141858   3.444   2.647   2.020
 9993SOL    HW241859   3.462   2.497   2.022
 9994SOL     OW41860   4.616   3.861   1.642
 9994SOL    HW141861   4.655   3.790   1.693
 9994SOL    HW241862   4.584   3.819   1.562
 9995SOL     OW41863   4.679   0.889   9.854
 9995SOL    HW141864   4.730   0.808   9.865
 9995SOL    HW241865   4.618   0.870   9.784
 9996SOL     OW41866   2.668   2.894   9.503
 9996SOL    HW141867   2.752   2.927   9.535
 9996SOL    HW241868   2.619   2.872   9.582
 9997SOL     OW41869   1.064   2.678   9.626
 9997SOL    HW141870   1.148   2.693   9.669
 9997SOL    HW241871   1.087   2.652   9.536
 9998SOL     OW41872   1.269   3.261   9.545
 9998SOL    HW141873   1.202   3.198   9.572
 9998SOL    HW241874   1.323   3.274   9.623
 9999SOL     OW41875   3.381   3.840  16.212
 9999SOL    HW141876   3.393   3.797  16.297
 9999SOL    HW241877   3.464   3.885  16.197
10000SOL     OW41878   2.079   2.776   9.587
10000SOL    HW141879   2.000   2.820   9.619
10000SOL    HW241880   2.149   2.840   9.600
10001SOL     OW41881   1.702   0.558  17.644
10001SOL    HW141882   1.659   0.581  17.726
10001SOL    HW241883   1.630   0.543  17.583
10002SOL     OW41884   2.407   3.744   8.045
10002SOL    HW141885   2.330   3.688   8.059
10002SOL    HW241886   2.464   3.693   7.988
10003SOL     OW41887   2.520   3.226   8.090
10003SOL    HW141888   2.526   3.165   8.016
10003SOL    HW241889   2.610   3.234   8.122
10004SOL     OW41890   3.423   2.903   0.818
10004SOL    HW141891   3.463   2.990   0.811
10004SOL    HW241892   3.401   2.880   0.727
10005SOL     OW41893   2.143   2.492   9.642
10005SOL    HW141894   2.127   2.586   9.631
10005SOL    HW241895   2.234   2.480   9.616
10006SOL     OW41896   2.373   1.900   7.708
10006SOL    HW141897   2.462   1.931   7.722
10006SOL    HW241898   2.320   1.948   7.772
10007SOL     OW41899   1.591   1.989   9.193
10007SOL    HW141900   1.667   1.958   9.242
10007SOL    HW241901   1.628   2.027   9.113
10008SOL     OW41902   1.563   2.929  10.384
10008SOL    HW141903   1.614   2.953  10.462
10008SOL    HW241904   1.619   2.955  10.310
10009SOL     OW41905   2.949   3.297  10.903
10009SOL    HW141906   2.903   3.213  10.904
10009SOL    HW241907   2.884   3.359  10.872
10010SOL     OW41908   1.521   2.677  10.585
10010SOL    HW141909   1.477   2.598  10.616
10010SOL    HW241910   1.471   2.703  10.508
10011SOL     OW41911   2.815   3.064   9.872
10011SOL    HW141912   2.831   3.008   9.947
10011SOL    HW241913   2.870   3.028   9.803
10012SOL     OW41914   1.700   2.454  10.858
10012SOL    HW141915   1.631   2.504  10.900
10012SOL    HW241916   1.709   2.375  10.911
10013SOL     OW41917   1.347   1.622  10.975
10013SOL    HW141918   1.365   1.530  10.993
10013SOL    HW241919   1.432   1.665  10.985
10014SOL     OW41920   2.068   3.773  11.116
10014SOL    HW141921   2.145   3.751  11.064
10014SOL    HW241922   2.096   3.845  11.171
10015SOL     OW41923   2.372   3.506  11.250
10015SOL    HW141924   2.430   3.526  11.177
10015SOL    HW241925   2.425   3.520  11.328
10016SOL     OW41926   4.325   3.222   9.632
10016SOL    HW141927   4.356   3.234   9.542
10016SOL    HW241928   4.282   3.305   9.654
10017SOL     OW41929   2.113   0.586  10.512
10017SOL    HW141930   2.193   0.534  10.512
10017SOL    HW241931   2.130   0.655  10.577
10018SOL     OW41932   1.886   2.227  10.108
10018SOL    HW141933   1.904   2.311  10.068
10018SOL    HW241934   1.927   2.163  10.051
10019SOL     OW41935   0.735   1.643  11.079
10019SOL    HW141936   0.682   1.598  11.014
10019SOL    HW241937   0.811   1.586  11.092
10020SOL     OW41938   3.046   4.035  11.085
10020SOL    HW141939   3.019   4.117  11.126
10020SOL    HW241940   3.124   4.008  11.134
10021SOL     OW41941   2.653   2.798  11.610
10021SOL    HW141942   2.734   2.780  11.658
10021SOL    HW241943   2.633   2.716  11.565
10022SOL     OW41944   2.864   1.589  11.544
10022SOL    HW141945   2.930   1.546  11.490
10022SOL    HW241946   2.795   1.524  11.554
10023SOL     OW41947   3.700   2.855  11.930
10023SOL    HW141948   3.631   2.835  11.867
10023SOL    HW241949   3.707   2.776  11.984
10024SOL     OW41950   2.286   2.209  12.809
10024SOL    HW141951   2.327   2.184  12.726
10024SOL    HW241952   2.206   2.255  12.784
10025SOL     OW41953   3.045   1.692  11.048
10025SOL    HW141954   2.978   1.745  11.004
10025SOL    HW241955   3.100   1.756  11.093
10026SOL     OW41956   2.396   2.209  12.180
10026SOL    HW141957   2.447   2.269  12.127
10026SOL    HW241958   2.307   2.244  12.177
10027SOL     OW41959   2.068   2.548  12.279
10027SOL    HW141960   2.142   2.601  12.250
10027SOL    HW241961   2.099   2.458  12.271
10028SOL     OW41962   2.436   2.859  13.053
10028SOL    HW141963   2.507   2.864  13.117
10028SOL    HW241964   2.360   2.894  13.099
10029SOL     OW41965   1.557   3.202  11.423
10029SOL    HW141966   1.567   3.159  11.338
10029SOL    HW241967   1.588   3.138  11.486
10030SOL     OW41968   2.102   3.502  12.164
10030SOL    HW141969   2.169   3.529  12.225
10030SOL    HW241970   2.118   3.554  12.085
10031SOL     OW41971   2.111   3.261  12.934
10031SOL    HW141972   2.087   3.329  12.871
10031SOL    HW241973   2.134   3.186  12.880
10032SOL     OW41974   3.204   1.979  11.341
10032SOL    HW141975   3.190   1.894  11.381
10032SOL    HW241976   3.203   1.962  11.247
10033SOL     OW41977   2.331   3.690  16.333
10033SOL    HW141978   2.243   3.728  16.342
10033SOL    HW241979   2.357   3.711  16.243
10034SOL     OW41980   0.453   0.287   0.379
10034SOL    HW141981   0.457   0.364   0.322
10034SOL    HW241982   0.419   0.217   0.323
10035SOL     OW41983   2.997   2.648   7.096
10035SOL    HW141984   3.028   2.696   7.019
10035SOL    HW241985   3.075   2.603   7.129
10036SOL     OW41986   3.004   4.322  18.875
10036SOL    HW141987   3.040   4.238  18.850
10036SOL    HW241988   2.964   4.357  18.795
10037SOL     OW41989   2.600   1.929  18.305
10037SOL    HW141990   2.667   1.996  18.313
10037SOL    HW241991   2.613   1.891  18.218
10038SOL     OW41992   4.066   0.656  15.420
10038SOL    HW141993   4.057   0.663  15.325
10038SOL    HW241994   4.150   0.612  15.433
10039SOL     OW41995   4.120   4.703   6.929
10039SOL    HW141996   4.039   4.654   6.944
10039SOL    HW241997   4.090   0.006   6.912
10040SOL     OW41998   3.769   2.053  18.494
10040SOL    HW141999   3.727   2.025  18.412
10040SOL    HW242000   3.829   2.123  18.467
10041SOL     OW42001   0.518   4.543   0.322
10041SOL    HW142002   0.549   4.459   0.356
10041SOL    HW242003   0.428   4.550   0.354
10042SOL     OW42004   4.429   1.241  18.502
10042SOL    HW142005   4.468   1.328  18.508
10042SOL    HW242006   4.415   1.227  18.409
10043SOL     OW42007   3.577   2.972  12.324
10043SOL    HW142008   3.497   2.941  12.282
10043SOL    HW242009   3.585   2.920  12.404
10044SOL     OW42010   2.964   2.656  16.083
10044SOL    HW142011   3.046   2.636  16.037
10044SOL    HW242012   2.933   2.571  16.114
10045SOL     OW42013   2.088   3.963  15.562
10045SOL    HW142014   2.168   3.922  15.594
10045SOL    HW242015   2.017   3.916  15.607
10046SOL     OW42016   3.863   1.544   6.119
10046SOL    HW142017   3.931   1.479   6.103
10046SOL    HW242018   3.803   1.502   6.181
10047SOL     OW42019   1.940   3.483  20.023
10047SOL    HW142020   2.005   3.470  20.093
10047SOL    HW242021   1.869   3.531  20.066
10048SOL     OW42022   0.406   3.779  13.770
10048SOL    HW142023   0.491   3.801  13.809
10048SOL    HW242024   0.360   3.731  13.839
10049SOL     OW42025   4.052   0.922  15.476
10049SOL    HW142026   3.999   0.939  15.554
10049SOL    HW242027   4.040   0.829  15.459
10050SOL     OW42028   3.846   2.093  13.124
10050SOL    HW142029   3.807   2.181  13.119
10050SOL    HW242030   3.780   2.039  13.166
10051SOL     OW42031   2.143   3.292   1.672
10051SOL    HW142032   2.055   3.284   1.635
10051SOL    HW242033   2.191   3.347   1.610
10052SOL     OW42034   1.751   0.917  18.765
10052SOL    HW142035   1.760   0.875  18.680
10052SOL    HW242036   1.767   0.848  18.829
10053SOL     OW42037   4.286   0.522  15.451
10053SOL    HW142038   4.304   0.574  15.529
10053SOL    HW242039   4.367   0.526  15.400
10054SOL     OW42040   3.910   1.400   5.199
10054SOL    HW142041   3.941   1.340   5.131
10054SOL    HW242042   3.870   1.344   5.265
10055SOL     OW42043   3.323   1.595   4.912
10055SOL    HW142044   3.359   1.602   4.824
10055SOL    HW242045   3.376   1.655   4.964
10056SOL     OW42046   2.485   3.887  15.174
10056SOL    HW142047   2.518   3.924  15.092
10056SOL    HW242048   2.555   3.829  15.205
10057SOL     OW42049   2.178   4.192   5.899
10057SOL    HW142050   2.219   4.172   5.814
10057SOL    HW242051   2.219   4.274   5.926
10058SOL     OW42052   4.287   0.968  16.528
10058SOL    HW142053   4.195   0.949  16.509
10058SOL    HW242054   4.285   1.016  16.611
10059SOL     OW42055   3.579   3.809   4.325
10059SOL    HW142056   3.673   3.810   4.343
10059SOL    HW242057   3.572   3.827   4.232
10060SOL     OW42058   0.882   2.469  18.800
10060SOL    HW142059   0.847   2.515  18.724
10060SOL    HW242060   0.892   2.379  18.771
10061SOL     OW42061   3.991   4.031   6.315
10061SOL    HW142062   4.083   4.035   6.343
10061SOL    HW242063   3.978   4.112   6.265
10062SOL     OW42064   3.899   2.924  13.782
10062SOL    HW142065   3.834   2.912  13.712
10062SOL    HW242066   3.949   2.843  13.783
10063SOL     OW42067   2.999   2.757  13.483
10063SOL    HW142068   3.021   2.828  13.543
10063SOL    HW242069   2.988   2.681  13.540
10064SOL     OW42070   4.621   1.718  11.917
10064SOL    HW142071   4.638   1.634  11.959
10064SOL    HW242072   4.527   1.730  11.924
10065SOL     OW42073   3.809   1.269   2.293
10065SOL    HW142074   3.792   1.217   2.215
10065SOL    HW242075   3.883   1.224   2.335
10066SOL     OW42076   4.170   3.270   3.598
10066SOL    HW142077   4.137   3.357   3.622
10066SOL    HW242078   4.162   3.268   3.502
10067SOL     OW42079   0.671   2.540   1.024
10067SOL    HW142080   0.611   2.614   1.036
10067SOL    HW242081   0.725   2.566   0.949
10068SOL     OW42082   0.921   0.596  17.953
10068SOL    HW142083   0.969   0.515  17.970
10068SOL    HW242084   0.922   0.604  17.857
10069SOL     OW42085   1.088   3.020   1.306
10069SOL    HW142086   1.127   3.087   1.362
10069SOL    HW242087   0.994   3.028   1.322
10070SOL     OW42088   2.479   3.113   2.110
10070SOL    HW142089   2.393   3.072   2.098
10070SOL    HW242090   2.518   3.065   2.183
10071SOL     OW42091   1.837   2.093  14.118
10071SOL    HW142092   1.828   2.154  14.191
10071SOL    HW242093   1.748   2.063  14.101
10072SOL     OW42094   3.025   4.469  21.028
10072SOL    HW142095   3.024   4.395  20.968
10072SOL    HW242096   3.102   4.455  21.083
10073SOL     OW42097   1.958   1.638  18.487
10073SOL    HW142098   1.913   1.662  18.406
10073SOL    HW242099   2.051   1.639  18.464
10074SOL     OW42100   4.177   4.696   1.208
10074SOL    HW142101   4.205   0.000   1.208
10074SOL    HW242102   4.208   4.661   1.292
10075SOL     OW42103   0.088   4.066  18.143
10075SOL    HW142104   0.019   4.125  18.173
10075SOL    HW242105   0.146   4.057  18.219
10076SOL     OW42106   2.541   4.542  13.454
10076SOL    HW142107   2.606   4.576  13.516
10076SOL    HW242108   2.594   4.504  13.383
10077SOL     OW42109   0.866   4.701   5.917
10077SOL    HW142110   0.807   4.627   5.929
10077SOL    HW242111   0.919   4.703   5.996
10078SOL     OW42112   2.077   4.764   6.557
10078SOL    HW142113   2.157   4.787   6.605
10078SOL    HW242114   2.094   0.004   6.467
10079SOL     OW42115   0.592   4.331  20.648
10079SOL    HW142116   0.508   4.323  20.604
10079SOL    HW242117   0.578   4.290  20.734
10080SOL     OW42118   1.266   1.705   4.632
10080SOL    HW142119   1.211   1.627   4.623
10080SOL    HW242120   1.306   1.695   4.718
10081SOL     OW42121   2.496   3.203   1.525
10081SOL    HW142122   2.485   3.298   1.534
10081SOL    HW242123   2.476   3.185   1.433
10082SOL     OW42124   1.966   1.751   1.313
10082SOL    HW142125   1.967   1.838   1.352
10082SOL    HW242126   2.059   1.732   1.296
10083SOL     OW42127   1.036   1.070   3.305
10083SOL    HW142128   0.980   1.107   3.237
10083SOL    HW242129   1.000   0.983   3.321
10084SOL     OW42130   4.660   1.986  19.055
10084SOL    HW142131   4.703   1.907  19.088
10084SOL    HW242132   4.729   2.034  19.011
10085SOL     OW42133   0.818   3.163  17.151
10085SOL    HW142134   0.912   3.152  17.134
10085SOL    HW242135   0.782   3.075  17.142
10086SOL     OW42136   0.044   3.179  20.429
10086SOL    HW142137   0.031   3.085  20.426
10086SOL    HW242138   0.092   3.200  20.349
10087SOL     OW42139   3.650   4.428  11.727
10087SOL    HW142140   3.645   4.489  11.653
10087SOL    HW242141   3.674   4.482  11.802
10088SOL     OW42142   0.843   1.643   0.307
10088SOL    HW142143   0.878   1.555   0.295
10088SOL    HW242144   0.903   1.684   0.370
10089SOL     OW42145   4.335   1.169   5.660
10089SOL    HW142146   4.373   1.083   5.676
10089SOL    HW242147   4.381   1.227   5.721
10090SOL     OW42148   3.386   1.167  16.032
10090SOL    HW142149   3.426   1.199  15.952
10090SOL    HW242150   3.329   1.096  16.003
10091SOL     OW42151   2.166   4.564  15.861
10091SOL    HW142152   2.167   4.583  15.767
10091SOL    HW242153   2.161   4.468  15.866
10092SOL     OW42154   2.277   0.259  19.227
10092SOL    HW142155   2.273   0.238  19.320
10092SOL    HW242156   2.364   0.296  19.214
10093SOL     OW42157   1.356   4.758   5.910
10093SOL    HW142158   1.309   4.731   5.988
10093SOL    HW242159   1.300   4.730   5.837
10094SOL     OW42160   0.351   4.048  21.039
10094SOL    HW142161   0.348   3.953  21.022
10094SOL    HW242162   0.371   4.055  21.132
10095SOL     OW42163   1.652   1.924   2.525
10095SOL    HW142164   1.567   1.939   2.566
10095SOL    HW242165   1.708   1.892   2.597
10096SOL     OW42166   4.242   0.937  13.363
10096SOL    HW142167   4.233   0.991  13.284
10096SOL    HW242168   4.333   0.908  13.362
10097SOL     OW42169   2.995   1.980   4.007
10097SOL    HW142170   2.913   2.014   3.969
10097SOL    HW242171   2.971   1.949   4.094
10098SOL     OW42172   2.531   1.170  14.988
10098SOL    HW142173   2.569   1.253  15.015
10098SOL    HW242174   2.596   1.133  14.927
10099SOL     OW42175   1.781   2.432  20.157
10099SOL    HW142176   1.711   2.492  20.182
10099SOL    HW242177   1.843   2.486  20.107
10100SOL     OW42178   2.347   2.581   5.647
10100SOL    HW142179   2.409   2.609   5.580
10100SOL    HW242180   2.267   2.630   5.628
10101SOL     OW42181   3.996   1.977   2.967
10101SOL    HW142182   3.994   1.954   2.874
10101SOL    HW242183   3.963   1.900   3.012
10102SOL     OW42184   2.821   1.276  17.573
10102SOL    HW142185   2.773   1.324  17.506
10102SOL    HW242186   2.754   1.244  17.633
10103SOL     OW42187   1.922   1.400  18.579
10103SOL    HW142188   1.966   1.417  18.662
10103SOL    HW242189   1.901   1.487  18.545
10104SOL     OW42190   3.611   2.970  17.793
10104SOL    HW142191   3.633   2.907  17.725
10104SOL    HW242192   3.521   2.948  17.818
10105SOL     OW42193   3.028   3.108   7.688
10105SOL    HW142194   3.102   3.164   7.711
10105SOL    HW242195   3.065   3.020   7.681
10106SOL     OW42196   4.646   3.704   1.240
10106SOL    HW142197   4.685   3.668   1.160
10106SOL    HW242198   4.720   3.717   1.299
10107SOL     OW42199   2.163   0.927  20.084
10107SOL    HW142200   2.212   1.009  20.081
10107SOL    HW242201   2.148   0.911  20.177
10108SOL     OW42202   2.237   2.594  19.919
10108SOL    HW142203   2.204   2.546  19.843
10108SOL    HW242204   2.331   2.604  19.902
10109SOL     OW42205   2.924   2.240  17.110
10109SOL    HW142206   2.857   2.308  17.118
10109SOL    HW242207   2.887   2.164  17.155
10110SOL     OW42208   4.131   1.664  12.433
10110SOL    HW142209   4.055   1.607  12.437
10110SOL    HW242210   4.136   1.703  12.520
10111SOL     OW42211   1.274   1.305  18.330
10111SOL    HW142212   1.179   1.309  18.334
10111SOL    HW242213   1.303   1.394  18.351
10112SOL     OW42214   2.130   3.282  19.522
10112SOL    HW142215   2.120   3.375  19.500
10112SOL    HW242216   2.074   3.236  19.460
10113SOL     OW42217   3.573   2.351   3.018
10113SOL    HW142218   3.620   2.434   3.022
10113SOL    HW242219   3.614   2.297   3.086
10114SOL     OW42220   4.690   4.348   5.286
10114SOL    HW142221   4.726   4.437   5.281
10114SOL    HW242222   4.764   4.291   5.267
10115SOL     OW42223   1.733   4.762   0.363
10115SOL    HW142224   1.675   4.729   0.433
10115SOL    HW242225   1.783   4.685   0.336
10116SOL     OW42226   1.907   1.586  20.488
10116SOL    HW142227   1.905   1.659  20.426
10116SOL    HW242228   1.966   1.522  20.447
10117SOL     OW42229   4.380   0.226  15.200
10117SOL    HW142230   4.451   0.220  15.136
10117SOL    HW242231   4.326   0.298  15.168
10118SOL     OW42232   1.298   0.497   5.561
10118SOL    HW142233   1.338   0.536   5.638
10118SOL    HW242234   1.364   0.436   5.527
10119SOL     OW42235   1.543   2.206   3.367
10119SOL    HW142236   1.454   2.220   3.335
10119SOL    HW242237   1.568   2.120   3.333
10120SOL     OW42238   0.461   3.819   2.740
10120SOL    HW142239   0.456   3.791   2.648
10120SOL    HW242240   0.551   3.851   2.749
10121SOL     OW42241   2.883   0.996  19.855
10121SOL    HW142242   2.818   0.928  19.870
10121SOL    HW242243   2.880   1.013  19.761
10122SOL     OW42244   3.025   0.107   5.763
10122SOL    HW142245   2.967   0.045   5.808
10122SOL    HW242246   2.965   0.174   5.728
10123SOL     OW42247   0.340   4.062  13.814
10123SOL    HW142248   0.430   4.094  13.820
10123SOL    HW242249   0.348   3.967  13.819
10124SOL     OW42250   3.519   2.457  16.277
10124SOL    HW142251   3.562   2.387  16.326
10124SOL    HW242252   3.560   2.537  16.311
10125SOL     OW42253   0.138   0.578  20.202
10125SOL    HW142254   0.086   0.640  20.153
10125SOL    HW242255   0.091   0.566  20.284
10126SOL     OW42256   3.056   1.711   5.410
10126SOL    HW142257   2.965   1.714   5.437
10126SOL    HW242258   3.067   1.625   5.369
10127SOL     OW42259   4.467   4.120   6.684
10127SOL    HW142260   4.412   4.107   6.761
10127SOL    HW242261   4.434   4.201   6.645
10128SOL     OW42262   4.136   1.533  21.088
10128SOL    HW142263   4.210   1.510  21.145
10128SOL    HW242264   4.159   1.495  21.003
10129SOL     OW42265   3.697   3.500   8.756
10129SOL    HW142266   3.669   3.503   8.848
10129SOL    HW242267   3.695   3.591   8.727
10130SOL     OW42268   0.912   0.138   2.262
10130SOL    HW142269   0.892   0.045   2.253
10130SOL    HW242270   0.908   0.172   2.172
10131SOL     OW42271   4.159   4.418   5.122
10131SOL    HW142272   4.153   4.416   5.026
10131SOL    HW242273   4.253   4.414   5.140
10132SOL     OW42274   4.712   3.534   3.550
10132SOL    HW142275   4.651   3.505   3.482
10132SOL    HW242276   4.661   3.532   3.631
10133SOL     OW42277   2.111   1.865   3.976
10133SOL    HW142278   2.080   1.793   3.921
10133SOL    HW242279   2.065   1.942   3.943
10134SOL     OW42280   4.756   4.512   2.841
10134SOL    HW142281   0.036   4.444   2.839
10134SOL    HW242282   4.730   4.524   2.749
10135SOL     OW42283   1.981   0.810   5.865
10135SOL    HW142284   1.979   0.734   5.923
10135SOL    HW242285   2.003   0.773   5.779
10136SOL     OW42286   1.633   3.221   1.000
10136SOL    HW142287   1.672   3.134   1.011
10136SOL    HW242288   1.542   3.209   1.024
10137SOL     OW42289   3.956   1.744  21.043
10137SOL    HW142290   4.021   1.674  21.049
10137SOL    HW242291   4.004   1.820  21.012
10138SOL     OW42292   3.961   1.277  16.983
10138SOL    HW142293   3.891   1.329  17.022
10138SOL    HW242294   3.983   1.213  17.051
10139SOL     OW42295   4.289   2.556   0.174
10139SOL    HW142296   4.256   2.601   0.252
10139SOL    HW242297   4.340   2.483   0.208
10140SOL     OW42298   1.602   1.870   7.000
10140SOL    HW142299   1.664   1.806   7.035
10140SOL    HW242300   1.518   1.824   7.000
10141SOL     OW42301   4.783   1.638   4.758
10141SOL    HW142302   4.746   1.711   4.808
10141SOL    HW242303   0.021   1.574   4.825
10142SOL     OW42304   3.876   4.281  20.155
10142SOL    HW142305   3.784   4.302  20.138
10142SOL    HW242306   3.881   4.186  20.143
10143SOL     OW42307   2.925   1.706   6.013
10143SOL    HW142308   2.846   1.676   5.969
10143SOL    HW242309   2.990   1.639   5.994
10144SOL     OW42310   3.543   1.856  12.550
10144SOL    HW142311   3.501   1.883  12.468
10144SOL    HW242312   3.623   1.810  12.522
10145SOL     OW42313   4.674   1.088  13.833
10145SOL    HW142314   4.695   1.083  13.927
10145SOL    HW242315   4.740   1.147  13.797
10146SOL     OW42316   3.592   2.977  16.014
10146SOL    HW142317   3.653   3.032  15.965
10146SOL    HW242318   3.516   3.032  16.029
10147SOL     OW42319   2.446   1.564   1.549
10147SOL    HW142320   2.389   1.502   1.596
10147SOL    HW242321   2.424   1.550   1.457
10148SOL     OW42322   1.778   2.966  15.744
10148SOL    HW142323   1.827   3.013  15.811
10148SOL    HW242324   1.748   3.033  15.683
10149SOL     OW42325   3.480   2.092   2.993
10149SOL    HW142326   3.513   2.180   3.009
10149SOL    HW242327   3.385   2.103   2.990
10150SOL     OW42328   2.036   4.184  13.582
10150SOL    HW142329   1.964   4.238  13.614
10150SOL    HW242330   2.092   4.245  13.533
10151SOL     OW42331   2.522   3.430   6.410
10151SOL    HW142332   2.508   3.492   6.339
10151SOL    HW242333   2.466   3.462   6.481
10152SOL     OW42334   1.603   0.071   1.171
10152SOL    HW142335   1.606   0.167   1.170
10152SOL    HW242336   1.649   0.047   1.252
10153SOL     OW42337   0.136   3.642   6.797
10153SOL    HW142338   0.120   3.655   6.890
10153SOL    HW242339   0.055   3.601   6.765
10154SOL     OW42340   4.645   1.311  21.092
10154SOL    HW142341   4.732   1.271  21.100
10154SOL    HW242342   4.654   1.398  21.132
10155SOL     OW42343   3.902   4.395   4.873
10155SOL    HW142344   3.877   4.317   4.923
10155SOL    HW242345   3.921   4.362   4.785
10156SOL     OW42346   3.831   3.056  18.219
10156SOL    HW142347   3.761   2.999  18.251
10156SOL    HW242348   3.875   3.087  18.298
10157SOL     OW42349   0.182   4.548  19.607
10157SOL    HW142350   0.180   4.566  19.513
10157SOL    HW242351   0.265   4.584  19.637
10158SOL     OW42352   2.767   2.873   4.846
10158SOL    HW142353   2.707   2.886   4.919
10158SOL    HW242354   2.736   2.793   4.803
10159SOL     OW42355   1.312   2.732   0.543
10159SOL    HW142356   1.237   2.771   0.498
10159SOL    HW242357   1.322   2.646   0.502
10160SOL     OW42358   3.262   4.069  15.671
10160SOL    HW142359   3.262   4.132  15.599
10160SOL    HW242360   3.201   4.106  15.735
10161SOL     OW42361   1.616   4.451   5.895
10161SOL    HW142362   1.560   4.375   5.880
10161SOL    HW242363   1.659   4.433   5.979
10162SOL     OW42364   0.396   0.098   0.207
10162SOL    HW142365   0.382   0.070   0.116
10162SOL    HW242366   0.487   0.074   0.225
10163SOL     OW42367   4.308   2.631   5.257
10163SOL    HW142368   4.358   2.558   5.222
10163SOL    HW242369   4.370   2.704   5.258
10164SOL     OW42370   0.846   2.378  15.137
10164SOL    HW142371   0.905   2.363  15.211
10164SOL    HW242372   0.818   2.290  15.111
10165SOL     OW42373   2.443   2.906  20.218
10165SOL    HW142374   2.454   2.812  20.230
10165SOL    HW242375   2.386   2.933  20.290
10166SOL     OW42376   1.852   0.383  16.628
10166SOL    HW142377   1.847   0.377  16.723
10166SOL    HW242378   1.946   0.384  16.609
10167SOL     OW42379   0.825   4.510   3.215
10167SOL    HW142380   0.829   4.571   3.141
10167SOL    HW242381   0.862   4.428   3.180
10168SOL     OW42382   3.736   1.803   3.496
10168SOL    HW142383   3.656   1.778   3.543
10168SOL    HW242384   3.706   1.826   3.408
10169SOL     OW42385   4.454   3.004  20.769
10169SOL    HW142386   4.501   3.075  20.725
10169SOL    HW242387   4.362   3.023  20.754
10170SOL     OW42388   2.507   1.644   7.625
10170SOL    HW142389   2.465   1.725   7.654
10170SOL    HW242390   2.490   1.581   7.695
10171SOL     OW42391   2.257   3.222  14.986
10171SOL    HW142392   2.203   3.300  14.975
10171SOL    HW242393   2.200   3.159  15.031
10172SOL     OW42394   2.722   3.071   8.209
10172SOL    HW142395   2.817   3.066   8.196
10172SOL    HW242396   2.690   2.985   8.180
10173SOL     OW42397   3.085   2.515  20.966
10173SOL    HW142398   3.027   2.463  21.021
10173SOL    HW242399   3.169   2.469  20.969
10174SOL     OW42400   1.139   3.312  14.114
10174SOL    HW142401   1.104   3.356  14.036
10174SOL    HW242402   1.073   3.327  14.181
10175SOL     OW42403   3.863   2.630   3.432
10175SOL    HW142404   3.824   2.547   3.459
10175SOL    HW242405   3.914   2.659   3.509
10176SOL     OW42406   2.659   0.849  19.906
10176SOL    HW142407   2.606   0.857  19.985
10176SOL    HW242408   2.617   0.907  19.843
10177SOL     OW42409   1.870   4.406  20.216
10177SOL    HW142410   1.963   4.401  20.193
10177SOL    HW242411   1.860   4.492  20.257
10178SOL     OW42412   0.336   0.024  15.174
10178SOL    HW142413   0.294   4.741  15.224
10178SOL    HW242414   0.363   0.088  15.240
10179SOL     OW42415   4.089   2.827   3.838
10179SOL    HW142416   4.009   2.795   3.880
10179SOL    HW242417   4.064   2.911   3.801
10180SOL     OW42418   4.552   2.294  19.267
10180SOL    HW142419   4.613   2.220  19.257
10180SOL    HW242420   4.470   2.262  19.228
10181SOL     OW42421   3.742   4.278   0.124
10181SOL    HW142422   3.794   4.335   0.067
10181SOL    HW242423   3.671   4.335   0.155
10182SOL     OW42424   4.246   3.688   6.246
10182SOL    HW142425   4.321   3.730   6.204
10182SOL    HW242426   4.185   3.670   6.175
10183SOL     OW42427   2.869   0.330   6.486
10183SOL    HW142428   2.918   0.281   6.419
10183SOL    HW242429   2.785   0.350   6.444
10184SOL     OW42430   1.169   2.732   5.689
10184SOL    HW142431   1.184   2.803   5.628
10184SOL    HW242432   1.084   2.751   5.728
10185SOL     OW42433   1.849   3.800   4.654
10185SOL    HW142434   1.795   3.820   4.731
10185SOL    HW242435   1.786   3.773   4.587
10186SOL     OW42436   2.964   2.600  14.773
10186SOL    HW142437   2.984   2.571  14.863
10186SOL    HW242438   3.044   2.645  14.745
10187SOL     OW42439   1.572   4.423  20.473
10187SOL    HW142440   1.584   4.517  20.469
10187SOL    HW242441   1.588   4.392  20.384
10188SOL     OW42442   4.662   1.582  15.958
10188SOL    HW142443   4.691   1.495  15.930
10188SOL    HW242444   4.602   1.610  15.889
10189SOL     OW42445   3.053   1.015  18.761
10189SOL    HW142446   3.139   1.057  18.759
10189SOL    HW242447   3.002   1.068  18.824
10190SOL     OW42448   4.671   3.483  18.611
10190SOL    HW142449   4.618   3.403  18.624
10190SOL    HW242450   4.613   3.554  18.638
10191SOL     OW42451   1.814   3.873   1.186
10191SOL    HW142452   1.810   3.853   1.280
10191SOL    HW242453   1.725   3.857   1.155
10192SOL     OW42454   1.903   1.539  15.078
10192SOL    HW142455   1.878   1.505  15.163
10192SOL    HW242456   1.844   1.497  15.016
10193SOL     OW42457   1.437   3.795  20.225
10193SOL    HW142458   1.345   3.818  20.230
10193SOL    HW242459   1.467   3.795  20.316
10194SOL     OW42460   3.239   0.208   6.133
10194SOL    HW142461   3.205   0.265   6.064
10194SOL    HW242462   3.331   0.197   6.112
10195SOL     OW42463   2.137   2.134  20.195
10195SOL    HW142464   2.111   2.219  20.231
10195SOL    HW242465   2.178   2.156  20.111
10196SOL     OW42466   4.711   4.013   6.789
10196SOL    HW142467   4.725   4.078   6.858
10196SOL    HW242468   4.636   4.047   6.740
10197SOL     OW42469   3.661   2.298  12.993
10197SOL    HW142470   3.587   2.238  13.002
10197SOL    HW242471   3.706   2.269  12.913
10198SOL     OW42472   2.608   2.423  19.099
10198SOL    HW142473   2.602   2.328  19.084
10198SOL    HW242474   2.652   2.457  19.021
10199SOL     OW42475   1.828   3.568   6.311
10199SOL    HW142476   1.872   3.528   6.236
10199SOL    HW242477   1.881   3.542   6.386
10200SOL     OW42478   0.830   2.193   0.238
10200SOL    HW142479   0.797   2.141   0.312
10200SOL    HW242480   0.911   2.149   0.213
10201SOL     OW42481   2.439   0.559  17.240
10201SOL    HW142482   2.422   0.467  17.258
10201SOL    HW242483   2.408   0.605  17.318
10202SOL     OW42484   3.796   0.256   1.231
10202SOL    HW142485   3.833   0.343   1.247
10202SOL    HW242486   3.743   0.267   1.151
10203SOL     OW42487   3.877   3.239  20.960
10203SOL    HW142488   3.872   3.181  21.037
10203SOL    HW242489   3.791   3.279  20.955
10204SOL     OW42490   0.108   1.695  11.831
10204SOL    HW142491   0.020   1.670  11.801
10204SOL    HW242492   0.096   1.721  11.922
10205SOL     OW42493   0.662   3.287  15.853
10205SOL    HW142494   0.674   3.299  15.759
10205SOL    HW242495   0.580   3.238  15.861
10206SOL     OW42496   2.651   2.999  20.616
10206SOL    HW142497   2.598   2.925  20.585
10206SOL    HW242498   2.588   3.070  20.627
10207SOL     OW42499   1.453   2.553   0.867
10207SOL    HW142500   1.412   2.640   0.865
10207SOL    HW242501   1.541   2.567   0.834
10208SOL     OW42502   2.769   4.623   4.668
10208SOL    HW142503   2.740   4.532   4.675
10208SOL    HW242504   2.837   4.631   4.736
10209SOL     OW42505   1.546   3.209  19.271
10209SOL    HW142506   1.601   3.287  19.278
10209SOL    HW242507   1.597   3.140  19.314
10210SOL     OW42508   4.659   1.979   4.698
10210SOL    HW142509   4.628   2.068   4.683
10210SOL    HW242510   4.721   1.987   4.771
10211SOL     OW42511   2.494   0.557  19.796
10211SOL    HW142512   2.543   0.613  19.856
10211SOL    HW242513   2.409   0.600  19.788
10212SOL     OW42514   1.580   2.559  18.875
10212SOL    HW142515   1.617   2.626  18.819
10212SOL    HW242516   1.652   2.498  18.890
10213SOL     OW42517   2.365   2.992  19.966
10213SOL    HW142518   2.277   2.961  19.987
10213SOL    HW242519   2.415   2.981  20.047
10214SOL     OW42520   2.871   0.820   2.653
10214SOL    HW142521   2.872   0.766   2.574
10214SOL    HW242522   2.963   0.842   2.669
10215SOL     OW42523   3.804   0.736  20.070
10215SOL    HW142524   3.786   0.670  20.136
10215SOL    HW242525   3.738   0.804  20.084
10216SOL     OW42526   0.692   1.807   6.880
10216SOL    HW142527   0.685   1.712   6.878
10216SOL    HW242528   0.613   1.836   6.926
10217SOL     OW42529   3.856   3.342   3.904
10217SOL    HW142530   3.899   3.348   3.819
10217SOL    HW242531   3.801   3.420   3.909
10218SOL     OW42532   1.326   1.989  14.179
10218SOL    HW142533   1.234   2.000  14.155
10218SOL    HW242534   1.325   1.920  14.246
10219SOL     OW42535   4.657   3.334  16.404
10219SOL    HW142536   4.685   3.244  16.418
10219SOL    HW242537   4.596   3.329  16.330
10220SOL     OW42538   1.917   3.290   2.012
10220SOL    HW142539   1.863   3.276   2.089
10220SOL    HW242540   1.881   3.369   1.971
10221SOL     OW42541   0.726   0.215  21.215
10221SOL    HW142542   0.649   0.270  21.202
10221SOL    HW242543   0.705   0.161   0.047
10222SOL     OW42544   4.656   4.784   1.847
10222SOL    HW142545   4.727   0.008   1.784
10222SOL    HW242546   4.577   4.775   1.794
10223SOL     OW42547   3.854   3.172   0.315
10223SOL    HW142548   3.932   3.177   0.259
10223SOL    HW242549   3.886   3.193   0.403
10224SOL     OW42550   4.126   2.730   1.145
10224SOL    HW142551   4.154   2.639   1.135
10224SOL    HW242552   4.163   2.757   1.229
10225SOL     OW42553   1.665   4.063   0.551
10225SOL    HW142554   1.702   4.151   0.550
10225SOL    HW242555   1.713   4.016   0.483
10226SOL     OW42556   1.232   0.921   0.366
10226SOL    HW142557   1.313   0.959   0.399
10226SOL    HW242558   1.256   0.832   0.338
10227SOL     OW42559   0.442   2.739  19.502
10227SOL    HW142560   0.445   2.647  19.476
10227SOL    HW242561   0.366   2.774  19.456
10228SOL     OW42562   3.736   0.592  11.326
10228SOL    HW142563   3.655   0.639  11.304
10228SOL    HW242564   3.776   0.645  11.395
10229SOL     OW42565   0.564   0.514  19.281
10229SOL    HW142566   0.529   0.425  19.280
10229SOL    HW242567   0.499   0.566  19.329
10230SOL     OW42568   3.240   0.791  21.206
10230SOL    HW142569   3.324   0.747  21.191
10230SOL    HW242570   3.243   0.868  21.150
10231SOL     OW42571   3.700   3.786  20.433
10231SOL    HW142572   3.731   3.698  20.456
10231SOL    HW242573   3.693   3.784  20.338
10232SOL     OW42574   4.394   1.654   0.140
10232SOL    HW142575   4.423   1.715   0.208
10232SOL    HW242576   4.422   1.695   0.058
10233SOL     OW42577   1.991   1.854  18.110
10233SOL    HW142578   1.975   1.908  18.033
10233SOL    HW242579   2.058   1.791  18.082
10234SOL     OW42580   3.190   0.884  16.559
10234SOL    HW142581   3.260   0.923  16.611
10234SOL    HW242582   3.109   0.919  16.597
10235SOL     OW42583   0.164   4.047   3.587
10235SOL    HW142584   0.228   3.990   3.547
10235SOL    HW242585   0.172   4.030   3.681
10236SOL     OW42586   3.218   4.366  11.520
10236SOL    HW142587   3.159   4.291  11.512
10236SOL    HW242588   3.295   4.332  11.565
10237SOL     OW42589   1.612   3.496  18.350
10237SOL    HW142590   1.701   3.462  18.339
10237SOL    HW242591   1.595   3.492  18.444
10238SOL     OW42592   2.577   2.393   6.588
10238SOL    HW142593   2.508   2.327   6.599
10238SOL    HW242594   2.653   2.355   6.632
10239SOL     OW42595   4.234   0.750   0.112
10239SOL    HW142596   4.232   0.844   0.091
10239SOL    HW242597   4.323   0.722   0.089
10240SOL     OW42598   1.807   2.311  12.589
10240SOL    HW142599   1.750   2.341  12.518
10240SOL    HW242600   1.778   2.221  12.606
10241SOL     OW42601   0.785   3.256   6.009
10241SOL    HW142602   0.813   3.179   6.057
10241SOL    HW242603   0.786   3.230   5.917
10242SOL     OW42604   4.208   4.584   0.691
10242SOL    HW142605   4.206   4.651   0.760
10242SOL    HW242606   4.145   4.518   0.720
10243SOL     OW42607   3.164   2.280   3.360
10243SOL    HW142608   3.239   2.287   3.301
10243SOL    HW242609   3.096   2.239   3.306
10244SOL     OW42610   4.639   2.830  20.613
10244SOL    HW142611   4.621   2.769  20.685
10244SOL    HW242612   4.556   2.876  20.600
10245SOL     OW42613   4.175   1.349   8.258
10245SOL    HW142614   4.163   1.314   8.346
10245SOL    HW242615   4.243   1.416   8.268
10246SOL     OW42616   0.750   2.156  19.978
10246SOL    HW142617   0.734   2.130  20.068
10246SOL    HW242618   0.697   2.096  19.926
10247SOL     OW42619   3.747   1.186  16.177
10247SOL    HW142620   3.758   1.281  16.170
10247SOL    HW242621   3.752   1.155  16.086
10248SOL     OW42622   0.501   2.973  15.733
10248SOL    HW142623   0.545   3.030  15.670
10248SOL    HW242624   0.450   2.912  15.680
10249SOL     OW42625   0.657   2.572  17.991
10249SOL    HW142626   0.689   2.555  17.903
10249SOL    HW242627   0.698   2.655  18.016
10250SOL     OW42628   1.636   2.906  16.778
10250SOL    HW142629   1.615   2.981  16.722
10250SOL    HW242630   1.552   2.864  16.795
10251SOL     OW42631   4.535   4.168  19.736
10251SOL    HW142632   4.603   4.104  19.758
10251SOL    HW242633   4.580   4.253  19.740
10252SOL     OW42634   4.678   0.467   2.187
10252SOL    HW142635   4.773   0.479   2.178
10252SOL    HW242636   4.668   0.375   2.210
10253SOL     OW42637   2.384   0.749  17.428
10253SOL    HW142638   2.329   0.813  17.383
10253SOL    HW242639   2.434   0.800  17.491
10254SOL     OW42640   2.933   0.413   1.307
10254SOL    HW142641   2.933   0.320   1.284
10254SOL    HW242642   3.025   0.433   1.324
10255SOL     OW42643   3.485   1.783   5.582
10255SOL    HW142644   3.405   1.812   5.538
10255SOL    HW242645   3.521   1.717   5.523
10256SOL     OW42646   4.581   4.558   6.607
10256SOL    HW142647   4.504   4.540   6.661
10256SOL    HW242648   4.581   4.653   6.596
10257SOL     OW42649   4.775   1.467   4.285
10257SOL    HW142650   4.756   1.471   4.379
10257SOL    HW242651   0.031   1.382   4.273
10258SOL     OW42652   2.648   4.754  20.012
10258SOL    HW142653   2.572   0.023  20.029
10258SOL    HW242654   2.695   0.012  19.941
10259SOL     OW42655   0.536   2.570   2.995
10259SOL    HW142656   0.539   2.539   2.905
10259SOL    HW242657   0.627   2.582   3.021
10260SOL     OW42658   0.690   2.142  16.931
10260SOL    HW142659   0.646   2.087  16.996
10260SOL    HW242660   0.689   2.230  16.971
10261SOL     OW42661   2.512   0.726   5.144
10261SOL    HW142662   2.478   0.750   5.230
10261SOL    HW242663   2.443   0.671   5.106
10262SOL     OW42664   4.397   0.501  18.294
10262SOL    HW142665   4.472   0.554  18.268
10262SOL    HW242666   4.387   0.517  18.388
10263SOL     OW42667   3.729   0.346   3.212
10263SOL    HW142668   3.768   0.397   3.140
10263SOL    HW242669   3.691   0.412   3.270
10264SOL     OW42670   2.444   4.442   0.445
10264SOL    HW142671   2.465   4.384   0.518
10264SOL    HW242672   2.500   4.518   0.457
10265SOL     OW42673   1.862   0.307   1.172
10265SOL    HW142674   1.841   0.359   1.250
10265SOL    HW242675   1.891   0.371   1.107
10266SOL     OW42676   3.219   4.007  17.919
10266SOL    HW142677   3.189   3.980  18.005
10266SOL    HW242678   3.286   4.073  17.936
10267SOL     OW42679   3.477   4.385  13.635
10267SOL    HW142680   3.467   4.290  13.645
10267SOL    HW242681   3.389   4.419  13.645
10268SOL     OW42682   3.186   2.745  21.033
10268SOL    HW142683   3.155   2.658  21.008
10268SOL    HW242684   3.213   2.735  21.125
10269SOL     OW42685   3.446   0.174   2.243
10269SOL    HW142686   3.482   0.103   2.297
10269SOL    HW242687   3.438   0.248   2.304
10270SOL     OW42688   3.317   3.246  16.890
10270SOL    HW142689   3.400   3.255  16.843
10270SOL    HW242690   3.260   3.200  16.829
10271SOL     OW42691   1.433   1.887  16.283
10271SOL    HW142692   1.403   1.976  16.267
10271SOL    HW242693   1.526   1.888  16.260
10272SOL     OW42694   0.558   4.719   1.303
10272SOL    HW142695   0.553   4.625   1.282
10272SOL    HW242696   0.559   4.722   1.399
10273SOL     OW42697   1.424   4.030   1.762
10273SOL    HW142698   1.476   3.967   1.712
10273SOL    HW242699   1.378   3.977   1.827
10274SOL     OW42700   2.887   3.260  20.478
10274SOL    HW142701   2.925   3.244  20.565
10274SOL    HW242702   2.793   3.271  20.495
10275SOL     OW42703   4.062   1.723   4.878
10275SOL    HW142704   4.048   1.747   4.786
10275SOL    HW242705   3.986   1.670   4.900
10276SOL     OW42706   1.911   3.376  15.584
10276SOL    HW142707   1.923   3.415  15.497
10276SOL    HW242708   1.842   3.311  15.571
10277SOL     OW42709   4.542   2.575   1.296
10277SOL    HW142710   4.499   2.490   1.299
10277SOL    HW242711   4.535   2.602   1.205
10278SOL     OW42712   1.150   3.602  13.096
10278SOL    HW142713   1.070   3.653  13.108
10278SOL    HW242714   1.140   3.560  13.011
10279SOL     OW42715   2.926   0.889  20.159
10279SOL    HW142716   2.992   0.911  20.224
10279SOL    HW242717   2.862   0.959  20.165
10280SOL     OW42718   3.975   0.831  16.937
10280SOL    HW142719   4.044   0.824  16.870
10280SOL    HW242720   3.910   0.890  16.898
10281SOL     OW42721   3.676   1.469   3.598
10281SOL    HW142722   3.646   1.390   3.643
10281SOL    HW242723   3.758   1.491   3.640
10282SOL     OW42724   3.934   2.610  19.995
10282SOL    HW142725   3.964   2.698  19.975
10282SOL    HW242726   3.958   2.558  19.918
10283SOL     OW42727   0.042   2.855  20.041
10283SOL    HW142728   0.015   2.779  19.989
10283SOL    HW242729   0.137   2.851  20.042
10284SOL     OW42730   1.355   1.046  16.115
10284SOL    HW142731   1.372   1.140  16.102
10284SOL    HW242732   1.382   1.029  16.205
10285SOL     OW42733   1.928   1.184  12.909
10285SOL    HW142734   1.954   1.199  12.818
10285SOL    HW242735   1.884   1.265  12.935
10286SOL     OW42736   1.630   2.729  20.980
10286SOL    HW142737   1.640   2.693  20.892
10286SOL    HW242738   1.700   2.794  20.989
10287SOL     OW42739   0.185   1.177  12.073
10287SOL    HW142740   0.184   1.082  12.057
10287SOL    HW242741   0.169   1.216  11.987
10288SOL     OW42742   4.519   1.220   0.156
10288SOL    HW142743   4.606   1.240   0.122
10288SOL    HW242744   4.501   1.290   0.218
10289SOL     OW42745   4.417   3.010   2.854
10289SOL    HW142746   4.443   2.992   2.944
10289SOL    HW242747   4.493   2.985   2.801
10290SOL     OW42748   0.522   1.298   3.716
10290SOL    HW142749   0.492   1.378   3.673
10290SOL    HW242750   0.608   1.321   3.752
10291SOL     OW42751   0.408   1.329   2.777
10291SOL    HW142752   0.424   1.328   2.683
10291SOL    HW242753   0.361   1.247   2.795
10292SOL     OW42754   4.068   0.309  20.624
10292SOL    HW142755   4.096   0.253  20.696
10292SOL    HW242756   4.082   0.398  20.656
10293SOL     OW42757   2.908   3.672  19.606
10293SOL    HW142758   2.993   3.628  19.605
10293SOL    HW242759   2.864   3.638  19.683
10294SOL     OW42760   0.139   0.265  16.023
10294SOL    HW142761   0.135   0.196  16.090
10294SOL    HW242762   0.145   0.346  16.073
10295SOL     OW42763   3.193   3.026   1.267
10295SOL    HW142764   3.217   2.964   1.336
10295SOL    HW242765   3.121   2.983   1.221
10296SOL     OW42766   4.386   1.515  20.426
10296SOL    HW142767   4.371   1.590  20.484
10296SOL    HW242768   4.402   1.554  20.340
10297SOL     OW42769   2.252   3.425   0.137
10297SOL    HW142770   2.303   3.439   0.218
10297SOL    HW242771   2.185   3.493   0.139
10298SOL     OW42772   1.660   0.454  18.870
10298SOL    HW142773   1.580   0.407  18.892
10298SOL    HW242774   1.727   0.386  18.861
10299SOL     OW42775   3.863   4.737  15.993
10299SOL    HW142776   3.863   0.006  15.915
10299SOL    HW242777   3.950   4.697  15.993
10300SOL     OW42778   0.222   2.444   2.027
10300SOL    HW142779   0.202   2.361   2.070
10300SOL    HW242780   0.303   2.428   1.980
10301SOL     OW42781   4.488   1.074   4.356
10301SOL    HW142782   4.531   1.135   4.297
10301SOL    HW242783   4.414   1.123   4.393
10302SOL     OW42784   2.937   4.571  15.967
10302SOL    HW142785   2.898   4.653  15.998
10302SOL    HW242786   2.908   4.505  16.030
10303SOL     OW42787   1.706   0.546   3.444
10303SOL    HW142788   1.611   0.541   3.449
10303SOL    HW242789   1.726   0.638   3.464
10304SOL     OW42790   0.474   2.117   2.689
10304SOL    HW142791   0.470   2.062   2.611
10304SOL    HW242792   0.447   2.059   2.760
10305SOL     OW42793   1.618   3.020  11.943
10305SOL    HW142794   1.652   3.055  11.860
10305SOL    HW242795   1.676   2.946  11.963
10306SOL     OW42796   0.221   1.912  21.064
10306SOL    HW142797   0.211   1.817  21.072
10306SOL    HW242798   0.266   1.925  20.980
10307SOL     OW42799   0.479   2.365   3.133
10307SOL    HW142800   0.508   2.447   3.094
10307SOL    HW242801   0.385   2.376   3.146
10308SOL     OW42802   0.844   4.099   5.152
10308SOL    HW142803   0.802   4.164   5.096
10308SOL    HW242804   0.932   4.088   5.116
10309SOL     OW42805   1.009   0.669  15.268
10309SOL    HW142806   1.063   0.657  15.189
10309SOL    HW242807   1.025   0.759  15.294
10310SOL     OW42808   2.238   4.134  17.229
10310SOL    HW142809   2.259   4.216  17.184
10310SOL    HW242810   2.305   4.125  17.297
10311SOL     OW42811   2.420   0.829   9.565
10311SOL    HW142812   2.472   0.755   9.596
10311SOL    HW242813   2.460   0.854   9.482
10312SOL     OW42814   2.845   1.367  17.015
10312SOL    HW142815   2.858   1.422  16.938
10312SOL    HW242816   2.817   1.427  17.083
10313SOL     OW42817   1.412   3.137  16.161
10313SOL    HW142818   1.372   3.192  16.093
10313SOL    HW242819   1.447   3.062  16.113
10314SOL     OW42820   0.062   3.516  16.459
10314SOL    HW142821   0.022   3.533  16.544
10314SOL    HW242822   0.007   3.449  16.419
10315SOL     OW42823   4.380   1.519   1.331
10315SOL    HW142824   4.424   1.566   1.259
10315SOL    HW242825   4.292   1.501   1.297
10316SOL     OW42826   2.315   4.349  17.097
10316SOL    HW142827   2.265   4.430  17.109
10316SOL    HW242828   2.405   4.378  17.082
10317SOL     OW42829   0.025   0.541   0.695
10317SOL    HW142830   0.120   0.536   0.704
10317SOL    HW242831   0.010   0.609   0.630
10318SOL     OW42832   4.112   4.698   0.919
10318SOL    HW142833   4.017   4.711   0.927
10318SOL    HW242834   4.129   4.616   0.966
10319SOL     OW42835   0.969   1.374   5.333
10319SOL    HW142836   0.890   1.386   5.281
10319SOL    HW242837   1.038   1.414   5.280
10320SOL     OW42838   1.626   1.368   2.650
10320SOL    HW142839   1.544   1.357   2.602
10320SOL    HW242840   1.620   1.305   2.722
10321SOL     OW42841   2.119   2.246   0.660
10321SOL    HW142842   2.104   2.161   0.699
10321SOL    HW242843   2.141   2.303   0.734
10322SOL     OW42844   1.545   1.136  19.022
10322SOL    HW142845   1.591   1.072  19.077
10322SOL    HW242846   1.477   1.085  18.978
10323SOL     OW42847   1.900   2.698  16.382
10323SOL    HW142848   1.954   2.729  16.455
10323SOL    HW242849   1.821   2.664  16.424
10324SOL     OW42850   1.646   4.330   2.086
10324SOL    HW142851   1.627   4.412   2.040
10324SOL    HW242852   1.593   4.264   2.042
10325SOL     OW42853   1.938   2.426   5.234
10325SOL    HW142854   2.003   2.482   5.276
10325SOL    HW242855   1.987   2.349   5.204
10326SOL     OW42856   0.376   4.030   8.180
10326SOL    HW142857   0.369   4.026   8.084
10326SOL    HW242858   0.452   4.085   8.197
10327SOL     OW42859   1.228   0.658  20.568
10327SOL    HW142860   1.241   0.679  20.476
10327SOL    HW242861   1.264   0.570  20.579
10328SOL     OW42862   2.492   2.035   3.475
10328SOL    HW142863   2.537   1.986   3.543
10328SOL    HW242864   2.544   2.115   3.464
10329SOL     OW42865   3.674   2.006  19.640
10329SOL    HW142866   3.636   2.030  19.556
10329SOL    HW242867   3.604   2.022  19.703
10330SOL     OW42868   0.572   0.296  14.611
10330SOL    HW142869   0.538   0.207  14.616
10330SOL    HW242870   0.540   0.329  14.526
10331SOL     OW42871   4.767   4.008  12.990
10331SOL    HW142872   4.688   4.057  13.009
10331SOL    HW242873   4.747   3.918  13.015
10332SOL     OW42874   1.135   0.716   5.588
10332SOL    HW142875   1.216   0.700   5.635
10332SOL    HW242876   1.141   0.660   5.510
10333SOL     OW42877   2.300   4.730   6.704
10333SOL    HW142878   2.366   4.775   6.651
10333SOL    HW242879   2.343   4.651   6.736
10334SOL     OW42880   4.154   3.220   8.463
10334SOL    HW142881   4.128   3.156   8.398
10334SOL    HW242882   4.088   3.289   8.457
10335SOL     OW42883   4.283   3.653  14.302
10335SOL    HW142884   4.346   3.666  14.373
10335SOL    HW242885   4.224   3.727  14.308
10336SOL     OW42886   4.400   1.303  15.937
10336SOL    HW142887   4.310   1.309  15.906
10336SOL    HW242888   4.454   1.300  15.858
10337SOL     OW42889   2.077   2.053   3.422
10337SOL    HW142890   2.049   1.968   3.389
10337SOL    HW242891   2.162   2.068   3.382
10338SOL     OW42892   2.239   2.321   2.438
10338SOL    HW142893   2.310   2.269   2.400
10338SOL    HW242894   2.177   2.334   2.366
10339SOL     OW42895   2.506   4.228   4.839
10339SOL    HW142896   2.531   4.138   4.816
10339SOL    HW242897   2.577   4.257   4.897
10340SOL     OW42898   0.772   3.973   3.477
10340SOL    HW142899   0.755   3.994   3.569
10340SOL    HW242900   0.865   3.950   3.475
10341SOL     OW42901   2.754   3.852   4.603
10341SOL    HW142902   2.799   3.866   4.519
10341SOL    HW242903   2.825   3.842   4.666
10342SOL     OW42904   4.029   0.744   1.140
10342SOL    HW142905   4.120   0.741   1.108
10342SOL    HW242906   3.994   0.825   1.102
10343SOL     OW42907   0.321   3.404   6.526
10343SOL    HW142908   0.279   3.477   6.571
10343SOL    HW242909   0.252   3.338   6.517
10344SOL     OW42910   1.935   0.244   1.798
10344SOL    HW142911   1.953   0.250   1.892
10344SOL    HW242912   1.903   0.331   1.774
10345SOL     OW42913   2.354   3.066  19.153
10345SOL    HW142914   2.372   3.016  19.074
10345SOL    HW242915   2.358   3.002  19.224
10346SOL     OW42916   2.238   3.791   0.558
10346SOL    HW142917   2.145   3.813   0.563
10346SOL    HW242918   2.256   3.746   0.640
10347SOL     OW42919   3.043   1.195   3.303
10347SOL    HW142920   3.047   1.126   3.370
10347SOL    HW242921   3.027   1.275   3.352
10348SOL     OW42922   4.171   2.426   1.830
10348SOL    HW142923   4.112   2.406   1.903
10348SOL    HW242924   4.253   2.381   1.852
10349SOL     OW42925   3.106   2.322  18.752
10349SOL    HW142926   3.029   2.269  18.771
10349SOL    HW242927   3.153   2.327  18.836
10350SOL     OW42928   1.386   2.309  18.475
10350SOL    HW142929   1.434   2.227  18.462
10350SOL    HW242930   1.306   2.298  18.424
10351SOL     OW42931   4.665   1.349  17.691
10351SOL    HW142932   4.614   1.287  17.640
10351SOL    HW242933   4.618   1.358  17.773
10352SOL     OW42934   4.640   1.732  17.274
10352SOL    HW142935   4.632   1.678  17.352
10352SOL    HW242936   4.576   1.801  17.286
10353SOL     OW42937   4.671   1.250   3.364
10353SOL    HW142938   4.655   1.344   3.372
10353SOL    HW242939   4.753   1.235   3.411
10354SOL     OW42940   0.027   0.950   5.046
10354SOL    HW142941   4.721   0.930   5.045
10354SOL    HW242942   0.055   0.938   4.955
10355SOL     OW42943   3.424   1.811   1.112
10355SOL    HW142944   3.455   1.723   1.094
10355SOL    HW242945   3.468   1.836   1.193
10356SOL     OW42946   0.443   2.219  15.793
10356SOL    HW142947   0.519   2.162  15.783
10356SOL    HW242948   0.381   2.189  15.726
10357SOL     OW42949   4.519   1.596  15.707
10357SOL    HW142950   4.471   1.515  15.688
10357SOL    HW242951   4.498   1.654  15.635
10358SOL     OW42952   2.158   3.383   6.732
10358SOL    HW142953   2.208   3.430   6.799
10358SOL    HW242954   2.096   3.330   6.780
10359SOL     OW42955   0.444   1.611  19.564
10359SOL    HW142956   0.389   1.533  19.569
10359SOL    HW242957   0.473   1.626  19.654
10360SOL     OW42958   1.452   1.917  19.983
10360SOL    HW142959   1.519   1.908  19.916
10360SOL    HW242960   1.391   1.981  19.947
10361SOL     OW42961   1.325   0.631   5.811
10361SOL    HW142962   1.339   0.720   5.843
10361SOL    HW242963   1.341   0.576   5.888
10362SOL     OW42964   4.551   0.042   6.853
10362SOL    HW142965   4.572   0.125   6.812
10362SOL    HW242966   4.463   0.055   6.890
10363SOL     OW42967   3.762   4.272  18.565
10363SOL    HW142968   3.833   4.336  18.560
10363SOL    HW242969   3.683   4.324  18.574
10364SOL     OW42970   3.398   3.526  21.017
10364SOL    HW142971   3.347   3.456  21.058
10364SOL    HW242972   3.488   3.495  21.018
10365SOL     OW42973   4.543   2.375  20.685
10365SOL    HW142974   4.618   2.423  20.720
10365SOL    HW242975   4.572   2.345  20.599
10366SOL     OW42976   3.801   2.805  14.827
10366SOL    HW142977   3.844   2.845  14.751
10366SOL    HW242978   3.708   2.826  14.816
10367SOL     OW42979   3.009   1.786   6.820
10367SOL    HW142980   3.001   1.880   6.802
10367SOL    HW242981   3.027   1.747   6.735
10368SOL     OW42982   3.979   1.464  17.766
10368SOL    HW142983   4.061   1.496  17.805
10368SOL    HW242984   3.973   1.508  17.681
10369SOL     OW42985   2.306   0.830  18.207
10369SOL    HW142986   2.291   0.923  18.194
10369SOL    HW242987   2.395   0.823  18.240
10370SOL     OW42988   4.320   0.800  17.097
10370SOL    HW142989   4.331   0.774  17.005
10370SOL    HW242990   4.367   0.733  17.147
10371SOL     OW42991   2.955   2.939  17.916
10371SOL    HW142992   2.876   2.886  17.911
10371SOL    HW242993   2.925   3.024  17.949
10372SOL     OW42994   4.506   3.814   3.324
10372SOL    HW142995   4.429   3.866   3.347
10372SOL    HW242996   4.541   3.784   3.408
10373SOL     OW42997   0.166   2.818   2.453
10373SOL    HW142998   0.190   2.900   2.496
10373SOL    HW242999   0.194   2.750   2.515
10374SOL     OW43000   2.171   3.882  15.107
10374SOL    HW143001   2.169   3.800  15.057
10374SOL    HW243002   2.260   3.886  15.143
10375SOL     OW43003   2.216   1.272  20.646
10375SOL    HW143004   2.267   1.271  20.727
10375SOL    HW243005   2.211   1.364  20.621
10376SOL     OW43006   4.787   0.402   0.239
10376SOL    HW143007   4.747   0.445   0.315
10376SOL    HW243008   0.054   0.470   0.199
10377SOL     OW43009   3.259   2.812   8.117
10377SOL    HW143010   3.302   2.845   8.038
10377SOL    HW243011   3.166   2.807   8.094
10378SOL     OW43012   0.048   3.351   4.835
10378SOL    HW143013   0.127   3.339   4.783
10378SOL    HW243014   0.051   3.443   4.863
10379SOL     OW43015   4.581   0.233  17.261
10379SOL    HW143016   4.491   0.264  17.251
10379SOL    HW243017   4.628   0.308  17.297
10380SOL     OW43018   0.133   1.089   1.364
10380SOL    HW143019   0.176   1.005   1.377
10380SOL    HW243020   0.180   1.129   1.291
10381SOL     OW43021   0.881   2.380  18.424
10381SOL    HW143022   0.867   2.329  18.344
10381SOL    HW243023   0.870   2.317  18.495
10382SOL     OW43024   1.590   2.540  18.510
10382SOL    HW143025   1.606   2.626  18.548
10382SOL    HW243026   1.502   2.545  18.473
10383SOL     OW43027   1.355   1.157  16.565
10383SOL    HW143028   1.420   1.111  16.512
10383SOL    HW243029   1.352   1.245  16.528
10384SOL     OW43030   2.229   2.210  19.487
10384SOL    HW143031   2.154   2.157  19.463
10384SOL    HW243032   2.221   2.289  19.434
10385SOL     OW43033   1.570   2.962  15.974
10385SOL    HW143034   1.535   2.957  15.885
10385SOL    HW243035   1.655   2.918  15.969
10386SOL     OW43036   4.570   2.150   1.225
10386SOL    HW143037   4.637   2.145   1.157
10386SOL    HW243038   4.612   2.116   1.304
10387SOL     OW43039   1.217   4.202  14.228
10387SOL    HW143040   1.216   4.141  14.302
10387SOL    HW243041   1.183   4.284  14.265
10388SOL     OW43042   3.964   1.166  18.809
10388SOL    HW143043   3.897   1.190  18.745
10388SOL    HW243044   3.914   1.130  18.883
10389SOL     OW43045   1.328   2.847   5.284
10389SOL    HW143046   1.302   2.755   5.284
10389SOL    HW243047   1.416   2.847   5.322
10390SOL     OW43048   2.310   1.402  14.342
10390SOL    HW143049   2.347   1.345  14.275
10390SOL    HW243050   2.329   1.358  14.425
10391SOL     OW43051   1.106   2.326   2.331
10391SOL    HW143052   1.181   2.371   2.370
10391SOL    HW243053   1.061   2.394   2.281
10392SOL     OW43054   2.243   4.066  16.200
10392SOL    HW143055   2.171   4.041  16.258
10392SOL    HW243056   2.317   4.013  16.229
10393SOL     OW43057   1.031   2.774  14.744
10393SOL    HW143058   1.104   2.828  14.776
10393SOL    HW243059   0.954   2.810  14.785
10394SOL     OW43060   1.749   1.731  16.062
10394SOL    HW143061   1.699   1.757  15.984
10394SOL    HW243062   1.682   1.703  16.124
10395SOL     OW43063   4.394   1.724   6.161
10395SOL    HW143064   4.350   1.656   6.212
10395SOL    HW243065   4.437   1.779   6.226
10396SOL     OW43066   0.710   4.221   1.149
10396SOL    HW143067   0.765   4.198   1.073
10396SOL    HW243068   0.770   4.266   1.208
10397SOL     OW43069   2.741   0.552  20.749
10397SOL    HW143070   2.690   0.475  20.723
10397SOL    HW243071   2.801   0.519  20.816
10398SOL     OW43072   2.234   1.399   1.032
10398SOL    HW143073   2.282   1.344   0.970
10398SOL    HW243074   2.221   1.344   1.109
10399SOL     OW43075   4.572   1.564   0.688
10399SOL    HW143076   4.653   1.584   0.735
10399SOL    HW243077   4.503   1.576   0.753
10400SOL     OW43078   4.236   4.750  17.627
10400SOL    HW143079   4.325   4.745  17.592
10400SOL    HW243080   4.198   4.665  17.608
10401SOL     OW43081   3.208   0.736  16.312
10401SOL    HW143082   3.291   0.783  16.317
10401SOL    HW243083   3.178   0.733  16.403
10402SOL     OW43084   3.804   1.788   5.609
10402SOL    HW143085   3.765   1.872   5.631
10402SOL    HW243086   3.784   1.731   5.683
10403SOL     OW43087   1.250   2.467  15.844
10403SOL    HW143088   1.248   2.534  15.776
10403SOL    HW243089   1.207   2.508  15.919
10404SOL     OW43090   2.903   0.348  18.069
10404SOL    HW143091   2.971   0.399  18.024
10404SOL    HW243092   2.937   0.335  18.157
10405SOL     OW43093   1.623   0.428   2.355
10405SOL    HW143094   1.570   0.361   2.399
10405SOL    HW243095   1.605   0.508   2.404
10406SOL     OW43096   4.037   3.245   4.885
10406SOL    HW143097   3.987   3.186   4.829
10406SOL    HW243098   3.979   3.320   4.899
10407SOL     OW43099   1.640   4.506  14.403
10407SOL    HW143100   1.600   4.465  14.326
10407SOL    HW243101   1.605   4.595  14.403
10408SOL     OW43102   3.430   3.196   7.219
10408SOL    HW143103   3.479   3.134   7.165
10408SOL    HW243104   3.343   3.158   7.226
10409SOL     OW43105   1.899   1.553   1.722
10409SOL    HW143106   1.850   1.581   1.645
10409SOL    HW243107   1.867   1.609   1.792
10410SOL     OW43108   2.821   1.534  18.131
10410SOL    HW143109   2.916   1.540  18.129
10410SOL    HW243110   2.799   1.472  18.062
10411SOL     OW43111   0.683   2.172  16.372
10411SOL    HW143112   0.595   2.134  16.364
10411SOL    HW243113   0.700   2.210  16.286
10412SOL     OW43114   1.309   3.974  18.495
10412SOL    HW143115   1.334   4.054  18.542
10412SOL    HW243116   1.357   3.904  18.540
10413SOL     OW43117   1.669   4.587  19.268
10413SOL    HW143118   1.624   4.582  19.352
10413SOL    HW243119   1.761   4.601  19.291
10414SOL     OW43120   3.574   3.766   6.360
10414SOL    HW143121   3.658   3.791   6.322
10414SOL    HW243122   3.580   3.671   6.370
10415SOL     OW43123   2.763   2.536  21.024
10415SOL    HW143124   2.774   2.611  21.081
10415SOL    HW243125   2.823   2.470  21.059
10416SOL     OW43126   0.138   0.809   5.285
10416SOL    HW143127   0.091   0.840   5.207
10416SOL    HW243128   0.173   0.724   5.259
10417SOL     OW43129   2.904   0.856   9.114
10417SOL    HW143130   2.995   0.859   9.085
10417SOL    HW243131   2.863   0.932   9.072
10418SOL     OW43132   4.109   1.806   2.431
10418SOL    HW143133   4.090   1.842   2.344
10418SOL    HW243134   4.188   1.851   2.459
10419SOL     OW43135   3.832   1.726   6.794
10419SOL    HW143136   3.775   1.793   6.832
10419SOL    HW243137   3.834   1.656   6.859
10420SOL     OW43138   3.772   3.768  20.177
10420SOL    HW143139   3.764   3.839  20.114
10420SOL    HW243140   3.865   3.746  20.178
10421SOL     OW43141   1.345   1.599  16.278
10421SOL    HW143142   1.250   1.589  16.279
10421SOL    HW243143   1.360   1.690  16.302
10422SOL     OW43144   2.208   2.156  20.888
10422SOL    HW143145   2.266   2.225  20.919
10422SOL    HW243146   2.245   2.130  20.804
10423SOL     OW43147   1.618   1.776  20.964
10423SOL    HW143148   1.529   1.812  20.961
10423SOL    HW243149   1.668   1.840  21.015
10424SOL     OW43150   3.881   3.023   4.222
10424SOL    HW143151   3.933   3.086   4.170
10424SOL    HW243152   3.791   3.053   4.212
10425SOL     OW43153   0.340   3.025   4.374
10425SOL    HW143154   0.328   2.977   4.292
10425SOL    HW243155   0.296   2.971   4.440
10426SOL     OW43156   2.509   0.630   0.344
10426SOL    HW143157   2.563   0.707   0.361
10426SOL    HW243158   2.472   0.644   0.257
10427SOL     OW43159   4.119   1.500  20.108
10427SOL    HW143160   4.063   1.497  20.030
10427SOL    HW243161   4.088   1.428  20.163
10428SOL     OW43162   0.607   2.921   1.457
10428SOL    HW143163   0.554   2.880   1.389
10428SOL    HW243164   0.549   2.927   1.533
10429SOL     OW43165   1.877   4.172  15.448
10429SOL    HW143166   1.937   4.124  15.392
10429SOL    HW243167   1.873   4.121  15.529
10430SOL     OW43168   3.209   4.457  16.847
10430SOL    HW143169   3.186   4.547  16.866
10430SOL    HW243170   3.136   4.423  16.795
10431SOL     OW43171   2.264   3.725   4.559
10431SOL    HW143172   2.191   3.670   4.586
10431SOL    HW243173   2.334   3.664   4.536
10432SOL     OW43174   2.742   3.339  17.360
10432SOL    HW143175   2.720   3.329  17.268
10432SOL    HW243176   2.810   3.273  17.376
10433SOL     OW43177   2.427   3.486  16.501
10433SOL    HW143178   2.355   3.424  16.509
10433SOL    HW243179   2.387   3.566  16.466
10434SOL     OW43180   3.751   2.056   2.654
10434SOL    HW143181   3.711   2.011   2.580
10434SOL    HW243182   3.836   2.084   2.622
10435SOL     OW43183   4.051   3.756  20.174
10435SOL    HW143184   4.111   3.830  20.182
10435SOL    HW243185   4.106   3.679  20.187
10436SOL     OW43186   1.992   3.603   4.792
10436SOL    HW143187   1.930   3.665   4.752
10436SOL    HW243188   1.952   3.517   4.778
10437SOL     OW43189   3.068   3.466  19.415
10437SOL    HW143190   3.103   3.491  19.500
10437SOL    HW243191   3.029   3.380  19.429
10438SOL     OW43192   0.851   2.902  21.106
10438SOL    HW143193   0.935   2.865  21.081
10438SOL    HW243194   0.872   2.990  21.138
10439SOL     OW43195   0.665   0.056  13.554
10439SOL    HW143196   0.635   0.082  13.467
10439SOL    HW243197   0.723   4.769  13.539
10440SOL     OW43198   2.950   2.831   1.964
10440SOL    HW143199   2.855   2.839   1.968
10440SOL    HW243200   2.968   2.740   1.988
10441SOL     OW43201   2.460   1.767  19.080
10441SOL    HW143202   2.496   1.712  19.011
10441SOL    HW243203   2.373   1.730  19.098
10442SOL     OW43204   4.259   1.752  15.306
10442SOL    HW143205   4.236   1.666  15.272
10442SOL    HW243206   4.289   1.801  15.230
10443SOL     OW43207   1.692   2.333   5.448
10443SOL    HW143208   1.732   2.336   5.362
10443SOL    HW243209   1.671   2.424   5.468
10444SOL     OW43210   3.768   3.276  16.242
10444SOL    HW143211   3.784   3.325  16.322
10444SOL    HW243212   3.679   3.301  16.216
10445SOL     OW43213   1.776   2.419   0.536
10445SOL    HW143214   1.871   2.425   0.523
10445SOL    HW243215   1.738   2.443   0.451
10446SOL     OW43216   2.163   3.721  17.740
10446SOL    HW143217   2.090   3.739  17.799
10446SOL    HW243218   2.152   3.784  17.668
10447SOL     OW43219   1.878   3.151  17.427
10447SOL    HW143220   1.885   3.245  17.443
10447SOL    HW243221   1.789   3.129  17.455
10448SOL     OW43222   0.894   4.266  17.867
10448SOL    HW143223   0.962   4.302  17.810
10448SOL    HW243224   0.940   4.236  17.945
10449SOL     OW43225   0.126   1.734  17.632
10449SOL    HW143226   0.133   1.781  17.549
10449SOL    HW243227   0.189   1.777  17.690
10450SOL     OW43228   2.881   4.571  19.625
10450SOL    HW143229   2.918   4.515  19.692
10450SOL    HW243230   2.945   4.642  19.614
10451SOL     OW43231   2.078   3.455   7.785
10451SOL    HW143232   2.108   3.367   7.805
10451SOL    HW243233   1.984   3.454   7.805
10452SOL     OW43234   3.127   4.067   2.587
10452SOL    HW143235   3.188   4.001   2.557
10452SOL    HW243236   3.182   4.133   2.630
10453SOL     OW43237   2.061   0.014   0.039
10453SOL    HW143238   2.007   4.724   0.018
10453SOL    HW243239   2.111   0.030  21.204
10454SOL     OW43240   2.949   4.409  19.900
10454SOL    HW143241   2.977   4.493  19.937
10454SOL    HW243242   2.935   4.353  19.976
10455SOL     OW43243   2.341   1.126  16.976
10455SOL    HW143244   2.299   1.137  16.890
10455SOL    HW243245   2.435   1.135  16.957
10456SOL     OW43246   1.749   0.793   4.606
10456SOL    HW143247   1.675   0.831   4.654
10456SOL    HW243248   1.825   0.807   4.663
10457SOL     OW43249   1.041   2.658  17.901
10457SOL    HW143250   1.103   2.730  17.903
10457SOL    HW243251   0.958   2.696  17.930
10458SOL     OW43252   2.982   0.373   4.889
10458SOL    HW143253   3.039   0.314   4.939
10458SOL    HW243254   2.992   0.458   4.934
10459SOL     OW43255   0.733   0.488   1.907
10459SOL    HW143256   0.751   0.551   1.977
10459SOL    HW243257   0.661   0.527   1.858
10460SOL     OW43258   1.356   0.813   0.974
10460SOL    HW143259   1.299   0.879   0.933
10460SOL    HW243260   1.407   0.777   0.901
10461SOL     OW43261   2.014   4.422   2.898
10461SOL    HW143262   2.022   4.337   2.942
10461SOL    HW243263   2.090   4.427   2.840
10462SOL     OW43264   2.495   3.947  16.326
10462SOL    HW143265   2.513   3.858  16.354
10462SOL    HW243266   2.455   3.989  16.403
10463SOL     OW43267   2.378   1.014   2.720
10463SOL    HW143268   2.367   1.036   2.813
10463SOL    HW243269   2.448   0.949   2.719
10464SOL     OW43270   4.574   1.553   3.905
10464SOL    HW143271   4.598   1.632   3.955
10464SOL    HW243272   4.655   1.503   3.898
10465SOL     OW43273   4.644   4.117  19.169
10465SOL    HW143274   4.720   4.155  19.124
10465SOL    HW243275   4.681   4.076  19.247
10466SOL     OW43276   1.492   2.903  14.394
10466SOL    HW143277   1.512   2.895  14.301
10466SOL    HW243278   1.468   2.814  14.422
10467SOL     OW43279   2.398   1.159  16.528
10467SOL    HW143280   2.473   1.112  16.564
10467SOL    HW243281   2.436   1.218  16.463
10468SOL     OW43282   4.067   3.827   7.555
10468SOL    HW143283   4.028   3.856   7.637
10468SOL    HW243284   4.125   3.756   7.579
10469SOL     OW43285   1.983   2.614   2.671
10469SOL    HW143286   2.079   2.618   2.663
10469SOL    HW243287   1.951   2.635   2.583
10470SOL     OW43288   3.520   1.159  16.567
10470SOL    HW143289   3.616   1.152  16.573
10470SOL    HW243290   3.499   1.118  16.483
10471SOL     OW43291   0.757   3.074  16.753
10471SOL    HW143292   0.721   3.093  16.840
10471SOL    HW243293   0.700   3.005  16.718
10472SOL     OW43294   4.535   1.055  15.748
10472SOL    HW143295   4.443   1.032  15.760
10472SOL    HW243296   4.576   0.974  15.717
10473SOL     OW43297   4.534   0.046  11.748
10473SOL    HW143298   4.492   4.771  11.808
10473SOL    HW243299   4.466   0.065  11.682
10474SOL     OW43300   2.588   4.126  18.614
10474SOL    HW143301   2.554   4.100  18.699
10474SOL    HW243302   2.511   4.155  18.565
10475SOL     OW43303   0.010   0.068  19.575
10475SOL    HW143304   0.073   0.043  19.643
10475SOL    HW243305   4.759   0.150  19.606
10476SOL     OW43306   2.477   3.057  21.155
10476SOL    HW143307   2.527   3.093  21.082
10476SOL    HW243308   2.512   2.969  21.166
10477SOL     OW43309   0.482   1.047   0.196
10477SOL    HW143310   0.466   1.139   0.217
10477SOL    HW243311   0.576   1.035   0.210
10478SOL     OW43312   1.120   1.708   1.502
10478SOL    HW143313   1.114   1.797   1.467
10478SOL    HW243314   1.075   1.653   1.438
10479SOL     OW43315   0.608   1.174   4.001
10479SOL    HW143316   0.646   1.151   3.916
10479SOL    HW243317   0.652   1.255   4.026
10480SOL     OW43318   3.916   4.666  19.132
10480SOL    HW143319   3.962   4.613  19.198
10480SOL    HW243320   3.829   4.680  19.170
10481SOL     OW43321   2.248   3.289  16.548
10481SOL    HW143322   2.201   3.321  16.624
10481SOL    HW243323   2.199   3.212  16.520
10482SOL     OW43324   3.803   3.731  18.125
10482SOL    HW143325   3.762   3.762  18.205
10482SOL    HW243326   3.772   3.641  18.115
10483SOL     OW43327   4.008   0.542  16.219
10483SOL    HW143328   3.918   0.544  16.189
10483SOL    HW243329   4.061   0.547  16.139
10484SOL     OW43330   3.530   0.199   6.120
10484SOL    HW143331   3.572   0.235   6.043
10484SOL    HW243332   3.522   0.273   6.181
10485SOL     OW43333   3.567   1.941  18.279
10485SOL    HW143334   3.480   1.933  18.241
10485SOL    HW243335   3.589   2.034  18.271
10486SOL     OW43336   1.082   3.895   2.059
10486SOL    HW143337   1.111   3.949   2.132
10486SOL    HW243338   1.157   3.893   2.000
10487SOL     OW43339   3.998   0.452   8.275
10487SOL    HW143340   3.984   0.377   8.332
10487SOL    HW243341   4.092   0.452   8.259
10488SOL     OW43342   0.359   1.458  16.439
10488SOL    HW143343   0.434   1.403  16.418
10488SOL    HW243344   0.395   1.546  16.451
10489SOL     OW43345   2.746   2.094   0.669
10489SOL    HW143346   2.803   2.143   0.727
10489SOL    HW243347   2.715   2.021   0.722
10490SOL     OW43348   4.236   2.692   1.762
10490SOL    HW143349   4.213   2.601   1.779
10490SOL    HW243350   4.329   2.691   1.741
10491SOL     OW43351   0.233   0.138  16.268
10491SOL    HW143352   0.188   0.163  16.348
10491SOL    HW243353   0.276   0.055  16.290
10492SOL     OW43354   4.468   0.531  17.675
10492SOL    HW143355   4.527   0.464  17.711
10492SOL    HW243356   4.389   0.482  17.651
10493SOL     OW43357   0.106   1.895   1.385
10493SOL    HW143358   0.022   1.925   1.420
10493SOL    HW243359   0.153   1.861   1.462
10494SOL     OW43360   1.211   0.957   6.906
10494SOL    HW143361   1.181   1.014   6.977
10494SOL    HW243362   1.298   0.929   6.933
10495SOL     OW43363   0.718   1.570   3.439
10495SOL    HW143364   0.761   1.619   3.509
10495SOL    HW243365   0.636   1.538   3.477
10496SOL     OW43366   1.670   3.609   4.518
10496SOL    HW143367   1.614   3.548   4.566
10496SOL    HW243368   1.617   3.635   4.442
10497SOL     OW43369   4.015   2.331   5.105
10497SOL    HW143370   4.033   2.407   5.049
10497SOL    HW243371   4.084   2.332   5.171
10498SOL     OW43372   0.391   3.720   6.724
10498SOL    HW143373   0.409   3.763   6.808
10498SOL    HW243374   0.303   3.685   6.733
10499SOL     OW43375   1.982   3.120  19.372
10499SOL    HW143376   2.011   3.036  19.406
10499SOL    HW243377   1.886   3.117  19.379
10500SOL     OW43378   2.460   4.151  19.297
10500SOL    HW143379   2.500   4.098  19.366
10500SOL    HW243380   2.504   4.235  19.302
10501SOL     OW43381   3.575   4.712   7.781
10501SOL    HW143382   3.659   4.672   7.801
10501SOL    HW243383   3.587   0.019   7.799
10502SOL     OW43384   0.278   0.935  17.820
10502SOL    HW143385   0.335   0.919  17.895
10502SOL    HW243386   0.220   0.859  17.816
10503SOL     OW43387   1.347   0.584   1.400
10503SOL    HW143388   1.266   0.547   1.434
10503SOL    HW243389   1.322   0.630   1.320
10504SOL     OW43390   3.859   0.132   1.856
10504SOL    HW143391   3.942   0.145   1.809
10504SOL    HW243392   3.880   0.070   1.925
10505SOL     OW43393   1.148   4.593  15.306
10505SOL    HW143394   1.175   4.554  15.223
10505SOL    HW243395   1.159   4.523  15.371
10506SOL     OW43396   2.631   3.216   1.899
10506SOL    HW143397   2.564   3.216   1.830
10506SOL    HW243398   2.584   3.190   1.978
10507SOL     OW43399   4.446   0.057   6.539
10507SOL    HW143400   4.372   0.020   6.588
10507SOL    HW243401   4.412   0.069   6.450
10508SOL     OW43402   2.111   1.400  11.974
10508SOL    HW143403   2.120   1.495  11.977
10508SOL    HW243404   2.090   1.375  12.064
10509SOL     OW43405   0.031   0.569  20.459
10509SOL    HW143406   4.741   0.596  20.509
10509SOL    HW243407   0.065   0.492  20.505
10510SOL     OW43408   0.291   4.552  14.163
10510SOL    HW143409   0.313   4.558  14.256
10510SOL    HW243410   0.365   4.507  14.123
10511SOL     OW43411   3.623   0.858   4.438
10511SOL    HW143412   3.706   0.894   4.406
10511SOL    HW243413   3.634   0.763   4.434
10512SOL     OW43414   1.577   2.692  20.707
10512SOL    HW143415   1.515   2.668  20.638
10512SOL    HW243416   1.658   2.714  20.661
10513SOL     OW43417   0.117   0.388  19.195
10513SOL    HW143418   0.101   0.433  19.112
10513SOL    HW243419   0.184   0.323  19.175
10514SOL     OW43420   2.136   1.852   5.302
10514SOL    HW143421   2.220   1.888   5.331
10514SOL    HW243422   2.071   1.895   5.357
10515SOL     OW43423   2.107   0.438   0.963
10515SOL    HW143424   2.088   0.515   0.909
10515SOL    HW243425   2.171   0.468   1.027
10516SOL     OW43426   4.412   4.498   0.279
10516SOL    HW143427   4.389   4.580   0.324
10516SOL    HW243428   4.426   4.523   0.188
10517SOL     OW43429   2.113   2.106   1.638
10517SOL    HW143430   2.084   2.015   1.648
10517SOL    HW243431   2.038   2.151   1.599
10518SOL     OW43432   2.718   4.149   4.325
10518SOL    HW143433   2.636   4.194   4.303
10518SOL    HW243434   2.693   4.082   4.388
10519SOL     OW43435   2.328   3.466   1.509
10519SOL    HW143436   2.309   3.528   1.580
10519SOL    HW243437   2.403   3.504   1.464
10520SOL     OW43438   0.949   2.321  20.519
10520SOL    HW143439   0.855   2.340  20.510
10520SOL    HW243440   0.954   2.267  20.598
10521SOL     OW43441   2.987   2.492  17.374
10521SOL    HW143442   2.921   2.429  17.403
10521SOL    HW243443   2.974   2.499  17.280
10522SOL     OW43444   0.183   4.654   1.186
10522SOL    HW143445   0.138   4.586   1.236
10522SOL    HW243446   0.269   4.616   1.165
10523SOL     OW43447   2.963   1.483   2.496
10523SOL    HW143448   2.898   1.422   2.463
10523SOL    HW243449   2.916   1.534   2.562
10524SOL     OW43450   4.366   0.632   6.380
10524SOL    HW143451   4.352   0.566   6.448
10524SOL    HW243452   4.283   0.634   6.333
10525SOL     OW43453   2.315   0.079  17.078
10525SOL    HW143454   2.314   0.078  16.982
10525SOL    HW243455   2.364   0.000  17.102
10526SOL     OW43456   0.573   4.005   3.746
10526SOL    HW143457   0.589   3.983   3.838
10526SOL    HW243458   0.485   3.973   3.728
10527SOL     OW43459   2.686   0.676  20.318
10527SOL    HW143460   2.723   0.708  20.400
10527SOL    HW243461   2.762   0.662  20.261
10528SOL     OW43462   3.371   0.730  19.943
10528SOL    HW143463   3.291   0.775  19.914
10528SOL    HW243464   3.339   0.654  19.992
10529SOL     OW43465   3.788   4.426  15.831
10529SOL    HW143466   3.873   4.438  15.788
10529SOL    HW243467   3.806   4.370  15.906
10530SOL     OW43468   2.587   0.810   2.722
10530SOL    HW143469   2.593   0.716   2.738
10530SOL    HW243470   2.670   0.832   2.679
10531SOL     OW43471   1.562   2.740   4.092
10531SOL    HW143472   1.558   2.655   4.136
10531SOL    HW243473   1.573   2.719   4.000
10532SOL     OW43474   0.179   3.975   6.709
10532SOL    HW143475   0.218   3.967   6.796
10532SOL    HW243476   0.085   3.969   6.724
10533SOL     OW43477   1.843   1.301  11.733
10533SOL    HW143478   1.823   1.382  11.781
10533SOL    HW243479   1.759   1.269  11.703
10534SOL     OW43480   4.342   3.318   5.329
10534SOL    HW143481   4.418   3.283   5.283
10534SOL    HW243482   4.285   3.242   5.343
10535SOL     OW43483   0.790   3.196   5.744
10535SOL    HW143484   0.833   3.190   5.658
10535SOL    HW243485   0.718   3.134   5.739
10536SOL     OW43486   2.518   0.351   0.007
10536SOL    HW143487   2.513   0.262  21.216
10536SOL    HW243488   2.550   0.339   0.097
10537SOL     OW43489   4.419   2.302  21.165
10537SOL    HW143490   4.489   2.282  21.227
10537SOL    HW243491   4.453   2.271  21.081
10538SOL     OW43492   0.076   4.255  19.026
10538SOL    HW143493   0.036   4.243  18.940
10538SOL    HW243494   0.170   4.260  19.008
10539SOL     OW43495   0.002   2.252   4.225
10539SOL    HW143496   4.755   2.162   4.233
10539SOL    HW243497   0.091   2.247   4.261
10540SOL     OW43498   0.790   3.096  18.892
10540SOL    HW143499   0.831   3.134  18.970
10540SOL    HW243500   0.863   3.057  18.844
10541SOL     OW43501   1.469   3.091   0.479
10541SOL    HW143502   1.438   3.106   0.568
10541SOL    HW243503   1.539   3.027   0.488
10542SOL     OW43504   1.622   3.081  17.490
10542SOL    HW143505   1.583   3.057  17.406
10542SOL    HW243506   1.554   3.131  17.535
10543SOL     OW43507   2.792   3.783  15.201
10543SOL    HW143508   2.803   3.850  15.133
10543SOL    HW243509   2.872   3.788  15.253
10544SOL     OW43510   1.316   1.976   5.661
10544SOL    HW143511   1.364   2.058   5.672
10544SOL    HW243512   1.349   1.920   5.730
10545SOL     OW43513   0.524   0.129  12.011
10545SOL    HW143514   0.579   0.087  11.946
10545SOL    HW243515   0.522   0.068  12.085
10546SOL     OW43516   0.743   0.000   4.060
10546SOL    HW143517   0.837   0.018   4.051
10546SOL    HW243518   0.737   4.723   4.130
10547SOL     OW43519   4.766   2.321   0.647
10547SOL    HW143520   4.774   2.234   0.687
10547SOL    HW243521   0.069   2.344   0.624
10548SOL     OW43522   0.037   4.011  14.158
10548SOL    HW143523   0.124   3.974  14.144
10548SOL    HW243524   0.051   4.082  14.220
10549SOL     OW43525   0.018   3.156   2.379
10549SOL    HW143526   0.079   3.137   2.451
10549SOL    HW243527   0.048   3.100   2.308
10550SOL     OW43528   3.627   4.240  14.248
10550SOL    HW143529   3.709   4.194  14.232
10550SOL    HW243530   3.594   4.261  14.160
10551SOL     OW43531   0.125   3.368  17.718
10551SOL    HW143532   0.102   3.405  17.633
10551SOL    HW243533   0.213   3.333  17.707
10552SOL     OW43534   3.216   0.742  17.433
10552SOL    HW143535   3.203   0.659  17.477
10552SOL    HW243536   3.257   0.719  17.349
10553SOL     OW43537   1.356   0.800  17.505
10553SOL    HW143538   1.276   0.806  17.453
10553SOL    HW243539   1.342   0.724  17.561
10554SOL     OW43540   1.900   1.503  12.795
10554SOL    HW143541   1.820   1.450  12.790
10554SOL    HW243542   1.899   1.540  12.883
10555SOL     OW43543   1.258   2.916   2.630
10555SOL    HW143544   1.336   2.970   2.619
10555SOL    HW243545   1.291   2.832   2.663
10556SOL     OW43546   1.038   0.244  17.003
10556SOL    HW143547   1.131   0.222  17.008
10556SOL    HW243548   1.036   0.338  16.985
10557SOL     OW43549   0.816   3.770   0.118
10557SOL    HW143550   0.794   3.682   0.147
10557SOL    HW243551   0.867   3.807   0.190
10558SOL     OW43552   0.353   1.452   1.104
10558SOL    HW143553   0.371   1.486   1.192
10558SOL    HW243554   0.275   1.397   1.115
10559SOL     OW43555   1.315   1.038   1.786
10559SOL    HW143556   1.363   1.034   1.868
10559SOL    HW243557   1.301   0.947   1.762
10560SOL     OW43558   2.116   0.007  17.762
10560SOL    HW143559   2.110   0.036  17.853
10560SOL    HW243560   2.192   0.053  17.727
10561SOL     OW43561   1.397   4.258   5.501
10561SOL    HW143562   1.472   4.210   5.466
10561SOL    HW243563   1.386   4.224   5.589
10562SOL     OW43564   1.005   0.533  10.450
10562SOL    HW143565   0.930   0.533  10.390
10562SOL    HW243566   0.994   0.612  10.502
10563SOL     OW43567   4.261   2.199  15.904
10563SOL    HW143568   4.261   2.270  15.840
10563SOL    HW243569   4.179   2.211  15.953
10564SOL     OW43570   1.816   3.141   6.536
10564SOL    HW143571   1.891   3.198   6.521
10564SOL    HW243572   1.747   3.178   6.480
10565SOL     OW43573   3.770   4.105   4.815
10565SOL    HW143574   3.776   4.022   4.862
10565SOL    HW243575   3.682   4.138   4.836
10566SOL     OW43576   0.824   3.118  14.524
10566SOL    HW143577   0.877   3.196  14.541
10566SOL    HW243578   0.754   3.123  14.589
10567SOL     OW43579   2.200   2.274   2.738
10567SOL    HW143580   2.141   2.312   2.673
10567SOL    HW243581   2.190   2.330   2.815
10568SOL     OW43582   1.880   2.057  15.253
10568SOL    HW143583   1.876   2.050  15.157
10568SOL    HW243584   1.838   2.141  15.273
10569SOL     OW43585   2.948   1.707   6.295
10569SOL    HW143586   2.949   1.723   6.200
10569SOL    HW243587   2.870   1.751   6.326
10570SOL     OW43588   0.697   2.568   4.771
10570SOL    HW143589   0.691   2.512   4.848
10570SOL    HW243590   0.788   2.561   4.742
10571SOL     OW43591   0.227   0.037  19.739
10571SOL    HW143592   0.297   0.007  19.681
10571SOL    HW243593   0.272   0.057  19.822
10572SOL     OW43594   0.469   1.716   4.044
10572SOL    HW143595   0.467   1.811   4.030
10572SOL    HW243596   0.501   1.706   4.134
10573SOL     OW43597   3.777   3.005  16.220
10573SOL    HW143598   3.710   2.989  16.154
10573SOL    HW243599   3.792   3.100  16.216
10574SOL     OW43600   3.663   1.952  16.571
10574SOL    HW143601   3.747   1.993  16.594
10574SOL    HW243602   3.649   1.887  16.640
10575SOL     OW43603   1.502   2.869   3.227
10575SOL    HW143604   1.551   2.950   3.212
10575SOL    HW243605   1.493   2.830   3.140
10576SOL     OW43606   2.138   1.721  19.528
10576SOL    HW143607   2.098   1.676  19.602
10576SOL    HW243608   2.075   1.788  19.503
10577SOL     OW43609   2.473   2.252   6.248
10577SOL    HW143610   2.434   2.169   6.277
10577SOL    HW243611   2.535   2.275   6.317
10578SOL     OW43612   0.902   3.204  19.934
10578SOL    HW143613   0.982   3.156  19.953
10578SOL    HW243614   0.847   3.140  19.888
10579SOL     OW43615   3.635   4.149   6.573
10579SOL    HW143616   3.610   4.060   6.597
10579SOL    HW243617   3.723   4.141   6.537
10580SOL     OW43618   0.706   2.305   4.442
10580SOL    HW143619   0.771   2.363   4.402
10580SOL    HW243620   0.742   2.283   4.528
10581SOL     OW43621   1.858   4.590   7.984
10581SOL    HW143622   1.936   4.591   7.928
10581SOL    HW243623   1.791   4.635   7.933
10582SOL     OW43624   2.365   3.169  15.360
10582SOL    HW143625   2.453   3.131  15.352
10582SOL    HW243626   2.376   3.243  15.420
10583SOL     OW43627   1.363   2.504   2.132
10583SOL    HW143628   1.344   2.424   2.181
10583SOL    HW243629   1.382   2.570   2.199
10584SOL     OW43630   4.044   3.180  16.177
10584SOL    HW143631   4.108   3.198  16.245
10584SOL    HW243632   3.961   3.212  16.212
10585SOL     OW43633   2.073   2.143   0.244
10585SOL    HW143634   1.984   2.163   0.275
10585SOL    HW243635   2.089   2.054   0.274
10586SOL     OW43636   2.339   4.069  13.381
10586SOL    HW143637   2.358   4.160  13.357
10586SOL    HW243638   2.247   4.057  13.358
10587SOL     OW43639   2.157   1.873  17.028
10587SOL    HW143640   2.066   1.874  16.999
10587SOL    HW243641   2.202   1.817  16.964
10588SOL     OW43642   0.161   3.521  19.449
10588SOL    HW143643   0.255   3.537  19.439
10588SOL    HW243644   0.122   3.560  19.371
10589SOL     OW43645   0.863   3.908  21.141
10589SOL    HW143646   0.872   4.002  21.151
10589SOL    HW243647   0.861   3.874  21.231
10590SOL     OW43648   1.870   2.644   6.123
10590SOL    HW143649   1.870   2.555   6.088
10590SOL    HW243650   1.953   2.652   6.170
10591SOL     OW43651   3.750   0.540   8.220
10591SOL    HW143652   3.723   0.496   8.139
10591SOL    HW243653   3.839   0.508   8.236
10592SOL     OW43654   2.555   4.588  15.986
10592SOL    HW143655   2.595   4.556  16.066
10592SOL    HW243656   2.541   4.510  15.933
10593SOL     OW43657   3.345   2.587   1.182
10593SOL    HW143658   3.335   2.679   1.155
10593SOL    HW243659   3.287   2.579   1.258
10594SOL     OW43660   2.240   3.322   0.577
10594SOL    HW143661   2.215   3.241   0.532
10594SOL    HW243662   2.325   3.346   0.538
10595SOL     OW43663   0.744   2.664  18.919
10595SOL    HW143664   0.806   2.716  18.970
10595SOL    HW243665   0.798   2.600  18.872
10596SOL     OW43666   3.059   2.605   7.802
10596SOL    HW143667   3.061   2.689   7.847
10596SOL    HW243668   2.969   2.574   7.813
10597SOL     OW43669   1.755   3.497   2.906
10597SOL    HW143670   1.819   3.449   2.853
10597SOL    HW243671   1.683   3.435   2.918
10598SOL     OW43672   3.967   0.568  19.946
10598SOL    HW143673   3.903   0.537  19.881
10598SOL    HW243674   3.919   0.632  19.998
10599SOL     OW43675   1.199   2.445  20.473
10599SOL    HW143676   1.198   2.393  20.392
10599SOL    HW243677   1.118   2.421  20.518
10600SOL     OW43678   1.335   4.003   4.202
10600SOL    HW143679   1.356   4.061   4.275
10600SOL    HW243680   1.333   3.916   4.240
10601SOL     OW43681   0.935   4.761   3.605
10601SOL    HW143682   1.013   0.028   3.620
10601SOL    HW243683   0.924   4.712   3.687
10602SOL     OW43684   0.673   4.504  14.746
10602SOL    HW143685   0.697   4.412  14.761
10602SOL    HW243686   0.748   4.554  14.776
10603SOL     OW43687   2.935   1.945   5.269
10603SOL    HW143688   3.017   1.896   5.266
10603SOL    HW243689   2.952   2.018   5.328
10604SOL     OW43690   3.090   3.848   0.684
10604SOL    HW143691   3.176   3.870   0.648
10604SOL    HW243692   3.083   3.753   0.673
10605SOL     OW43693   2.554   0.355   3.466
10605SOL    HW143694   2.646   0.374   3.481
10605SOL    HW243695   2.542   0.267   3.502
10606SOL     OW43696   1.492   1.141   4.719
10606SOL    HW143697   1.412   1.188   4.745
10606SOL    HW243698   1.549   1.209   4.684
10607SOL     OW43699   3.019   2.960  17.653
10607SOL    HW143700   3.009   2.961  17.749
10607SOL    HW243701   3.009   2.868  17.629
10608SOL     OW43702   2.952   1.817  17.330
10608SOL    HW143703   2.981   1.761  17.258
10608SOL    HW243704   2.858   1.799  17.337
10609SOL     OW43705   1.872   4.395  14.487
10609SOL    HW143706   1.887   4.362  14.398
10609SOL    HW243707   1.787   4.439  14.481
10610SOL     OW43708   4.078   4.368   0.806
10610SOL    HW143709   4.081   4.273   0.796
10610SOL    HW243710   4.068   4.381   0.900
10611SOL     OW43711   3.952   1.302  17.994
10611SOL    HW143712   3.966   1.358  17.918
10611SOL    HW243713   4.024   1.238  17.990
10612SOL     OW43714   2.389   1.634   6.722
10612SOL    HW143715   2.360   1.592   6.641
10612SOL    HW243716   2.322   1.610   6.787
10613SOL     OW43717   4.113   2.869   4.280
10613SOL    HW143718   4.029   2.911   4.262
10613SOL    HW243719   4.102   2.780   4.249
10614SOL     OW43720   4.511   3.682  19.221
10614SOL    HW143721   4.520   3.652  19.311
10614SOL    HW243722   4.457   3.616  19.179
10615SOL     OW43723   0.100   4.768  15.887
10615SOL    HW143724   0.041   4.761  15.962
10615SOL    HW243725   0.169   4.704  15.905
10616SOL     OW43726   2.475   4.343  15.878
10616SOL    HW143727   2.383   4.349  15.851
10616SOL    HW243728   2.476   4.272  15.942
10617SOL     OW43729   3.966   2.067  21.194
10617SOL    HW143730   3.939   2.004   0.016
10617SOL    HW243731   3.954   2.152  21.235
10618SOL     OW43732   4.403   1.141   3.688
10618SOL    HW143733   4.485   1.157   3.642
10618SOL    HW243734   4.430   1.100   3.770
10619SOL     OW43735   0.509   1.677  19.818
10619SOL    HW143736   0.577   1.621  19.854
10619SOL    HW243737   0.464   1.712  19.895
10620SOL     OW43738   3.859   4.022   2.295
10620SOL    HW143739   3.913   3.986   2.224
10620SOL    HW243740   3.824   3.945   2.340
10621SOL     OW43741   0.887   0.989  13.406
10621SOL    HW143742   0.896   1.038  13.488
10621SOL    HW243743   0.799   0.951  13.410
10622SOL     OW43744   3.997   4.369   3.211
10622SOL    HW143745   4.032   4.337   3.294
10622SOL    HW243746   3.965   4.290   3.167
10623SOL     OW43747   3.543   3.068   1.137
10623SOL    HW143748   3.594   3.061   1.218
10623SOL    HW243749   3.519   2.978   1.116
10624SOL     OW43750   2.323   3.595  19.797
10624SOL    HW143751   2.376   3.540  19.740
10624SOL    HW243752   2.236   3.556  19.794
10625SOL     OW43753   3.613   1.443  15.321
10625SOL    HW143754   3.568   1.500  15.383
10625SOL    HW243755   3.665   1.502  15.267
10626SOL     OW43756   1.069   3.261   5.224
10626SOL    HW143757   1.052   3.269   5.131
10626SOL    HW243758   0.998   3.206   5.257
10627SOL     OW43759   3.187   2.610  16.703
10627SOL    HW143760   3.110   2.575  16.658
10627SOL    HW243761   3.235   2.532  16.732
10628SOL     OW43762   0.675   1.931   1.972
10628SOL    HW143763   0.607   1.908   1.909
10628SOL    HW243764   0.757   1.914   1.925
10629SOL     OW43765   1.289   1.721  20.662
10629SOL    HW143766   1.366   1.665  20.662
10629SOL    HW243767   1.287   1.759  20.750
10630SOL     OW43768   4.547   4.425  19.892
10630SOL    HW143769   4.527   4.510  19.852
10630SOL    HW243770   4.603   4.381  19.828
10631SOL     OW43771   3.950   2.775  18.389
10631SOL    HW143772   3.987   2.786  18.477
10631SOL    HW243773   4.010   2.823  18.332
10632SOL     OW43774   3.747   1.228  18.645
10632SOL    HW143775   3.735   1.319  18.618
10632SOL    HW243776   3.676   1.181  18.602
10633SOL     OW43777   2.402   3.818  14.815
10633SOL    HW143778   2.384   3.907  14.787
10633SOL    HW243779   2.395   3.766  14.735
10634SOL     OW43780   0.751   1.421   1.568
10634SOL    HW143781   0.815   1.471   1.618
10634SOL    HW243782   0.726   1.479   1.496
10635SOL     OW43783   0.183   3.153   4.687
10635SOL    HW143784   0.250   3.186   4.628
10635SOL    HW243785   0.231   3.122   4.763
10636SOL     OW43786   1.568   3.131   2.087
10636SOL    HW143787   1.485   3.085   2.097
10636SOL    HW243788   1.573   3.150   1.993
10637SOL     OW43789   3.237   1.069   4.733
10637SOL    HW143790   3.319   1.079   4.686
10637SOL    HW243791   3.183   1.015   4.676
10638SOL     OW43792   1.447   0.161  20.185
10638SOL    HW143793   1.458   0.240  20.132
10638SOL    HW243794   1.510   0.099  20.149
10639SOL     OW43795   0.813   1.834  20.355
10639SOL    HW143796   0.796   1.741  20.370
10639SOL    HW243797   0.803   1.875  20.441
10640SOL     OW43798   4.485   1.341   5.827
10640SOL    HW143799   4.521   1.425   5.795
10640SOL    HW243800   4.557   1.302   5.876
10641SOL     OW43801   2.991   3.816  15.423
10641SOL    HW143802   2.992   3.903  15.383
10641SOL    HW243803   3.068   3.814  15.479
10642SOL     OW43804   2.957   4.452   2.515
10642SOL    HW143805   3.009   4.520   2.557
10642SOL    HW243806   2.898   4.420   2.584
10643SOL     OW43807   0.801   1.270  16.232
10643SOL    HW143808   0.872   1.221  16.191
10643SOL    HW243809   0.795   1.350  16.180
10644SOL     OW43810   0.335   2.153  18.262
10644SOL    HW143811   0.343   2.172  18.355
10644SOL    HW243812   0.414   2.190  18.223
10645SOL     OW43813   1.689   1.489   2.220
10645SOL    HW143814   1.669   1.396   2.235
10645SOL    HW243815   1.642   1.510   2.139
10646SOL     OW43816   4.481   4.399   4.882
10646SOL    HW143817   4.542   4.328   4.904
10646SOL    HW243818   4.490   4.409   4.787
10647SOL     OW43819   0.960   0.463   1.309
10647SOL    HW143820   0.971   0.386   1.253
10647SOL    HW243821   0.996   0.535   1.259
10648SOL     OW43822   3.542   0.562  19.798
10648SOL    HW143823   3.520   0.532  19.887
10648SOL    HW243824   3.490   0.642  19.787
10649SOL     OW43825   3.911   3.175  15.651
10649SOL    HW143826   3.817   3.190  15.645
10649SOL    HW243827   3.924   3.146  15.742
10650SOL     OW43828   2.393   4.512  13.691
10650SOL    HW143829   2.458   4.516  13.621
10650SOL    HW243830   2.406   4.425  13.730
10651SOL     OW43831   3.226   3.736   5.715
10651SOL    HW143832   3.163   3.712   5.647
10651SOL    HW243833   3.178   3.729   5.797
10652SOL     OW43834   3.743   1.628   6.553
10652SOL    HW143835   3.764   1.655   6.642
10652SOL    HW243836   3.765   1.535   6.551
10653SOL     OW43837   2.369   0.169   3.806
10653SOL    HW143838   2.286   0.123   3.805
10653SOL    HW243839   2.352   0.251   3.759
10654SOL     OW43840   2.237   4.632   6.245
10654SOL    HW143841   2.289   4.559   6.280
10654SOL    HW243842   2.284   4.659   6.166
10655SOL     OW43843   0.597   0.018  14.211
10655SOL    HW143844   0.610   0.060  14.126
10655SOL    HW243845   0.513   0.053  14.242
10656SOL     OW43846   2.685   0.744  16.805
10656SOL    HW143847   2.630   0.722  16.880
10656SOL    HW243848   2.775   0.735  16.838
10657SOL     OW43849   3.713   2.242  13.532
10657SOL    HW143850   3.683   2.297  13.460
10657SOL    HW243851   3.648   2.255  13.601
10658SOL     OW43852   4.034   2.463   0.555
10658SOL    HW143853   3.993   2.400   0.615
10658SOL    HW243854   4.128   2.447   0.565
10659SOL     OW43855   0.776   4.036   2.112
10659SOL    HW143856   0.745   4.038   2.203
10659SOL    HW243857   0.787   3.943   2.092
10660SOL     OW43858   2.415   3.889   6.201
10660SOL    HW143859   2.470   3.925   6.131
10660SOL    HW243860   2.333   3.937   6.194
10661SOL     OW43861   0.491   1.261  14.576
10661SOL    HW143862   0.572   1.312  14.575
10661SOL    HW243863   0.478   1.240  14.669
10662SOL     OW43864   1.445   3.827   4.625
10662SOL    HW143865   1.533   3.804   4.656
10662SOL    HW243866   1.429   3.914   4.662
10663SOL     OW43867   0.769   0.193  14.343
10663SOL    HW143868   0.715   0.123  14.306
10663SOL    HW243869   0.732   0.274  14.308
10664SOL     OW43870   3.715   0.967  15.102
10664SOL    HW143871   3.808   0.947  15.116
10664SOL    HW243872   3.677   0.965  15.190
10665SOL     OW43873   0.020   4.558   0.853
10665SOL    HW143874   0.039   4.494   0.921
10665SOL    HW243875   4.781   4.506   0.777
10666SOL     OW43876   2.377   4.060   1.010
10666SOL    HW143877   2.458   4.077   0.962
10666SOL    HW243878   2.311   4.113   0.965
10667SOL     OW43879   2.889   4.025  20.956
10667SOL    HW143880   2.830   3.952  20.975
10667SOL    HW243881   2.831   4.097  20.930
10668SOL     OW43882   4.008   2.079  17.196
10668SOL    HW143883   4.023   2.170  17.171
10668SOL    HW243884   3.913   2.069  17.195
10669SOL     OW43885   3.613   0.765   5.601
10669SOL    HW143886   3.536   0.733   5.649
10669SOL    HW243887   3.616   0.711   5.522
10670SOL     OW43888   3.517   0.642  21.175
10670SOL    HW143889   3.599   0.593  21.171
10670SOL    HW243890   3.539   0.729  21.140
10671SOL     OW43891   1.187   4.371   1.478
10671SOL    HW143892   1.151   4.419   1.553
10671SOL    HW243893   1.137   4.404   1.403
10672SOL     OW43894   1.261   1.028  17.196
10672SOL    HW143895   1.318   1.056  17.268
10672SOL    HW243896   1.200   1.102  17.185
10673SOL     OW43897   1.294   0.751  15.301
10673SOL    HW143898   1.280   0.664  15.338
10673SOL    HW243899   1.365   0.739  15.239
10674SOL     OW43900   0.784   4.764   2.665
10674SOL    HW143901   0.782   4.681   2.617
10674SOL    HW243902   0.877   4.778   2.683
10675SOL     OW43903   2.516   0.082  20.558
10675SOL    HW143904   2.557   0.001  20.529
10675SOL    HW243905   2.438   0.090  20.504
10676SOL     OW43906   0.731   0.691   2.093
10676SOL    HW143907   0.738   0.778   2.053
10676SOL    HW243908   0.763   0.704   2.182
10677SOL     OW43909   3.783   3.513  20.491
10677SOL    HW143910   3.869   3.536  20.524
10677SOL    HW243911   3.743   3.461  20.562
10678SOL     OW43912   1.148   2.798  18.358
10678SOL    HW143913   1.073   2.739  18.350
10678SOL    HW243914   1.115   2.882  18.325
10679SOL     OW43915   3.629   1.470   4.811
10679SOL    HW143916   3.582   1.542   4.767
10679SOL    HW243917   3.612   1.484   4.904
10680SOL     OW43918   1.317   1.981  18.881
10680SOL    HW143919   1.408   2.008  18.867
10680SOL    HW243920   1.273   2.059  18.912
10681SOL     OW43921   1.274   0.861  18.295
10681SOL    HW143922   1.216   0.883  18.368
10681SOL    HW243923   1.215   0.852  18.220
10682SOL     OW43924   4.128   2.537   5.447
10682SOL    HW143925   4.201   2.553   5.507
10682SOL    HW243926   4.145   2.594   5.372
10683SOL     OW43927   1.255   3.201  21.118
10683SOL    HW143928   1.309   3.123  21.134
10683SOL    HW243929   1.210   3.183  21.035
10684SOL     OW43930   0.936   4.661   4.655
10684SOL    HW143931   0.846   4.692   4.659
10684SOL    HW243932   0.933   4.572   4.689
10685SOL     OW43933   2.951   1.979   2.301
10685SOL    HW143934   2.872   1.954   2.254
10685SOL    HW243935   2.972   1.902   2.355
10686SOL     OW43936   2.866   0.032  16.051
10686SOL    HW143937   2.959   0.037  16.072
10686SOL    HW243938   2.824   0.089  16.115
10687SOL     OW43939   2.832   0.431  15.919
10687SOL    HW143940   2.741   0.417  15.892
10687SOL    HW243941   2.881   0.435  15.837
10688SOL     OW43942   2.366   0.294   4.075
10688SOL    HW143943   2.316   0.235   4.019
10688SOL    HW243944   2.327   0.380   4.060
10689SOL     OW43945   4.662   0.486  12.919
10689SOL    HW143946   4.569   0.480  12.941
10689SOL    HW243947   4.680   0.404  12.872
10690SOL     OW43948   1.546   1.193  20.776
10690SOL    HW143949   1.540   1.113  20.724
10690SOL    HW243950   1.550   1.264  20.711
10691SOL     OW43951   0.411   1.252   0.374
10691SOL    HW143952   0.451   1.339   0.381
10691SOL    HW243953   0.319   1.267   0.397
10692SOL     OW43954   0.136   4.679  15.306
10692SOL    HW143955   0.045   4.655  15.291
10692SOL    HW243956   0.151   4.660  15.399
10693SOL     OW43957   1.236   0.557  18.246
10693SOL    HW143958   1.181   0.545  18.323
10693SOL    HW243959   1.189   0.621  18.192
10694SOL     OW43960   1.373   0.700  12.297
10694SOL    HW143961   1.332   0.755  12.364
10694SOL    HW243962   1.467   0.707  12.314
10695SOL     OW43963   3.677   1.254   2.741
10695SOL    HW143964   3.632   1.308   2.806
10695SOL    HW243965   3.606   1.214   2.690
10696SOL     OW43966   0.307   4.182  18.908
10696SOL    HW143967   0.315   4.100  18.859
10696SOL    HW243968   0.397   4.204  18.931
10697SOL     OW43969   1.603   2.904   3.641
10697SOL    HW143970   1.606   2.845   3.716
10697SOL    HW243971   1.510   2.911   3.619
10698SOL     OW43972   0.481   0.769   3.247
10698SOL    HW143973   0.492   0.856   3.285
10698SOL    HW243974   0.463   0.713   3.323
10699SOL     OW43975   3.016   0.171   6.311
10699SOL    HW143976   3.039   0.078   6.320
10699SOL    HW243977   3.092   0.211   6.269
10700SOL     OW43978   2.738   0.382   5.049
10700SOL    HW143979   2.655   0.355   5.010
10700SOL    HW243980   2.805   0.341   4.994
10701SOL     OW43981   1.225   4.098   3.468
10701SOL    HW143982   1.260   4.035   3.405
10701SOL    HW243983   1.261   4.071   3.552
10702SOL     OW43984   1.389   1.860  18.533
10702SOL    HW143985   1.314   1.849  18.474
10702SOL    HW243986   1.359   1.823  18.616
10703SOL     OW43987   4.572   3.734   4.071
10703SOL    HW143988   4.586   3.829   4.067
10703SOL    HW243989   4.659   3.696   4.060
10704SOL     OW43990   1.861   2.943   9.645
10704SOL    HW143991   1.853   3.017   9.706
10704SOL    HW243992   1.771   2.924   9.619
10705SOL     OW43993   3.547   0.328  14.509
10705SOL    HW143994   3.525   0.321  14.416
10705SOL    HW243995   3.611   0.399  14.513
10706SOL     OW43996   3.067   3.428   5.140
10706SOL    HW143997   3.046   3.518   5.117
10706SOL    HW243998   3.097   3.389   5.058
10707SOL     OW43999   1.496   3.414   4.600
10707SOL    HW144000   1.491   3.333   4.652
10707SOL    HW244001   1.413   3.416   4.551
10708SOL     OW44002   0.868   3.767  14.751
10708SOL    HW144003   0.859   3.733  14.840
10708SOL    HW244004   0.778   3.785  14.724
10709SOL     OW44005   4.519   1.052  16.856
10709SOL    HW144006   4.424   1.050  16.856
10709SOL    HW244007   4.546   0.960  16.855
10710SOL     OW44008   4.661   0.294   5.824
10710SOL    HW144009   4.676   0.350   5.901
10710SOL    HW244010   4.741   0.242   5.816
10711SOL     OW44011   0.009   1.834   3.261
10711SOL    HW144012   0.015   1.772   3.333
10711SOL    HW244013   0.025   1.920   3.302
10712SOL     OW44014   1.440   3.968  16.329
10712SOL    HW144015   1.417   4.037  16.267
10712SOL    HW244016   1.518   4.001  16.374
10713SOL     OW44017   3.257   4.417  20.597
10713SOL    HW144018   3.327   4.476  20.628
10713SOL    HW244019   3.276   4.333  20.638
10714SOL     OW44020   0.424   3.609  12.086
10714SOL    HW144021   0.396   3.660  12.162
10714SOL    HW244022   0.479   3.669  12.035
10715SOL     OW44023   2.477   1.205   8.377
10715SOL    HW144024   2.441   1.116   8.382
10715SOL    HW244025   2.418   1.258   8.430
10716SOL     OW44026   1.045   0.980   5.600
10716SOL    HW144027   0.950   0.971   5.612
10716SOL    HW244028   1.078   0.890   5.601
10717SOL     OW44029   0.424   4.438  16.723
10717SOL    HW144030   0.503   4.410  16.677
10717SOL    HW244031   0.364   4.464  16.654
10718SOL     OW44032   2.330   3.672   2.326
10718SOL    HW144033   2.299   3.603   2.268
10718SOL    HW244034   2.354   3.627   2.407
10719SOL     OW44035   0.828   2.649   0.806
10719SOL    HW144036   0.786   2.640   0.720
10719SOL    HW244037   0.864   2.738   0.805
10720SOL     OW44038   3.385   4.529   4.730
10720SOL    HW144039   3.335   4.511   4.810
10720SOL    HW244040   3.470   4.559   4.762
10721SOL     OW44041   0.654   1.140  18.743
10721SOL    HW144042   0.572   1.121  18.698
10721SOL    HW244043   0.720   1.136  18.675
10722SOL     OW44044   0.696   2.760  12.181
10722SOL    HW144045   0.712   2.677  12.136
10722SOL    HW244046   0.726   2.746  12.270
10723SOL     OW44047   2.703   3.308   1.230
10723SOL    HW144048   2.725   3.301   1.323
10723SOL    HW244049   2.691   3.402   1.216
10724SOL     OW44050   1.564   3.934  20.737
10724SOL    HW144051   1.554   4.016  20.688
10724SOL    HW244052   1.655   3.908  20.721
10725SOL     OW44053   1.216   4.476  21.035
10725SOL    HW144054   1.169   4.446  20.957
10725SOL    HW244055   1.190   4.416  21.104
10726SOL     OW44056   1.374   4.303  17.343
10726SOL    HW144057   1.377   4.333  17.252
10726SOL    HW244058   1.337   4.377  17.391
10727SOL     OW44059   2.216   0.892  21.103
10727SOL    HW144060   2.191   0.900  21.194
10727SOL    HW244061   2.312   0.891  21.104
10728SOL     OW44062   1.283   4.522   2.374
10728SOL    HW144063   1.312   4.600   2.327
10728SOL    HW244064   1.275   4.455   2.307
10729SOL     OW44065   3.140   3.880  12.904
10729SOL    HW144066   3.059   3.906  12.858
10729SOL    HW244067   3.209   3.893  12.839
10730SOL     OW44068   1.058   3.078  17.053
10730SOL    HW144069   1.097   3.154  17.010
10730SOL    HW244070   1.059   3.010  16.986
10731SOL     OW44071   4.194   4.745   1.973
10731SOL    HW144072   4.101   4.724   1.973
10731SOL    HW244073   4.199   0.048   2.006
10732SOL     OW44074   2.620   0.800  15.112
10732SOL    HW144075   2.615   0.724  15.170
10732SOL    HW244076   2.535   0.803  15.068
10733SOL     OW44077   3.662   3.477   5.360
10733SOL    HW144078   3.635   3.440   5.444
10733SOL    HW244079   3.621   3.421   5.294
10734SOL     OW44080   4.163   2.901   2.749
10734SOL    HW144081   4.159   2.811   2.719
10734SOL    HW244082   4.256   2.916   2.768
10735SOL     OW44083   0.341   0.645  18.856
10735SOL    HW144084   0.394   0.660  18.778
10735SOL    HW244085   0.396   0.592  18.913
10736SOL     OW44086   3.688   0.120  16.607
10736SOL    HW144087   3.759   0.063  16.638
10736SOL    HW244088   3.615   0.102  16.667
10737SOL     OW44089   3.514   1.057   7.164
10737SOL    HW144090   3.477   1.137   7.200
10737SOL    HW244091   3.599   1.084   7.129
10738SOL     OW44092   3.640   0.655   1.197
10738SOL    HW144093   3.654   0.677   1.105
10738SOL    HW244094   3.650   0.738   1.244
10739SOL     OW44095   4.322   3.569  14.740
10739SOL    HW144096   4.357   3.634  14.679
10739SOL    HW244097   4.233   3.552  14.710
10740SOL     OW44098   2.358   0.166   2.637
10740SOL    HW144099   2.342   0.258   2.617
10740SOL    HW244100   2.312   0.151   2.719
10741SOL     OW44101   2.288   2.671   8.426
10741SOL    HW144102   2.373   2.630   8.408
10741SOL    HW244103   2.295   2.758   8.387
10742SOL     OW44104   1.030   4.280   2.508
10742SOL    HW144105   1.015   4.369   2.540
10742SOL    HW244106   1.016   4.285   2.414
10743SOL     OW44107   2.478   1.010  20.353
10743SOL    HW144108   2.460   1.007  20.447
10743SOL    HW244109   2.392   1.021  20.312
10744SOL     OW44110   4.725   0.490  19.902
10744SOL    HW144111   4.667   0.559  19.870
10744SOL    HW244112   4.686   0.462  19.984
10745SOL     OW44113   4.584   0.367  20.087
10745SOL    HW144114   4.509   0.327  20.132
10745SOL    HW244115   4.640   0.293  20.064
10746SOL     OW44116   3.419   2.623  17.337
10746SOL    HW144117   3.351   2.565  17.374
10746SOL    HW244118   3.451   2.576  17.260
10747SOL     OW44119   4.152   1.137   1.267
10747SOL    HW144120   4.116   1.126   1.355
10747SOL    HW244121   4.103   1.075   1.213
10748SOL     OW44122   1.315   3.803  16.513
10748SOL    HW144123   1.371   3.726  16.500
10748SOL    HW244124   1.356   3.871  16.458
10749SOL     OW44125   2.496   0.884  21.152
10749SOL    HW144126   2.494   0.794  21.183
10749SOL    HW244127   2.566   0.886  21.087
10750SOL     OW44128   2.887   0.723  18.159
10750SOL    HW144129   2.794   0.719  18.139
10750SOL    HW244130   2.928   0.669  18.091
10751SOL     OW44131   2.969   2.836   3.908
10751SOL    HW144132   2.879   2.838   3.941
10751SOL    HW244133   2.973   2.758   3.854
10752SOL     OW44134   4.762   2.570  19.063
10752SOL    HW144135   0.018   2.589  19.146
10752SOL    HW244136   0.027   2.499  19.025
10753SOL     OW44137   0.310   0.222  14.676
10753SOL    HW144138   0.217   0.237  14.692
10753SOL    HW244139   0.341   0.174  14.753
10754SOL     OW44140   3.716   4.611  13.799
10754SOL    HW144141   3.806   4.598  13.829
10754SOL    HW244142   3.712   4.566  13.715
10755SOL     OW44143   3.658   4.689   4.125
10755SOL    HW144144   3.574   4.735   4.117
10755SOL    HW244145   3.672   4.681   4.219
10756SOL     OW44146   0.691   0.431  20.971
10756SOL    HW144147   0.625   0.409  21.038
10756SOL    HW244148   0.664   0.516  20.938
10757SOL     OW44149   4.483   0.432   0.020
10757SOL    HW144150   4.477   0.515  21.218
10757SOL    HW244151   4.513   0.456   0.108
10758SOL     OW44152   3.469   3.654   5.610
10758SOL    HW144153   3.452   3.578   5.555
10758SOL    HW244154   3.381   3.683   5.637
10759SOL     OW44155   4.512   2.456   5.144
10759SOL    HW144156   4.579   2.501   5.092
10759SOL    HW244157   4.560   2.385   5.187
10760SOL     OW44158   2.519   1.712   1.162
10760SOL    HW144159   2.448   1.649   1.171
10760SOL    HW244160   2.482   1.781   1.107
10761SOL     OW44161   4.631   1.055   5.865
10761SOL    HW144162   4.725   1.054   5.882
10761SOL    HW244163   4.623   1.018   5.776
10762SOL     OW44164   1.323   3.410  20.396
10762SOL    HW144165   1.238   3.374  20.372
10762SOL    HW244166   1.356   3.450  20.316
10763SOL     OW44167   0.129   2.758  20.584
10763SOL    HW144168   0.039   2.791  20.584
10763SOL    HW244169   0.126   2.680  20.529
10764SOL     OW44170   1.217   1.396  17.238
10764SOL    HW144171   1.139   1.341  17.236
10764SOL    HW244172   1.193   1.475  17.189
10765SOL     OW44173   1.791   0.362  19.752
10765SOL    HW144174   1.710   0.411  19.751
10765SOL    HW244175   1.825   0.369  19.663
10766SOL     OW44176   4.726   2.663   3.024
10766SOL    HW144177   4.732   2.732   2.958
10766SOL    HW244178   4.731   2.581   2.975
10767SOL     OW44179   3.073   4.624   2.991
10767SOL    HW144180   3.145   4.570   3.022
10767SOL    HW244181   3.020   4.641   3.069
10768SOL     OW44182   4.437   0.610  20.151
10768SOL    HW144183   4.490   0.532  20.132
10768SOL    HW244184   4.349   0.586  20.123
10769SOL     OW44185   2.409   2.715   8.079
10769SOL    HW144186   2.401   2.628   8.118
10769SOL    HW244187   2.370   2.706   7.992
10770SOL     OW44188   2.298   0.336  15.631
10770SOL    HW144189   2.301   0.301  15.542
10770SOL    HW244190   2.371   0.294  15.677
10771SOL     OW44191   4.300   0.994  18.440
10771SOL    HW144192   4.205   0.995  18.431
10771SOL    HW244193   4.322   1.080  18.477
10772SOL     OW44194   0.428   4.344  15.455
10772SOL    HW144195   0.504   4.312  15.504
10772SOL    HW244196   0.429   4.439  15.469
10773SOL     OW44197   0.230   1.127   2.674
10773SOL    HW144198   0.193   1.095   2.592
10773SOL    HW244199   0.283   1.054   2.707
10774SOL     OW44200   1.351   3.861  19.444
10774SOL    HW144201   1.376   3.946  19.407
10774SOL    HW244202   1.403   3.797  19.395
10775SOL     OW44203   2.240   2.726   2.972
10775SOL    HW144204   2.162   2.706   3.024
10775SOL    HW244205   2.285   2.794   3.023
10776SOL     OW44206   1.506   3.762   3.268
10776SOL    HW144207   1.563   3.813   3.324
10776SOL    HW244208   1.565   3.703   3.220
10777SOL     OW44209   2.631   0.074   1.141
10777SOL    HW144210   2.715   0.050   1.101
10777SOL    HW244211   2.606   4.784   1.192
10778SOL     OW44212   4.098   0.216  19.939
10778SOL    HW144213   4.153   0.287  19.971
10778SOL    HW244214   4.159   0.143  19.925
10779SOL     OW44215   4.661   2.678  16.754
10779SOL    HW144216   4.692   2.735  16.684
10779SOL    HW244217   4.630   2.600  16.710
10780SOL     OW44218   2.156   3.052   6.353
10780SOL    HW144219   2.172   3.083   6.264
10780SOL    HW244220   2.150   2.957   6.345
10781SOL     OW44221   4.185   2.992  18.753
10781SOL    HW144222   4.266   2.976  18.801
10781SOL    HW244223   4.166   2.909  18.710
10782SOL     OW44224   4.714   0.883   2.137
10782SOL    HW144225   4.749   0.846   2.056
10782SOL    HW244226   4.751   0.829   2.207
10783SOL     OW44227   4.564   0.967  19.715
10783SOL    HW144228   4.644   1.016  19.695
10783SOL    HW244229   4.508   0.982  19.639
10784SOL     OW44230   3.792   2.368   3.513
10784SOL    HW144231   3.769   2.276   3.500
10784SOL    HW244232   3.825   2.372   3.603
10785SOL     OW44233   4.207   1.352   2.353
10785SOL    HW144234   4.225   1.331   2.445
10785SOL    HW244235   4.131   1.409   2.356
10786SOL     OW44236   2.693   1.205   2.171
10786SOL    HW144237   2.720   1.259   2.096
10786SOL    HW244238   2.597   1.201   2.164
10787SOL     OW44239   0.959   0.450   5.824
10787SOL    HW144240   0.990   0.426   5.736
10787SOL    HW244241   0.867   0.472   5.812
10788SOL     OW44242   0.948   1.422   2.954
10788SOL    HW144243   0.881   1.477   2.913
10788SOL    HW244244   0.900   1.373   3.021
10789SOL     OW44245   2.548   3.833  21.203
10789SOL    HW144246   2.453   3.830  21.194
10789SOL    HW244247   2.581   3.840  21.113
10790SOL     OW44248   1.233   2.753   1.299
10790SOL    HW144249   1.180   2.690   1.252
10790SOL    HW244250   1.175   2.828   1.314
10791SOL     OW44251   0.703   2.640   5.779
10791SOL    HW144252   0.755   2.714   5.809
10791SOL    HW244253   0.742   2.564   5.823
10792SOL     OW44254   4.331   4.465   6.702
10792SOL    HW144255   4.346   4.408   6.627
10792SOL    HW244256   4.258   4.424   6.750
10793SOL     OW44257   0.477   1.829   0.531
10793SOL    HW144258   0.558   1.778   0.537
10793SOL    HW244259   0.457   1.852   0.622
10794SOL     OW44260   2.647   4.542  19.793
10794SOL    HW144261   2.717   4.577  19.739
10794SOL    HW244262   2.666   4.575  19.881
10795SOL     OW44263   0.045   4.464  19.219
10795SOL    HW144264   0.050   4.396  19.152
10795SOL    HW244265   0.033   4.415  19.301
10796SOL     OW44266   0.262   4.415   1.655
10796SOL    HW144267   0.236   4.400   1.746
10796SOL    HW244268   0.180   4.428   1.608
10797SOL     OW44269   3.224   1.688  16.913
10797SOL    HW144270   3.318   1.703  16.902
10797SOL    HW244271   3.184   1.773  16.899
10798SOL     OW44272   3.447   2.949   3.120
10798SOL    HW144273   3.484   3.024   3.073
10798SOL    HW244274   3.513   2.926   3.185
10799SOL     OW44275   2.071   2.678  17.006
10799SOL    HW144276   2.137   2.648  17.069
10799SOL    HW244277   2.086   2.772  16.998
10800SOL     OW44278   2.179   1.200   1.520
10800SOL    HW144279   2.187   1.281   1.572
10800SOL    HW244280   2.192   1.130   1.583
10801SOL     OW44281   2.978   1.031   2.380
10801SOL    HW144282   2.952   1.005   2.292
10801SOL    HW244283   2.907   0.999   2.437
10802SOL     OW44284   4.093   0.957   4.953
10802SOL    HW144285   4.120   0.899   4.881
10802SOL    HW244286   4.014   0.916   4.988
10803SOL     OW44287   3.989   0.130   3.015
10803SOL    HW144288   4.084   0.133   3.019
10803SOL    HW244289   3.960   0.151   3.104
10804SOL     OW44290   2.593   3.465   0.029
10804SOL    HW144291   2.547   3.521  21.211
10804SOL    HW244292   2.673   3.513   0.049
10805SOL     OW44293   2.297   4.703  20.227
10805SOL    HW144294   2.367   4.763  20.203
10805SOL    HW244295   2.341   4.619  20.239
10806SOL     OW44296   3.252   3.615   5.316
10806SOL    HW144297   3.270   3.709   5.317
10806SOL    HW244298   3.204   3.602   5.234
10807SOL     OW44299   0.757   4.753  17.178
10807SOL    HW144300   0.815   4.722  17.108
10807SOL    HW244301   0.669   4.728  17.148
10808SOL     OW44302   2.457   2.817   3.871
10808SOL    HW144303   2.544   2.779   3.884
10808SOL    HW244304   2.466   2.870   3.792
10809SOL     OW44305   2.566   2.644   2.197
10809SOL    HW144306   2.647   2.661   2.149
10809SOL    HW244307   2.595   2.614   2.283
10810SOL     OW44308   1.566   2.579   5.188
10810SOL    HW144309   1.561   2.559   5.281
10810SOL    HW244310   1.579   2.674   5.184
10811SOL     OW44311   0.951   4.176  16.974
10811SOL    HW144312   0.966   4.270  16.963
10811SOL    HW244313   0.859   4.164  16.951
10812SOL     OW44314   4.517   2.195  16.040
10812SOL    HW144315   4.427   2.194  16.007
10812SOL    HW244316   4.516   2.260  16.110
10813SOL     OW44317   0.354   2.592  16.882
10813SOL    HW144318   0.365   2.547  16.966
10813SOL    HW244319   0.262   2.617  16.881
10814SOL     OW44320   1.966   0.201  18.658
10814SOL    HW144321   1.884   0.200  18.706
10814SOL    HW244322   1.993   0.109  18.654
10815SOL     OW44323   0.810   2.689   3.066
10815SOL    HW144324   0.753   2.757   3.102
10815SOL    HW244325   0.868   2.736   3.006
10816SOL     OW44326   4.670   2.439   0.867
10816SOL    HW144327   4.713   2.411   0.786
10816SOL    HW244328   4.688   2.369   0.930
10817SOL     OW44329   2.079   2.017  19.753
10817SOL    HW144330   2.064   1.943  19.813
10817SOL    HW244331   2.000   2.019  19.699
10818SOL     OW44332   1.109   0.061   8.786
10818SOL    HW144333   1.132   0.132   8.726
10818SOL    HW244334   1.016   0.047   8.771
10819SOL     OW44335   3.418   3.145  12.922
10819SOL    HW144336   3.325   3.125  12.913
10819SOL    HW244337   3.423   3.241  12.918
10820SOL     OW44338   1.047   0.241  20.491
10820SOL    HW144339   0.978   0.252  20.425
10820SOL    HW244340   1.084   0.155  20.473
10821SOL     OW44341   3.160   3.171  20.010
10821SOL    HW144342   3.157   3.161  19.915
10821SOL    HW244343   3.071   3.150  20.039
10822SOL     OW44344   1.153   0.573   3.378
10822SOL    HW144345   1.079   0.584   3.318
10822SOL    HW244346   1.181   0.662   3.398
10823SOL     OW44347   3.227   0.458  18.311
10823SOL    HW144348   3.156   0.436  18.372
10823SOL    HW244349   3.201   0.542  18.274
10824SOL     OW44350   3.007   3.354   5.651
10824SOL    HW144351   3.010   3.347   5.555
10824SOL    HW244352   3.095   3.382   5.676
10825SOL     OW44353   2.146   1.333  15.360
10825SOL    HW144354   2.202   1.390  15.413
10825SOL    HW244355   2.186   1.246  15.369
10826SOL     OW44356   3.502   1.711  15.987
10826SOL    HW144357   3.562   1.757  16.046
10826SOL    HW244358   3.453   1.781  15.944
10827SOL     OW44359   3.733   1.162   6.671
10827SOL    HW144360   3.744   1.102   6.745
10827SOL    HW244361   3.784   1.239   6.694
10828SOL     OW44362   4.002   4.437   8.536
10828SOL    HW144363   4.093   4.440   8.508
10828SOL    HW244364   4.000   4.488   8.617
10829SOL     OW44365   2.883   4.454   3.455
10829SOL    HW144366   2.885   4.360   3.474
10829SOL    HW244367   2.900   4.496   3.539
10830SOL     OW44368   0.061   0.432  17.122
10830SOL    HW144369   0.118   0.506  17.101
10830SOL    HW244370   0.047   0.439  17.216
10831SOL     OW44371   3.169   3.243   6.579
10831SOL    HW144372   3.105   3.315   6.579
10831SOL    HW244373   3.118   3.166   6.602
10832SOL     OW44374   3.311   2.770  17.053
10832SOL    HW144375   3.378   2.782  17.121
10832SOL    HW244376   3.331   2.685  17.014
10833SOL     OW44377   0.728   1.516  20.721
10833SOL    HW144378   0.682   1.434  20.739
10833SOL    HW244379   0.812   1.506  20.765
10834SOL     OW44380   0.023   2.898   3.807
10834SOL    HW144381   4.751   2.948   3.750
10834SOL    HW244382   4.786   2.807   3.792
10835SOL     OW44383   4.165   1.863   3.358
10835SOL    HW144384   4.217   1.871   3.438
10835SOL    HW244385   4.228   1.877   3.287
10836SOL     OW44386   3.695   4.547   4.450
10836SOL    HW144387   3.772   4.499   4.481
10836SOL    HW244388   3.622   4.504   4.493
10837SOL     OW44389   3.944   2.996  17.410
10837SOL    HW144390   3.929   3.080  17.453
10837SOL    HW244391   3.875   2.939  17.443
10838SOL     OW44392   3.958   0.117   7.606
10838SOL    HW144393   4.025   0.165   7.558
10838SOL    HW244394   3.973   0.025   7.584
10839SOL     OW44395   2.429   0.119  14.494
10839SOL    HW144396   2.345   0.096  14.455
10839SOL    HW244397   2.408   0.171  14.571
10840SOL     OW44398   3.705   4.491   5.531
10840SOL    HW144399   3.674   4.508   5.442
10840SOL    HW244400   3.681   4.400   5.548
10841SOL     OW44401   2.272   3.501  17.346
10841SOL    HW144402   2.343   3.479  17.406
10841SOL    HW244403   2.250   3.417  17.304
10842SOL     OW44404   4.063   3.955   3.432
10842SOL    HW144405   4.044   3.874   3.385
10842SOL    HW244406   4.129   3.999   3.378
10843SOL     OW44407   2.998   2.145   7.198
10843SOL    HW144408   3.050   2.071   7.230
10843SOL    HW244409   3.021   2.152   7.105
10844SOL     OW44410   0.190   0.596   4.185
10844SOL    HW144411   0.278   0.621   4.213
10844SOL    HW244412   0.134   0.622   4.257
10845SOL     OW44413   0.560   2.052   1.346
10845SOL    HW144414   0.600   1.975   1.387
10845SOL    HW244415   0.481   2.068   1.397
10846SOL     OW44416   3.600   0.558   5.407
10846SOL    HW144417   3.560   0.485   5.454
10846SOL    HW244418   3.637   0.519   5.328
10847SOL     OW44419   2.788   0.330   0.815
10847SOL    HW144420   2.764   0.300   0.727
10847SOL    HW244421   2.784   0.425   0.809
10848SOL     OW44422   4.766   0.665  18.386
10848SOL    HW144423   4.750   0.653  18.479
10848SOL    HW244424   0.025   0.585  18.359
10849SOL     OW44425   2.305   2.472  16.919
10849SOL    HW144426   2.307   2.510  17.006
10849SOL    HW244427   2.392   2.488  16.883
10850SOL     OW44428   1.300   3.380  18.992
10850SOL    HW144429   1.314   3.287  19.010
10850SOL    HW244430   1.385   3.411  18.961
10851SOL     OW44431   2.635   2.997  15.602
10851SOL    HW144432   2.655   2.997  15.695
10851SOL    HW244433   2.578   2.921  15.590
10852SOL     OW44434   4.229   3.932   6.428
10852SOL    HW144435   4.191   3.941   6.516
10852SOL    HW244436   4.236   3.837   6.415
10853SOL     OW44437   2.770   2.767   0.563
10853SOL    HW144438   2.693   2.788   0.616
10853SOL    HW244439   2.750   2.682   0.523
10854SOL     OW44440   3.075   1.850   9.792
10854SOL    HW144441   2.997   1.796   9.805
10854SOL    HW244442   3.138   1.794   9.748
10855SOL     OW44443   2.078   3.662   0.221
10855SOL    HW144444   2.009   3.670   0.156
10855SOL    HW244445   2.049   3.715   0.295
10856SOL     OW44446   2.712   4.685  18.071
10856SOL    HW144447   2.760   4.602  18.074
10856SOL    HW244448   2.726   4.723  18.158
10857SOL     OW44449   0.797   1.597   2.168
10857SOL    HW144450   0.721   1.630   2.216
10857SOL    HW244451   0.867   1.658   2.190
10858SOL     OW44452   2.638   3.265  15.515
10858SOL    HW144453   2.612   3.173  15.522
10858SOL    HW244454   2.556   3.313  15.508
10859SOL     OW44455   3.203   0.582   1.835
10859SOL    HW144456   3.209   0.619   1.747
10859SOL    HW244457   3.153   0.501   1.823
10860SOL     OW44458   2.271   4.508   2.784
10860SOL    HW144459   2.313   4.509   2.698
10860SOL    HW244460   2.289   4.595   2.821
10861SOL     OW44461   4.432   0.493   3.830
10861SOL    HW144462   4.522   0.492   3.798
10861SOL    HW244463   4.408   0.401   3.839
10862SOL     OW44464   0.573   4.055   3.021
10862SOL    HW144465   0.635   3.990   2.989
10862SOL    HW244466   0.556   4.029   3.112
10863SOL     OW44467   0.057   3.594  18.966
10863SOL    HW144468   4.767   3.609  18.911
10863SOL    HW244469   0.037   3.512  19.012
10864SOL     OW44470   4.645   3.216   4.036
10864SOL    HW144471   4.677   3.240   4.123
10864SOL    HW244472   4.722   3.226   3.979
10865SOL     OW44473   0.128   0.695   0.348
10865SOL    HW144474   0.166   0.653   0.271
10865SOL    HW244475   0.196   0.756   0.377
10866SOL     OW44476   1.828   1.194   3.033
10866SOL    HW144477   1.914   1.194   2.991
10866SOL    HW244478   1.834   1.264   3.098
10867SOL     OW44479   2.434   3.283   4.722
10867SOL    HW144480   2.507   3.250   4.671
10867SOL    HW244481   2.462   3.370   4.751
10868SOL     OW44482   2.764   1.816   0.209
10868SOL    HW144483   2.792   1.846   0.296
10868SOL    HW244484   2.701   1.746   0.228
10869SOL     OW44485   0.440   4.055  19.204
10869SOL    HW144486   0.471   4.095  19.123
10869SOL    HW244487   0.396   4.127  19.250
10870SOL     OW44488   0.084   0.510  19.454
10870SOL    HW144489   0.101   0.443  19.388
10870SOL    HW244490   0.113   0.470  19.536
10871SOL     OW44491   3.105   0.723  18.362
10871SOL    HW144492   3.063   0.798  18.403
10871SOL    HW244493   3.035   0.681  18.312
10872SOL     OW44494   1.528   0.952  20.641
10872SOL    HW144495   1.570   0.868  20.624
10872SOL    HW244496   1.549   1.005  20.563
10873SOL     OW44497   4.547   1.617  14.939
10873SOL    HW144498   4.539   1.710  14.962
10873SOL    HW244499   4.537   1.572  15.023
10874SOL     OW44500   1.479   3.802  15.647
10874SOL    HW144501   1.541   3.869  15.678
10874SOL    HW244502   1.436   3.843  15.572
10875SOL     OW44503   4.329   3.548  18.386
10875SOL    HW144504   4.311   3.580  18.298
10875SOL    HW244505   4.401   3.486  18.375
10876SOL     OW44506   1.460   2.984  20.907
10876SOL    HW144507   1.518   2.927  20.957
10876SOL    HW244508   1.373   2.947  20.920
10877SOL     OW44509   2.459   3.377  17.483
10877SOL    HW144510   2.415   3.309  17.533
10877SOL    HW244511   2.552   3.355  17.488
10878SOL     OW44512   0.455   1.797  20.080
10878SOL    HW144513   0.456   1.822  20.172
10878SOL    HW244514   0.404   1.866  20.037
10879SOL     OW44515   1.947   4.419   2.087
10879SOL    HW144516   1.953   4.355   2.158
10879SOL    HW244517   1.925   4.501   2.130
10880SOL     OW44518   0.320   3.222   1.629
10880SOL    HW144519   0.370   3.152   1.671
10880SOL    HW244520   0.278   3.180   1.554
10881SOL     OW44521   2.285   3.816  15.403
10881SOL    HW144522   2.303   3.811  15.497
10881SOL    HW244523   2.370   3.804  15.361
10882SOL     OW44524   1.717   1.690   1.543
10882SOL    HW144525   1.690   1.691   1.451
10882SOL    HW244526   1.738   1.781   1.563
10883SOL     OW44527   2.887   2.614   0.836
10883SOL    HW144528   2.902   2.567   0.918
10883SOL    HW244529   2.813   2.672   0.855
10884SOL     OW44530   1.558   3.737   5.207
10884SOL    HW144531   1.555   3.657   5.259
10884SOL    HW244532   1.649   3.765   5.212
10885SOL     OW44533   0.478   3.680   0.826
10885SOL    HW144534   0.431   3.651   0.748
10885SOL    HW244535   0.449   3.770   0.839
10886SOL     OW44536   1.686   2.389  17.865
10886SOL    HW144537   1.647   2.428  17.944
10886SOL    HW244538   1.660   2.297  17.869
10887SOL     OW44539   4.169   0.425  16.707
10887SOL    HW144540   4.255   0.386  16.724
10887SOL    HW244541   4.107   0.353  16.720
10888SOL     OW44542   2.572   2.255   2.376
10888SOL    HW144543   2.574   2.168   2.336
10888SOL    HW244544   2.645   2.302   2.336
10889SOL     OW44545   0.651   0.271  20.091
10889SOL    HW144546   0.635   0.354  20.046
10889SOL    HW244547   0.568   0.224  20.084
10890SOL     OW44548   2.233   3.213  21.214
10890SOL    HW144549   2.277   3.287   0.011
10890SOL    HW244550   2.303   3.169  21.165
10891SOL     OW44551   0.709   0.314  16.530
10891SOL    HW144552   0.638   0.265  16.488
10891SOL    HW244553   0.665   0.374  16.590
10892SOL     OW44554   2.547   1.353  16.423
10892SOL    HW144555   2.621   1.414  16.421
10892SOL    HW244556   2.548   1.313  16.336
10893SOL     OW44557   4.379   2.635  16.815
10893SOL    HW144558   4.325   2.712  16.833
10893SOL    HW244559   4.465   2.671  16.793
10894SOL     OW44560   1.174   2.404  16.549
10894SOL    HW144561   1.233   2.430  16.479
10894SOL    HW244562   1.096   2.371  16.503
10895SOL     OW44563   1.314   3.597  19.182
10895SOL    HW144564   1.380   3.643  19.130
10895SOL    HW244565   1.321   3.506  19.152
10896SOL     OW44566   1.954   4.708  18.495
10896SOL    HW144567   1.978   4.725  18.587
10896SOL    HW244568   1.864   4.676  18.499
10897SOL     OW44569   2.323   0.742  19.970
10897SOL    HW144570   2.391   0.745  20.037
10897SOL    HW244571   2.256   0.803  20.001
10898SOL     OW44572   0.763   0.235  20.329
10898SOL    HW144573   0.729   0.247  20.241
10898SOL    HW244574   0.719   0.156  20.362
10899SOL     OW44575   4.138   1.366   1.479
10899SOL    HW144576   4.166   1.454   1.451
10899SOL    HW244577   4.199   1.343   1.550
10900SOL     OW44578   4.123   4.026   5.749
10900SOL    HW144579   4.044   3.974   5.762
10900SOL    HW244580   4.180   4.002   5.822
10901SOL     OW44581   4.564   4.349  17.112
10901SOL    HW144582   4.507   4.335  17.036
10901SOL    HW244583   4.503   4.362  17.185
10902SOL     OW44584   1.249   0.572  17.599
10902SOL    HW144585   1.240   0.490  17.647
10902SOL    HW244586   1.171   0.622  17.623
10903SOL     OW44587   1.790   3.853   1.864
10903SOL    HW144588   1.724   3.865   1.795
10903SOL    HW244589   1.819   3.942   1.885
10904SOL     OW44590   0.489   3.004  15.359
10904SOL    HW144591   0.476   2.915  15.391
10904SOL    HW244592   0.445   3.005  15.274
10905SOL     OW44593   1.566   0.176  16.270
10905SOL    HW144594   1.569   0.094  16.222
10905SOL    HW244595   1.591   0.153  16.360
10906SOL     OW44596   2.770   3.227   2.466
10906SOL    HW144597   2.722   3.308   2.449
10906SOL    HW244598   2.851   3.235   2.416
10907SOL     OW44599   1.513   3.088  20.010
10907SOL    HW144600   1.468   3.022  19.958
10907SOL    HW244601   1.444   3.146  20.041
10908SOL     OW44602   2.497   4.615   3.137
10908SOL    HW144603   2.441   4.629   3.061
10908SOL    HW244604   2.577   4.577   3.102
10909SOL     OW44605   3.778   4.172  20.499
10909SOL    HW144606   3.794   4.095  20.445
10909SOL    HW244607   3.687   4.195  20.481
10910SOL     OW44608   2.107   3.262  15.276
10910SOL    HW144609   2.071   3.180  15.242
10910SOL    HW244610   2.133   3.241  15.366
10911SOL     OW44611   3.569   0.785  17.198
10911SOL    HW144612   3.659   0.796  17.166
10911SOL    HW244613   3.559   0.852  17.265
10912SOL     OW44614   0.758   4.077   4.240
10912SOL    HW144615   0.826   4.130   4.281
10912SOL    HW244616   0.746   4.116   4.153
10913SOL     OW44617   4.420   2.943  20.470
10913SOL    HW144618   4.340   2.959  20.520
10913SOL    HW244619   4.436   3.026  20.424
10914SOL     OW44620   0.357   1.694   4.963
10914SOL    HW144621   0.325   1.628   5.023
10914SOL    HW244622   0.334   1.778   5.004
10915SOL     OW44623   1.540   1.074  16.343
10915SOL    HW144624   1.567   1.166  16.346
10915SOL    HW244625   1.620   1.025  16.362
10916SOL     OW44626   2.506   1.346  19.261
10916SOL    HW144627   2.496   1.256  19.229
10916SOL    HW244628   2.546   1.393  19.187
10917SOL     OW44629   2.521   4.161  16.705
10917SOL    HW144630   2.468   4.110  16.644
10917SOL    HW244631   2.528   4.105  16.783
10918SOL     OW44632   4.498   1.586   2.479
10918SOL    HW144633   4.520   1.497   2.508
10918SOL    HW244634   4.444   1.621   2.549
10919SOL     OW44635   0.957   2.773  20.869
10919SOL    HW144636   0.885   2.723  20.908
10919SOL    HW244637   0.914   2.842  20.818
10920SOL     OW44638   0.124   0.514  15.147
10920SOL    HW144639   0.215   0.499  15.172
10920SOL    HW244640   0.124   0.510  15.051
10921SOL     OW44641   4.221   2.383  17.368
10921SOL    HW144642   4.287   2.449  17.392
10921SOL    HW244643   4.177   2.420  17.292
10922SOL     OW44644   2.727   0.292   1.616
10922SOL    HW144645   2.755   0.383   1.605
10922SOL    HW244646   2.735   0.276   1.710
10923SOL     OW44647   0.646   1.583   5.420
10923SOL    HW144648   0.708   1.628   5.362
10923SOL    HW244649   0.699   1.519   5.467
10924SOL     OW44650   0.138   2.395   5.453
10924SOL    HW144651   0.139   2.454   5.528
10924SOL    HW244652   0.227   2.362   5.447
10925SOL     OW44653   1.506   2.869  18.573
10925SOL    HW144654   1.521   2.933  18.504
10925SOL    HW244655   1.574   2.888  18.639
10926SOL     OW44656   1.150   3.505  19.800
10926SOL    HW144657   1.194   3.578  19.758
10926SOL    HW244658   1.217   3.438  19.809
10927SOL     OW44659   2.449   1.499  20.802
10927SOL    HW144660   2.383   1.567  20.787
10927SOL    HW244661   2.399   1.421  20.824
10928SOL     OW44662   1.825   2.957  18.386
10928SOL    HW144663   1.765   2.886  18.364
10928SOL    HW244664   1.805   3.027  18.323
10929SOL     OW44665   1.062   4.518   6.331
10929SOL    HW144666   1.015   4.594   6.298
10929SOL    HW244667   1.129   4.554   6.390
10930SOL     OW44668   3.577   3.241  21.078
10930SOL    HW144669   3.602   3.285  21.160
10930SOL    HW244670   3.593   3.148  21.095
10931SOL     OW44671   4.013   0.872  20.682
10931SOL    HW144672   4.079   0.820  20.637
10931SOL    HW244673   4.028   0.961  20.652
10932SOL     OW44674   4.534   2.438  15.801
10932SOL    HW144675   4.579   2.510  15.847
10932SOL    HW244676   4.450   2.430  15.846
10933SOL     OW44677   2.050   0.420   9.255
10933SOL    HW144678   2.076   0.347   9.197
10933SOL    HW244679   2.085   0.498   9.212
10934SOL     OW44680   0.430   2.021  16.342
10934SOL    HW144681   0.338   2.022  16.314
10934SOL    HW244682   0.477   1.985  16.267
10935SOL     OW44683   0.122   3.601  18.544
10935SOL    HW144684   0.192   3.561  18.596
10935SOL    HW244685   0.042   3.573  18.587
10936SOL     OW44686   0.232   0.737   3.045
10936SOL    HW144687   0.237   0.806   3.111
10936SOL    HW244688   0.294   0.670   3.075
10937SOL     OW44689   3.926   1.577   0.407
10937SOL    HW144690   3.837   1.603   0.383
10937SOL    HW244691   3.983   1.629   0.350
10938SOL     OW44692   3.278   2.885  14.056
10938SOL    HW144693   3.268   2.835  13.975
10938SOL    HW244694   3.215   2.957  14.046
10939SOL     OW44695   3.845   0.969  17.194
10939SOL    HW144696   3.866   1.050  17.242
10939SOL    HW244697   3.813   0.910  17.262
10940SOL     OW44698   4.317   1.599   8.288
10940SOL    HW144699   4.400   1.646   8.288
10940SOL    HW244700   4.259   1.654   8.235
10941SOL     OW44701   1.438   4.427  20.105
10941SOL    HW144702   1.375   4.355  20.101
10941SOL    HW244703   1.522   4.385  20.088
10942SOL     OW44704   4.320   1.165  16.190
10942SOL    HW144705   4.228   1.188  16.199
10942SOL    HW244706   4.351   1.218  16.116
10943SOL     OW44707   3.854   0.388  18.379
10943SOL    HW144708   3.914   0.362  18.309
10943SOL    HW244709   3.827   0.305  18.418
10944SOL     OW44710   1.828   3.777   5.246
10944SOL    HW144711   1.839   3.871   5.232
10944SOL    HW244712   1.860   3.736   5.166
10945SOL     OW44713   0.608   1.167  20.355
10945SOL    HW144714   0.687   1.219  20.371
10945SOL    HW244715   0.634   1.077  20.374
10946SOL     OW44716   2.378   1.375   4.037
10946SOL    HW144717   2.472   1.392   4.048
10946SOL    HW244718   2.374   1.302   3.976
10947SOL     OW44719   1.114   3.942  20.449
10947SOL    HW144720   1.103   3.899  20.534
10947SOL    HW244721   1.196   3.990  20.458
10948SOL     OW44722   1.541   2.111   0.692
10948SOL    HW144723   1.625   2.102   0.738
10948SOL    HW244724   1.521   2.205   0.697
10949SOL     OW44725   4.656   2.288   2.215
10949SOL    HW144726   4.712   2.212   2.201
10949SOL    HW244727   4.571   2.252   2.241
10950SOL     OW44728   4.155   3.389  19.403
10950SOL    HW144729   4.110   3.460  19.357
10950SOL    HW244730   4.089   3.319  19.410
10951SOL     OW44731   0.221   0.152   1.151
10951SOL    HW144732   0.146   0.211   1.155
10951SOL    HW244733   0.184   0.065   1.163
10952SOL     OW44734   3.538   2.726  17.612
10952SOL    HW144735   3.481   2.707  17.538
10952SOL    HW244736   3.496   2.682  17.686
10953SOL     OW44737   2.849   0.247   4.290
10953SOL    HW144738   2.888   0.174   4.243
10953SOL    HW244739   2.764   0.215   4.320
10954SOL     OW44740   0.650   3.267  16.961
10954SOL    HW144741   0.691   3.354  16.959
10954SOL    HW244742   0.676   3.230  17.045
10955SOL     OW44743   4.538   4.390  18.790
10955SOL    HW144744   4.526   4.413  18.698
10955SOL    HW244745   4.449   4.388  18.825
10956SOL     OW44746   3.964   3.732  19.878
10956SOL    HW144747   4.030   3.715  19.946
10956SOL    HW244748   3.881   3.708  19.919
10957SOL     OW44749   4.627   0.092  18.639
10957SOL    HW144750   4.549   0.139  18.608
10957SOL    HW244751   4.610   0.077  18.732
10958SOL     OW44752   1.524   2.226  20.408
10958SOL    HW144753   1.558   2.157  20.352
10958SOL    HW244754   1.443   2.254  20.365
10959SOL     OW44755   3.387   0.024   0.632
10959SOL    HW144756   3.449   4.741   0.654
10959SOL    HW244757   3.395   0.033   0.537
10960SOL     OW44758   2.158   3.940  19.569
10960SOL    HW144759   2.072   3.940  19.611
10960SOL    HW244760   2.205   4.012  19.610
10961SOL     OW44761   0.747   1.459   1.117
10961SOL    HW144762   0.824   1.501   1.078
10961SOL    HW244763   0.742   1.373   1.075
10962SOL     OW44764   2.260   2.757  18.109
10962SOL    HW144765   2.327   2.821  18.131
10962SOL    HW244766   2.258   2.757  18.013
10963SOL     OW44767   2.258   3.108   4.969
10963SOL    HW144768   2.283   3.158   4.892
10963SOL    HW244769   2.286   3.018   4.950
10964SOL     OW44770   0.665   3.675  18.381
10964SOL    HW144771   0.749   3.674  18.426
10964SOL    HW244772   0.625   3.591  18.402
10965SOL     OW44773   1.534   0.072  20.614
10965SOL    HW144774   1.616   0.102  20.653
10965SOL    HW244775   1.467   0.092  20.679
10966SOL     OW44776   0.793   1.673   3.695
10966SOL    HW144777   0.718   1.653   3.750
10966SOL    HW244778   0.802   1.768   3.699
10967SOL     OW44779   3.326   4.741   0.348
10967SOL    HW144780   3.404   4.685   0.350
10967SOL    HW244781   3.260   4.687   0.305
10968SOL     OW44782   0.505   4.703  15.902
10968SOL    HW144783   0.483   4.781  15.952
10968SOL    HW244784   0.429   4.646  15.912
10969SOL     OW44785   2.749   0.495   3.842
10969SOL    HW144786   2.837   0.534   3.839
10969SOL    HW244787   2.759   0.418   3.898
10970SOL     OW44788   1.680   4.019  18.365
10970SOL    HW144789   1.731   4.036  18.444
10970SOL    HW244790   1.726   3.948  18.321
10971SOL     OW44791   3.183   4.213  16.241
10971SOL    HW144792   3.147   4.133  16.202
10971SOL    HW244793   3.271   4.220  16.204
10972SOL     OW44794   0.337   1.398   4.587
10972SOL    HW144795   0.292   1.481   4.600
10972SOL    HW244796   0.271   1.331   4.605
10973SOL     OW44797   0.931   3.793   0.381
10973SOL    HW144798   0.989   3.866   0.400
10973SOL    HW244799   0.858   3.804   0.442
10974SOL     OW44800   0.849   0.484  19.538
10974SOL    HW144801   0.797   0.418  19.491
10974SOL    HW244802   0.857   0.450  19.627
10975SOL     OW44803   0.661   1.869  12.634
10975SOL    HW144804   0.728   1.825  12.582
10975SOL    HW244805   0.583   1.866  12.579
10976SOL     OW44806   2.680   1.417   0.987
10976SOL    HW144807   2.695   1.433   1.080
10976SOL    HW244808   2.587   1.437   0.975
10977SOL     OW44809   1.998   3.491   2.618
10977SOL    HW144810   1.965   3.419   2.671
10977SOL    HW244811   2.060   3.451   2.558
10978SOL     OW44812   4.467   3.448   0.881
10978SOL    HW144813   4.425   3.427   0.797
10978SOL    HW244814   4.394   3.460   0.942
10979SOL     OW44815   1.145   2.696  19.269
10979SOL    HW144816   1.169   2.705  19.361
10979SOL    HW244817   1.166   2.781  19.230
10980SOL     OW44818   2.600   0.517  15.511
10980SOL    HW144819   2.669   0.537  15.448
10980SOL    HW244820   2.634   0.441  15.560
10981SOL     OW44821   1.448   0.831  21.129
10981SOL    HW144822   1.356   0.803  21.135
10981SOL    HW244823   1.464   0.837  21.035
10982SOL     OW44824   2.959   4.653  16.347
10982SOL    HW144825   3.027   4.711  16.312
10982SOL    HW244826   2.958   4.672  16.441
10983SOL     OW44827   2.243   4.401   4.952
10983SOL    HW144828   2.186   4.471   4.919
10983SOL    HW244829   2.329   4.441   4.956
10984SOL     OW44830   1.055   3.134   7.869
10984SOL    HW144831   1.081   3.153   7.779
10984SOL    HW244832   1.071   3.040   7.880
10985SOL     OW44833   4.419   1.005  19.485
10985SOL    HW144834   4.388   1.092  19.460
10985SOL    HW244835   4.475   0.978  19.412
10986SOL     OW44836   3.158   3.720  19.290
10986SOL    HW144837   3.123   3.651  19.346
10986SOL    HW244838   3.156   3.683  19.201
10987SOL     OW44839   3.074   2.879  15.621
10987SOL    HW144840   2.998   2.915  15.667
10987SOL    HW244841   3.069   2.785  15.637
10988SOL     OW44842   3.513   1.630  20.252
10988SOL    HW144843   3.563   1.562  20.206
10988SOL    HW244844   3.580   1.685  20.292
10989SOL     OW44845   0.549   0.895  18.821
10989SOL    HW144846   0.578   0.805  18.810
10989SOL    HW244847   0.622   0.948  18.787
10990SOL     OW44848   4.456   2.858   6.032
10990SOL    HW144849   4.471   2.914   5.956
10990SOL    HW244850   4.454   2.769   5.997
10991SOL     OW44851   0.731   3.387   9.266
10991SOL    HW144852   0.745   3.436   9.185
10991SOL    HW244853   0.728   3.295   9.239
10992SOL     OW44854   1.079   2.279   1.374
10992SOL    HW144855   1.019   2.336   1.326
10992SOL    HW244856   1.164   2.323   1.368
10993SOL     OW44857   0.399   1.604   8.409
10993SOL    HW144858   0.332   1.542   8.379
10993SOL    HW244859   0.405   1.668   8.339
10994SOL     OW44860   3.496   2.291   2.106
10994SOL    HW144861   3.562   2.238   2.150
10994SOL    HW244862   3.424   2.297   2.168
10995SOL     OW44863   4.415   2.257  17.185
10995SOL    HW144864   4.412   2.349  17.161
10995SOL    HW244865   4.347   2.247  17.252
10996SOL     OW44866   1.442   1.049   8.941
10996SOL    HW144867   1.420   1.106   9.015
10996SOL    HW244868   1.477   0.970   8.982
10997SOL     OW44869   4.218   1.734   0.488
10997SOL    HW144870   4.247   1.655   0.443
10997SOL    HW244871   4.175   1.786   0.420
10998SOL     OW44872   1.075   2.043   5.575
10998SOL    HW144873   1.070   1.959   5.528
10998SOL    HW244874   1.162   2.043   5.614
10999SOL     OW44875   3.308   2.969  17.773
10999SOL    HW144876   3.226   2.944  17.731
10999SOL    HW244877   3.347   3.032  17.713
11000SOL     OW44878   4.238   2.327   5.275
11000SOL    HW144879   4.305   2.313   5.342
11000SOL    HW244880   4.179   2.392   5.312
11001SOL     OW44881   3.044   2.007   8.401
11001SOL    HW144882   3.079   1.954   8.473
11001SOL    HW244883   3.055   2.098   8.430
11002SOL     OW44884   2.442   0.297   0.671
11002SOL    HW144885   2.467   0.327   0.759
11002SOL    HW244886   2.429   0.377   0.620
11003SOL     OW44887   4.449   3.967   0.245
11003SOL    HW144888   4.540   3.977   0.218
11003SOL    HW244889   4.437   4.034   0.313
11004SOL     OW44890   3.220   4.680   8.006
11004SOL    HW144891   3.134   4.639   8.007
11004SOL    HW244892   3.272   4.626   7.947
11005SOL     OW44893   2.822   3.348   8.623
11005SOL    HW144894   2.733   3.367   8.653
11005SOL    HW244895   2.857   3.288   8.689
11006SOL     OW44896   1.370   4.120   0.632
11006SOL    HW144897   1.466   4.118   0.635
11006SOL    HW244898   1.349   4.210   0.610
11007SOL     OW44899   1.633   3.697  10.474
11007SOL    HW144900   1.600   3.694  10.564
11007SOL    HW244901   1.669   3.785  10.465
11008SOL     OW44902   1.959   3.697   9.600
11008SOL    HW144903   1.919   3.689   9.513
11008SOL    HW244904   1.905   3.763   9.644
11009SOL     OW44905   0.544   3.106  11.513
11009SOL    HW144906   0.605   3.174  11.539
11009SOL    HW244907   0.580   3.070  11.431
11010SOL     OW44908   4.416   3.064   4.028
11010SOL    HW144909   4.374   3.114   4.097
11010SOL    HW244910   4.504   3.101   4.021
11011SOL     OW44911   0.127   3.559   9.213
11011SOL    HW144912   0.192   3.576   9.281
11011SOL    HW244913   0.044   3.588   9.252
11012SOL     OW44914   2.693   3.015  10.143
11012SOL    HW144915   2.604   2.983  10.155
11012SOL    HW244916   2.690   3.107  10.170
11013SOL     OW44917   0.984   3.619   9.249
11013SOL    HW144918   0.918   3.598   9.182
11013SOL    HW244919   1.040   3.542   9.252
11014SOL     OW44920   2.967   0.035   9.460
11014SOL    HW144921   2.875   0.007   9.461
11014SOL    HW244922   2.974   0.087   9.379
11015SOL     OW44923   2.792   4.206  10.342
11015SOL    HW144924   2.875   4.244  10.315
11015SOL    HW244925   2.728   4.275  10.326
11016SOL     OW44926   1.888   3.545  12.297
11016SOL    HW144927   1.961   3.513  12.244
11016SOL    HW244928   1.869   3.474  12.358
11017SOL     OW44929   1.886   3.884  11.813
11017SOL    HW144930   1.793   3.874  11.831
11017SOL    HW244931   1.894   3.872  11.719
11018SOL     OW44932   3.207   0.151  11.948
11018SOL    HW144933   3.260   0.169  12.026
11018SOL    HW244934   3.124   0.117  11.982
11019SOL     OW44935   3.628   4.663  11.859
11019SOL    HW144936   3.723   4.653  11.869
11019SOL    HW244937   3.604   4.730  11.923
11020SOL     OW44938   2.377   2.651  11.418
11020SOL    HW144939   2.402   2.701  11.496
11020SOL    HW244940   2.283   2.636  11.428
11021SOL     OW44941   2.059   2.628  12.803
11021SOL    HW144942   2.097   2.619  12.890
11021SOL    HW244943   2.079   2.719  12.778
11022SOL     OW44944   2.890   0.046  11.534
11022SOL    HW144945   2.851   0.073  11.617
11022SOL    HW244946   2.971   0.002  11.559
11023SOL     OW44947   3.634   3.010  12.869
11023SOL    HW144948   3.553   3.044  12.907
11023SOL    HW244949   3.641   2.920  12.903
11024SOL     OW44950   1.045   4.533  11.012
11024SOL    HW144951   1.025   4.497  11.098
11024SOL    HW244952   1.014   4.466  10.951
11025SOL     OW44953   2.131   2.245  12.218
11025SOL    HW144954   2.093   2.274  12.301
11025SOL    HW244955   2.064   2.188  12.180
11026SOL     OW44956   2.439   3.790  10.894
11026SOL    HW144957   2.469   3.783  10.803
11026SOL    HW244958   2.436   3.699  10.924
11027SOL     OW44959   2.541   1.762  16.356
11027SOL    HW144960   2.481   1.723  16.293
11027SOL    HW244961   2.598   1.818  16.304
11028SOL     OW44962   2.178   3.400  10.963
11028SOL    HW144963   2.098   3.452  10.955
11028SOL    HW244964   2.148   3.311  10.981
11029SOL     OW44965   2.420   3.533  10.946
11029SOL    HW144966   2.478   3.480  10.891
11029SOL    HW244967   2.347   3.475  10.967
11030SOL     OW44968   2.020   0.410  11.727
11030SOL    HW144969   2.015   0.369  11.641
11030SOL    HW244970   2.089   0.363  11.773
11031SOL     OW44971   2.584   2.287  12.470
11031SOL    HW144972   2.500   2.259  12.507
11031SOL    HW244973   2.563   2.366  12.420
11032SOL     OW44974   2.543   2.604  16.800
11032SOL    HW144975   2.560   2.547  16.725
11032SOL    HW244976   2.597   2.568  16.871
11033SOL     OW44977   2.943   0.884  18.530
11033SOL    HW144978   2.878   0.947  18.499
11033SOL    HW244979   2.973   0.920  18.614
11034SOL     OW44980   4.530   2.439  15.133
11034SOL    HW144981   4.563   2.437  15.043
11034SOL    HW244982   4.595   2.390  15.183
11035SOL     OW44983   3.765   0.031   2.887
11035SOL    HW144984   3.847   0.051   2.933
11035SOL    HW244985   3.702   0.094   2.921
11036SOL     OW44986   1.304   0.375  19.774
11036SOL    HW144987   1.293   0.333  19.689
11036SOL    HW244988   1.239   0.333  19.831
11037SOL     OW44989   2.642   4.565   6.402
11037SOL    HW144990   2.616   4.653   6.376
11037SOL    HW244991   2.679   4.576   6.490
11038SOL     OW44992   1.418   1.564   3.235
11038SOL    HW144993   1.332   1.522   3.241
11038SOL    HW244994   1.480   1.492   3.226
11039SOL     OW44995   3.803   4.050   4.558
11039SOL    HW144996   3.798   4.076   4.650
11039SOL    HW244997   3.810   3.955   4.560
11040SOL     OW44998   1.267   2.209  13.252
11040SOL    HW144999   1.269   2.272  13.180
11040SOL    HW245000   1.179   2.171  13.249
11041SOL     OW45001   2.769   2.588   8.257
11041SOL    HW145002   2.840   2.596   8.320
11041SOL    HW245003   2.790   2.509   8.207
11042SOL     OW45004   3.797   0.457   7.339
11042SOL    HW145005   3.739   0.532   7.347
11042SOL    HW245006   3.830   0.461   7.249
11043SOL     OW45007   2.065   0.829   8.337
11043SOL    HW145008   2.013   0.787   8.268
11043SOL    HW245009   2.148   0.849   8.294
11044SOL     OW45010   3.507   4.746   3.072
11044SOL    HW145011   3.462   0.037   3.103
11044SOL    HW245012   3.539   4.703   3.151
11045SOL     OW45013   3.670   3.930  15.848
11045SOL    HW145014   3.680   3.937  15.753
11045SOL    HW245015   3.658   4.020  15.878
11046SOL     OW45016   2.661   2.114  16.493
11046SOL    HW145017   2.702   2.068  16.420
11046SOL    HW245018   2.705   2.079  16.571
11047SOL     OW45019   1.193   4.559  11.636
11047SOL    HW145020   1.179   4.589  11.547
11047SOL    HW245021   1.218   4.639  11.684
11048SOL     OW45022   0.029   3.468   5.883
11048SOL    HW145023   0.072   3.552   5.901
11048SOL    HW245024   0.004   3.435   5.970
11049SOL     OW45025   0.669   4.487  15.912
11049SOL    HW145026   0.726   4.524  15.845
11049SOL    HW245027   0.599   4.552  15.922
11050SOL     OW45028   3.906   1.341   6.766
11050SOL    HW145029   3.999   1.323   6.770
11050SOL    HW245030   3.884   1.372   6.854
11051SOL     OW45031   0.880   3.585  19.817
11051SOL    HW145032   0.865   3.519  19.885
11051SOL    HW245033   0.966   3.562  19.781
11052SOL     OW45034   3.735   3.238   6.012
11052SOL    HW145035   3.738   3.175   6.084
11052SOL    HW245036   3.790   3.310   6.042
11053SOL     OW45037   4.506   0.842  13.387
11053SOL    HW145038   4.562   0.911  13.423
11053SOL    HW245039   4.530   0.838  13.294
11054SOL     OW45040   0.191   2.227  19.806
11054SOL    HW145041   0.284   2.208  19.813
11054SOL    HW245042   0.168   2.207  19.715
11055SOL     OW45043   3.642   2.202  17.593
11055SOL    HW145044   3.732   2.172  17.585
11055SOL    HW245045   3.645   2.267  17.664
11056SOL     OW45046   4.717   2.887   6.605
11056SOL    HW145047   4.623   2.875   6.592
11056SOL    HW245048   4.758   2.835   6.536
11057SOL     OW45049   3.128   1.088   0.060
11057SOL    HW145050   3.125   1.007   0.110
11057SOL    HW245051   3.042   1.093   0.017
11058SOL     OW45052   3.496   3.051   5.305
11058SOL    HW145053   3.579   3.050   5.258
11058SOL    HW245054   3.441   2.989   5.257
11059SOL     OW45055   0.734   3.816  19.895
11059SOL    HW145056   0.724   3.872  19.819
11059SOL    HW245057   0.777   3.737  19.862
11060SOL     OW45058   0.806   0.568  18.952
11060SOL    HW145059   0.792   0.551  19.045
11060SOL    HW245060   0.888   0.523  18.932
11061SOL     OW45061   1.247   0.092   4.611
11061SOL    HW145062   1.263   4.786   4.623
11061SOL    HW245063   1.306   0.134   4.674
11062SOL     OW45064   2.415   3.105  20.808
11062SOL    HW145065   2.369   3.028  20.841
11062SOL    HW245066   2.346   3.158  20.767
11063SOL     OW45067   3.278   3.237   7.735
11063SOL    HW145068   3.322   3.319   7.758
11063SOL    HW245069   3.295   3.226   7.642
11064SOL     OW45070   3.771   0.743  11.551
11064SOL    HW145071   3.807   0.744  11.640
11064SOL    HW245072   3.686   0.700  11.559
11065SOL     OW45073   2.948   0.810  17.562
11065SOL    HW145074   3.030   0.853  17.587
11065SOL    HW245075   2.941   0.826  17.467
11066SOL     OW45076   3.532   1.080   5.549
11066SOL    HW145077   3.445   1.053   5.519
11066SOL    HW245078   3.585   1.001   5.540
11067SOL     OW45079   2.584   2.462  15.609
11067SOL    HW145080   2.535   2.380  15.615
11067SOL    HW245081   2.632   2.468  15.692
11068SOL     OW45082   1.640   0.930  20.262
11068SOL    HW145083   1.578   0.995  20.295
11068SOL    HW245084   1.706   0.922  20.331
11069SOL     OW45085   2.188   4.023  10.958
11069SOL    HW145086   2.280   4.014  10.982
11069SOL    HW245087   2.143   4.032  11.041
11070SOL     OW45088   3.882   1.760  12.868
11070SOL    HW145089   3.851   1.832  12.812
11070SOL    HW245090   3.813   1.751  12.934
11071SOL     OW45091   0.727   4.275  17.137
11071SOL    HW145092   0.655   4.311  17.086
11071SOL    HW245093   0.706   4.182  17.147
11072SOL     OW45094   1.325   0.159  16.736
11072SOL    HW145095   1.316   0.248  16.704
11072SOL    HW245096   1.319   0.167  16.831
11073SOL     OW45097   2.112   2.461  21.237
11073SOL    HW145098   2.029   2.500  21.208
11073SOL    HW245099   2.099   2.367  21.226
11074SOL     OW45100   3.995   2.657   4.596
11074SOL    HW145101   3.999   2.594   4.668
11074SOL    HW245102   4.069   2.716   4.611
11075SOL     OW45103   0.101   2.329   4.993
11075SOL    HW145104   0.058   2.415   4.999
11075SOL    HW245105   0.095   2.307   4.900
11076SOL     OW45106   4.480   2.449   5.846
11076SOL    HW145107   4.445   2.497   5.921
11076SOL    HW245108   4.534   2.514   5.800
11077SOL     OW45109   2.036   3.164   7.726
11077SOL    HW145110   2.044   3.208   7.642
11077SOL    HW245111   1.943   3.172   7.749
11078SOL     OW45112   1.387   0.920   5.864
11078SOL    HW145113   1.345   0.996   5.824
11078SOL    HW245114   1.471   0.953   5.896
11079SOL     OW45115   1.952   3.093   1.427
11079SOL    HW145116   1.885   3.049   1.375
11079SOL    HW245117   1.955   3.182   1.392
11080SOL     OW45118   3.402   2.233  19.036
11080SOL    HW145119   3.425   2.239  19.128
11080SOL    HW245120   3.456   2.162  19.002
11081SOL     OW45121   0.523   1.168  20.066
11081SOL    HW145122   0.541   1.181  20.159
11081SOL    HW245123   0.578   1.233  20.022
11082SOL     OW45124   0.674   4.595   4.251
11082SOL    HW145125   0.605   4.657   4.274
11082SOL    HW245126   0.680   4.537   4.327
11083SOL     OW45127   2.152   1.190   2.061
11083SOL    HW145128   2.121   1.200   2.151
11083SOL    HW245129   2.100   1.254   2.011
11084SOL     OW45130   2.074   4.341  18.296
11084SOL    HW145131   2.049   4.429  18.268
11084SOL    HW245132   2.017   4.283  18.245
11085SOL     OW45133   1.808   1.624   4.732
11085SOL    HW145134   1.821   1.718   4.741
11085SOL    HW245135   1.841   1.586   4.814
11086SOL     OW45136   1.867   0.712  13.112
11086SOL    HW145137   1.841   0.680  13.198
11086SOL    HW245138   1.787   0.749  13.074
11087SOL     OW45139   2.609   0.954  14.507
11087SOL    HW145140   2.604   0.984  14.416
11087SOL    HW245141   2.679   1.007  14.545
11088SOL     OW45142   4.548   4.298   0.396
11088SOL    HW145143   4.477   4.357   0.369
11088SOL    HW245144   4.615   4.308   0.328
11089SOL     OW45145   1.629   1.962   5.039
11089SOL    HW145146   1.600   2.025   4.974
11089SOL    HW245147   1.582   1.882   5.018
11090SOL     OW45148   4.175   1.258   2.619
11090SOL    HW145149   4.091   1.234   2.658
11090SOL    HW245150   4.231   1.182   2.634
11091SOL     OW45151   4.483   2.266  19.911
11091SOL    HW145152   4.508   2.238  19.823
11091SOL    HW245153   4.541   2.339  19.930
11092SOL     OW45154   3.537   4.615   0.744
11092SOL    HW145155   3.629   4.596   0.726
11092SOL    HW245156   3.515   4.558   0.817
11093SOL     OW45157   4.696   2.073   1.497
11093SOL    HW145158   4.631   2.110   1.557
11093SOL    HW245159   4.769   2.135   1.498
11094SOL     OW45160   0.125   2.686  15.769
11094SOL    HW145161   0.168   2.684  15.684
11094SOL    HW245162   0.190   2.724  15.828
11095SOL     OW45163   2.458   4.046   6.792
11095SOL    HW145164   2.476   3.953   6.807
11095SOL    HW245165   2.364   4.049   6.774
11096SOL     OW45166   2.453   3.997  11.063
11096SOL    HW145167   2.541   4.026  11.038
11096SOL    HW245168   2.439   3.917  11.012
11097SOL     OW45169   1.398   3.090  16.934
11097SOL    HW145170   1.432   3.092  16.845
11097SOL    HW245171   1.340   3.014  16.937
11098SOL     OW45172   4.689   2.661  18.408
11098SOL    HW145173   4.604   2.692  18.440
11098SOL    HW245174   4.729   2.738  18.368
11099SOL     OW45175   0.848   1.680  16.361
11099SOL    HW145176   0.891   1.635  16.289
11099SOL    HW245177   0.890   1.766  16.366
11100SOL     OW45178   1.083   1.484  11.832
11100SOL    HW145179   1.132   1.490  11.750
11100SOL    HW245180   1.077   1.390  11.850
11101SOL     OW45181   4.518   2.193  20.951
11101SOL    HW145182   4.439   2.182  20.898
11101SOL    HW245183   4.579   2.239  20.894
11102SOL     OW45184   2.782   1.070   0.448
11102SOL    HW145185   2.855   1.089   0.507
11102SOL    HW245186   2.708   1.053   0.506
11103SOL     OW45187   3.746   4.370   4.142
11103SOL    HW145188   3.666   4.340   4.186
11103SOL    HW245189   3.745   4.465   4.151
11104SOL     OW45190   2.840   3.243   2.097
11104SOL    HW145191   2.853   3.157   2.136
11104SOL    HW245192   2.769   3.230   2.034
11105SOL     OW45193   1.930   1.084  20.277
11105SOL    HW145194   1.991   1.093  20.350
11105SOL    HW245195   1.980   1.113  20.200
11106SOL     OW45196   1.147   0.941   2.833
11106SOL    HW145197   1.191   1.012   2.881
11106SOL    HW245198   1.060   0.975   2.815
11107SOL     OW45199   2.332   0.676  16.018
11107SOL    HW145200   2.349   0.701  15.927
11107SOL    HW245201   2.302   0.585  16.012
11108SOL     OW45202   3.338   3.538  20.007
11108SOL    HW145203   3.429   3.520  19.982
11108SOL    HW245204   3.317   3.621  19.965
11109SOL     OW45205   0.198   3.446   3.985
11109SOL    HW145206   0.232   3.392   4.057
11109SOL    HW245207   0.149   3.384   3.931
11110SOL     OW45208   2.997   0.233  16.691
11110SOL    HW145209   2.928   0.186  16.644
11110SOL    HW245210   3.062   0.166  16.713
11111SOL     OW45211   3.642   3.171  15.694
11111SOL    HW145212   3.633   3.205  15.782
11111SOL    HW245213   3.599   3.085  15.697
11112SOL     OW45214   1.527   0.867   1.535
11112SOL    HW145215   1.481   0.788   1.563
11112SOL    HW245216   1.517   0.867   1.439
11113SOL     OW45217   3.120   0.869  19.929
11113SOL    HW145218   3.044   0.909  19.887
11113SOL    HW245219   3.097   0.866  20.022
11114SOL     OW45220   3.971   4.579   2.729
11114SOL    HW145221   3.895   4.590   2.786
11114SOL    HW245222   4.004   4.492   2.749
11115SOL     OW45223   2.663   3.073   6.543
11115SOL    HW145224   2.593   3.137   6.562
11115SOL    HW245225   2.647   3.001   6.604
11116SOL     OW45226   3.213   2.119   2.967
11116SOL    HW145227   3.149   2.093   3.033
11116SOL    HW245228   3.199   2.213   2.956
11117SOL     OW45229   2.079   3.988   8.810
11117SOL    HW145230   2.037   3.929   8.873
11117SOL    HW245231   2.139   4.041   8.862
11118SOL     OW45232   3.304   3.117  18.787
11118SOL    HW145233   3.389   3.081  18.763
11118SOL    HW245234   3.323   3.188  18.848
11119SOL     OW45235   3.910   3.639   0.854
11119SOL    HW145236   3.947   3.592   0.779
11119SOL    HW245237   3.826   3.673   0.822
11120SOL     OW45238   3.150   3.021  21.004
11120SOL    HW145239   3.193   3.006  21.088
11120SOL    HW245240   3.131   2.933  20.971
11121SOL     OW45241   0.054   2.295  12.905
11121SOL    HW145242   0.029   2.245  12.983
11121SOL    HW245243   4.778   2.367  12.902
11122SOL     OW45244   3.030   2.098  13.758
11122SOL    HW145245   2.935   2.098  13.745
11122SOL    HW245246   3.059   2.013  13.724
11123SOL     OW45247   3.919   0.369   0.947
11123SOL    HW145248   3.912   0.414   1.031
11123SOL    HW245249   3.957   0.284   0.969
11124SOL     OW45250   2.981   1.308   1.160
11124SOL    HW145251   3.060   1.360   1.172
11124SOL    HW245252   2.981   1.286   1.067
11125SOL     OW45253   3.265   3.923   0.175
11125SOL    HW145254   3.303   3.983   0.240
11125SOL    HW245255   3.203   3.870   0.225
11126SOL     OW45256   0.549   2.505  16.471
11126SOL    HW145257   0.517   2.594  16.456
11126SOL    HW245258   0.566   2.470  16.384
11127SOL     OW45259   4.609   0.428  10.587
11127SOL    HW145260   4.700   0.413  10.564
11127SOL    HW245261   4.604   0.406  10.680
11128SOL     OW45262   0.350   0.895   0.395
11128SOL    HW145263   0.433   0.854   0.416
11128SOL    HW245264   0.367   0.947   0.317
11129SOL     OW45265   3.711   2.414  13.267
11129SOL    HW145266   3.706   2.508  13.251
11129SOL    HW245267   3.693   2.373  13.182
11130SOL     OW45268   2.359   3.582  14.956
11130SOL    HW145269   2.366   3.672  14.925
11130SOL    HW245270   2.449   3.550  14.958
11131SOL     OW45271   1.840   0.641  16.504
11131SOL    HW145272   1.816   0.558  16.546
11131SOL    HW245273   1.862   0.617  16.414
11132SOL     OW45274   1.809   2.378  18.941
11132SOL    HW145275   1.860   2.453  18.972
11132SOL    HW245276   1.857   2.346  18.865
11133SOL     OW45277   0.206   3.049   5.603
11133SOL    HW145278   0.247   3.084   5.682
11133SOL    HW245279   0.205   3.122   5.542
11134SOL     OW45280   0.978   3.796  12.866
11134SOL    HW145281   1.002   3.853  12.939
11134SOL    HW245282   1.059   3.786  12.816
11135SOL     OW45283   4.083   2.492   9.680
11135SOL    HW145284   4.114   2.541   9.604
11135SOL    HW245285   4.020   2.429   9.644
11136SOL     OW45286   1.185   1.617  14.544
11136SOL    HW145287   1.255   1.635  14.480
11136SOL    HW245288   1.105   1.645  14.500
11137SOL     OW45289   3.549   1.686  13.590
11137SOL    HW145290   3.554   1.778  13.564
11137SOL    HW245291   3.491   1.646  13.525
11138SOL     OW45292   4.728   0.629   4.323
11138SOL    HW145293   4.712   0.599   4.234
11138SOL    HW245294   4.673   0.573   4.377
11139SOL     OW45295   0.464   0.568   3.435
11139SOL    HW145296   0.549   0.610   3.430
11139SOL    HW245297   0.413   0.623   3.495
11140SOL     OW45298   0.675   4.575   7.524
11140SOL    HW145299   0.593   4.591   7.478
11140SOL    HW245300   0.671   4.632   7.601
11141SOL     OW45301   4.110   0.449  15.710
11141SOL    HW145302   4.156   0.530  15.733
11141SOL    HW245303   4.179   0.386  15.691
11142SOL     OW45304   0.440   4.274   1.518
11142SOL    HW145305   0.528   4.309   1.532
11142SOL    HW245306   0.382   4.332   1.569
11143SOL     OW45307   1.526   2.331  20.058
11143SOL    HW145308   1.556   2.351  19.970
11143SOL    HW245309   1.601   2.353  20.114
11144SOL     OW45310   0.408   3.627   2.917
11144SOL    HW145311   0.433   3.681   2.842
11144SOL    HW245312   0.390   3.690   2.986
11145SOL     OW45313   3.394   2.651  12.091
11145SOL    HW145314   3.379   2.743  12.110
11145SOL    HW245315   3.309   2.609  12.106
11146SOL     OW45316   1.030   1.092   0.287
11146SOL    HW145317   1.057   1.179   0.315
11146SOL    HW245318   1.096   1.033   0.323
11147SOL     OW45319   4.338   0.326  20.477
11147SOL    HW145320   4.247   0.300  20.494
11147SOL    HW245321   4.348   0.318  20.383
11148SOL     OW45322   0.214   4.745  13.993
11148SOL    HW145323   0.249   4.698  14.068
11148SOL    HW245324   0.226   4.685  13.919
11149SOL     OW45325   3.750   2.093   5.634
11149SOL    HW145326   3.727   2.149   5.708
11149SOL    HW245327   3.845   2.102   5.626
11150SOL     OW45328   2.134   0.164   1.002
11150SOL    HW145329   2.225   0.157   0.972
11150SOL    HW245330   2.114   0.257   0.996
11151SOL     OW45331   0.978   4.465  20.153
11151SOL    HW145332   1.051   4.501  20.103
11151SOL    HW245333   0.955   4.385  20.106
11152SOL     OW45334   2.758   2.661  20.343
11152SOL    HW145335   2.804   2.637  20.423
11152SOL    HW245336   2.824   2.655  20.274
11153SOL     OW45337   1.259   3.053   6.316
11153SOL    HW145338   1.281   3.139   6.349
11153SOL    HW245339   1.342   3.016   6.286
11154SOL     OW45340   3.273   1.052   5.005
11154SOL    HW145341   3.285   1.146   5.017
11154SOL    HW245342   3.238   1.043   4.916
11155SOL     OW45343   0.610   3.689   1.214
11155SOL    HW145344   0.585   3.659   1.301
11155SOL    HW245345   0.661   3.768   1.229
11156SOL     OW45346   4.735   2.647  17.910
11156SOL    HW145347   4.781   2.591  17.848
11156SOL    HW245348   0.005   2.723  17.922
11157SOL     OW45349   0.611   0.329  16.160
11157SOL    HW145350   0.692   0.366  16.194
11157SOL    HW245351   0.544   0.353  16.224
11158SOL     OW45352   0.196   1.962  15.104
11158SOL    HW145353   0.202   2.012  15.185
11158SOL    HW245354   0.146   2.018  15.045
11159SOL     OW45355   3.111   1.014  20.301
11159SOL    HW145356   3.180   0.976  20.247
11159SOL    HW245357   3.143   1.103  20.320
11160SOL     OW45358   3.753   2.302   2.353
11160SOL    HW145359   3.674   2.281   2.404
11160SOL    HW245360   3.738   2.260   2.268
11161SOL     OW45361   2.881   4.654  17.717
11161SOL    HW145362   2.889   4.747  17.739
11161SOL    HW245363   2.787   4.637  17.721
11162SOL     OW45364   2.823   0.737  20.543
11162SOL    HW145365   2.786   0.667  20.596
11162SOL    HW245366   2.917   0.716  20.538
11163SOL     OW45367   2.620   0.641   3.211
11163SOL    HW145368   2.597   0.700   3.283
11163SOL    HW245369   2.715   0.642   3.208
11164SOL     OW45370   3.854   1.897   0.457
11164SOL    HW145371   3.807   1.865   0.379
11164SOL    HW245372   3.796   1.877   0.530
11165SOL     OW45373   4.301   1.712   0.770
11165SOL    HW145374   4.252   1.631   0.791
11165SOL    HW245375   4.272   1.735   0.682
11166SOL     OW45376   0.908   4.214   4.660
11166SOL    HW145377   0.980   4.216   4.597
11166SOL    HW245378   0.934   4.276   4.728
11167SOL     OW45379   4.547   0.507   1.098
11167SOL    HW145380   4.588   0.531   1.015
11167SOL    HW245381   4.541   0.589   1.147
11168SOL     OW45382   0.070   1.794  20.261
11168SOL    HW145383   0.133   1.752  20.320
11168SOL    HW245384   0.078   1.747  20.179
11169SOL     OW45385   2.905   3.712  14.800
11169SOL    HW145386   2.854   3.774  14.852
11169SOL    HW245387   2.996   3.738  14.815
11170SOL     OW45388   0.807   2.929  16.376
11170SOL    HW145389   0.827   2.879  16.456
11170SOL    HW245390   0.762   2.866  16.319
11171SOL     OW45391   4.035   4.272  20.568
11171SOL    HW145392   3.958   4.237  20.521
11171SOL    HW245393   4.094   4.300  20.498
11172SOL     OW45394   1.809   0.150   4.119
11172SOL    HW145395   1.873   0.219   4.138
11172SOL    HW245396   1.789   0.112   4.205
11173SOL     OW45397   4.350   1.675  12.001
11173SOL    HW145398   4.314   1.626  12.075
11173SOL    HW245399   4.337   1.617  11.926
11174SOL     OW45400   0.030   1.793   3.866
11174SOL    HW145401   0.099   1.739   3.828
11174SOL    HW245402   0.025   1.765   3.958
11175SOL     OW45403   0.575   3.611   4.369
11175SOL    HW145404   0.640   3.673   4.336
11175SOL    HW245405   0.609   3.525   4.344
11176SOL     OW45406   3.599   1.475  18.932
11176SOL    HW145407   3.515   1.522  18.928
11176SOL    HW245408   3.664   1.543  18.946
11177SOL     OW45409   1.225   2.567  16.759
11177SOL    HW145410   1.205   2.519  16.679
11177SOL    HW245411   1.230   2.500  16.828
11178SOL     OW45412   3.763   1.083  20.468
11178SOL    HW145413   3.702   1.009  20.464
11178SOL    HW245414   3.844   1.046  20.503
11179SOL     OW45415   0.863   3.572  13.876
11179SOL    HW145416   0.802   3.552  13.806
11179SOL    HW245417   0.820   3.641  13.927
11180SOL     OW45418   2.471   2.465  20.678
11180SOL    HW145419   2.415   2.428  20.609
11180SOL    HW245420   2.474   2.398  20.745
11181SOL     OW45421   1.278   1.899   2.322
11181SOL    HW145422   1.225   1.889   2.243
11181SOL    HW245423   1.220   1.940   2.386
11182SOL     OW45424   1.212   1.045   4.430
11182SOL    HW145425   1.294   0.999   4.410
11182SOL    HW245426   1.176   1.068   4.344
11183SOL     OW45427   4.265   2.264  15.130
11183SOL    HW145428   4.212   2.258  15.051
11183SOL    HW245429   4.325   2.337  15.114
11184SOL     OW45430   0.617   1.143  11.124
11184SOL    HW145431   0.666   1.219  11.092
11184SOL    HW245432   0.619   1.152  11.219
11185SOL     OW45433   4.070   2.163   0.301
11185SOL    HW145434   4.165   2.169   0.312
11185SOL    HW245435   4.034   2.187   0.387
11186SOL     OW45436   0.830   2.579   4.409
11186SOL    HW145437   0.851   2.580   4.502
11186SOL    HW245438   0.914   2.592   4.365
11187SOL     OW45439   0.657   3.994   1.767
11187SOL    HW145440   0.668   4.081   1.807
11187SOL    HW245441   0.567   3.995   1.733
11188SOL     OW45442   4.766   0.409   7.019
11188SOL    HW145443   4.711   0.359   6.959
11188SOL    HW245444   4.709   0.428   7.093
11189SOL     OW45445   2.718   4.482  20.121
11189SOL    HW145446   2.758   4.457  20.204
11189SOL    HW245447   2.713   4.578  20.124
11190SOL     OW45448   0.953   0.747   5.782
11190SOL    HW145449   1.007   0.727   5.705
11190SOL    HW245450   1.008   0.725   5.857
11191SOL     OW45451   2.144   4.691   4.204
11191SOL    HW145452   2.209   4.641   4.254
11191SOL    HW245453   2.151   4.780   4.238
11192SOL     OW45454   4.087   4.604  15.954
11192SOL    HW145455   4.170   4.602  16.002
11192SOL    HW245456   4.097   4.540  15.884
11193SOL     OW45457   3.434   2.252  12.400
11193SOL    HW145458   3.450   2.283  12.489
11193SOL    HW245459   3.514   2.274  12.352
11194SOL     OW45460   1.475   0.259   5.530
11194SOL    HW145461   1.531   0.184   5.549
11194SOL    HW245462   1.409   0.225   5.470
11195SOL     OW45463   2.969   3.427  17.654
11195SOL    HW145464   2.906   3.442  17.725
11195SOL    HW245465   2.923   3.366  17.595
11196SOL     OW45466   0.952   3.994  20.007
11196SOL    HW145467   0.980   3.946  19.930
11196SOL    HW245468   0.858   3.977  20.013
11197SOL     OW45469   2.945   3.580  13.027
11197SOL    HW145470   3.033   3.592  12.991
11197SOL    HW245471   2.917   3.495  12.994
11198SOL     OW45472   1.193   2.572   6.070
11198SOL    HW145473   1.262   2.607   6.128
11198SOL    HW245474   1.123   2.545   6.130
11199SOL     OW45475   3.851   2.105  20.620
11199SOL    HW145476   3.846   2.060  20.705
11199SOL    HW245477   3.860   2.198  20.643
11200SOL     OW45478   1.076   0.239  16.523
11200SOL    HW145479   1.001   0.298  16.515
11200SOL    HW245480   1.147   0.295  16.557
11201SOL     OW45481   4.525   0.718  16.117
11201SOL    HW145482   4.455   0.781  16.132
11201SOL    HW245483   4.531   0.711  16.021
11202SOL     OW45484   1.298   3.820   6.297
11202SOL    HW145485   1.308   3.895   6.356
11202SOL    HW245486   1.208   3.791   6.309
11203SOL     OW45487   2.928   0.268   2.363
11203SOL    HW145488   2.875   0.344   2.390
11203SOL    HW245489   2.982   0.249   2.439
11204SOL     OW45490   2.703   3.437   2.913
11204SOL    HW145491   2.726   3.395   2.831
11204SOL    HW245492   2.692   3.529   2.891
11205SOL     OW45493   3.255   4.403   0.395
11205SOL    HW145494   3.302   4.398   0.478
11205SOL    HW245495   3.187   4.336   0.401
11206SOL     OW45496   1.069   1.343  14.080
11206SOL    HW145497   1.103   1.394  14.154
11206SOL    HW245498   0.977   1.368  14.074
11207SOL     OW45499   3.047   2.574   4.420
11207SOL    HW145500   2.997   2.620   4.488
11207SOL    HW245501   3.139   2.591   4.442
11208SOL     OW45502   1.794   4.340  17.199
11208SOL    HW145503   1.747   4.265  17.235
11208SOL    HW245504   1.779   4.410  17.262
11209SOL     OW45505   3.507   1.069   4.566
11209SOL    HW145506   3.544   0.990   4.528
11209SOL    HW245507   3.538   1.140   4.510
11210SOL     OW45508   3.622   2.440  12.151
11210SOL    HW145509   3.545   2.492  12.128
11210SOL    HW245510   3.695   2.502  12.142
11211SOL     OW45511   4.310   1.913   4.877
11211SOL    HW145512   4.240   1.855   4.847
11211SOL    HW245513   4.266   1.975   4.935
11212SOL     OW45514   3.252   0.533   3.974
11212SOL    HW145515   3.297   0.534   4.058
11212SOL    HW245516   3.309   0.583   3.915
11213SOL     OW45517   2.249   3.640   1.715
11213SOL    HW145518   2.263   3.735   1.711
11213SOL    HW245519   2.167   3.630   1.763
11214SOL     OW45520   2.914   2.352   4.241
11214SOL    HW145521   2.824   2.327   4.261
11214SOL    HW245522   2.907   2.444   4.213
11215SOL     OW45523   3.434   3.520   3.949
11215SOL    HW145524   3.402   3.483   4.031
11215SOL    HW245525   3.473   3.604   3.974
11216SOL     OW45526   1.430   0.888  17.843
11216SOL    HW145527   1.465   0.904  17.931
11216SOL    HW245528   1.448   0.796  17.826
11217SOL     OW45529   4.677   1.775   2.895
11217SOL    HW145530   4.588   1.809   2.901
11217SOL    HW245531   4.677   1.723   2.814
11218SOL     OW45532   4.746   1.820   0.562
11218SOL    HW145533   4.696   1.802   0.482
11218SOL    HW245534   0.037   1.766   0.555
11219SOL     OW45535   3.936   4.190  14.222
11219SOL    HW145536   3.996   4.256  14.256
11219SOL    HW245537   3.946   4.115  14.281
11220SOL     OW45538   3.691   1.632  14.987
11220SOL    HW145539   3.669   1.689  15.061
11220SOL    HW245540   3.741   1.687  14.927
11221SOL     OW45541   2.268   1.575   1.294
11221SOL    HW145542   2.196   1.513   1.286
11221SOL    HW245543   2.249   1.642   1.228
11222SOL     OW45544   3.061   4.161  18.410
11222SOL    HW145545   3.017   4.112  18.479
11222SOL    HW245546   3.151   4.130  18.412
11223SOL     OW45547   2.630   3.323  17.751
11223SOL    HW145548   2.652   3.398  17.695
11223SOL    HW245549   2.588   3.362  17.828
11224SOL     OW45550   3.589   1.267   4.398
11224SOL    HW145551   3.676   1.279   4.360
11224SOL    HW245552   3.533   1.326   4.348
11225SOL     OW45553   0.534   3.358   0.611
11225SOL    HW145554   0.492   3.329   0.692
11225SOL    HW245555   0.571   3.444   0.632
11226SOL     OW45556   1.009   3.257   4.919
11226SOL    HW145557   0.958   3.183   4.885
11226SOL    HW245558   0.945   3.327   4.932
11227SOL     OW45559   2.738   1.116  20.258
11227SOL    HW145560   2.735   1.184  20.326
11227SOL    HW245561   2.669   1.055  20.282
11228SOL     OW45562   2.021   3.004  18.922
11228SOL    HW145563   2.026   3.072  18.989
11228SOL    HW245564   1.993   2.925  18.970
11229SOL     OW45565   0.464   1.775  18.421
11229SOL    HW145566   0.524   1.714  18.377
11229SOL    HW245567   0.408   1.808  18.351
11230SOL     OW45568   4.608   3.869   3.680
11230SOL    HW145569   4.530   3.921   3.697
11230SOL    HW245570   4.575   3.782   3.658
11231SOL     OW45571   0.232   0.177   0.526
11231SOL    HW145572   0.295   0.248   0.517
11231SOL    HW245573   0.181   0.199   0.604
11232SOL     OW45574   1.085   1.137  16.446
11232SOL    HW145575   1.015   1.122  16.510
11232SOL    HW245576   1.079   1.063  16.386
11233SOL     OW45577   0.323   4.621  13.549
11233SOL    HW145578   0.387   4.611  13.479
11233SOL    HW245579   0.355   4.696  13.600
11234SOL     OW45580   1.759   0.526  20.744
11234SOL    HW145581   1.764   0.557  20.835
11234SOL    HW245582   1.698   0.587  20.702
11235SOL     OW45583   2.810   1.266  17.895
11235SOL    HW145584   2.727   1.219  17.907
11235SOL    HW245585   2.853   1.221  17.822
11236SOL     OW45586   1.442   1.849   5.377
11236SOL    HW145587   1.388   1.821   5.451
11236SOL    HW245588   1.531   1.846   5.410
11237SOL     OW45589   1.123   2.932   1.882
11237SOL    HW145590   1.140   2.846   1.920
11237SOL    HW245591   1.202   2.983   1.902
11238SOL     OW45592   3.919   2.036  15.675
11238SOL    HW145593   3.927   2.131  15.679
11238SOL    HW245594   3.999   2.006  15.630
11239SOL     OW45595   0.158   0.568  17.799
11239SOL    HW145596   0.223   0.546  17.866
11239SOL    HW245597   0.209   0.581  17.719
11240SOL     OW45598   1.237   2.810  18.636
11240SOL    HW145599   1.332   2.822  18.633
11240SOL    HW245600   1.209   2.817  18.545
11241SOL     OW45601   0.542   1.577  16.788
11241SOL    HW145602   0.613   1.601  16.730
11241SOL    HW245603   0.523   1.485  16.767
11242SOL     OW45604   1.774   0.079  13.846
11242SOL    HW145605   1.804   4.776  13.831
11242SOL    HW245606   1.689   0.083  13.801
11243SOL     OW45607   2.366   2.205   1.478
11243SOL    HW145608   2.403   2.121   1.503
11243SOL    HW245609   2.296   2.220   1.542
11244SOL     OW45610   4.752   1.006  20.480
11244SOL    HW145611   4.674   0.970  20.523
11244SOL    HW245612   0.016   0.929  20.455
11245SOL     OW45613   2.098   0.650   3.752
11245SOL    HW145614   2.117   0.698   3.671
11245SOL    HW245615   2.133   0.705   3.821
11246SOL     OW45616   4.639   4.147   0.057
11246SOL    HW145617   4.728   4.111   0.052
11246SOL    HW245618   4.612   4.156  21.210
11247SOL     OW45619   4.605   1.338  18.108
11247SOL    HW145620   4.587   1.293  18.026
11247SOL    HW245621   4.526   1.325  18.161
11248SOL     OW45622   0.754   4.162  13.761
11248SOL    HW145623   0.804   4.217  13.701
11248SOL    HW245624   0.671   4.208  13.772
11249SOL     OW45625   2.681   2.564  16.283
11249SOL    HW145626   2.729   2.494  16.239
11249SOL    HW245627   2.686   2.638  16.222
11250SOL     OW45628   1.161   3.044   3.192
11250SOL    HW145629   1.074   3.057   3.229
11250SOL    HW245630   1.214   3.113   3.232
11251SOL     OW45631   1.487   0.778  15.972
11251SOL    HW145632   1.501   0.692  16.012
11251SOL    HW245633   1.554   0.834  16.010
11252SOL     OW45634   1.815   1.969   1.559
11252SOL    HW145635   1.776   2.003   1.640
11252SOL    HW245636   1.855   2.045   1.517
11253SOL     OW45637   3.667   2.327   5.335
11253SOL    HW145638   3.681   2.321   5.240
11253SOL    HW245639   3.655   2.236   5.363
11254SOL     OW45640   2.068   1.689   3.737
11254SOL    HW145641   2.045   1.597   3.751
11254SOL    HW245642   1.985   1.732   3.719
11255SOL     OW45643   3.038   2.495   6.375
11255SOL    HW145644   3.042   2.475   6.282
11255SOL    HW245645   2.957   2.546   6.385
11256SOL     OW45646   1.525   1.135  13.724
11256SOL    HW145647   1.609   1.095  13.748
11256SOL    HW245648   1.459   1.080  13.766
11257SOL     OW45649   3.667   1.973  15.777
11257SOL    HW145650   3.619   2.053  15.753
11257SOL    HW245651   3.754   1.985  15.739
11258SOL     OW45652   1.246   4.642  13.120
11258SOL    HW145653   1.280   4.719  13.166
11258SOL    HW245654   1.288   4.645  13.034
11259SOL     OW45655   3.923   2.194  17.943
11259SOL    HW145656   3.948   2.130  18.010
11259SOL    HW245657   4.005   2.239  17.921
11260SOL     OW45658   4.032   0.965  18.459
11260SOL    HW145659   3.964   0.958  18.392
11260SOL    HW245660   4.045   0.875  18.489
11261SOL     OW45661   2.094   4.738   5.880
11261SOL    HW145662   2.164   4.776   5.933
11261SOL    HW245663   2.016   4.742   5.936
11262SOL     OW45664   1.095   1.207   2.031
11262SOL    HW145665   1.182   1.239   2.007
11262SOL    HW245666   1.035   1.270   1.991
11263SOL     OW45667   3.064   1.861   0.804
11263SOL    HW145668   3.073   1.862   0.708
11263SOL    HW245669   3.109   1.940   0.833
11264SOL     OW45670   3.786   0.278  18.851
11264SOL    HW145671   3.747   0.242  18.931
11264SOL    HW245672   3.873   0.307  18.878
11265SOL     OW45673   0.876   2.087   2.861
11265SOL    HW145674   0.923   2.057   2.783
11265SOL    HW245675   0.806   2.143   2.826
11266SOL     OW45676   3.253   0.109   5.364
11266SOL    HW145677   3.174   0.163   5.366
11266SOL    HW245678   3.222   0.021   5.385
11267SOL     OW45679   1.182   1.340   2.662
11267SOL    HW145680   1.153   1.415   2.610
11267SOL    HW245681   1.259   1.306   2.616
11268SOL     OW45682   0.019   1.857  18.168
11268SOL    HW145683   0.017   1.946  18.133
11268SOL    HW245684   4.754   1.806  18.106
11269SOL     OW45685   2.785   1.857   2.512
11269SOL    HW145686   2.793   1.912   2.434
11269SOL    HW245687   2.795   1.918   2.585
11270SOL     OW45688   3.484   1.107  17.168
11270SOL    HW145689   3.515   1.068  17.250
11270SOL    HW245690   3.558   1.096  17.108
11271SOL     OW45691   1.784   4.538  17.375
11271SOL    HW145692   1.718   4.522  17.442
11271SOL    HW245693   1.774   4.631  17.353
11272SOL     OW45694   1.933   3.457   3.347
11272SOL    HW145695   1.961   3.414   3.266
11272SOL    HW245696   1.914   3.385   3.407
11273SOL     OW45697   1.763   1.268  21.185
11273SOL    HW145698   1.785   1.222  21.104
11273SOL    HW245699   1.701   1.336  21.157
11274SOL     OW45700   4.616   0.887  19.320
11274SOL    HW145701   4.705   0.853  19.326
11274SOL    HW245702   4.608   0.920  19.231
11275SOL     OW45703   3.257   0.974  15.889
11275SOL    HW145704   3.177   0.925  15.904
11275SOL    HW245705   3.275   0.963  15.795
11276SOL     OW45706   0.577   1.698   0.257
11276SOL    HW145707   0.534   1.779   0.286
11276SOL    HW245708   0.666   1.704   0.292
11277SOL     OW45709   2.878   2.397   0.392
11277SOL    HW145710   2.798   2.440   0.361
11277SOL    HW245711   2.869   2.397   0.487
11278SOL     OW45712   1.896   4.143  18.208
11278SOL    HW145713   1.880   4.110  18.120
11278SOL    HW245714   1.848   4.083  18.265
11279SOL     OW45715   0.730   0.674   6.057
11279SOL    HW145716   0.704   0.719   6.137
11279SOL    HW245717   0.739   0.582   6.083
11280SOL     OW45718   1.615   0.011  17.526
11280SOL    HW145719   1.668   0.029  17.448
11280SOL    HW245720   1.671   0.038  17.599
11281SOL     OW45721   2.675   0.544   2.731
11281SOL    HW145722   2.724   0.589   2.800
11281SOL    HW245723   2.677   0.452   2.755
11282SOL     OW45724   0.121   2.587  18.685
11282SOL    HW145725   0.044   2.565  18.633
11282SOL    HW245726   0.116   2.530  18.762
11283SOL     OW45727   1.275   0.067  19.037
11283SOL    HW145728   1.270   0.134  18.969
11283SOL    HW245729   1.209   0.002  19.012
11284SOL     OW45730   0.568   1.305  19.211
11284SOL    HW145731   0.662   1.311  19.227
11284SOL    HW245732   0.533   1.389  19.241
11285SOL     OW45733   0.073   4.503   2.030
11285SOL    HW145734   4.772   4.527   2.060
11285SOL    HW245735   0.131   4.531   2.100
11286SOL     OW45736   1.045   1.398  11.541
11286SOL    HW145737   0.980   1.359  11.483
11286SOL    HW245738   1.062   1.484  11.503
11287SOL     OW45739   4.177   1.419   5.533
11287SOL    HW145740   4.202   1.458   5.617
11287SOL    HW245741   4.144   1.332   5.556
11288SOL     OW45742   0.002   2.243  20.875
11288SOL    HW145743   0.080   2.239  20.930
11288SOL    HW245744   0.027   2.198  20.794
11289SOL     OW45745   3.101   2.722  19.576
11289SOL    HW145746   3.026   2.664  19.585
11289SOL    HW245747   3.094   2.757  19.487
11290SOL     OW45748   3.230   3.273  16.085
11290SOL    HW145749   3.229   3.290  15.991
11290SOL    HW245750   3.267   3.353  16.123
11291SOL     OW45751   3.900   1.267   1.272
11291SOL    HW145752   3.960   1.294   1.341
11291SOL    HW245753   3.868   1.181   1.299
11292SOL     OW45754   3.393   3.883   4.953
11292SOL    HW145755   3.447   3.847   4.883
11292SOL    HW245756   3.450   3.882   5.031
11293SOL     OW45757   1.744   1.240   3.481
11293SOL    HW145758   1.753   1.304   3.552
11293SOL    HW245759   1.785   1.282   3.405
11294SOL     OW45760   1.287   2.213  19.557
11294SOL    HW145761   1.335   2.190  19.477
11294SOL    HW245762   1.289   2.309  19.559
11295SOL     OW45763   2.688   4.294  15.435
11295SOL    HW145764   2.604   4.305  15.392
11295SOL    HW245765   2.670   4.307  15.528
11296SOL     OW45766   1.887   1.827   0.231
11296SOL    HW145767   1.839   1.879   0.167
11296SOL    HW245768   1.970   1.807   0.187
11297SOL     OW45769   0.251   1.949  19.930
11297SOL    HW145770   0.325   1.993  19.887
11297SOL    HW245771   0.177   1.966  19.872
11298SOL     OW45772   1.296   4.315   3.089
11298SOL    HW145773   1.246   4.247   3.045
11298SOL    HW245774   1.263   4.314   3.179
11299SOL     OW45775   2.422   4.660   4.615
11299SOL    HW145776   2.378   4.645   4.532
11299SOL    HW245777   2.464   4.576   4.635
11300SOL     OW45778   4.100   0.260   1.818
11300SOL    HW145779   4.156   0.300   1.885
11300SOL    HW245780   4.023   0.317   1.814
11301SOL     OW45781   0.047   2.470  20.485
11301SOL    HW145782   0.064   2.524  20.408
11301SOL    HW245783   4.759   2.415  20.461
11302SOL     OW45784   1.284   0.032   3.127
11302SOL    HW145785   1.379   0.041   3.114
11302SOL    HW245786   1.271   4.725   3.142
11303SOL     OW45787   0.510   3.014  20.616
11303SOL    HW145788   0.594   3.031  20.658
11303SOL    HW245789   0.497   3.089  20.557
11304SOL     OW45790   1.518   4.561   8.585
11304SOL    HW145791   1.446   4.498   8.579
11304SOL    HW245792   1.597   4.510   8.571
11305SOL     OW45793   0.137   0.336   5.322
11305SOL    HW145794   0.136   0.410   5.261
11305SOL    HW245795   0.219   0.346   5.369
11306SOL     OW45796   3.352   2.875  19.084
11306SOL    HW145797   3.274   2.821  19.069
11306SOL    HW245798   3.363   2.875  19.179
11307SOL     OW45799   0.071   0.356   6.716
11307SOL    HW145800   0.116   0.354   6.631
11307SOL    HW245801   4.765   0.347   6.694
11308SOL     OW45802   2.948   3.551  15.534
11308SOL    HW145803   2.896   3.499  15.473
11308SOL    HW245804   2.955   3.637  15.492
11309SOL     OW45805   2.478   3.315  15.128
11309SOL    HW145806   2.434   3.281  15.206
11309SOL    HW245807   2.417   3.297  15.056
11310SOL     OW45808   3.062   3.302   5.400
11310SOL    HW145809   3.125   3.343   5.340
11310SOL    HW245810   3.038   3.220   5.357
11311SOL     OW45811   4.038   2.811  16.027
11311SOL    HW145812   3.970   2.752  16.060
11311SOL    HW245813   4.047   2.788  15.935
11312SOL     OW45814   1.838   0.309  14.664
11312SOL    HW145815   1.930   0.315  14.640
11312SOL    HW245816   1.831   0.226  14.713
11313SOL     OW45817   2.663   2.985   1.485
11313SOL    HW145818   2.601   3.055   1.503
11313SOL    HW245819   2.728   2.991   1.555
11314SOL     OW45820   3.988   3.206  19.663
11314SOL    HW145821   4.008   3.155  19.741
11314SOL    HW245822   4.066   3.199  19.608
11315SOL     OW45823   2.044   1.368  16.604
11315SOL    HW145824   2.032   1.412  16.520
11315SOL    HW245825   1.971   1.307  16.610
11316SOL     OW45826   2.079   1.173   3.745
11316SOL    HW145827   2.103   1.127   3.664
11316SOL    HW245828   2.010   1.119   3.783
11317SOL     OW45829   4.017   1.337  21.238
11317SOL    HW145830   4.016   1.397  21.164
11317SOL    HW245831   4.059   1.386   0.064
11318SOL     OW45832   3.895   4.723  16.697
11318SOL    HW145833   3.925   4.649  16.644
11318SOL    HW245834   3.899   4.691  16.787
11319SOL     OW45835   0.639   4.722  18.706
11319SOL    HW145836   0.598   4.689  18.627
11319SOL    HW245837   0.595   0.018  18.723
11320SOL     OW45838   0.240   1.759   0.812
11320SOL    HW145839   0.281   1.835   0.852
11320SOL    HW245840   0.146   1.769   0.830
11321SOL     OW45841   3.807   4.720  19.550
11321SOL    HW145842   3.848   0.018  19.565
11321SOL    HW245843   3.716   4.731  19.580
11322SOL     OW45844   1.562   4.510  16.847
11322SOL    HW145845   1.589   4.419  16.840
11322SOL    HW245846   1.476   4.513  16.806
11323SOL     OW45847   1.544   2.377  11.616
11323SOL    HW145848   1.524   2.298  11.566
11323SOL    HW245849   1.580   2.438  11.552
11324SOL     OW45850   0.666   4.615  14.370
11324SOL    HW145851   0.736   4.581  14.314
11324SOL    HW245852   0.643   4.699  14.330
11325SOL     OW45853   0.200   0.984   3.273
11325SOL    HW145854   0.138   0.938   3.330
11325SOL    HW245855   0.286   0.957   3.304
11326SOL     OW45856   4.737   4.085   1.048
11326SOL    HW145857   4.713   4.088   1.141
11326SOL    HW245858   4.669   4.032   1.007
11327SOL     OW45859   2.225   0.826   8.736
11327SOL    HW145860   2.316   0.854   8.722
11327SOL    HW245861   2.222   0.737   8.700
11328SOL     OW45862   2.907   3.219  19.536
11328SOL    HW145863   2.916   3.162  19.612
11328SOL    HW245864   2.816   3.210  19.510
11329SOL     OW45865   1.239   1.703  16.914
11329SOL    HW145866   1.323   1.693  16.869
11329SOL    HW245867   1.179   1.648  16.865
11330SOL     OW45868   2.388   2.803   5.851
11330SOL    HW145869   2.414   2.870   5.787
11330SOL    HW245870   2.408   2.720   5.808
11331SOL     OW45871   1.636   2.037   3.798
11331SOL    HW145872   1.555   1.987   3.793
11331SOL    HW245873   1.629   2.087   3.879
11332SOL     OW45874   0.329   3.275   6.133
11332SOL    HW145875   0.283   3.256   6.051
11332SOL    HW245876   0.413   3.312   6.106
11333SOL     OW45877   2.238   0.124  19.599
11333SOL    HW145878   2.309   0.061  19.593
11333SOL    HW245879   2.281   0.209  19.601
11334SOL     OW45880   1.533   2.863   5.491
11334SOL    HW145881   1.494   2.886   5.576
11334SOL    HW245882   1.555   2.770   5.499
11335SOL     OW45883   3.015   2.636   1.111
11335SOL    HW145884   2.974   2.720   1.092
11335SOL    HW245885   3.087   2.629   1.049
11336SOL     OW45886   3.955   2.611  17.059
11336SOL    HW145887   4.021   2.541  17.067
11336SOL    HW245888   4.004   2.692  17.076
11337SOL     OW45889   1.543   1.699   4.758
11337SOL    HW145890   1.638   1.700   4.764
11337SOL    HW245891   1.523   1.744   4.676
11338SOL     OW45892   4.206   0.248   3.303
11338SOL    HW145893   4.152   0.325   3.288
11338SOL    HW245894   4.246   0.230   3.218
11339SOL     OW45895   2.111   4.745   5.624
11339SOL    HW145896   2.103   4.709   5.713
11339SOL    HW245897   2.052   0.033   5.624
11340SOL     OW45898   4.679   4.499  15.655
11340SOL    HW145899   4.662   4.522  15.746
11340SOL    HW245900   4.630   4.418  15.641
11341SOL     OW45901   0.520   2.179  15.348
11341SOL    HW145902   0.518   2.098  15.297
11341SOL    HW245903   0.610   2.184  15.382
11342SOL     OW45904   3.846   3.825   7.110
11342SOL    HW145905   3.822   3.776   7.031
11342SOL    HW245906   3.774   3.887   7.122
11343SOL     OW45907   1.452   2.984  20.629
11343SOL    HW145908   1.464   2.973  20.723
11343SOL    HW245909   1.457   2.895  20.593
11344SOL     OW45910   0.862   0.551  18.384
11344SOL    HW145911   0.846   0.642  18.359
11344SOL    HW245912   0.955   0.548  18.406
11345SOL     OW45913   2.711   4.037  17.455
11345SOL    HW145914   2.802   4.061  17.439
11345SOL    HW245915   2.712   3.997  17.542
11346SOL     OW45916   3.157   0.970   0.448
11346SOL    HW145917   3.153   0.945   0.356
11346SOL    HW245918   3.164   0.887   0.495
11347SOL     OW45919   1.197   3.986   5.515
11347SOL    HW145920   1.263   3.920   5.495
11347SOL    HW245921   1.231   4.033   5.591
11348SOL     OW45922   0.455   3.899  13.488
11348SOL    HW145923   0.398   3.972  13.462
11348SOL    HW245924   0.424   3.874  13.575
11349SOL     OW45925   2.237   0.869  13.295
11349SOL    HW145926   2.190   0.894  13.215
11349SOL    HW245927   2.325   0.904  13.282
11350SOL     OW45928   4.338   0.199  14.812
11350SOL    HW145929   4.367   0.117  14.853
11350SOL    HW245930   4.287   0.171  14.736
11351SOL     OW45931   2.699   2.749   4.035
11351SOL    HW145932   2.634   2.681   4.054
11351SOL    HW245933   2.775   2.724   4.087
11352SOL     OW45934   1.655   2.326   5.837
11352SOL    HW145935   1.720   2.368   5.780
11352SOL    HW245936   1.622   2.398   5.891
11353SOL     OW45937   4.440   4.297   7.897
11353SOL    HW145938   4.528   4.334   7.903
11353SOL    HW245939   4.422   4.265   7.985
11354SOL     OW45940   1.151   3.372  18.465
11354SOL    HW145941   1.193   3.287  18.460
11354SOL    HW245942   1.108   3.373  18.551
11355SOL     OW45943   3.110   1.828   2.660
11355SOL    HW145944   3.097   1.781   2.577
11355SOL    HW245945   3.145   1.762   2.719
11356SOL     OW45946   3.573   3.838   5.418
11356SOL    HW145947   3.667   3.827   5.428
11356SOL    HW245948   3.534   3.781   5.484
11357SOL     OW45949   0.953   2.310   3.808
11357SOL    HW145950   0.975   2.271   3.724
11357SOL    HW245951   0.984   2.247   3.873
11358SOL     OW45952   1.345   2.118   0.990
11358SOL    HW145953   1.358   2.050   0.924
11358SOL    HW245954   1.318   2.195   0.941
11359SOL     OW45955   4.485   2.864   1.160
11359SOL    HW145956   4.557   2.812   1.124
11359SOL    HW245957   4.434   2.890   1.083
11360SOL     OW45958   4.723   3.417   2.363
11360SOL    HW145959   4.748   3.328   2.385
11360SOL    HW245960   4.739   3.424   2.269
11361SOL     OW45961   0.891   1.197  16.703
11361SOL    HW145962   0.797   1.193  16.723
11361SOL    HW245963   0.909   1.115  16.657
11362SOL     OW45964   2.480   4.505   6.719
11362SOL    HW145965   2.544   4.560   6.675
11362SOL    HW245966   2.530   4.429   6.750
11363SOL     OW45967   1.665   2.508  15.084
11363SOL    HW145968   1.594   2.539  15.140
11363SOL    HW245969   1.739   2.566  15.105
11364SOL     OW45970   3.111   1.733  20.279
11364SOL    HW145971   3.033   1.787  20.267
11364SOL    HW245972   3.128   1.735  20.373
11365SOL     OW45973   4.067   2.495  16.824
11365SOL    HW145974   4.016   2.553  16.880
11365SOL    HW245975   4.041   2.407  16.850
11366SOL     OW45976   1.892   2.580   2.392
11366SOL    HW145977   1.896   2.487   2.369
11366SOL    HW245978   1.833   2.618   2.326
11367SOL     OW45979   4.620   1.885  14.983
11367SOL    HW145980   4.677   1.904  14.909
11367SOL    HW245981   4.669   1.911  15.060
11368SOL     OW45982   0.087   2.418   1.788
11368SOL    HW145983   0.101   2.498   1.738
11368SOL    HW245984   0.132   2.434   1.871
11369SOL     OW45985   2.002   2.026  18.552
11369SOL    HW145986   2.086   2.070  18.560
11369SOL    HW245987   1.982   2.027  18.459
11370SOL     OW45988   4.701   4.207   2.734
11370SOL    HW145989   4.769   4.245   2.678
11370SOL    HW245990   4.748   4.145   2.790
11371SOL     OW45991   2.565   2.769  20.521
11371SOL    HW145992   2.625   2.729  20.457
11371SOL    HW245993   2.505   2.700  20.545
11372SOL     OW45994   1.112   2.997  15.515
11372SOL    HW145995   1.048   3.013  15.445
11372SOL    HW245996   1.059   2.980  15.593
11373SOL     OW45997   1.630   4.261   3.352
11373SOL    HW145998   1.626   4.215   3.267
11373SOL    HW245999   1.606   4.351   3.331
11374SOL     OW46000   4.389   2.345  18.562
11374SOL    HW146001   4.482   2.321  18.563
11374SOL    HW246002   4.351   2.295  18.634
11375SOL     OW46003   3.493   1.986   3.346
11375SOL    HW146004   3.541   1.999   3.265
11375SOL    HW246005   3.409   1.950   3.319
11376SOL     OW46006   0.511   4.784   2.087
11376SOL    HW146007   0.502   0.081   2.041
11376SOL    HW246008   0.426   4.771   2.131
11377SOL     OW46009   0.713   4.081  16.872
11377SOL    HW146010   0.619   4.098  16.871
11377SOL    HW246011   0.722   3.990  16.899
11378SOL     OW46012   4.482   3.951   4.702
11378SOL    HW146013   4.432   3.919   4.627
11378SOL    HW246014   4.573   3.944   4.674
11379SOL     OW46015   0.807   4.068  15.960
11379SOL    HW146016   0.811   3.972  15.959
11379SOL    HW246017   0.801   4.090  16.053
11380SOL     OW46018   4.016   0.952  16.471
11380SOL    HW146019   3.946   0.923  16.529
11380SOL    HW246020   3.982   1.032  16.431
11381SOL     OW46021   0.958   1.823  17.407
11381SOL    HW146022   0.894   1.759  17.441
11381SOL    HW246023   0.997   1.778  17.332
11382SOL     OW46024   1.244   0.340  15.500
11382SOL    HW146025   1.165   0.386  15.527
11382SOL    HW246026   1.213   0.262  15.454
11383SOL     OW46027   1.869   1.000   3.403
11383SOL    HW146028   1.840   1.083   3.439
11383SOL    HW246029   1.956   0.986   3.440
11384SOL     OW46030   4.212   2.033  20.378
11384SOL    HW146031   4.207   2.078  20.294
11384SOL    HW246032   4.143   1.968  20.375
11385SOL     OW46033   0.458   4.043  16.101
11385SOL    HW146034   0.476   4.114  16.040
11385SOL    HW246035   0.458   4.085  16.187
11386SOL     OW46036   2.727   2.765  16.044
11386SOL    HW146037   2.812   2.723  16.061
11386SOL    HW246038   2.738   2.853  16.079
11387SOL     OW46039   4.612   0.488  16.228
11387SOL    HW146040   4.669   0.519  16.298
11387SOL    HW246041   4.575   0.568  16.190
11388SOL     OW46042   1.482   3.773  15.004
11388SOL    HW146043   1.394   3.775  15.041
11388SOL    HW246044   1.468   3.748  14.912
11389SOL     OW46045   1.106   3.370   3.232
11389SOL    HW146046   1.174   3.323   3.281
11389SOL    HW246047   1.041   3.394   3.297
11390SOL     OW46048   4.174   3.029  17.563
11390SOL    HW146049   4.112   2.999  17.496
11390SOL    HW246050   4.162   2.967  17.635
11391SOL     OW46051   0.804   0.591  20.622
11391SOL    HW146052   0.857   0.661  20.660
11391SOL    HW246053   0.812   0.518  20.685
11392SOL     OW46054   1.203   1.787   1.175
11392SOL    HW146055   1.135   1.797   1.242
11392SOL    HW246056   1.279   1.831   1.212
11393SOL     OW46057   3.690   3.886  18.343
11393SOL    HW146058   3.602   3.866  18.311
11393SOL    HW246059   3.693   3.981  18.348
11394SOL     OW46060   2.022   1.776  21.194
11394SOL    HW146061   2.062   1.712   0.009
11394SOL    HW246062   2.091   1.796  21.131
11395SOL     OW46063   1.940   2.754  14.382
11395SOL    HW146064   2.022   2.718  14.351
11395SOL    HW246065   1.873   2.712  14.328
11396SOL     OW46066   4.292   4.500  20.231
11396SOL    HW146067   4.197   4.508  20.218
11396SOL    HW246068   4.303   4.493  20.326
11397SOL     OW46069   0.572   3.871   1.995
11397SOL    HW146070   0.607   3.924   1.923
11397SOL    HW246071   0.648   3.826   2.031
11398SOL     OW46072   1.546   2.474   3.701
11398SOL    HW146073   1.604   2.415   3.652
11398SOL    HW246074   1.482   2.416   3.741
11399SOL     OW46075   4.090   1.515   2.609
11399SOL    HW146076   4.024   1.517   2.678
11399SOL    HW246077   4.144   1.438   2.628
11400SOL     OW46078   4.175   2.247  18.818
11400SOL    HW146079   4.140   2.299  18.745
11400SOL    HW246080   4.157   2.156  18.793
11401SOL     OW46081   0.559   1.722  20.834
11401SOL    HW146082   0.633   1.756  20.884
11401SOL    HW246083   0.594   1.643  20.791
11402SOL     OW46084   0.488   3.735   2.484
11402SOL    HW146085   0.582   3.723   2.495
11402SOL    HW246086   0.465   3.680   2.409
11403SOL     OW46087   1.946   0.637   0.207
11403SOL    HW146088   1.863   0.645   0.253
11403SOL    HW246089   1.940   0.554   0.160
11404SOL     OW46090   4.026   1.135  20.591
11404SOL    HW146091   3.979   1.216  20.612
11404SOL    HW246092   4.116   1.164  20.575
11405SOL     OW46093   1.047   2.282   1.675
11405SOL    HW146094   1.034   2.274   1.581
11405SOL    HW246095   1.054   2.376   1.691
11406SOL     OW46096   4.437   2.800  18.411
11406SOL    HW146097   4.495   2.797  18.334
11406SOL    HW246098   4.422   2.893  18.425
11407SOL     OW46099   0.352   1.854  17.738
11407SOL    HW146100   0.401   1.848  17.820
11407SOL    HW246101   0.416   1.886  17.674
11408SOL     OW46102   3.401   1.709  19.142
11408SOL    HW146103   3.336   1.732  19.075
11408SOL    HW246104   3.471   1.773  19.130
11409SOL     OW46105   0.347   3.931   2.153
11409SOL    HW146106   0.280   3.863   2.146
11409SOL    HW246107   0.422   3.896   2.105
11410SOL     OW46108   2.509   1.154   4.534
11410SOL    HW146109   2.602   1.143   4.513
11410SOL    HW246110   2.507   1.218   4.604
11411SOL     OW46111   1.572   2.151   4.314
11411SOL    HW146112   1.664   2.136   4.333
11411SOL    HW246113   1.534   2.063   4.306
11412SOL     OW46114   2.811   3.899  17.690
11412SOL    HW146115   2.864   3.821  17.698
11412SOL    HW246116   2.872   3.972  17.701
11413SOL     OW46117   0.655   3.431  16.248
11413SOL    HW146118   0.729   3.478  16.210
11413SOL    HW246119   0.580   3.455  16.193
11414SOL     OW46120   3.757   3.608  19.074
11414SOL    HW146121   3.738   3.696  19.041
11414SOL    HW246122   3.801   3.564  19.002
11415SOL     OW46123   0.162   1.421  20.281
11415SOL    HW146124   0.114   1.342  20.257
11415SOL    HW246125   0.221   1.393  20.351
11416SOL     OW46126   4.547   0.012   2.460
11416SOL    HW146127   4.539   0.042   2.550
11416SOL    HW246128   4.571   0.090   2.410
11417SOL     OW46129   3.440   0.491   2.827
11417SOL    HW146130   3.444   0.543   2.747
11417SOL    HW246131   3.422   0.556   2.896
11418SOL     OW46132   2.820   2.923  15.846
11418SOL    HW146133   2.846   2.994  15.904
11418SOL    HW246134   2.792   2.853  15.905
11419SOL     OW46135   1.573   3.812  17.901
11419SOL    HW146136   1.555   3.719  17.913
11419SOL    HW246137   1.654   3.814  17.850
11420SOL     OW46138   4.012   3.691  15.455
11420SOL    HW146139   4.106   3.685  15.473
11420SOL    HW246140   3.970   3.651  15.531
11421SOL     OW46141   3.384   0.924  15.469
11421SOL    HW146142   3.457   0.931  15.530
11421SOL    HW246143   3.322   0.992  15.495
11422SOL     OW46144   2.516   3.952  16.865
11422SOL    HW146145   2.527   3.935  16.958
11422SOL    HW246146   2.424   3.975  16.855
11423SOL     OW46147   1.290   0.256   1.185
11423SOL    HW146148   1.207   0.209   1.176
11423SOL    HW246149   1.303   0.300   1.101
11424SOL     OW46150   2.803   3.842   5.027
11424SOL    HW146151   2.768   3.762   5.067
11424SOL    HW246152   2.875   3.811   4.973
11425SOL     OW46153   0.685   0.244  18.631
11425SOL    HW146154   0.739   0.306  18.581
11425SOL    HW246155   0.746   0.202  18.692
11426SOL     OW46156   2.143   3.833  17.468
11426SOL    HW146157   2.074   3.895  17.445
11426SOL    HW246158   2.203   3.836  17.393
11427SOL     OW46159   0.337   3.648  14.003
11427SOL    HW146160   0.374   3.562  14.026
11427SOL    HW246161   0.243   3.637  14.014
11428SOL     OW46162   4.653   4.698   7.851
11428SOL    HW146163   4.595   4.624   7.833
11428SOL    HW246164   4.683   4.684   7.941
11429SOL     OW46165   3.697   1.099  16.981
11429SOL    HW146166   3.708   1.052  16.899
11429SOL    HW246167   3.762   1.060  17.040
11430SOL     OW46168   4.740   0.285   1.216
11430SOL    HW146169   4.764   0.291   1.309
11430SOL    HW246170   4.666   0.345   1.208
11431SOL     OW46171   2.216   3.298   2.979
11431SOL    HW146172   2.307   3.309   3.006
11431SOL    HW246173   2.212   3.210   2.941
11432SOL     OW46174   3.859   4.663   0.920
11432SOL    HW146175   3.796   4.722   0.960
11432SOL    HW246176   3.818   4.577   0.926
11433SOL     OW46177   4.158   1.424  15.726
11433SOL    HW146178   4.100   1.379  15.788
11433SOL    HW246179   4.171   1.511  15.764
11434SOL     OW46180   0.841   3.959  19.125
11434SOL    HW146181   0.830   3.946  19.030
11434SOL    HW246182   0.931   3.934  19.142
11435SOL     OW46183   2.971   4.315  20.545
11435SOL    HW146184   3.058   4.332  20.581
11435SOL    HW246185   2.953   4.224  20.568
11436SOL     OW46186   1.791   0.145   7.735
11436SOL    HW146187   1.852   0.107   7.797
11436SOL    HW246188   1.739   0.207   7.787
11437SOL     OW46189   1.968   0.698  18.767
11437SOL    HW146190   1.910   0.708  18.843
11437SOL    HW246191   2.027   0.627  18.792
11438SOL     OW46192   4.245   0.792  20.571
11438SOL    HW146193   4.249   0.772  20.478
11438SOL    HW246194   4.294   0.873  20.582
11439SOL     OW46195   0.211   3.442   1.290
11439SOL    HW146196   0.225   3.522   1.340
11439SOL    HW246197   0.187   3.472   1.202
11440SOL     OW46198   1.446   4.081  17.056
11440SOL    HW146199   1.516   4.098  17.119
11440SOL    HW246200   1.438   3.985  17.054
11441SOL     OW46201   0.346   0.453  13.294
11441SOL    HW146202   0.284   0.518  13.261
11441SOL    HW246203   0.399   0.429  13.217
11442SOL     OW46204   4.304   2.925  15.988
11442SOL    HW146205   4.234   2.873  16.027
11442SOL    HW246206   4.276   2.941  15.898
11443SOL     OW46207   1.791   3.191  19.582
11443SOL    HW146208   1.779   3.283  19.560
11443SOL    HW246209   1.771   3.186  19.676
11444SOL     OW46210   1.203   1.260  14.911
11444SOL    HW146211   1.170   1.323  14.975
11444SOL    HW246212   1.260   1.202  14.962
11445SOL     OW46213   0.142   1.282   0.403
11445SOL    HW146214   0.085   1.342   0.451
11445SOL    HW246215   0.116   1.291   0.312
11446SOL     OW46216   4.179   2.464   1.114
11446SOL    HW146217   4.247   2.468   1.046
11446SOL    HW246218   4.217   2.410   1.183
11447SOL     OW46219   3.285   2.525  15.763
11447SOL    HW146220   3.278   2.431  15.750
11447SOL    HW246221   3.206   2.561  15.722
11448SOL     OW46222   0.886   1.264   7.188
11448SOL    HW146223   0.953   1.284   7.122
11448SOL    HW246224   0.935   1.243   7.267
11449SOL     OW46225   3.527   3.411  18.317
11449SOL    HW146226   3.502   3.331  18.363
11449SOL    HW246227   3.530   3.386  18.225
11450SOL     OW46228   3.653   3.840  20.916
11450SOL    HW146229   3.564   3.811  20.894
11450SOL    HW246230   3.640   3.907  20.983
11451SOL     OW46231   3.514   1.290   4.079
11451SOL    HW146232   3.420   1.301   4.067
11451SOL    HW246233   3.550   1.379   4.070
11452SOL     OW46234   0.505   1.310   2.517
11452SOL    HW146235   0.585   1.356   2.539
11452SOL    HW246236   0.476   1.350   2.435
11453SOL     OW46237   0.255   1.499   2.913
11453SOL    HW146238   0.183   1.451   2.955
11453SOL    HW246239   0.307   1.432   2.869
11454SOL     OW46240   2.893   1.103   3.099
11454SOL    HW146241   2.920   1.012   3.095
11454SOL    HW246242   2.944   1.140   3.171
11455SOL     OW46243   2.658   1.123  18.144
11455SOL    HW146244   2.744   1.095  18.114
11455SOL    HW246245   2.668   1.216  18.163
11456SOL     OW46246   2.142   2.986  16.097
11456SOL    HW146247   2.103   3.025  16.175
11456SOL    HW246248   2.224   3.034  16.084
11457SOL     OW46249   0.058   4.029   1.681
11457SOL    HW146250   0.065   4.069   1.768
11457SOL    HW246251   4.756   3.992   1.679
11458SOL     OW46252   3.288   3.205  19.487
11458SOL    HW146253   3.345   3.184  19.561
11458SOL    HW246254   3.324   3.286  19.452
11459SOL     OW46255   2.761   2.098   6.964
11459SOL    HW146256   2.852   2.086   6.991
11459SOL    HW246257   2.710   2.075   7.041
11460SOL     OW46258   3.008   3.487   0.277
11460SOL    HW146259   2.976   3.420   0.338
11460SOL    HW246260   3.060   3.440   0.213
11461SOL     OW46261   1.511   0.893   8.053
11461SOL    HW146262   1.506   0.846   7.969
11461SOL    HW246263   1.512   0.985   8.028
11462SOL     OW46264   3.954   0.620  20.406
11462SOL    HW146265   3.938   0.601  20.499
11462SOL    HW246266   4.041   0.586  20.389
11463SOL     OW46267   4.311   3.800   5.610
11463SOL    HW146268   4.218   3.809   5.629
11463SOL    HW246269   4.351   3.879   5.647
11464SOL     OW46270   0.124   3.243  19.475
11464SOL    HW146271   0.121   3.339  19.474
11464SOL    HW246272   0.187   3.220  19.407
11465SOL     OW46273   2.295   1.507  16.461
11465SOL    HW146274   2.366   1.456  16.421
11465SOL    HW246275   2.220   1.492  16.404
11466SOL     OW46276   3.958   4.306  17.110
11466SOL    HW146277   3.890   4.305  17.043
11466SOL    HW246278   3.910   4.302  17.193
11467SOL     OW46279   4.487   0.734   0.064
11467SOL    HW146280   4.517   0.758  21.221
11467SOL    HW246281   4.540   0.787   0.123
11468SOL     OW46282   0.843   0.442   4.217
11468SOL    HW146283   0.913   0.391   4.176
11468SOL    HW246284   0.866   0.444   4.310
11469SOL     OW46285   3.374   0.015  21.108
11469SOL    HW146286   3.399   0.099  21.147
11469SOL    HW246287   3.426   4.737  21.154
11470SOL     OW46288   1.154   1.454  13.745
11470SOL    HW146289   1.216   1.401  13.794
11470SOL    HW246290   1.068   1.424  13.774
11471SOL     OW46291   1.508   4.391  15.903
11471SOL    HW146292   1.461   4.313  15.872
11471SOL    HW246293   1.525   4.442  15.823
11472SOL     OW46294   3.314   3.031  21.228
11472SOL    HW146295   3.344   3.104   0.038
11472SOL    HW246296   3.362   2.955   0.016
11473SOL     OW46297   2.174   0.433   0.331
11473SOL    HW146298   2.128   0.349   0.329
11473SOL    HW246299   2.130   0.486   0.264
11474SOL     OW46300   2.797   1.702  19.682
11474SOL    HW146301   2.869   1.666  19.733
11474SOL    HW246302   2.727   1.636  19.688
11475SOL     OW46303   1.749   1.628  17.591
11475SOL    HW146304   1.665   1.583  17.591
11475SOL    HW246305   1.730   1.715  17.556
11476SOL     OW46306   3.633   1.287  18.271
11476SOL    HW146307   3.646   1.214  18.211
11476SOL    HW246308   3.655   1.252  18.357
11477SOL     OW46309   0.085   2.352  16.980
11477SOL    HW146310   0.051   2.291  16.914
11477SOL    HW246311   0.091   2.436  16.934
11478SOL     OW46312   3.557   4.061   1.481
11478SOL    HW146313   3.538   3.999   1.552
11478SOL    HW246314   3.549   4.147   1.522
11479SOL     OW46315   4.382   0.611   6.724
11479SOL    HW146316   4.298   0.654   6.740
11479SOL    HW246317   4.444   0.684   6.711
11480SOL     OW46318   0.126   4.655   6.139
11480SOL    HW146319   0.090   4.568   6.120
11480SOL    HW246320   0.052   4.705   6.173
11481SOL     OW46321   4.086   0.830  16.239
11481SOL    HW146322   4.052   0.741  16.239
11481SOL    HW246323   4.070   0.862  16.328
11482SOL     OW46324   2.209   3.945   1.992
11482SOL    HW146325   2.275   3.998   2.036
11482SOL    HW246326   2.144   3.927   2.060
11483SOL     OW46327   0.337   2.114  15.544
11483SOL    HW146328   0.426   2.114  15.507
11483SOL    HW246329   0.313   2.021  15.548
11484SOL     OW46330   1.649   2.446  16.988
11484SOL    HW146331   1.671   2.416  16.900
11484SOL    HW246332   1.720   2.505  17.012
11485SOL     OW46333   3.326   3.475   7.000
11485SOL    HW146334   3.335   3.405   7.065
11485SOL    HW246335   3.237   3.507   7.013
11486SOL     OW46336   1.003   0.377  17.257
11486SOL    HW146337   1.084   0.327  17.265
11486SOL    HW246338   0.994   0.393  17.164
11487SOL     OW46339   3.173   3.399   3.334
11487SOL    HW146340   3.196   3.358   3.418
11487SOL    HW246341   3.142   3.327   3.280
11488SOL     OW46342   1.446   2.749  19.059
11488SOL    HW146343   1.354   2.724  19.069
11488SOL    HW246344   1.479   2.693  18.989
11489SOL     OW46345   3.457   0.684   2.620
11489SOL    HW146346   3.374   0.701   2.576
11489SOL    HW246347   3.519   0.744   2.580
11490SOL     OW46348   0.778   0.913   8.177
11490SOL    HW146349   0.793   0.822   8.152
11490SOL    HW246350   0.864   0.953   8.173
11491SOL     OW46351   3.029   2.348   6.122
11491SOL    HW146352   2.971   2.385   6.055
11491SOL    HW246353   3.053   2.262   6.087
11492SOL     OW46354   2.148   2.918   2.779
11492SOL    HW146355   2.111   2.858   2.844
11492SOL    HW246356   2.224   2.871   2.744
11493SOL     OW46357   3.509   2.825   2.788
11493SOL    HW146358   3.604   2.835   2.795
11493SOL    HW246359   3.492   2.735   2.815
11494SOL     OW46360   0.953   1.501  19.765
11494SOL    HW146361   0.901   1.530  19.690
11494SOL    HW246362   0.969   1.408  19.749
11495SOL     OW46363   2.894   2.787   2.397
11495SOL    HW146364   2.865   2.856   2.457
11495SOL    HW246365   2.894   2.707   2.449
11496SOL     OW46366   0.761   0.470  10.329
11496SOL    HW146367   0.763   0.431  10.416
11496SOL    HW246368   0.680   0.521  10.328
11497SOL     OW46369   4.644   1.102   1.933
11497SOL    HW146370   4.596   1.124   2.014
11497SOL    HW246371   4.736   1.101   1.959
11498SOL     OW46372   4.270   1.595  19.860
11498SOL    HW146373   4.242   1.638  19.941
11498SOL    HW246374   4.189   1.558  19.823
11499SOL     OW46375   1.782   4.556  14.131
11499SOL    HW146376   1.688   4.576  14.130
11499SOL    HW246377   1.811   4.576  14.042
11500SOL     OW46378   4.066   4.409  15.748
11500SOL    HW146379   4.111   4.461  15.682
11500SOL    HW246380   4.124   4.335  15.765
11501SOL     OW46381   4.157   3.103   5.256
11501SOL    HW146382   4.150   3.025   5.311
11501SOL    HW246383   4.071   3.146   5.264
11502SOL     OW46384   2.441   2.458   3.450
11502SOL    HW146385   2.349   2.443   3.473
11502SOL    HW246386   2.482   2.372   3.457
11503SOL     OW46387   1.775   4.620   5.391
11503SOL    HW146388   1.696   4.673   5.400
11503SOL    HW246389   1.803   4.602   5.481
11504SOL     OW46390   1.684   3.079   2.956
11504SOL    HW146391   1.730   3.001   2.925
11504SOL    HW246392   1.688   3.072   3.051
11505SOL     OW46393   2.782   1.662   5.449
11505SOL    HW146394   2.799   1.627   5.536
11505SOL    HW246395   2.767   1.586   5.394
11506SOL     OW46396   0.525   0.674  15.529
11506SOL    HW146397   0.495   0.716  15.610
11506SOL    HW246398   0.446   0.637  15.490
11507SOL     OW46399   0.093   4.246   3.425
11507SOL    HW146400   0.123   4.171   3.476
11507SOL    HW246401   0.143   4.320   3.459
11508SOL     OW46402   0.074   4.087   4.001
11508SOL    HW146403   0.068   3.993   3.985
11508SOL    HW246404   0.167   4.105   4.006
11509SOL     OW46405   2.747   0.583  15.281
11509SOL    HW146406   2.830   0.613  15.317
11509SOL    HW246407   2.768   0.554  15.192
11510SOL     OW46408   3.806   0.465   4.110
11510SOL    HW146409   3.880   0.404   4.113
11510SOL    HW246410   3.730   0.409   4.093
11511SOL     OW46411   3.841   1.240  19.211
11511SOL    HW146412   3.821   1.261  19.302
11511SOL    HW246413   3.934   1.261  19.201
11512SOL     OW46414   4.399   1.342  15.644
11512SOL    HW146415   4.314   1.383  15.631
11512SOL    HW246416   4.384   1.249  15.634
11513SOL     OW46417   0.976   3.395  18.678
11513SOL    HW146418   1.019   3.359  18.756
11513SOL    HW246419   0.883   3.379  18.692
11514SOL     OW46420   1.004   0.462  20.937
11514SOL    HW146421   1.082   0.416  20.909
11514SOL    HW246422   1.020   0.554  20.913
11515SOL     OW46423   1.833   2.805   4.897
11515SOL    HW146424   1.846   2.734   4.835
11515SOL    HW246425   1.740   2.824   4.893
11516SOL     OW46426   3.496   2.257  19.295
11516SOL    HW146427   3.442   2.242  19.373
11516SOL    HW246428   3.505   2.352  19.290
11517SOL     OW46429   4.513   2.767   1.688
11517SOL    HW146430   4.521   2.841   1.747
11517SOL    HW246431   4.540   2.801   1.603
11518SOL     OW46432   1.638   1.771   0.405
11518SOL    HW146433   1.683   1.785   0.488
11518SOL    HW246434   1.709   1.749   0.344
11519SOL     OW46435   1.850   4.036  16.282
11519SOL    HW146436   1.821   3.948  16.258
11519SOL    HW246437   1.825   4.091  16.207
11520SOL     OW46438   1.133   3.623  16.439
11520SOL    HW146439   1.194   3.688  16.474
11520SOL    HW246440   1.089   3.668  16.366
11521SOL     OW46441   4.240   1.495   7.426
11521SOL    HW146442   4.171   1.507   7.361
11521SOL    HW246443   4.207   1.426   7.483
11522SOL     OW46444   0.643   1.130   5.634
11522SOL    HW146445   0.704   1.064   5.602
11522SOL    HW246446   0.593   1.155   5.556
11523SOL     OW46447   4.741   0.337  18.549
11523SOL    HW146448   4.756   0.265  18.610
11523SOL    HW246449   4.646   0.346  18.545
11524SOL     OW46450   0.428   0.876  18.017
11524SOL    HW146451   0.438   0.903  18.109
11524SOL    HW246452   0.504   0.821  18.000
11525SOL     OW46453   2.178   3.526  18.739
11525SOL    HW146454   2.217   3.477  18.667
11525SOL    HW246455   2.084   3.522  18.723
11526SOL     OW46456   0.735   0.274  19.380
11526SOL    HW146457   0.747   0.183  19.408
11526SOL    HW246458   0.644   0.277  19.349
11527SOL     OW46459   2.930   3.838   7.570
11527SOL    HW146460   2.838   3.822   7.546
11527SOL    HW246461   2.930   3.837   7.666
11528SOL     OW46462   2.523   0.048   4.806
11528SOL    HW146463   2.564   0.117   4.755
11528SOL    HW246464   2.480   4.779   4.741
11529SOL     OW46465   3.414   1.563   1.650
11529SOL    HW146466   3.362   1.612   1.714
11529SOL    HW246467   3.502   1.559   1.688
11530SOL     OW46468   3.118   2.337   0.895
11530SOL    HW146469   3.120   2.359   0.989
11530SOL    HW246470   3.162   2.411   0.853
11531SOL     OW46471   3.649   4.705  14.435
11531SOL    HW146472   3.701   4.678  14.511
11531SOL    HW246473   3.664   4.637  14.370
11532SOL     OW46474   2.767   2.946   4.517
11532SOL    HW146475   2.801   3.031   4.545
11532SOL    HW246476   2.672   2.959   4.508
11533SOL     OW46477   1.554   3.634  13.908
11533SOL    HW146478   1.558   3.699  13.838
11533SOL    HW246479   1.620   3.569  13.884
11534SOL     OW46480   2.459   2.731  16.389
11534SOL    HW146481   2.529   2.666  16.378
11534SOL    HW246482   2.471   2.791  16.315
11535SOL     OW46483   0.686   3.244   6.728
11535SOL    HW146484   0.704   3.217   6.638
11535SOL    HW246485   0.656   3.335   6.721
11536SOL     OW46486   4.304   4.009   6.893
11536SOL    HW146487   4.385   3.960   6.878
11536SOL    HW246488   4.257   3.957   6.959
11537SOL     OW46489   2.552   0.926  18.307
11537SOL    HW146490   2.603   0.856  18.266
11537SOL    HW246491   2.578   1.005  18.259
11538SOL     OW46492   1.562   0.502   2.102
11538SOL    HW146493   1.585   0.480   2.193
11538SOL    HW246494   1.495   0.439   2.078
11539SOL     OW46495   3.077   2.887  18.318
11539SOL    HW146496   3.153   2.858  18.268
11539SOL    HW246497   3.035   2.805  18.346
11540SOL     OW46498   3.415   0.032  15.372
11540SOL    HW146499   3.392   4.783  15.457
11540SOL    HW246500   3.506   0.061  15.382
11541SOL     OW46501   1.644   0.422  18.335
11541SOL    HW146502   1.706   0.480  18.379
11541SOL    HW246503   1.577   0.480  18.300
11542SOL     OW46504   0.564   3.413   6.032
11542SOL    HW146505   0.585   3.483   6.094
11542SOL    HW246506   0.640   3.355   6.034
11543SOL     OW46507   3.910   3.973   2.610
11543SOL    HW146508   3.990   3.932   2.644
11543SOL    HW246509   3.942   4.045   2.556
11544SOL     OW46510   0.154   0.261  18.749
11544SOL    HW146511   0.100   0.314  18.807
11544SOL    HW246512   0.242   0.267  18.787
11545SOL     OW46513   3.121   3.217   3.144
11545SOL    HW146514   3.043   3.219   3.089
11545SOL    HW246515   3.163   3.134   3.124
11546SOL     OW46516   3.273   3.482   1.383
11546SOL    HW146517   3.216   3.526   1.446
11546SOL    HW246518   3.249   3.390   1.388
11547SOL     OW46519   3.523   3.666  15.586
11547SOL    HW146520   3.501   3.624  15.503
11547SOL    HW246521   3.538   3.758  15.564
11548SOL     OW46522   3.377   0.474  18.921
11548SOL    HW146523   3.405   0.429  19.001
11548SOL    HW246524   3.425   0.557  18.923
11549SOL     OW46525   0.233   3.813   4.890
11549SOL    HW146526   0.218   3.853   4.804
11549SOL    HW246527   0.180   3.866   4.950
11550SOL     OW46528   3.882   4.566   6.943
11550SOL    HW146529   3.840   4.583   6.859
11550SOL    HW246530   3.876   4.650   6.990
11551SOL     OW46531   4.546   4.130   1.764
11551SOL    HW146532   4.532   4.051   1.816
11551SOL    HW246533   4.560   4.199   1.829
11552SOL     OW46534   2.939   0.447  18.356
11552SOL    HW146535   2.849   0.466  18.328
11552SOL    HW246536   2.935   0.448  18.451
11553SOL     OW46537   4.441   0.055  19.512
11553SOL    HW146538   4.439   0.005  19.430
11553SOL    HW246539   4.409   0.142  19.488
11554SOL     OW46540   3.194   0.240  19.572
11554SOL    HW146541   3.156   0.152  19.570
11554SOL    HW246542   3.171   0.274  19.658
11555SOL     OW46543   0.524   4.546   4.046
11555SOL    HW146544   0.608   4.564   4.088
11555SOL    HW246545   0.487   4.633   4.030
11556SOL     OW46546   3.224   4.073   0.856
11556SOL    HW146547   3.289   4.002   0.855
11556SOL    HW246548   3.162   4.048   0.924
11557SOL     OW46549   2.905   0.484   6.712
11557SOL    HW146550   2.812   0.508   6.715
11557SOL    HW246551   2.918   0.447   6.625
11558SOL     OW46552   3.898   2.597  18.011
11558SOL    HW146553   3.813   2.573  18.048
11558SOL    HW246554   3.877   2.663  17.945
11559SOL     OW46555   2.202   3.757   0.852
11559SOL    HW146556   2.124   3.808   0.873
11559SOL    HW246557   2.274   3.806   0.893
11560SOL     OW46558   0.076   2.176   5.699
11560SOL    HW146559   4.785   2.187   5.644
11560SOL    HW246560   0.141   2.137   5.641
11561SOL     OW46561   3.443   4.711  16.691
11561SOL    HW146562   3.489   4.726  16.774
11561SOL    HW246563   3.499   4.651  16.642
11562SOL     OW46564   2.455   2.796   2.433
11562SOL    HW146565   2.502   2.716   2.407
11562SOL    HW246566   2.478   2.807   2.525
11563SOL     OW46567   2.266   3.895  20.636
11563SOL    HW146568   2.231   3.937  20.557
11563SOL    HW246569   2.219   3.812  20.641
11564SOL     OW46570   1.665   3.329   1.765
11564SOL    HW146571   1.722   3.399   1.794
11564SOL    HW246572   1.616   3.366   1.691
11565SOL     OW46573   2.961   4.104  16.853
11565SOL    HW146574   3.043   4.146  16.824
11565SOL    HW246575   2.950   4.030  16.793
11566SOL     OW46576   1.043   1.740  19.144
11566SOL    HW146577   0.991   1.690  19.082
11566SOL    HW246578   1.134   1.719  19.123
11567SOL     OW46579   0.001   1.039   2.995
11567SOL    HW146580   4.712   0.993   3.031
11567SOL    HW246581   0.009   1.118   3.049
11568SOL     OW46582   4.531   0.382   4.833
11568SOL    HW146583   4.573   0.317   4.890
11568SOL    HW246584   4.454   0.337   4.799
11569SOL     OW46585   1.524   3.236   2.550
11569SOL    HW146586   1.448   3.216   2.495
11569SOL    HW246587   1.548   3.153   2.590
11570SOL     OW46588   3.897   3.977  20.384
11570SOL    HW146589   3.974   3.972  20.328
11570SOL    HW246590   3.851   3.895  20.370
11571SOL     OW46591   2.276   3.504  15.222
11571SOL    HW146592   2.288   3.527  15.130
11571SOL    HW246593   2.241   3.415  15.221
11572SOL     OW46594   0.101   2.279   1.541
11572SOL    HW146595   0.102   2.307   1.632
11572SOL    HW246596   0.099   2.361   1.491
11573SOL     OW46597   2.103   4.619   4.881
11573SOL    HW146598   2.010   4.641   4.889
11573SOL    HW246599   2.146   4.675   4.946
11574SOL     OW46600   1.918   4.039   5.229
11574SOL    HW146601   1.890   4.104   5.294
11574SOL    HW246602   1.954   4.090   5.157
11575SOL     OW46603   2.477   2.381  20.930
11575SOL    HW146604   2.406   2.429  20.973
11575SOL    HW246605   2.511   2.323  20.998
11576SOL     OW46606   4.570   2.528   2.108
11576SOL    HW146607   4.521   2.567   2.180
11576SOL    HW246608   4.609   2.449   2.145
11577SOL     OW46609   2.167   2.344  18.928
11577SOL    HW146610   2.224   2.406  18.882
11577SOL    HW246611   2.092   2.396  18.956
11578SOL     OW46612   1.702   2.306  19.178
11578SOL    HW146613   1.720   2.323  19.086
11578SOL    HW246614   1.699   2.210  19.185
11579SOL     OW46615   4.036   3.683  18.647
11579SOL    HW146616   4.023   3.728  18.731
11579SOL    HW246617   4.005   3.745  18.582
11580SOL     OW46618   3.677   0.451   7.068
11580SOL    HW146619   3.601   0.498   7.034
11580SOL    HW246620   3.753   0.498   7.035
11581SOL     OW46621   0.655   3.939   0.438
11581SOL    HW146622   0.681   3.881   0.510
11581SOL    HW246623   0.599   3.885   0.383
11582SOL     OW46624   0.712   1.583  18.826
11582SOL    HW146625   0.706   1.495  18.862
11582SOL    HW246626   0.650   1.584  18.753
11583SOL     OW46627   0.266   4.046   4.300
11583SOL    HW146628   0.356   4.069   4.324
11583SOL    HW246629   0.212   4.111   4.346
11584SOL     OW46630   4.371   0.636  21.050
11584SOL    HW146631   4.357   0.730  21.038
11584SOL    HW246632   4.284   0.600  21.062
11585SOL     OW46633   3.872   0.577  15.619
11585SOL    HW146634   3.937   0.548  15.682
11585SOL    HW246635   3.917   0.573  15.534
11586SOL     OW46636   2.654   1.837   5.995
11586SOL    HW146637   2.682   1.872   6.080
11586SOL    HW246638   2.566   1.803   6.012
11587SOL     OW46639   0.044   1.490   4.984
11587SOL    HW146640   0.111   1.422   4.985
11587SOL    HW246641   4.782   1.476   5.065
11588SOL     OW46642   4.428   1.121   5.394
11588SOL    HW146643   4.409   1.171   5.473
11588SOL    HW246644   4.383   1.168   5.324
11589SOL     OW46645   1.955   0.994  19.895
11589SOL    HW146646   1.870   1.013  19.936
11589SOL    HW246647   2.012   0.972  19.968
11590SOL     OW46648   2.208   1.913   3.089
11590SOL    HW146649   2.227   1.987   3.146
11590SOL    HW246650   2.199   1.838   3.149
11591SOL     OW46651   0.538   1.456  17.506
11591SOL    HW146652   0.546   1.388  17.574
11591SOL    HW246653   0.448   1.447  17.475
11592SOL     OW46654   2.947   3.899   4.004
11592SOL    HW146655   3.003   3.958   4.055
11592SOL    HW246656   3.000   3.872   3.930
11593SOL     OW46657   1.473   1.295  16.038
11593SOL    HW146658   1.545   1.296  15.975
11593SOL    HW246659   1.487   1.374  16.091
11594SOL     OW46660   2.049   4.380   4.267
11594SOL    HW146661   2.117   4.362   4.202
11594SOL    HW246662   2.017   4.468   4.246
11595SOL     OW46663   0.607   3.068   6.908
11595SOL    HW146664   0.652   3.116   6.838
11595SOL    HW246665   0.548   3.008   6.862
11596SOL     OW46666   1.976   3.104   4.002
11596SOL    HW146667   1.908   3.172   4.001
11596SOL    HW246668   1.929   3.023   4.023
11597SOL     OW46669   1.100   3.813  19.149
11597SOL    HW146670   1.070   3.735  19.104
11597SOL    HW246671   1.193   3.797  19.166
11598SOL     OW46672   2.215   1.481   0.528
11598SOL    HW146673   2.139   1.423   0.534
11598SOL    HW246674   2.270   1.456   0.602
11599SOL     OW46675   1.420   3.827  17.176
11599SOL    HW146676   1.353   3.885  17.212
11599SOL    HW246677   1.427   3.756  17.239
11600SOL     OW46678   0.540   3.431  16.602
11600SOL    HW146679   0.621   3.380  16.600
11600SOL    HW246680   0.485   3.390  16.534
11601SOL     OW46681   1.238   3.100  18.956
11601SOL    HW146682   1.333   3.112  18.958
11601SOL    HW246683   1.217   3.085  18.864
11602SOL     OW46684   2.294   1.108  15.380
11602SOL    HW146685   2.291   1.017  15.349
11602SOL    HW246686   2.385   1.135  15.365
11603SOL     OW46687   3.994   1.092   2.415
11603SOL    HW146688   3.991   1.114   2.508
11603SOL    HW246689   4.087   1.084   2.395
11604SOL     OW46690   2.406   3.532  20.075
11604SOL    HW146691   2.339   3.502  20.137
11604SOL    HW246692   2.356   3.580  20.008
11605SOL     OW46693   2.088   2.283   1.953
11605SOL    HW146694   2.158   2.258   1.893
11605SOL    HW246695   2.116   2.366   1.990
11606SOL     OW46696   3.655   1.849  19.176
11606SOL    HW146697   3.648   1.909  19.251
11606SOL    HW246698   3.718   1.783  19.203
11607SOL     OW46699   2.182   0.282  13.932
11607SOL    HW146700   2.181   0.333  14.013
11607SOL    HW246701   2.216   0.342  13.866
11608SOL     OW46702   1.931   2.891   6.582
11608SOL    HW146703   1.878   2.966   6.553
11608SOL    HW246704   2.002   2.931   6.633
11609SOL     OW46705   2.397   1.047   5.120
11609SOL    HW146706   2.430   1.023   5.033
11609SOL    HW246707   2.354   1.131   5.106
11610SOL     OW46708   3.909   1.301  20.913
11610SOL    HW146709   3.824   1.276  20.950
11610SOL    HW246710   3.968   1.301  20.988
11611SOL     OW46711   0.988   2.916   5.110
11611SOL    HW146712   1.068   2.940   5.063
11611SOL    HW246713   0.920   2.912   5.043
11612SOL     OW46714   4.662   3.095  20.089
11612SOL    HW146715   4.687   3.011  20.051
11612SOL    HW246716   4.730   3.113  20.154
11613SOL     OW46717   1.991   0.458   3.478
11613SOL    HW146718   1.973   0.449   3.572
11613SOL    HW246719   1.906   0.471   3.438
11614SOL     OW46720   0.700   2.791  15.868
11614SOL    HW146721   0.703   2.710  15.818
11614SOL    HW246722   0.632   2.843  15.826
11615SOL     OW46723   2.342   4.721  19.287
11615SOL    HW146724   2.377   4.648  19.339
11615SOL    HW246725   2.257   4.739  19.325
11616SOL     OW46726   4.201   3.131   1.691
11616SOL    HW146727   4.185   3.060   1.629
11616SOL    HW246728   4.264   3.187   1.646
11617SOL     OW46729   2.649   2.949  18.939
11617SOL    HW146730   2.625   3.033  18.978
11617SOL    HW246731   2.567   2.915  18.902
11618SOL     OW46732   4.646   4.236  16.107
11618SOL    HW146733   4.636   4.268  16.197
11618SOL    HW246734   4.670   4.144  16.117
11619SOL     OW46735   1.337   0.116  13.132
11619SOL    HW146736   1.299   0.197  13.166
11619SOL    HW246737   1.428   0.138  13.113
11620SOL     OW46738   0.753   1.403   5.589
11620SOL    HW146739   0.729   1.340   5.657
11620SOL    HW246740   0.828   1.450   5.626
11621SOL     OW46741   1.861   0.935  16.207
11621SOL    HW146742   1.955   0.916  16.211
11621SOL    HW246743   1.825   0.889  16.283
11622SOL     OW46744   2.140   2.451   3.470
11622SOL    HW146745   2.072   2.391   3.500
11622SOL    HW246746   2.094   2.534   3.457
11623SOL     OW46747   4.641   4.762   3.854
11623SOL    HW146748   4.722   0.015   3.822
11623SOL    HW246749   4.601   4.722   3.777
11624SOL     OW46750   2.620   4.429  17.873
11624SOL    HW146751   2.530   4.399  17.889
11624SOL    HW246752   2.654   4.451  17.959
11625SOL     OW46753   1.266   0.761  16.379
11625SOL    HW146754   1.272   0.725  16.291
11625SOL    HW246755   1.349   0.738  16.420
11626SOL     OW46756   4.086   0.242   4.612
11626SOL    HW146757   4.073   0.204   4.524
11626SOL    HW246758   4.079   0.167   4.671
11627SOL     OW46759   3.409   3.449  19.725
11627SOL    HW146760   3.444   3.362  19.709
11627SOL    HW246761   3.486   3.505  19.731
11628SOL     OW46762   4.300   1.517   5.310
11628SOL    HW146763   4.250   1.532   5.390
11628SOL    HW246764   4.328   1.426   5.315
11629SOL     OW46765   1.152   2.120   8.778
11629SOL    HW146766   1.157   2.087   8.688
11629SOL    HW246767   1.196   2.206   8.773
11630SOL     OW46768   0.685   1.282   5.358
11630SOL    HW146769   0.715   1.323   5.440
11630SOL    HW246770   0.591   1.271   5.370
11631SOL     OW46771   3.936   3.816   0.441
11631SOL    HW146772   3.881   3.758   0.388
11631SOL    HW246773   3.927   3.902   0.399
11632SOL     OW46774   4.125   0.189  17.495
11632SOL    HW146775   4.163   0.107  17.527
11632SOL    HW246776   4.060   0.162  17.430
11633SOL     OW46777   3.034   1.898   3.035
11633SOL    HW146778   2.969   1.962   3.062
11633SOL    HW246779   2.988   1.814   3.038
11634SOL     OW46780   4.573   4.084  18.314
11634SOL    HW146781   4.545   4.048  18.399
11634SOL    HW246782   4.667   4.068  18.311
11635SOL     OW46783   2.655   4.455  12.794
11635SOL    HW146784   2.708   4.534  12.786
11635SOL    HW246785   2.572   4.477  12.751
11636SOL     OW46786   2.278   2.018  14.185
11636SOL    HW146787   2.351   1.975  14.140
11636SOL    HW246788   2.220   2.046  14.114
11637SOL     OW46789   0.526   4.622  18.010
11637SOL    HW146790   0.494   4.538  17.977
11637SOL    HW246791   0.451   4.681  18.001
11638SOL     OW46792   0.182   2.594   3.759
11638SOL    HW146793   0.152   2.621   3.846
11638SOL    HW246794   0.276   2.581   3.770
11639SOL     OW46795   0.561   0.585   2.781
11639SOL    HW146796   0.563   0.592   2.876
11639SOL    HW246797   0.634   0.527   2.759
11640SOL     OW46798   2.039   0.882  19.321
11640SOL    HW146799   2.038   0.856  19.228
11640SOL    HW246800   2.043   0.977  19.319
11641SOL     OW46801   3.898   0.217   6.239
11641SOL    HW146802   3.879   0.216   6.145
11641SOL    HW246803   3.966   0.151   6.250
11642SOL     OW46804   0.447   2.488   4.100
11642SOL    HW146805   0.537   2.520   4.094
11642SOL    HW246806   0.411   2.532   4.176
11643SOL     OW46807   2.476   1.035   4.869
11643SOL    HW146808   2.523   1.119   4.875
11643SOL    HW246809   2.520   0.989   4.798
11644SOL     OW46810   3.949   0.628  13.830
11644SOL    HW146811   3.960   0.618  13.736
11644SOL    HW246812   4.038   0.623  13.865
11645SOL     OW46813   2.757   4.339  20.387
11645SOL    HW146814   2.813   4.322  20.462
11645SOL    HW246815   2.765   4.260  20.333
11646SOL     OW46816   4.326   1.247   1.649
11646SOL    HW146817   4.308   1.162   1.609
11646SOL    HW246818   4.306   1.236   1.741
11647SOL     OW46819   3.024   2.619   0.362
11647SOL    HW146820   2.955   2.554   0.377
11647SOL    HW246821   2.996   2.666   0.284
11648SOL     OW46822   2.507   3.021   4.414
11648SOL    HW146823   2.475   3.009   4.325
11648SOL    HW246824   2.552   3.105   4.413
11649SOL     OW46825   0.480   0.050  13.759
11649SOL    HW146826   0.555   0.066  13.702
11649SOL    HW246827   0.426   0.129  13.751
11650SOL     OW46828   3.211   1.532   2.668
11650SOL    HW146829   3.292   1.541   2.617
11650SOL    HW246830   3.162   1.463   2.623
11651SOL     OW46831   3.231   2.501  19.320
11651SOL    HW146832   3.258   2.515  19.411
11651SOL    HW246833   3.163   2.434  19.325
11652SOL     OW46834   4.029   3.085   6.534
11652SOL    HW146835   4.120   3.078   6.504
11652SOL    HW246836   4.034   3.142   6.611
11653SOL     OW46837   4.713   3.082  17.815
11653SOL    HW146838   4.697   3.167  17.773
11653SOL    HW246839   4.772   3.037  17.755
11654SOL     OW46840   0.493   1.944  17.523
11654SOL    HW146841   0.506   1.861  17.477
11654SOL    HW246842   0.453   2.001  17.457
11655SOL     OW46843   4.237   0.918   4.489
11655SOL    HW146844   4.237   0.873   4.405
11655SOL    HW246845   4.182   0.995   4.475
11656SOL     OW46846   3.481   2.920   6.606
11656SOL    HW146847   3.536   2.890   6.533
11656SOL    HW246848   3.393   2.926   6.569
11657SOL     OW46849   0.335   0.964  20.008
11657SOL    HW146850   0.400   1.026  20.040
11657SOL    HW246851   0.256   0.983  20.058
11658SOL     OW46852   3.065   4.539  17.882
11658SOL    HW146853   3.146   4.589  17.883
11658SOL    HW246854   3.008   4.586  17.822
11659SOL     OW46855   2.132   0.481  16.041
11659SOL    HW146856   2.070   0.434  15.985
11659SOL    HW246857   2.165   0.414  16.101
11660SOL     OW46858   1.807   0.362  20.537
11660SOL    HW146859   1.793   0.418  20.460
11660SOL    HW246860   1.791   0.420  20.611
11661SOL     OW46861   2.500   2.475   2.727
11661SOL    HW146862   2.477   2.388   2.759
11661SOL    HW246863   2.528   2.522   2.806
11662SOL     OW46864   2.678   3.965  18.979
11662SOL    HW146865   2.730   3.942  19.056
11662SOL    HW246866   2.656   4.057  18.991
11663SOL     OW46867   1.673   4.714   1.525
11663SOL    HW146868   1.590   4.759   1.506
11663SOL    HW246869   1.735   4.751   1.462
11664SOL     OW46870   1.272   0.518   0.975
11664SOL    HW146871   1.295   0.608   1.001
11664SOL    HW246872   1.177   0.513   0.989
11665SOL     OW46873   0.630   4.198   4.650
11665SOL    HW146874   0.726   4.200   4.656
11665SOL    HW246875   0.602   4.167   4.737
11666SOL     OW46876   3.201   0.760  18.864
11666SOL    HW146877   3.228   0.711  18.786
11666SOL    HW246878   3.162   0.840  18.830
11667SOL     OW46879   2.353   2.902  17.619
11667SOL    HW146880   2.295   2.954  17.563
11667SOL    HW246881   2.422   2.964  17.645
11668SOL     OW46882   4.682   3.873   4.370
11668SOL    HW146883   4.659   3.965   4.364
11668SOL    HW246884   4.775   3.870   4.347
11669SOL     OW46885   3.986   0.977  15.092
11669SOL    HW146886   4.041   0.931  15.029
11669SOL    HW246887   3.986   1.068  15.063
11670SOL     OW46888   1.718   3.031   5.420
11670SOL    HW146889   1.707   3.124   5.443
11670SOL    HW246890   1.644   2.988   5.463
11671SOL     OW46891   1.159   0.132   0.705
11671SOL    HW146892   1.104   0.130   0.627
11671SOL    HW246893   1.098   0.146   0.777
11672SOL     OW46894   2.726   0.122  19.815
11672SOL    HW146895   2.785   0.151  19.745
11672SOL    HW246896   2.648   0.175  19.805
11673SOL     OW46897   0.850   4.472  14.175
11673SOL    HW146898   0.872   4.413  14.104
11673SOL    HW246899   0.925   4.469  14.234
11674SOL     OW46900   3.526   2.404   7.537
11674SOL    HW146901   3.579   2.343   7.588
11674SOL    HW246902   3.576   2.485   7.536
11675SOL     OW46903   3.122   2.040  18.428
11675SOL    HW146904   3.057   2.072  18.365
11675SOL    HW246905   3.185   1.992  18.374
11676SOL     OW46906   1.238   1.630  17.711
11676SOL    HW146907   1.157   1.592  17.745
11676SOL    HW246908   1.277   1.560  17.659
11677SOL     OW46909   4.762   4.655   8.084
11677SOL    HW146910   0.064   4.691   8.085
11677SOL    HW246911   4.738   4.646   8.176
11678SOL     OW46912   1.855   4.414   6.774
11678SOL    HW146913   1.777   4.431   6.722
11678SOL    HW246914   1.823   4.404   6.864
11679SOL     OW46915   0.391   0.391  17.730
11679SOL    HW146916   0.382   0.398  17.825
11679SOL    HW246917   0.425   0.303  17.716
11680SOL     OW46918   2.210   3.023   8.619
11680SOL    HW146919   2.233   3.108   8.658
11680SOL    HW246920   2.264   3.018   8.540
11681SOL     OW46921   2.529   3.664  18.917
11681SOL    HW146922   2.560   3.670  18.827
11681SOL    HW246923   2.572   3.736  18.962
11682SOL     OW46924   1.977   3.282  21.196
11682SOL    HW146925   2.068   3.256  21.181
11682SOL    HW246926   1.972   3.372  21.163
11683SOL     OW46927   2.871   2.013  16.017
11683SOL    HW146928   2.869   2.030  15.923
11683SOL    HW246929   2.963   1.995  16.036
11684SOL     OW46930   0.052   1.699  18.420
11684SOL    HW146931   0.011   1.625  18.376
11684SOL    HW246932   0.037   1.773  18.363
11685SOL     OW46933   4.092   3.001   2.096
11685SOL    HW146934   4.072   2.908   2.086
11685SOL    HW246935   4.124   3.009   2.186
11686SOL     OW46936   1.642   4.248  18.725
11686SOL    HW146937   1.695   4.192  18.669
11686SOL    HW246938   1.686   4.333  18.723
11687SOL     OW46939   2.643   0.129   4.437
11687SOL    HW146940   2.681   0.118   4.524
11687SOL    HW246941   2.565   0.183   4.451
11688SOL     OW46942   1.555   3.241  20.982
11688SOL    HW146943   1.525   3.153  20.961
11688SOL    HW246944   1.487   3.277  21.039
11689SOL     OW46945   0.428   4.277   1.215
11689SOL    HW146946   0.434   4.289   1.310
11689SOL    HW246947   0.511   4.233   1.192
11690SOL     OW46948   3.518   0.172   3.394
11690SOL    HW146949   3.599   0.178   3.446
11690SOL    HW246950   3.525   0.245   3.332
11691SOL     OW46951   1.125   2.549  14.631
11691SOL    HW146952   1.164   2.528  14.715
11691SOL    HW246953   1.086   2.636  14.644
11692SOL     OW46954   3.974   2.107   4.048
11692SOL    HW146955   3.977   2.032   3.989
11692SOL    HW246956   4.034   2.084   4.119
11693SOL     OW46957   3.876   2.533  13.486
11693SOL    HW146958   3.817   2.470  13.445
11693SOL    HW246959   3.919   2.578  13.413
11694SOL     OW46960   3.742   3.140   7.343
11694SOL    HW146961   3.707   3.105   7.261
11694SOL    HW246962   3.693   3.221   7.357
11695SOL     OW46963   2.983   2.126  20.980
11695SOL    HW146964   3.033   2.130  20.898
11695SOL    HW246965   2.894   2.103  20.953
11696SOL     OW46966   0.038   1.718  19.549
11696SOL    HW146967   0.003   1.746  19.634
11696SOL    HW246968   0.071   1.630  19.564
11697SOL     OW46969   0.233   1.860  15.473
11697SOL    HW146970   0.156   1.810  15.499
11697SOL    HW246971   0.303   1.794  15.466
11698SOL     OW46972   3.079   0.141   6.867
11698SOL    HW146973   3.099   0.227   6.906
11698SOL    HW246974   3.161   0.092   6.875
11699SOL     OW46975   3.392   1.141   1.923
11699SOL    HW146976   3.480   1.163   1.893
11699SOL    HW246977   3.406   1.075   1.992
11700SOL     OW46978   0.905   4.179  13.009
11700SOL    HW146979   0.888   4.236  13.084
11700SOL    HW246980   1.001   4.175  13.004
11701SOL     OW46981   4.148   4.513  15.506
11701SOL    HW146982   4.121   4.604  15.515
11701SOL    HW246983   4.150   4.499  15.411
11702SOL     OW46984   2.802   1.258   2.722
11702SOL    HW146985   2.833   1.345   2.745
11702SOL    HW246986   2.769   1.267   2.632
11703SOL     OW46987   3.063   0.648  19.610
11703SOL    HW146988   3.055   0.697  19.692
11703SOL    HW246989   3.057   0.716  19.542
11704SOL     OW46990   2.312   0.686  20.617
11704SOL    HW146991   2.228   0.647  20.640
11704SOL    HW246992   2.357   0.619  20.565
11705SOL     OW46993   2.849   1.496   6.643
11705SOL    HW146994   2.804   1.566   6.689
11705SOL    HW246995   2.937   1.530   6.627
11706SOL     OW46996   0.625   3.837  17.040
11706SOL    HW146997   0.540   3.792  17.035
11706SOL    HW246998   0.689   3.766  17.032
11707SOL     OW46999   0.573   2.757   0.122
11707SOL    HW147000   0.665   2.747   0.096
11707SOL    HW247001   0.575   2.757   0.218
11708SOL     OW47002   1.334   2.810   0.242
11708SOL    HW147003   1.315   2.716   0.247
11708SOL    HW247004   1.369   2.832   0.329
11709SOL     OW47005   4.177   3.752   0.951
11709SOL    HW147006   4.109   3.734   1.015
11709SOL    HW247007   4.133   3.800   0.881
11710SOL     OW47008   2.577   4.004  17.134
11710SOL    HW147009   2.509   4.017  17.199
11710SOL    HW247010   2.629   3.931  17.168
11711SOL     OW47011   1.005   2.452   0.875
11711SOL    HW147012   0.931   2.503   0.843
11711SOL    HW247013   0.971   2.363   0.884
11712SOL     OW47014   0.355   4.152   4.007
11712SOL    HW147015   0.398   4.233   4.033
11712SOL    HW247016   0.407   4.083   4.049
11713SOL     OW47017   2.763   4.487   0.378
11713SOL    HW147018   2.795   4.428   0.310
11713SOL    HW247019   2.804   4.456   0.459
11714SOL     OW47020   3.575   3.800   4.042
11714SOL    HW147021   3.631   3.865   4.001
11714SOL    HW247022   3.486   3.823   4.014
11715SOL     OW47023   1.552   4.438   3.811
11715SOL    HW147024   1.618   4.369   3.801
11715SOL    HW247025   1.602   4.519   3.807
11716SOL     OW47026   4.625   4.081  17.775
11716SOL    HW147027   4.551   4.032  17.811
11716SOL    HW247028   4.651   4.142  17.844
11717SOL     OW47029   0.291   0.260   4.348
11717SOL    HW147030   0.198   0.247   4.368
11717SOL    HW247031   0.323   0.314   4.420
11718SOL     OW47032   1.352   1.514  18.491
11718SOL    HW147033   1.337   1.548  18.580
11718SOL    HW247034   1.411   1.578  18.452
11719SOL     OW47035   2.512   2.462   4.451
11719SOL    HW147036   2.433   2.409   4.449
11719SOL    HW247037   2.483   2.548   4.481
11720SOL     OW47038   4.109   4.067  16.334
11720SOL    HW147039   4.050   4.096  16.404
11720SOL    HW247040   4.151   3.989  16.370
11721SOL     OW47041   0.473   4.460  19.247
11721SOL    HW147042   0.408   4.492  19.184
11721SOL    HW247043   0.548   4.434  19.193
11722SOL     OW47044   0.033   2.235   3.047
11722SOL    HW147045   0.076   2.160   3.006
11722SOL    HW247046   4.733   2.202   3.071
11723SOL     OW47047   2.247   2.371  16.521
11723SOL    HW147048   2.167   2.359  16.469
11723SOL    HW247049   2.252   2.292  16.575
11724SOL     OW47050   2.278   3.816  21.169
11724SOL    HW147051   2.206   3.870  21.202
11724SOL    HW247052   2.301   3.856  21.085
11725SOL     OW47053   3.239   1.845  17.616
11725SOL    HW147054   3.210   1.933  17.638
11725SOL    HW247055   3.330   1.841  17.646
11726SOL     OW47056   0.222   2.043   3.912
11726SOL    HW147057   0.243   1.966   3.860
11726SOL    HW247058   0.306   2.071   3.949
11727SOL     OW47059   4.754   3.785   8.022
11727SOL    HW147060   4.782   3.743   7.941
11727SOL    HW247061   4.720   3.714   8.076
11728SOL     OW47062   1.522   1.693   0.681
11728SOL    HW147063   1.601   1.673   0.630
11728SOL    HW247064   1.512   1.620   0.741
11729SOL     OW47065   3.398   0.709   5.241
11729SOL    HW147066   3.455   0.721   5.166
11729SOL    HW247067   3.445   0.647   5.297
11730SOL     OW47068   1.921   3.978   2.179
11730SOL    HW147069   1.856   3.912   2.203
11730SOL    HW247070   1.979   3.983   2.255
11731SOL     OW47071   4.306   4.295   5.864
11731SOL    HW147072   4.252   4.259   5.794
11731SOL    HW247073   4.259   4.373   5.894
11732SOL     OW47074   4.316   0.465   1.292
11732SOL    HW147075   4.318   0.528   1.219
11732SOL    HW247076   4.242   0.494   1.346
11733SOL     OW47077   4.177   1.934  16.648
11733SOL    HW147078   4.164   1.916  16.741
11733SOL    HW247079   4.161   1.850  16.604
11734SOL     OW47080   3.175   4.253   7.935
11734SOL    HW147081   3.108   4.258   8.003
11734SOL    HW247082   3.159   4.169   7.892
11735SOL     OW47083   3.257   3.005   4.710
11735SOL    HW147084   3.178   2.965   4.746
11735SOL    HW247085   3.318   3.007   4.783
11736SOL     OW47086   2.438   2.224  20.296
11736SOL    HW147087   2.440   2.184  20.208
11736SOL    HW247088   2.351   2.201  20.330
11737SOL     OW47089   1.390   3.219  17.538
11737SOL    HW147090   1.339   3.289  17.577
11737SOL    HW247091   1.395   3.242  17.445
11738SOL     OW47092   4.425   1.880   2.861
11738SOL    HW147093   4.374   1.846   2.788
11738SOL    HW247094   4.371   1.862   2.938
11739SOL     OW47095   2.584   0.831   3.412
11739SOL    HW147096   2.636   0.871   3.482
11739SOL    HW247097   2.532   0.764   3.456
11740SOL     OW47098   0.707   3.668   4.799
11740SOL    HW147099   0.615   3.663   4.827
11740SOL    HW247100   0.749   3.721   4.867
11741SOL     OW47101   0.359   3.322   4.574
11741SOL    HW147102   0.388   3.413   4.562
11741SOL    HW247103   0.439   3.270   4.566
11742SOL     OW47104   2.160   4.365  20.170
11742SOL    HW147105   2.248   4.375  20.207
11742SOL    HW247106   2.172   4.307  20.095
11743SOL     OW47107   0.544   2.842   5.337
11743SOL    HW147108   0.562   2.775   5.404
11743SOL    HW247109   0.581   2.923   5.374
11744SOL     OW47110   4.490   2.650  18.044
11744SOL    HW147111   4.471   2.735  18.005
11744SOL    HW247112   4.580   2.631  18.018
11745SOL     OW47113   2.892   4.206   2.392
11745SOL    HW147114   2.806   4.163   2.390
11745SOL    HW247115   2.955   4.134   2.394
11746SOL     OW47116   1.133   3.991   2.493
11746SOL    HW147117   1.080   3.913   2.484
11746SOL    HW247118   1.203   3.966   2.553
11747SOL     OW47119   4.367   4.064  17.079
11747SOL    HW147120   4.392   4.008  17.153
11747SOL    HW247121   4.273   4.052  17.071
11748SOL     OW47122   2.342   4.102  18.193
11748SOL    HW147123   2.432   4.106  18.159
11748SOL    HW247124   2.287   4.098  18.115
11749SOL     OW47125   1.100   2.485   4.420
11749SOL    HW147126   1.147   2.402   4.423
11749SOL    HW247127   1.081   2.506   4.511
11750SOL     OW47128   0.825   2.288  13.870
11750SOL    HW147129   0.840   2.196  13.847
11750SOL    HW247130   0.904   2.315  13.916
11751SOL     OW47131   1.947   3.436  19.074
11751SOL    HW147132   2.029   3.464  19.115
11751SOL    HW247133   1.956   3.341  19.065
11752SOL     OW47134   2.517   1.990   1.560
11752SOL    HW147135   2.578   1.944   1.503
11752SOL    HW247136   2.555   1.981   1.648
11753SOL     OW47137   4.571   4.113   3.852
11753SOL    HW147138   4.609   4.197   3.877
11753SOL    HW247139   4.617   4.088   3.772
11754SOL     OW47140   0.663   3.264   1.297
11754SOL    HW147141   0.568   3.261   1.304
11754SOL    HW247142   0.680   3.285   1.205
11755SOL     OW47143   1.123   2.196  20.900
11755SOL    HW147144   1.135   2.103  20.878
11755SOL    HW247145   1.212   2.233  20.897
11756SOL     OW47146   0.796   1.686  21.003
11756SOL    HW147147   0.787   1.666  21.096
11756SOL    HW247148   0.875   1.639  20.976
11757SOL     OW47149   4.162   4.036   0.229
11757SOL    HW147150   4.199   4.101   0.288
11757SOL    HW247151   4.237   3.980   0.206
11758SOL     OW47152   2.253   2.554   5.052
11758SOL    HW147153   2.206   2.471   5.037
11758SOL    HW247154   2.231   2.578   5.142
11759SOL     OW47155   2.656   3.410   4.873
11759SOL    HW147156   2.672   3.484   4.931
11759SOL    HW247157   2.592   3.356   4.921
11760SOL     OW47158   1.402   0.641  19.053
11760SOL    HW147159   1.418   0.638  18.959
11760SOL    HW247160   1.354   0.560  19.072
11761SOL     OW47161   4.190   2.476  17.082
11761SOL    HW147162   4.207   2.442  16.994
11761SOL    HW247163   4.268   2.527  17.104
11762SOL     OW47164   1.185   2.863  20.371
11762SOL    HW147165   1.158   2.955  20.365
11762SOL    HW247166   1.165   2.838  20.461
11763SOL     OW47167   3.871   2.859  19.699
11763SOL    HW147168   3.795   2.820  19.743
11763SOL    HW247169   3.833   2.918  19.634
11764SOL     OW47170   3.013   3.303   4.216
11764SOL    HW147171   3.034   3.323   4.307
11764SOL    HW247172   2.994   3.209   4.216
11765SOL     OW47173   2.933   3.628   6.873
11765SOL    HW147174   2.991   3.607   6.799
11765SOL    HW247175   2.988   3.617   6.950
11766SOL     OW47176   2.876   2.244   2.913
11766SOL    HW147177   2.789   2.260   2.951
11766SOL    HW247178   2.860   2.178   2.845
11767SOL     OW47179   0.312   0.525   1.075
11767SOL    HW147180   0.354   0.441   1.057
11767SOL    HW247181   0.381   0.580   1.111
11768SOL     OW47182   2.583   3.047   2.344
11768SOL    HW147183   2.637   3.079   2.415
11768SOL    HW247184   2.510   3.002   2.387
11769SOL     OW47185   4.521   2.809  18.683
11769SOL    HW147186   4.565   2.738  18.730
11769SOL    HW247187   4.474   2.764  18.612
11770SOL     OW47188   1.831   3.709   0.112
11770SOL    HW147189   1.743   3.691   0.144
11770SOL    HW247190   1.830   3.679   0.021
11771SOL     OW47191   4.126   4.604   4.716
11771SOL    HW147192   4.155   4.580   4.628
11771SOL    HW247193   4.200   4.652   4.753
11772SOL     OW47194   4.766   1.622   6.755
11772SOL    HW147195   4.751   1.714   6.734
11772SOL    HW247196   0.028   1.623   6.837
11773SOL     OW47197   1.728   2.743  18.759
11773SOL    HW147198   1.804   2.694  18.728
11773SOL    HW247199   1.744   2.833  18.729
11774SOL     OW47200   2.567   0.423  14.603
11774SOL    HW147201   2.487   0.381  14.635
11774SOL    HW247202   2.638   0.365  14.630
11775SOL     OW47203   1.548   3.219   3.890
11775SOL    HW147204   1.499   3.155   3.942
11775SOL    HW247205   1.506   3.219   3.805
11776SOL     OW47206   0.813   4.039   1.547
11776SOL    HW147207   0.750   4.022   1.618
11776SOL    HW247208   0.873   4.103   1.584
11777SOL     OW47209   2.050   4.565  17.370
11777SOL    HW147210   2.066   4.579  17.463
11777SOL    HW247211   1.957   4.543  17.364
11778SOL     OW47212   2.356   2.346   4.748
11778SOL    HW147213   2.398   2.389   4.823
11778SOL    HW247214   2.265   2.333   4.774
11779SOL     OW47215   0.265   2.629   1.381
11779SOL    HW147216   0.347   2.583   1.362
11779SOL    HW247217   0.279   2.718   1.349
11780SOL     OW47218   4.285   3.983   7.309
11780SOL    HW147219   4.210   3.960   7.253
11780SOL    HW247220   4.254   4.059   7.359
11781SOL     OW47221   1.698   3.649  17.201
11781SOL    HW147222   1.738   3.716  17.256
11781SOL    HW247223   1.604   3.659  17.215
11782SOL     OW47224   4.454   1.828   1.894
11782SOL    HW147225   4.498   1.835   1.809
11782SOL    HW247226   4.479   1.743   1.928
11783SOL     OW47227   1.208   3.505  19.407
11783SOL    HW147228   1.243   3.549  19.329
11783SOL    HW247229   1.261   3.425  19.415
11784SOL     OW47230   3.578   2.794  18.538
11784SOL    HW147231   3.579   2.854  18.613
11784SOL    HW247232   3.489   2.802  18.502
11785SOL     OW47233   4.775   1.116  19.793
11785SOL    HW147234   4.735   1.196  19.759
11785SOL    HW247235   0.008   1.136  19.884
11786SOL     OW47236   0.433   3.135   3.962
11786SOL    HW147237   0.380   3.117   3.884
11786SOL    HW247238   0.458   3.049   3.993
11787SOL     OW47239   2.353   0.952  15.009
11787SOL    HW147240   2.421   1.016  14.990
11787SOL    HW247241   2.315   0.932  14.924
11788SOL     OW47242   3.521   2.460   4.199
11788SOL    HW147243   3.526   2.515   4.277
11788SOL    HW247244   3.604   2.474   4.154
11789SOL     OW47245   2.332   1.666  17.193
11789SOL    HW147246   2.263   1.727  17.166
11789SOL    HW247247   2.374   1.639  17.111
11790SOL     OW47248   0.051   0.126   0.305
11790SOL    HW147249   0.037   0.217   0.278
11790SOL    HW247250   0.120   0.131   0.370
11791SOL     OW47251   3.113   4.580   9.409
11791SOL    HW147252   3.144   4.582   9.319
11791SOL    HW247253   3.083   4.669   9.426
11792SOL     OW47254   2.852   0.135   8.018
11792SOL    HW147255   2.898   0.218   8.011
11792SOL    HW247256   2.901   0.086   8.085
11793SOL     OW47257   0.045   3.601   4.936
11793SOL    HW147258   4.746   3.644   4.932
11793SOL    HW247259   0.108   3.673   4.937
11794SOL     OW47260   3.395   0.946  16.725
11794SOL    HW147261   3.441   1.025  16.696
11794SOL    HW247262   3.447   0.873  16.691
11795SOL     OW47263   2.617   0.769   7.632
11795SOL    HW147264   2.661   0.685   7.644
11795SOL    HW247265   2.525   0.750   7.649
11796SOL     OW47266   2.132   0.639   1.403
11796SOL    HW147267   2.144   0.546   1.419
11796SOL    HW247268   2.142   0.649   1.308
11797SOL     OW47269   0.744   0.091   9.043
11797SOL    HW147270   0.787   0.118   8.961
11797SOL    HW247271   0.651   0.107   9.028
11798SOL     OW47272   1.003   4.742   9.029
11798SOL    HW147273   1.048   0.039   9.043
11798SOL    HW247274   0.910   4.765   9.032
11799SOL     OW47275   3.682   1.023  10.265
11799SOL    HW147276   3.734   1.067  10.332
11799SOL    HW247277   3.680   0.931  10.293
11800SOL     OW47278   1.790   0.772  10.396
11800SOL    HW147279   1.723   0.791  10.331
11800SOL    HW247280   1.802   0.854  10.444
11801SOL     OW47281   2.530   1.029  10.489
11801SOL    HW147282   2.555   0.955  10.544
11801SOL    HW247283   2.496   0.989  10.409
11802SOL     OW47284   1.829   1.080  10.491
11802SOL    HW147285   1.914   1.123  10.488
11802SOL    HW247286   1.805   1.080  10.584
11803SOL     OW47287   2.772   0.305  10.322
11803SOL    HW147288   2.773   0.360  10.244
11803SOL    HW247289   2.684   0.268  10.324
11804SOL     OW47290   2.188   0.938  11.042
11804SOL    HW147291   2.166   0.930  10.949
11804SOL    HW247292   2.281   0.918  11.047
11805SOL     OW47293   3.153   0.830  11.941
11805SOL    HW147294   3.222   0.785  11.990
11805SOL    HW247295   3.162   0.797  11.851
11806SOL     OW47296   1.747   0.953  11.576
11806SOL    HW147297   1.831   0.995  11.557
11806SOL    HW247298   1.682   1.010  11.535
11807SOL     OW47299   2.687   1.634  12.181
11807SOL    HW147300   2.607   1.680  12.206
11807SOL    HW247301   2.757   1.696  12.202
11808SOL     OW47302   2.069   2.313  12.456
11808SOL    HW147303   2.093   2.262  12.533
11808SOL    HW247304   1.980   2.344  12.474
11809SOL     OW47305   3.681   1.058  12.995
11809SOL    HW147306   3.596   1.018  13.018
11809SOL    HW247307   3.680   1.143  13.038
11810SOL     OW47308   3.332   0.591   9.728
11810SOL    HW147309   3.249   0.544   9.722
11810SOL    HW247310   3.333   0.627   9.816
11811SOL     OW47311   2.604   0.780  13.152
11811SOL    HW147312   2.543   0.791  13.079
11811SOL    HW247313   2.594   0.859  13.205
11812SOL     OW47314   1.768   0.459  11.880
11812SOL    HW147315   1.770   0.398  11.954
11812SOL    HW247316   1.849   0.442  11.833
11813SOL     OW47317   0.126   0.129  11.693
11813SOL    HW147318   0.160   0.157  11.778
11813SOL    HW247319   0.103   0.037  11.705
11814SOL     OW47320   1.008   1.642  12.123
11814SOL    HW147321   1.039   1.623  12.035
11814SOL    HW247322   0.951   1.718  12.113
11815SOL     OW47323   4.597   2.643   6.233
11815SOL    HW147324   4.537   2.712   6.209
11815SOL    HW247325   4.552   2.562   6.209
11816SOL     OW47326   3.941   0.341  15.911
11816SOL    HW147327   4.006   0.370  15.846
11816SOL    HW247328   3.898   0.266  15.869
11817SOL     OW47329   3.364   4.560   6.260
11817SOL    HW147330   3.393   4.495   6.195
11817SOL    HW247331   3.405   4.642   6.232
11818SOL     OW47332   3.204   4.116  18.826
11818SOL    HW147333   3.203   4.022  18.810
11818SOL    HW247334   3.281   4.130  18.881
11819SOL     OW47335   3.197   1.266  20.638
11819SOL    HW147336   3.262   1.251  20.569
11819SOL    HW247337   3.236   1.331  20.696
11820SOL     OW47338   0.859   4.168   0.024
11820SOL    HW147339   0.811   4.155   0.106
11820SOL    HW247340   0.792   4.194  21.205
11821SOL     OW47341   3.780   0.781   5.296
11821SOL    HW147342   3.762   0.688   5.303
11821SOL    HW247343   3.828   0.802   5.376
11822SOL     OW47344   0.850   4.692   3.016
11822SOL    HW147345   0.836   4.784   2.993
11822SOL    HW247346   0.920   4.663   2.958
11823SOL     OW47347   4.709   0.368  10.816
11823SOL    HW147348   4.677   0.344  10.903
11823SOL    HW247349   0.007   0.409  10.832
11824SOL     OW47350   3.978   1.682  13.828
11824SOL    HW147351   4.058   1.734  13.835
11824SOL    HW247352   3.909   1.746  13.810
11825SOL     OW47353   0.906   3.394  15.619
11825SOL    HW147354   0.837   3.426  15.561
11825SOL    HW247355   0.932   3.471  15.670
11826SOL     OW47356   2.185   4.105   6.694
11826SOL    HW147357   2.152   4.188   6.662
11826SOL    HW247358   2.149   4.039   6.634
11827SOL     OW47359   0.984   4.063   1.098
11827SOL    HW147360   0.973   3.995   1.032
11827SOL    HW247361   1.017   4.016   1.175
11828SOL     OW47362   1.452   4.241   0.009
11828SOL    HW147363   1.369   4.204  21.226
11828SOL    HW247364   1.429   4.302   0.079
11829SOL     OW47365   3.252   4.112  16.741
11829SOL    HW147366   3.305   4.110  16.821
11829SOL    HW247367   3.291   4.182  16.689
11830SOL     OW47368   3.680   0.309   2.916
11830SOL    HW147369   3.630   0.295   2.997
11830SOL    HW247370   3.615   0.339   2.853
11831SOL     OW47371   0.970   1.281   0.564
11831SOL    HW147372   0.986   1.330   0.645
11831SOL    HW247373   0.995   1.191   0.586
11832SOL     OW47374   2.297   2.639  16.589
11832SOL    HW147375   2.297   2.548  16.558
11832SOL    HW247376   2.359   2.683  16.531
11833SOL     OW47377   0.344   4.209  17.121
11833SOL    HW147378   0.409   4.251  17.177
11833SOL    HW247379   0.262   4.254  17.141
11834SOL     OW47380   3.275   3.654  18.858
11834SOL    HW147381   3.233   3.731  18.819
11834SOL    HW247382   3.314   3.608  18.784
11835SOL     OW47383   4.376   0.767   0.737
11835SOL    HW147384   4.444   0.729   0.792
11835SOL    HW247385   4.335   0.692   0.695
11836SOL     OW47386   4.530   1.814   3.185
11836SOL    HW147387   4.485   1.890   3.223
11836SOL    HW247388   4.622   1.826   3.208
11837SOL     OW47389   1.845   3.254   5.226
11837SOL    HW147390   1.935   3.253   5.192
11837SOL    HW247391   1.843   3.185   5.292
11838SOL     OW47392   3.932   2.640  20.477
11838SOL    HW147393   4.011   2.682  20.441
11838SOL    HW247394   3.960   2.609  20.564
11839SOL     OW47395   1.568   3.747  18.224
11839SOL    HW147396   1.489   3.745  18.170
11839SOL    HW247397   1.579   3.657  18.255
11840SOL     OW47398   3.355   3.329  14.467
11840SOL    HW147399   3.343   3.356  14.558
11840SOL    HW247400   3.425   3.385  14.434
11841SOL     OW47401   4.149   0.455   4.156
11841SOL    HW147402   4.206   0.393   4.203
11841SOL    HW247403   4.078   0.401   4.122
11842SOL     OW47404   3.095   1.709   0.445
11842SOL    HW147405   3.175   1.742   0.405
11842SOL    HW247406   3.075   1.629   0.396
11843SOL     OW47407   0.937   2.961  15.733
11843SOL    HW147408   0.855   2.924  15.764
11843SOL    HW247409   0.997   2.887  15.729
11844SOL     OW47410   2.388   4.202  18.430
11844SOL    HW147411   2.363   4.159  18.348
11844SOL    HW247412   2.312   4.256  18.452
11845SOL     OW47413   0.313   2.277  20.084
11845SOL    HW147414   0.325   2.371  20.094
11845SOL    HW247415   0.272   2.267  19.999
11846SOL     OW47416   0.651   3.555  15.775
11846SOL    HW147417   0.637   3.474  15.823
11846SOL    HW247418   0.715   3.603  15.827
11847SOL     OW47419   2.233   3.908   1.711
11847SOL    HW147420   2.306   3.939   1.656
11847SOL    HW247421   2.254   3.941   1.798
11848SOL     OW47422   0.304   3.429  18.707
11848SOL    HW147423   0.374   3.465  18.762
11848SOL    HW247424   0.254   3.373  18.766
11849SOL     OW47425   0.348   3.756  16.672
11849SOL    HW147426   0.335   3.661  16.680
11849SOL    HW247427   0.419   3.764  16.609
11850SOL     OW47428   1.769   0.703  18.934
11850SOL    HW147429   1.753   0.615  18.902
11850SOL    HW247430   1.713   0.711  19.012
11851SOL     OW47431   2.199   2.539  15.993
11851SOL    HW147432   2.130   2.592  16.031
11851SOL    HW247433   2.158   2.454  15.975
11852SOL     OW47434   1.558   3.297   2.818
11852SOL    HW147435   1.615   3.233   2.859
11852SOL    HW247436   1.544   3.264   2.729
11853SOL     OW47437   2.719   3.680  12.859
11853SOL    HW147438   2.780   3.754  12.858
11853SOL    HW247439   2.731   3.641  12.945
11854SOL     OW47440   1.153   4.103  15.648
11854SOL    HW147441   1.216   4.172  15.669
11854SOL    HW247442   1.068   4.143  15.667
11855SOL     OW47443   1.081   2.694  20.599
11855SOL    HW147444   1.031   2.672  20.677
11855SOL    HW247445   1.054   2.629  20.534
11856SOL     OW47446   3.721   2.542  20.193
11856SOL    HW147447   3.787   2.527  20.125
11856SOL    HW247448   3.660   2.469  20.183
11857SOL     OW47449   4.743   2.759   4.140
11857SOL    HW147450   4.703   2.759   4.227
11857SOL    HW247451   4.676   2.796   4.083
11858SOL     OW47452   1.331   1.500  19.019
11858SOL    HW147453   1.391   1.446  19.072
11858SOL    HW247454   1.364   1.589  19.030
11859SOL     OW47455   1.235   4.609   4.228
11859SOL    HW147456   1.330   4.601   4.219
11859SOL    HW247457   1.201   4.524   4.199
11860SOL     OW47458   0.908   3.322  19.372
11860SOL    HW147459   0.851   3.307  19.448
11860SOL    HW247460   0.948   3.407  19.388
11861SOL     OW47461   0.745   3.230   5.225
11861SOL    HW147462   0.787   3.274   5.152
11861SOL    HW247463   0.681   3.172   5.184
11862SOL     OW47464   1.276   2.119  17.286
11862SOL    HW147465   1.313   2.118  17.375
11862SOL    HW247466   1.335   2.175  17.236
11863SOL     OW47467   1.401   2.284   5.414
11863SOL    HW147468   1.491   2.286   5.447
11863SOL    HW247469   1.403   2.222   5.341
11864SOL     OW47470   0.356   4.019  17.434
11864SOL    HW147471   0.282   3.999  17.377
11864SOL    HW247472   0.323   4.003  17.523
11865SOL     OW47473   0.107   4.094   0.011
11865SOL    HW147474   0.188   4.058   0.047
11865SOL    HW247475   0.095   4.049  21.172
11866SOL     OW47476   4.139   1.601   6.254
11866SOL    HW147477   4.067   1.540   6.237
11866SOL    HW247478   4.102   1.687   6.235
11867SOL     OW47479   3.607   2.996   7.129
11867SOL    HW147480   3.560   2.921   7.165
11867SOL    HW247481   3.653   2.962   7.052
11868SOL     OW47482   2.862   0.657  15.738
11868SOL    HW147483   2.912   0.731  15.772
11868SOL    HW247484   2.924   0.609  15.683
11869SOL     OW47485   0.441   1.194   5.456
11869SOL    HW147486   0.406   1.124   5.401
11869SOL    HW247487   0.379   1.202   5.528
11870SOL     OW47488   1.576   0.509  16.976
11870SOL    HW147489   1.541   0.597  16.963
11870SOL    HW247490   1.533   0.478  17.056
11871SOL     OW47491   4.559   3.625   5.258
11871SOL    HW147492   4.641   3.584   5.285
11871SOL    HW247493   4.576   3.719   5.264
11872SOL     OW47494   2.897   4.238  14.784
11872SOL    HW147495   2.823   4.218  14.726
11872SOL    HW247496   2.858   4.286  14.857
11873SOL     OW47497   3.362   1.138   0.522
11873SOL    HW147498   3.424   1.085   0.471
11873SOL    HW247499   3.279   1.090   0.516
11874SOL     OW47500   2.170   4.293   2.587
11874SOL    HW147501   2.265   4.308   2.588
11874SOL    HW247502   2.133   4.376   2.556
11875SOL     OW47503   3.946   3.784   8.898
11875SOL    HW147504   3.873   3.766   8.957
11875SOL    HW247505   3.915   3.856   8.842
11876SOL     OW47506   0.227   1.144  18.364
11876SOL    HW147507   0.150   1.191  18.399
11876SOL    HW247508   0.217   1.055  18.397
11877SOL     OW47509   0.567   4.186   7.189
11877SOL    HW147510   0.584   4.237   7.268
11877SOL    HW247511   0.504   4.119   7.217
11878SOL     OW47512   3.860   2.286  16.910
11878SOL    HW147513   3.934   2.268  16.853
11878SOL    HW247514   3.784   2.289  16.851
11879SOL     OW47515   4.696   4.399  19.673
11879SOL    HW147516   4.651   4.454  19.609
11879SOL    HW247517   4.785   4.390  19.639
11880SOL     OW47518   1.706   4.101   3.111
11880SOL    HW147519   1.651   4.034   3.071
11880SOL    HW247520   1.773   4.052   3.157
11881SOL     OW47521   1.921   4.233  17.592
11881SOL    HW147522   1.920   4.232  17.496
11881SOL    HW247523   1.998   4.285  17.615
11882SOL     OW47524   1.981   4.153  19.580
11882SOL    HW147525   2.063   4.150  19.530
11882SOL    HW247526   1.938   4.069  19.559
11883SOL     OW47527   1.314   2.575  19.877
11883SOL    HW147528   1.329   2.550  19.968
11883SOL    HW247529   1.221   2.560  19.863
11884SOL     OW47530   2.829   0.725   2.410
11884SOL    HW147531   2.733   0.720   2.408
11884SOL    HW247532   2.855   0.706   2.320
11885SOL     OW47533   1.328   3.626   2.951
11885SOL    HW147534   1.274   3.641   3.028
11885SOL    HW247535   1.358   3.535   2.960
11886SOL     OW47536   4.035   1.006   1.640
11886SOL    HW147537   4.108   0.944   1.647
11886SOL    HW247538   4.045   1.063   1.716
11887SOL     OW47539   3.048   0.087  17.350
11887SOL    HW147540   3.021   0.134  17.271
11887SOL    HW247541   2.978   0.024  17.365
11888SOL     OW47542   1.981   4.713   3.786
11888SOL    HW147543   2.026   4.632   3.807
11888SOL    HW247544   2.032   4.781   3.830
11889SOL     OW47545   4.253   2.469  19.552
11889SOL    HW147546   4.193   2.543  19.557
11889SOL    HW247547   4.302   2.471  19.634
11890SOL     OW47548   3.221   0.397   1.351
11890SOL    HW147549   3.307   0.420   1.384
11890SOL    HW247550   3.192   0.326   1.408
11891SOL     OW47551   3.255   1.984   6.805
11891SOL    HW147552   3.296   1.988   6.892
11891SOL    HW247553   3.329   1.983   6.744
11892SOL     OW47554   2.947   2.021   6.608
11892SOL    HW147555   2.908   2.002   6.522
11892SOL    HW247556   3.041   2.027   6.591
11893SOL     OW47557   0.988   1.968  17.826
11893SOL    HW147558   0.909   1.946  17.776
11893SOL    HW247559   1.061   1.946  17.767
11894SOL     OW47560   1.357   3.677   1.154
11894SOL    HW147561   1.434   3.734   1.145
11894SOL    HW247562   1.327   3.663   1.064
11895SOL     OW47563   0.187   0.977  17.215
11895SOL    HW147564   0.108   0.952  17.168
11895SOL    HW247565   0.173   1.069  17.240
11896SOL     OW47566   1.520   0.996   8.498
11896SOL    HW147567   1.475   1.005   8.413
11896SOL    HW247568   1.608   0.967   8.475
11897SOL     OW47569   3.261   1.558   6.837
11897SOL    HW147570   3.336   1.614   6.818
11897SOL    HW247571   3.184   1.612   6.819
11898SOL     OW47572   1.872   0.204  15.391
11898SOL    HW147573   1.928   0.222  15.467
11898SOL    HW247574   1.918   0.245  15.318
11899SOL     OW47575   4.107   1.764  19.414
11899SOL    HW147576   4.142   1.677  19.433
11899SOL    HW247577   4.181   1.823  19.424
11900SOL     OW47578   1.968   2.239  16.025
11900SOL    HW147579   2.031   2.235  15.953
11900SOL    HW247580   1.900   2.298  15.994
11901SOL     OW47581   2.630   4.449   3.588
11901SOL    HW147582   2.540   4.476   3.570
11901SOL    HW247583   2.659   4.406   3.508
11902SOL     OW47584   1.580   2.140  12.666
11902SOL    HW147585   1.523   2.211  12.636
11902SOL    HW247586   1.543   2.113  12.750
11903SOL     OW47587   4.105   2.260   2.200
11903SOL    HW147588   4.062   2.252   2.285
11903SOL    HW247589   4.051   2.322   2.151
11904SOL     OW47590   4.403   0.135   6.273
11904SOL    HW147591   4.308   0.139   6.265
11904SOL    HW247592   4.435   0.148   6.184
11905SOL     OW47593   2.221   3.679   6.309
11905SOL    HW147594   2.311   3.712   6.305
11905SOL    HW247595   2.226   3.606   6.372
11906SOL     OW47596   3.928   0.756  17.729
11906SOL    HW147597   4.015   0.791  17.751
11906SOL    HW247598   3.868   0.809  17.781
11907SOL     OW47599   4.294   2.329   0.646
11907SOL    HW147600   4.329   2.375   0.722
11907SOL    HW247601   4.332   2.241   0.652
11908SOL     OW47602   0.528   4.780   0.785
11908SOL    HW147603   0.444   4.738   0.766
11908SOL    HW247604   0.529   0.002   0.880
11909SOL     OW47605   3.456   1.499   2.514
11909SOL    HW147606   3.485   1.589   2.525
11909SOL    HW247607   3.431   1.492   2.422
11910SOL     OW47608   3.145   3.676  20.646
11910SOL    HW147609   3.151   3.604  20.710
11910SOL    HW247610   3.138   3.632  20.561
11911SOL     OW47611   3.326   1.450   2.261
11911SOL    HW147612   3.246   1.423   2.215
11911SOL    HW247613   3.393   1.451   2.193
11912SOL     OW47614   0.367   1.134  15.657
11912SOL    HW147615   0.344   1.133  15.750
11912SOL    HW247616   0.288   1.165  15.613
11913SOL     OW47617   3.859   4.063  15.610
11913SOL    HW147618   3.940   4.034  15.652
11913SOL    HW247619   3.851   4.007  15.533
11914SOL     OW47620   1.273   1.297  20.418
11914SOL    HW147621   1.297   1.372  20.364
11914SOL    HW247622   1.206   1.252  20.367
11915SOL     OW47623   2.381   0.172   6.015
11915SOL    HW147624   2.454   0.188   6.074
11915SOL    HW247625   2.395   0.231   5.942
11916SOL     OW47626   1.925   2.343  19.386
11916SOL    HW147627   1.931   2.251  19.359
11916SOL    HW247628   1.898   2.340  19.478
11917SOL     OW47629   1.256   2.347   0.815
11917SOL    HW147630   1.179   2.383   0.859
11917SOL    HW247631   1.321   2.417   0.820
11918SOL     OW47632   3.775   0.084   5.498
11918SOL    HW147633   3.685   0.068   5.525
11918SOL    HW247634   3.768   0.125   5.411
11919SOL     OW47635   4.493   0.798  15.463
11919SOL    HW147636   4.546   0.860  15.413
11919SOL    HW247637   4.545   0.782  15.542
11920SOL     OW47638   1.201   2.681   1.992
11920SOL    HW147639   1.288   2.649   2.014
11920SOL    HW247640   1.147   2.658   2.068
11921SOL     OW47641   0.982   4.560  20.406
11921SOL    HW147642   0.980   4.520  20.319
11921SOL    HW247643   1.029   4.642  20.393
11922SOL     OW47644   2.903   1.416  18.768
11922SOL    HW147645   2.989   1.457  18.759
11922SOL    HW247646   2.848   1.481  18.810
11923SOL     OW47647   0.867   0.146  19.962
11923SOL    HW147648   0.782   0.178  19.992
11923SOL    HW247649   0.882   0.067  20.013
11924SOL     OW47650   3.298   2.282   3.838
11924SOL    HW147651   3.284   2.190   3.858
11924SOL    HW247652   3.292   2.326   3.923
11925SOL     OW47653   2.842   4.258   1.686
11925SOL    HW147654   2.781   4.191   1.657
11925SOL    HW247655   2.798   4.341   1.666
11926SOL     OW47656   2.748   2.259   1.965
11926SOL    HW147657   2.734   2.354   1.959
11926SOL    HW247658   2.772   2.233   1.876
11927SOL     OW47659   0.176   0.009   7.566
11927SOL    HW147660   0.261   0.047   7.546
11927SOL    HW247661   0.195   4.720   7.621
11928SOL     OW47662   1.684   3.414  20.259
11928SOL    HW147663   1.766   3.459  20.240
11928SOL    HW247664   1.681   3.342  20.196
11929SOL     OW47665   1.023   2.189  19.460
11929SOL    HW147666   1.106   2.175  19.505
11929SOL    HW247667   1.044   2.177  19.367
11930SOL     OW47668   1.391   3.570  16.021
11930SOL    HW147669   1.297   3.566  16.003
11930SOL    HW247670   1.412   3.663  16.018
11931SOL     OW47671   0.696   1.350   4.247
11931SOL    HW147672   0.775   1.344   4.301
11931SOL    HW247673   0.637   1.407   4.297
11932SOL     OW47674   0.627   3.686  13.531
11932SOL    HW147675   0.574   3.764  13.512
11932SOL    HW247676   0.655   3.655  13.444
11933SOL     OW47677   2.763   3.357  20.885
11933SOL    HW147678   2.722   3.272  20.899
11933SOL    HW247679   2.846   3.337  20.843
11934SOL     OW47680   0.591   3.632  18.114
11934SOL    HW147681   0.642   3.620  18.194
11934SOL    HW247682   0.509   3.672  18.143
11935SOL     OW47683   3.024   3.430   2.196
11935SOL    HW147684   2.961   3.371   2.155
11935SOL    HW247685   3.045   3.388   2.279
11936SOL     OW47686   2.526   4.090   0.503
11936SOL    HW147687   2.537   4.181   0.531
11936SOL    HW247688   2.591   4.041   0.553
11937SOL     OW47689   4.041   1.161   0.601
11937SOL    HW147690   3.967   1.162   0.661
11937SOL    HW247691   4.020   1.226   0.535
11938SOL     OW47692   3.629   1.790  17.448
11938SOL    HW147693   3.591   1.807  17.534
11938SOL    HW247694   3.632   1.695  17.442
11939SOL     OW47695   4.717   0.384   3.845
11939SOL    HW147696   0.019   0.349   3.855
11939SOL    HW247697   4.714   0.459   3.905
11940SOL     OW47698   0.787   4.599  18.091
11940SOL    HW147699   0.701   4.638  18.078
11940SOL    HW247700   0.772   4.505  18.093
11941SOL     OW47701   2.725   0.177   0.575
11941SOL    HW147702   2.719   0.241   0.504
11941SOL    HW247703   2.635   0.167   0.605
11942SOL     OW47704   1.370   1.421   6.415
11942SOL    HW147705   1.285   1.450   6.450
11942SOL    HW247706   1.358   1.421   6.320
11943SOL     OW47707   1.055   4.419   0.680
11943SOL    HW147708   0.987   4.396   0.744
11943SOL    HW247709   1.137   4.419   0.730
11944SOL     OW47710   1.556   4.657  16.195
11944SOL    HW147711   1.544   4.590  16.263
11944SOL    HW247712   1.515   4.620  16.117
11945SOL     OW47713   2.430   0.246   4.569
11945SOL    HW147714   2.374   0.245   4.647
11945SOL    HW247715   2.410   0.329   4.526
11946SOL     OW47716   0.979   3.512   5.993
11946SOL    HW147717   0.941   3.514   5.905
11946SOL    HW247718   0.913   3.553   6.049
11947SOL     OW47719   4.773   3.089   1.951
11947SOL    HW147720   0.005   3.030   2.024
11947SOL    HW247721   4.748   3.172   1.992
11948SOL     OW47722   0.524   0.293   2.950
11948SOL    HW147723   0.570   0.223   2.995
11948SOL    HW247724   0.568   0.302   2.866
11949SOL     OW47725   0.555   2.872   4.012
11949SOL    HW147726   0.643   2.865   3.977
11949SOL    HW247727   0.560   2.831   4.099
11950SOL     OW47728   3.700   3.556   4.814
11950SOL    HW147729   3.649   3.562   4.895
11950SOL    HW247730   3.779   3.507   4.838
11951SOL     OW47731   3.744   1.325  17.728
11951SOL    HW147732   3.672   1.349  17.787
11951SOL    HW247733   3.821   1.366  17.766
11952SOL     OW47734   2.031   0.685  14.524
11952SOL    HW147735   2.090   0.730  14.464
11952SOL    HW247736   1.944   0.694  14.484
11953SOL     OW47737   0.511   4.002   3.319
11953SOL    HW147738   0.445   3.954   3.368
11953SOL    HW247739   0.588   4.003   3.376
11954SOL     OW47740   4.209   1.068  16.780
11954SOL    HW147741   4.191   1.163  16.780
11954SOL    HW247742   4.173   1.038  16.863
11955SOL     OW47743   2.128   4.172   8.081
11955SOL    HW147744   2.074   4.251   8.080
11955SOL    HW247745   2.217   4.204   8.062
11956SOL     OW47746   1.691   4.063   7.270
11956SOL    HW147747   1.772   4.100   7.234
11956SOL    HW247748   1.712   4.043   7.361
11957SOL     OW47749   1.722   0.757  20.069
11957SOL    HW147750   1.690   0.826  20.127
11957SOL    HW247751   1.643   0.719  20.030
11958SOL     OW47752   0.836   3.640   4.537
11958SOL    HW147753   0.748   3.607   4.554
11958SOL    HW247754   0.867   3.670   4.623
11959SOL     OW47755   0.971   4.294  17.484
11959SOL    HW147756   0.899   4.355  17.467
11959SOL    HW247757   0.951   4.219  17.427
11960SOL     OW47758   4.415   1.475  21.101
11960SOL    HW147759   4.417   1.434  21.188
11960SOL    HW247760   4.465   1.416  21.045
11961SOL     OW47761   3.616   2.778  19.798
11961SOL    HW147762   3.532   2.795  19.839
11961SOL    HW247763   3.616   2.684  19.782
11962SOL     OW47764   3.929   2.420  19.118
11962SOL    HW147765   3.877   2.347  19.085
11962SOL    HW247766   3.914   2.419  19.213
11963SOL     OW47767   3.606   2.113   3.745
11963SOL    HW147768   3.626   2.137   3.655
11963SOL    HW247769   3.629   2.190   3.797
11964SOL     OW47770   0.232   0.217  12.219
11964SOL    HW147771   0.163   0.166  12.178
11964SOL    HW247772   0.192   0.302  12.236
11965SOL     OW47773   3.217   1.429   1.222
11965SOL    HW147774   3.282   1.407   1.155
11965SOL    HW247775   3.253   1.394   1.303
11966SOL     OW47776   4.441   1.867   1.370
11966SOL    HW147777   4.370   1.819   1.412
11966SOL    HW247778   4.397   1.924   1.306
11967SOL     OW47779   2.363   0.081   7.220
11967SOL    HW147780   2.312   0.002   7.236
11967SOL    HW247781   2.301   0.142   7.179
11968SOL     OW47782   1.616   1.535   3.416
11968SOL    HW147783   1.549   1.582   3.366
11968SOL    HW247784   1.697   1.548   3.366
11969SOL     OW47785   0.087   1.109   0.967
11969SOL    HW147786   0.097   1.198   0.999
11969SOL    HW247787   4.782   1.088   0.983
11970SOL     OW47788   3.275   0.207   0.275
11970SOL    HW147789   3.187   0.170   0.267
11970SOL    HW247790   3.326   0.140   0.319
11971SOL     OW47791   1.835   0.405  17.015
11971SOL    HW147792   1.761   0.466  17.009
11971SOL    HW247793   1.800   0.322  16.982
11972SOL     OW47794   3.169   1.265   5.506
11972SOL    HW147795   3.214   1.182   5.527
11972SOL    HW247796   3.083   1.238   5.474
11973SOL     OW47797   2.714   2.090   0.410
11973SOL    HW147798   2.801   2.120   0.385
11973SOL    HW247799   2.714   2.093   0.506
11974SOL     OW47800   3.573   0.979  17.389
11974SOL    HW147801   3.652   1.007  17.436
11974SOL    HW247802   3.513   0.950  17.459
11975SOL     OW47803   4.348   4.650   5.437
11975SOL    HW147804   4.331   4.742   5.459
11975SOL    HW247805   4.317   4.602   5.513
11976SOL     OW47806   2.699   2.190  20.226
11976SOL    HW147807   2.768   2.212  20.289
11976SOL    HW247808   2.621   2.177  20.280
11977SOL     OW47809   1.163   0.857   6.154
11977SOL    HW147810   1.088   0.915   6.140
11977SOL    HW247811   1.133   0.772   6.124
11978SOL     OW47812   1.198   3.722  12.732
11978SOL    HW147813   1.248   3.643  12.712
11978SOL    HW247814   1.162   3.750  12.648
11979SOL     OW47815   2.781   2.773  21.140
11979SOL    HW147816   2.803   2.855  21.098
11979SOL    HW247817   2.695   2.789  21.181
11980SOL     OW47818   3.474   0.527   3.695
11980SOL    HW147819   3.465   0.595   3.761
11980SOL    HW247820   3.543   0.470   3.728
11981SOL     OW47821   0.535   3.775  20.794
11981SOL    HW147822   0.455   3.723  20.788
11981SOL    HW247823   0.528   3.840  20.725
11982SOL     OW47824   3.263   1.905  18.255
11982SOL    HW147825   3.269   1.965  18.180
11982SOL    HW247826   3.285   1.819  18.218
11983SOL     OW47827   0.299   1.259  19.911
11983SOL    HW147828   0.375   1.253  19.970
11983SOL    HW247829   0.224   1.242  19.968
11984SOL     OW47830   3.615   3.517  20.069
11984SOL    HW147831   3.649   3.445  20.123
11984SOL    HW247832   3.639   3.596  20.117
11985SOL     OW47833   1.717   2.132  18.268
11985SOL    HW147834   1.729   2.216  18.312
11985SOL    HW247835   1.686   2.073  18.337
11986SOL     OW47836   2.586   2.191  17.887
11986SOL    HW147837   2.612   2.115  17.835
11986SOL    HW247838   2.508   2.224  17.843
11987SOL     OW47839   2.752   1.472   0.288
11987SOL    HW147840   2.668   1.510   0.262
11987SOL    HW247841   2.739   1.446   0.379
11988SOL     OW47842   3.034   2.619  15.654
11988SOL    HW147843   3.003   2.572  15.731
11988SOL    HW247844   2.958   2.623  15.596
11989SOL     OW47845   1.595   2.796   7.205
11989SOL    HW147846   1.519   2.776   7.260
11989SOL    HW247847   1.583   2.741   7.127
11990SOL     OW47848   4.570   2.949  15.756
11990SOL    HW147849   4.510   2.904  15.697
11990SOL    HW247850   4.520   3.024  15.790
11991SOL     OW47851   3.151   2.415   2.156
11991SOL    HW147852   3.153   2.320   2.166
11991SOL    HW247853   3.230   2.446   2.202
11992SOL     OW47854   3.442   4.201   5.812
11992SOL    HW147855   3.348   4.216   5.828
11992SOL    HW247856   3.484   4.223   5.895
11993SOL     OW47857   3.113   4.126   7.551
11993SOL    HW147858   3.022   4.156   7.563
11993SOL    HW247859   3.122   4.114   7.457
11994SOL     OW47860   0.282   2.383  15.514
11994SOL    HW147861   0.224   2.389  15.590
11994SOL    HW247862   0.301   2.289  15.507
11995SOL     OW47863   3.290   2.957   2.787
11995SOL    HW147864   3.377   2.917   2.781
11995SOL    HW247865   3.258   2.932   2.874
11996SOL     OW47866   4.156   1.216   0.838
11996SOL    HW147867   4.222   1.147   0.846
11996SOL    HW247868   4.129   1.213   0.746
11997SOL     OW47869   2.253   1.227  16.740
11997SOL    HW147870   2.175   1.276  16.714
11997SOL    HW247871   2.278   1.179  16.661
11998SOL     OW47872   1.256   1.670   6.689
11998SOL    HW147873   1.259   1.765   6.689
11998SOL    HW247874   1.341   1.643   6.723
11999SOL     OW47875   0.569   0.037  19.754
11999SOL    HW147876   0.514   0.076  19.822
11999SOL    HW247877   0.611   4.749  19.797
12000SOL     OW47878   4.072   4.774  15.423
12000SOL    HW147879   4.111   0.075  15.428
12000SOL    HW247880   4.112   4.734  15.346
12001SOL     OW47881   0.306   2.203   6.196
12001SOL    HW147882   0.298   2.154   6.277
12001SOL    HW247883   0.333   2.137   6.131
12002SOL     OW47884   2.250   1.944   2.616
12002SOL    HW147885   2.228   1.962   2.524
12002SOL    HW247886   2.299   2.021   2.644
12003SOL     OW47887   4.007   1.842  20.356
12003SOL    HW147888   4.008   1.828  20.451
12003SOL    HW247889   3.918   1.871  20.338
12004SOL     OW47890   2.064   1.266  20.112
12004SOL    HW147891   2.001   1.322  20.066
12004SOL    HW247892   2.149   1.290  20.075
12005SOL     OW47893   0.797   3.665  17.951
12005SOL    HW147894   0.847   3.697  18.026
12005SOL    HW247895   0.708   3.653  17.984
12006SOL     OW47896   4.137   2.556  16.075
12006SOL    HW147897   4.139   2.511  16.159
12006SOL    HW247898   4.159   2.647  16.096
12007SOL     OW47899   3.776   0.891   6.366
12007SOL    HW147900   3.686   0.895   6.400
12007SOL    HW247901   3.780   0.961   6.302
12008SOL     OW47902   2.562   1.948   4.082
12008SOL    HW147903   2.521   2.034   4.082
12008SOL    HW247904   2.574   1.927   4.175
12009SOL     OW47905   1.895   0.727  17.470
12009SOL    HW147906   1.800   0.721  17.459
12009SOL    HW247907   1.907   0.750  17.562
12010SOL     OW47908   1.044   4.697  13.573
12010SOL    HW147909   1.075   4.753  13.645
12010SOL    HW247910   1.116   4.696  13.511
12011SOL     OW47911   3.058   4.340   1.192
12011SOL    HW147912   3.142   4.380   1.168
12011SOL    HW247913   3.017   4.402   1.251
12012SOL     OW47914   2.878   4.393  15.252
12012SOL    HW147915   2.800   4.365  15.299
12012SOL    HW247916   2.937   4.426  15.320
12013SOL     OW47917   1.899   0.069  14.781
12013SOL    HW147918   1.977   0.029  14.741
12013SOL    HW247919   1.845   4.781  14.808
12014SOL     OW47920   0.241   4.022  20.277
12014SOL    HW147921   0.239   4.023  20.373
12014SOL    HW247922   0.313   3.963  20.255
12015SOL     OW47923   4.337   3.370   6.427
12015SOL    HW147924   4.348   3.464   6.438
12015SOL    HW247925   4.252   3.350   6.467
12016SOL     OW47926   4.065   4.262   4.685
12016SOL    HW147927   4.130   4.285   4.751
12016SOL    HW247928   4.114   4.213   4.619
12017SOL     OW47929   2.759   0.736   4.486
12017SOL    HW147930   2.765   0.781   4.402
12017SOL    HW247931   2.782   0.645   4.466
12018SOL     OW47932   2.948   0.736   4.689
12018SOL    HW147933   2.892   0.746   4.765
12018SOL    HW247934   2.895   0.764   4.615
12019SOL     OW47935   2.323   0.285  14.695
12019SOL    HW147936   2.252   0.329  14.648
12019SOL    HW247937   2.294   0.281  14.786
12020SOL     OW47938   1.957   0.750   1.572
12020SOL    HW147939   2.004   0.724   1.493
12020SOL    HW247940   1.925   0.667   1.609
12021SOL     OW47941   4.512   2.825  19.108
12021SOL    HW147942   4.478   2.737  19.122
12021SOL    HW247943   4.606   2.812  19.092
12022SOL     OW47944   4.786   1.579  16.395
12022SOL    HW147945   4.730   1.520  16.445
12022SOL    HW247946   0.005   1.539  16.308
12023SOL     OW47947   0.921   2.009   4.295
12023SOL    HW147948   0.869   2.024   4.216
12023SOL    HW247949   0.904   1.918   4.319
12024SOL     OW47950   2.150   3.580   3.424
12024SOL    HW147951   2.067   3.540   3.397
12024SOL    HW247952   2.189   3.612   3.343
12025SOL     OW47953   0.103   4.580   4.765
12025SOL    HW147954   0.105   4.541   4.852
12025SOL    HW247955   0.041   4.526   4.716
12026SOL     OW47956   4.750   1.059  17.409
12026SOL    HW147957   0.051   1.067  17.447
12026SOL    HW247958   4.750   1.119  17.335
12027SOL     OW47959   0.888   2.055   5.770
12027SOL    HW147960   0.927   2.012   5.846
12027SOL    HW247961   0.959   2.061   5.707
12028SOL     OW47962   0.219   2.319  17.959
12028SOL    HW147963   0.287   2.252  17.946
12028SOL    HW247964   0.266   2.402  17.957
12029SOL     OW47965   0.944   4.230  15.774
12029SOL    HW147966   0.876   4.195  15.832
12029SOL    HW247967   0.896   4.263  15.698
12030SOL     OW47968   3.269   0.192   0.873
12030SOL    HW147969   3.249   0.251   0.946
12030SOL    HW247970   3.264   0.248   0.796
12031SOL     OW47971   4.762   2.497  20.746
12031SOL    HW147972   0.022   2.499  20.663
12031SOL    HW247973   0.006   2.417  20.789
12032SOL     OW47974   0.259   0.370  20.037
12032SOL    HW147975   0.211   0.442  20.078
12032SOL    HW247976   0.277   0.401  19.948
12033SOL     OW47977   0.921   3.575  15.324
12033SOL    HW147978   1.002   3.547  15.367
12033SOL    HW247979   0.857   3.509  15.349
12034SOL     OW47980   3.799   0.151  15.777
12034SOL    HW147981   3.818   0.087  15.708
12034SOL    HW247982   3.730   0.206  15.739
12035SOL     OW47983   2.520   2.247  17.587
12035SOL    HW147984   2.445   2.262  17.645
12035SOL    HW247985   2.502   2.162  17.547
12036SOL     OW47986   1.814   3.727   2.272
12036SOL    HW147987   1.763   3.735   2.353
12036SOL    HW247988   1.903   3.707   2.301
12037SOL     OW47989   3.943   1.508  20.418
12037SOL    HW147990   3.984   1.451  20.353
12037SOL    HW247991   3.926   1.452  20.493
12038SOL     OW47992   1.383   4.231   4.413
12038SOL    HW147993   1.414   4.312   4.373
12038SOL    HW247994   1.404   4.241   4.506
12039SOL     OW47995   4.700   1.559  17.519
12039SOL    HW147996   4.774   1.613  17.548
12039SOL    HW247997   4.689   1.494  17.589
12040SOL     OW47998   1.640   0.151  16.549
12040SOL    HW147999   1.585   0.130  16.624
12040SOL    HW248000   1.722   0.103  16.565
12041SOL     OW48001   4.223   3.688  15.773
12041SOL    HW148002   4.160   3.616  15.779
12041SOL    HW248003   4.238   3.714  15.864
12042SOL     OW48004   1.465   2.745   1.452
12042SOL    HW148005   1.540   2.734   1.393
12042SOL    HW248006   1.392   2.769   1.394
12043SOL     OW48007   3.407   0.761   2.967
12043SOL    HW148008   3.348   0.825   2.927
12043SOL    HW248009   3.491   0.776   2.924
12044SOL     OW48010   3.298   2.690  18.189
12044SOL    HW148011   3.244   2.713  18.113
12044SOL    HW248012   3.388   2.709  18.161
12045SOL     OW48013   3.946   4.539   5.199
12045SOL    HW148014   3.898   4.590   5.134
12045SOL    HW248015   4.023   4.507   5.153
12046SOL     OW48016   4.212   1.903  12.340
12046SOL    HW148017   4.176   1.817  12.358
12046SOL    HW248018   4.162   1.963  12.396
12047SOL     OW48019   2.555   1.403  16.713
12047SOL    HW148020   2.623   1.396  16.646
12047SOL    HW248021   2.473   1.389  16.665
12048SOL     OW48022   2.682   0.463  21.059
12048SOL    HW148023   2.705   0.394  20.997
12048SOL    HW248024   2.590   0.448  21.079
12049SOL     OW48025   0.589   1.068   7.451
12049SOL    HW148026   0.572   1.005   7.380
12049SOL    HW248027   0.511   1.063   7.507
12050SOL     OW48028   2.415   2.111  18.098
12050SOL    HW148029   2.380   2.036  18.050
12050SOL    HW248030   2.492   2.137  18.048
12051SOL     OW48031   4.335   3.513  19.591
12051SOL    HW148032   4.299   3.597  19.562
12051SOL    HW248033   4.286   3.448  19.540
12052SOL     OW48034   3.471   3.386  15.200
12052SOL    HW148035   3.544   3.342  15.244
12052SOL    HW248036   3.400   3.385  15.264
12053SOL     OW48037   3.448   1.721  16.695
12053SOL    HW148038   3.520   1.756  16.749
12053SOL    HW248039   3.471   1.629  16.684
12054SOL     OW48040   4.110   4.462  16.341
12054SOL    HW148041   4.105   4.403  16.266
12054SOL    HW248042   4.101   4.549  16.303
12055SOL     OW48043   3.930   2.565  19.371
12055SOL    HW148044   3.849   2.574  19.422
12055SOL    HW248045   3.988   2.632  19.406
12056SOL     OW48046   4.354   1.707  19.624
12056SOL    HW148047   4.339   1.799  19.645
12056SOL    HW248048   4.323   1.660  19.702
12057SOL     OW48049   4.334   1.946   2.465
12057SOL    HW148050   4.345   2.023   2.521
12057SOL    HW248051   4.388   1.964   2.388
12058SOL     OW48052   3.966   3.922   2.975
12058SOL    HW148053   3.992   3.920   2.883
12058SOL    HW248054   3.998   4.007   3.007
12059SOL     OW48055   3.254   2.436   7.533
12059SOL    HW148056   3.202   2.411   7.457
12059SOL    HW248057   3.344   2.413   7.509
12060SOL     OW48058   3.546   0.398  20.085
12060SOL    HW148059   3.599   0.469  20.119
12060SOL    HW248060   3.607   0.326  20.071
12061SOL     OW48061   4.722   3.983  19.843
12061SOL    HW148062   0.015   4.032  19.824
12061SOL    HW248063   4.716   3.981  19.938
12062SOL     OW48064   3.839   1.569   1.141
12062SOL    HW148065   3.862   1.572   1.048
12062SOL    HW248066   3.822   1.477   1.158
12063SOL     OW48067   1.503   4.713  11.836
12063SOL    HW148068   1.587   4.753  11.812
12063SOL    HW248069   1.437   4.767  11.793
12064SOL     OW48070   3.503   2.778  15.001
12064SOL    HW148071   3.483   2.685  15.005
12064SOL    HW248072   3.521   2.795  14.908
12065SOL     OW48073   0.240   2.614  17.820
12065SOL    HW148074   0.299   2.669  17.767
12065SOL    HW248075   0.297   2.565  17.877
12066SOL     OW48076   4.422   4.556   4.624
12066SOL    HW148077   4.376   4.591   4.548
12066SOL    HW248078   4.427   4.629   4.685
12067SOL     OW48079   4.488   3.503   4.182
12067SOL    HW148080   4.530   3.578   4.140
12067SOL    HW248081   4.560   3.458   4.226
12068SOL     OW48082   3.198   1.895   5.057
12068SOL    HW148083   3.282   1.889   5.010
12068SOL    HW248084   3.200   1.982   5.097
12069SOL     OW48085   3.997   4.511   5.454
12069SOL    HW148086   3.994   4.538   5.362
12069SOL    HW248087   3.930   4.444   5.462
12070SOL     OW48088   0.637   4.260   3.704
12070SOL    HW148089   0.637   4.165   3.692
12070SOL    HW248090   0.711   4.291   3.651
12071SOL     OW48091   0.516   0.981  17.682
12071SOL    HW148092   0.483   0.956  17.596
12071SOL    HW248093   0.451   0.947  17.744
12072SOL     OW48094   4.625   4.633  16.386
12072SOL    HW148095   4.642   4.619  16.479
12072SOL    HW248096   4.549   4.691  16.383
12073SOL     OW48097   3.785   1.455  16.072
12073SOL    HW148098   3.746   1.465  15.985
12073SOL    HW248099   3.796   1.545  16.103
12074SOL     OW48100   1.545   4.096  17.759
12074SOL    HW148101   1.528   4.051  17.842
12074SOL    HW248102   1.590   4.177  17.784
12075SOL     OW48103   1.655   2.002   5.739
12075SOL    HW148104   1.578   2.048   5.773
12075SOL    HW248105   1.716   2.072   5.714
12076SOL     OW48106   0.816   2.833   4.646
12076SOL    HW148107   0.840   2.749   4.684
12076SOL    HW248108   0.895   2.864   4.602
12077SOL     OW48109   0.080   0.177   5.015
12077SOL    HW148110   0.044   0.249   5.066
12077SOL    HW248111   0.141   0.133   5.074
12078SOL     OW48112   1.280   2.056  19.815
12078SOL    HW148113   1.364   2.029  19.779
12078SOL    HW248114   1.234   2.097  19.742
12079SOL     OW48115   2.139   3.058  19.683
12079SOL    HW148116   2.171   3.142  19.650
12079SOL    HW248117   2.087   3.022  19.611
12080SOL     OW48118   0.787   4.297  20.338
12080SOL    HW148119   0.814   4.266  20.424
12080SOL    HW248120   0.726   4.368  20.355
12081SOL     OW48121   1.126   0.447   5.098
12081SOL    HW148122   1.142   0.394   5.020
12081SOL    HW248123   1.031   0.460   5.099
12082SOL     OW48124   0.255   2.857  17.946
12082SOL    HW148125   0.236   2.767  17.919
12082SOL    HW248126   0.335   2.851  17.997
12083SOL     OW48127   3.370   1.890  20.387
12083SOL    HW148128   3.359   1.817  20.449
12083SOL    HW248129   3.465   1.903  20.383
12084SOL     OW48130   2.938   0.423  16.508
12084SOL    HW148131   2.979   0.393  16.427
12084SOL    HW248132   2.974   0.366  16.576
12085SOL     OW48133   3.242   1.691  15.625
12085SOL    HW148134   3.261   1.731  15.541
12085SOL    HW248135   3.188   1.755  15.671
12086SOL     OW48136   3.456   1.154  18.034
12086SOL    HW148137   3.365   1.166  18.062
12086SOL    HW248138   3.496   1.101  18.103
12087CA      CA48139   2.961   4.386   2.323
12088CL      CL48140   2.967   0.526   3.241
12089CL      CL48141   1.320   1.896  20.944
   4.78681   4.78681  21.24446
