Membrane in water t=  10.00000 step= 10000
48143
  945MPD0     C    1   1.300   2.766   7.516
  945MPD0    C1    2   1.394   2.678   7.456
  945MPD0    C2    3   1.494   2.626   7.539
  945MPD0    C3    4   1.503   2.659   7.676
  945MPD0    C4    5   1.409   2.739   7.733
  945MPD0    C5    6   1.306   2.786   7.649
  945MPD0     H    7   1.574   2.566   7.496
  945MPD0    H1    8   1.407   2.758   7.840
  945MPD0    H2    9   1.222   2.819   7.462
  945MPD0    H3   10   1.237   2.854   7.697
  945MPD0     N   11   1.607   2.609   7.752
  945MPD0    H4   12   1.631   2.671   7.829
  945MPD0    H5   13   1.686   2.590   7.691
  945MPD0    N1   14   1.379   2.639   7.328
  945MPD0    H6   15   1.281   2.655   7.308
  945MPD0    H7   16   1.410   2.547   7.298
  946MPD0     C   17   2.654   0.313  11.639
  946MPD0    C1   18   2.627   0.177  11.642
  946MPD0    C2   19   2.715   0.099  11.707
  946MPD0    C3   20   2.827   0.148  11.773
  946MPD0    C4   21   2.856   0.282  11.755
  946MPD0    C5   22   2.769   0.366  11.690
  946MPD0     H   23   2.691   4.782  11.693
  946MPD0    H1   24   2.949   0.327  11.791
  946MPD0    H2   25   2.594   0.386  11.587
  946MPD0    H3   26   2.792   0.469  11.666
  946MPD0     N   27   2.931   0.065  11.817
  946MPD0    H4   28   3.000   0.117  11.870
  946MPD0    H5   29   2.903   4.770  11.869
  946MPD0    N1   30   2.506   0.129  11.595
  946MPD0    H6   31   2.478   0.181  11.512
  946MPD0    H7   32   2.509   0.029  11.574
  947MPD0     C   33   4.619   3.880  13.348
  947MPD0    C1   34   4.577   3.956  13.454
  947MPD0    C2   35   4.444   3.958  13.485
  947MPD0    C3   36   4.349   3.906  13.397
  947MPD0    C4   37   4.392   3.852  13.278
  947MPD0    C5   38   4.524   3.834  13.264
  947MPD0     H   39   4.411   4.010  13.575
  947MPD0    H1   40   4.327   3.796  13.212
  947MPD0    H2   41   4.723   3.868  13.321
  947MPD0    H3   42   4.569   3.775  13.184
  947MPD0     N   43   4.209   3.899  13.428
  947MPD0    H4   44   4.178   3.968  13.496
  947MPD0    H5   45   4.147   3.891  13.347
  947MPD0    N1   46   4.669   4.016  13.543
  947MPD0    H6   47   4.759   4.035  13.498
  947MPD0    H7   48   4.635   4.107  13.574
  948MPD0     C   49   0.713   2.167   6.456
  948MPD0    C1   50   0.793   2.137   6.350
  948MPD0    C2   51   0.927   2.177   6.359
  948MPD0    C3   52   0.990   2.219   6.475
  948MPD0    C4   53   0.903   2.244   6.579
  948MPD0    C5   54   0.768   2.223   6.566
  948MPD0     H   55   0.990   2.170   6.271
  948MPD0    H1   56   0.934   2.277   6.677
  948MPD0    H2   57   0.605   2.162   6.457
  948MPD0    H3   58   0.695   2.263   6.635
  948MPD0     N   59   1.125   2.255   6.492
  948MPD0    H4   60   1.161   2.225   6.582
  948MPD0    H5   61   1.183   2.211   6.421
  948MPD0    N1   62   0.738   2.101   6.231
  948MPD0    H6   63   0.649   2.053   6.236
  948MPD0    H7   64   0.807   2.046   6.180
  949MPD0     C   65   1.404   3.415   7.432
  949MPD0    C1   66   1.395   3.556   7.438
  949MPD0    C2   67   1.350   3.615   7.556
  949MPD0    C3   68   1.325   3.534   7.671
  949MPD0    C4   69   1.345   3.400   7.669
  949MPD0    C5   70   1.387   3.343   7.550
  949MPD0     H   71   1.329   3.721   7.564
  949MPD0    H1   72   1.335   3.337   7.757
  949MPD0    H2   73   1.438   3.374   7.337
  949MPD0    H3   74   1.399   3.235   7.542
  949MPD0     N   75   1.301   3.592   7.797
  949MPD0    H4   76   1.247   3.527   7.853
  949MPD0    H5   77   1.247   3.678   7.796
  949MPD0    N1   78   1.386   3.625   7.317
  949MPD0    H6   79   1.441   3.594   7.238
  949MPD0    H7   80   1.416   3.723   7.322
  950MPD0     C   81   0.657   2.746  12.673
  950MPD0    C1   82   0.600   2.754  12.795
  950MPD0    C2   83   0.504   2.848  12.811
  950MPD0    C3   84   0.455   2.935  12.712
  950MPD0    C4   85   0.510   2.916  12.589
  950MPD0    C5   86   0.612   2.825  12.570
  950MPD0     H   87   0.461   2.860  12.910
  950MPD0    H1   88   0.469   2.971  12.505
  950MPD0    H2   89   0.714   2.658  12.644
  950MPD0    H3   90   0.658   2.813  12.473
  950MPD0     N   91   0.346   3.025  12.734
  950MPD0    H4   92   0.333   3.047  12.833
  950MPD0    H5   93   0.359   3.105  12.673
  950MPD0    N1   94   0.637   2.671  12.900
  950MPD0    H6   95   0.733   2.649  12.875
  950MPD0    H7   96   0.632   2.710  12.994
  951MPD0     C   97   2.875   1.749  12.710
  951MPD0    C1   98   2.834   1.652  12.795
  951MPD0    C2   99   2.756   1.691  12.903
  951MPD0    C3  100   2.705   1.819  12.917
  951MPD0    C4  101   2.733   1.902  12.813
  951MPD0    C5  102   2.827   1.875  12.715
  951MPD0     H  103   2.716   1.618  12.973
  951MPD0    H1  104   2.674   1.991  12.795
  951MPD0    H2  105   2.936   1.717  12.626
  951MPD0    H3  106   2.851   1.945  12.636
  951MPD0     N  107   2.613   1.847  13.019
  951MPD0    H4  108   2.621   1.945  13.044
  951MPD0    H5  109   2.636   1.794  13.103
  951MPD0    N1  110   2.889   1.520  12.783
  951MPD0    H6  111   2.919   1.505  12.687
  951MPD0    H7  112   2.823   1.447  12.810
  952MPD0     C  113   3.591   4.311   1.683
  952MPD0    C1  114   3.697   4.241   1.627
  952MPD0    C2  115   3.826   4.261   1.674
  952MPD0    C3  116   3.850   4.357   1.769
  952MPD0    C4  117   3.742   4.437   1.819
  952MPD0    C5  118   3.613   4.405   1.780
  952MPD0     H  119   3.901   4.193   1.635
  952MPD0    H1  120   3.743   4.504   1.904
  952MPD0    H2  121   3.488   4.288   1.656
  952MPD0    H3  122   3.531   4.452   1.832
  952MPD0     N  123   3.974   4.369   1.833
  952MPD0    H4  124   4.045   4.337   1.767
  952MPD0    H5  125   3.989   4.465   1.865
  952MPD0    N1  126   3.666   4.130   1.542
  952MPD0    H6  127   3.740   4.122   1.472
  952MPD0    H7  128   3.581   4.142   1.487
  953MPD0     C  129   1.100   3.515  11.762
  953MPD0    C1  130   0.974   3.482  11.796
  953MPD0    C2  131   0.954   3.427  11.920
  953MPD0    C3  132   1.056   3.427  12.012
  953MPD0    C4  133   1.180   3.469  11.984
  953MPD0    C5  134   1.199   3.504  11.855
  953MPD0     H  135   0.858   3.382  11.938
  953MPD0    H1  136   1.264   3.480  12.052
  953MPD0    H2  137   1.125   3.566  11.670
  953MPD0    H3  138   1.285   3.545  11.802
  953MPD0     N  139   1.034   3.385  12.146
  953MPD0    H4  140   1.069   3.291  12.166
  953MPD0    H5  141   0.933   3.376  12.151
  953MPD0    N1  142   0.874   3.488  11.706
  953MPD0    H6  143   0.779   3.479  11.742
  953MPD0    H7  144   0.888   3.565  11.642
  954MPD0     C  145   0.158   0.686  13.739
  954MPD0    C1  146   0.101   0.572  13.687
  954MPD0    C2  147   0.048   0.475  13.769
  954MPD0    C3  148   0.044   0.496  13.906
  954MPD0    C4  149   0.087   0.617  13.956
  954MPD0    C5  150   0.142   0.711  13.871
  954MPD0     H  151   0.014   0.386  13.718
  954MPD0    H1  152   0.091   0.647  14.060
  954MPD0    H2  153   0.199   0.771  13.684
  954MPD0    H3  154   0.168   0.810  13.907
  954MPD0     N  155   4.754   0.415  13.995
  954MPD0    H4  156   4.746   0.319  13.960
  954MPD0    H5  157   0.000   0.414  14.091
  954MPD0    N1  158   0.116   0.547  13.548
  954MPD0    H6  159   0.125   0.634  13.496
  954MPD0    H7  160   0.028   0.516  13.506
  955MPD0     C  161   2.819   2.311   7.729
  955MPD0    C1  162   2.935   2.251   7.782
  955MPD0    C2  163   2.938   2.202   7.910
  955MPD0    C3  164   2.831   2.204   8.000
  955MPD0    C4  165   2.721   2.270   7.952
  955MPD0    C5  166   2.718   2.317   7.821
  955MPD0     H  167   3.025   2.152   7.952
  955MPD0    H1  168   2.627   2.280   8.005
  955MPD0    H2  169   2.809   2.365   7.636
  955MPD0    H3  170   2.637   2.373   7.776
  955MPD0     N  171   2.843   2.170   8.136
  955MPD0    H4  172   2.906   2.094   8.158
  955MPD0    H5  173   2.756   2.157   8.188
  955MPD0    N1  174   3.056   2.226   7.706
  955MPD0    H6  175   3.083   2.296   7.638
  955MPD0    H7  176   3.128   2.193   7.771
  956MPD0     C  177   0.332   3.108   7.152
  956MPD0    C1  178   0.388   3.169   7.041
  956MPD0    C2  179   0.402   3.313   7.039
  956MPD0    C3  180   0.374   3.386   7.151
  956MPD0    C4  181   0.308   3.320   7.259
  956MPD0    C5  182   0.287   3.187   7.258
  956MPD0     H  183   0.441   3.354   6.946
  956MPD0    H1  184   0.276   3.379   7.344
  956MPD0    H2  185   0.319   3.000   7.155
  956MPD0    H3  186   0.233   3.145   7.342
  956MPD0     N  187   0.385   3.529   7.141
  956MPD0    H4  188   0.400   3.561   7.236
  956MPD0    H5  189   0.471   3.563   7.098
  956MPD0    N1  190   0.412   3.091   6.925
  956MPD0    H6  191   0.460   3.142   6.852
  956MPD0    H7  192   0.449   2.998   6.946
  957MPD0     C  193   3.208   4.129  11.533
  957MPD0    C1  194   3.244   4.197  11.646
  957MPD0    C2  195   3.166   4.171  11.755
  957MPD0    C3  196   3.035   4.117  11.747
  957MPD0    C4  197   3.000   4.052  11.628
  957MPD0    C5  198   3.090   4.072  11.523
  957MPD0     H  199   3.199   4.209  11.850
  957MPD0    H1  200   2.911   3.991  11.614
  957MPD0    H2  201   3.280   4.125  11.452
  957MPD0    H3  202   3.065   4.006  11.441
  957MPD0     N  203   2.951   4.097  11.859
  957MPD0    H4  204   2.935   4.174  11.922
  957MPD0    H5  205   2.858   4.089  11.818
  957MPD0    N1  206   3.375   4.256  11.649
  957MPD0    H6  207   3.417   4.292  11.563
  957MPD0    H7  208   3.385   4.325  11.722
    1TMC1    C1  209   4.701   3.800   8.365
    1TMC1    C2  210   4.780   3.866   8.451
    1TMC1    C3  211   4.766   3.999   8.473
    1TMC1    C4  212   4.599   3.867   8.296
    1TMC1    C5  213   4.587   4.001   8.318
    1TMC1    C6  214   4.668   4.070   8.409
    1TMC1     C  215   4.719   3.661   8.344
    1TMC1     O  216   4.625   3.604   8.291
    1TMC1     H  217   0.078   3.819   8.498
    1TMC1    H1  218   4.532   3.814   8.230
    1TMC1    H2  219   4.642   4.176   8.409
    1TMC1    C7  220   4.517   4.083   8.216
    1TMC1    C8  221   0.053   4.065   8.573
    1TMC1    O1  222   4.468   4.194   8.235
    1TMC1    O2  223   0.096   4.177   8.550
    1TMC1    O3  224   4.529   4.024   8.094
    1TMC1    H3  225   4.585   3.944   8.092
    1TMC1    O5  226   0.080   3.995   8.686
    1TMC1    H5  227   0.031   3.910   8.679
    2TMC1    C1  228   3.625   4.016   7.829
    2TMC1    C2  229   3.697   4.080   7.729
    2TMC1    C3  230   3.733   4.016   7.616
    2TMC1    C4  231   3.587   3.889   7.809
    2TMC1    C5  232   3.624   3.833   7.693
    2TMC1    C6  233   3.699   3.886   7.599
    2TMC1     C  234   3.658   4.052   7.963
    2TMC1     O  235   3.710   3.960   8.027
    2TMC1     H  236   3.723   4.186   7.734
    2TMC1    H1  237   3.537   3.834   7.888
    2TMC1    H2  238   3.721   3.837   7.505
    2TMC1    C7  239   3.597   3.692   7.683
    2TMC1    C8  240   3.737   4.089   7.490
    2TMC1    O1  241   3.681   3.623   7.628
    2TMC1    O2  242   3.634   4.150   7.462
    2TMC1    O3  243   3.486   3.654   7.756
    2TMC1    H3  244   3.423   3.729   7.760
    2TMC1    O5  245   3.842   4.046   7.412
    2TMC1    H5  246   3.914   4.005   7.464
    3TMC1    C1  247   0.134   0.893   9.329
    3TMC1    C2  248   0.056   0.951   9.425
    3TMC1    C3  249   0.116   0.996   9.541
    3TMC1    C4  250   0.271   0.870   9.344
    3TMC1    C5  251   0.317   0.925   9.456
    3TMC1    C6  252   0.251   0.990   9.554
    3TMC1     C  253   0.083   0.869   9.198
    3TMC1     O  254   0.162   0.868   9.104
    3TMC1     H  255   4.736   0.964   9.416
    3TMC1    H1  256   0.328   0.821   9.266
    3TMC1    H2  257   0.294   1.030   9.645
    3TMC1    C7  258   0.463   0.927   9.475
    3TMC1    C8  259   0.028   1.038   9.650
    3TMC1    O1  260   0.511   0.946   9.584
    3TMC1    O2  261   0.072   1.129   9.718
    3TMC1    O3  262   0.514   0.978   9.355
    3TMC1    H3  263   0.466   0.963   9.271
    3TMC1    O5  264   4.780   0.914   9.691
    3TMC1    H5  265   4.753   0.868   9.609
    4TMC1    C1  266   2.033   0.158  10.103
    4TMC1    C2  267   2.048   0.147   9.960
    4TMC1    C3  268   1.972   0.055   9.896
    4TMC1    C4  269   1.939   0.090  10.172
    4TMC1    C5  270   1.880   4.777  10.101
    4TMC1    C6  271   1.887   4.757   9.967
    4TMC1     C  272   2.105   0.268  10.165
    4TMC1     O  273   2.162   0.347  10.093
    4TMC1     H  274   2.097   0.225   9.904
    4TMC1    H1  275   1.922   0.114  10.277
    4TMC1    H2  276   1.829   4.678   9.920
    4TMC1    C7  277   1.805   4.682  10.172
    4TMC1    C8  278   1.911   0.098   9.768
    4TMC1    O1  279   1.789   4.566  10.138
    4TMC1    O2  280   1.925   0.203   9.713
    4TMC1    O3  281   1.741   4.739  10.277
    4TMC1    H3  282   1.732   0.049  10.268
    4TMC1    O5  283   1.895   4.776   9.694
    4TMC1    H5  284   1.915   4.693   9.743
    5TMC1    C1  285   0.408   4.284   8.090
    5TMC1    C2  286   0.447   4.357   7.976
    5TMC1    C3  287   0.363   4.352   7.868
    5TMC1    C4  288   0.281   4.216   8.095
    5TMC1    C5  289   0.205   4.214   7.976
    5TMC1    C6  290   0.243   4.279   7.865
    5TMC1     C  291   0.472   4.320   8.218
    5TMC1     O  292   0.534   4.422   8.234
    5TMC1     H  293   0.539   4.416   7.974
    5TMC1    H1  294   0.247   4.162   8.183
    5TMC1    H2  295   0.172   4.299   7.786
    5TMC1    C7  296   0.059   4.211   7.988
    5TMC1    C8  297   0.356   4.465   7.780
    5TMC1    O1  298   4.773   4.286   7.923
    5TMC1    O2  299   0.258   4.506   7.721
    5TMC1    O3  300   0.026   4.151   8.101
    5TMC1    H3  301   0.084   4.074   8.118
    5TMC1    O5  302   0.475   4.478   7.713
    5TMC1    H5  303   0.552   4.432   7.755
    6TMC1    C1  304   0.770   3.608  10.890
    6TMC1    C2  305   0.813   3.673  11.001
    6TMC1    C3  306   0.940   3.717  11.001
    6TMC1    C4  307   0.847   3.600  10.782
    6TMC1    C5  308   0.977   3.641  10.790
    6TMC1    C6  309   1.027   3.699  10.902
    6TMC1     C  310   0.631   3.590  10.889
    6TMC1     O  311   0.558   3.646  10.968
    6TMC1     H  312   0.745   3.702  11.081
    6TMC1    H1  313   0.814   3.539  10.698
    6TMC1    H2  314   1.130   3.731  10.911
    6TMC1    C7  315   1.058   3.582  10.685
    6TMC1    C8  316   0.990   3.796  11.112
    6TMC1    O1  317   1.024   3.496  10.607
    6TMC1    O2  318   1.092   3.860  11.089
    6TMC1    O3  319   1.174   3.647  10.691
    6TMC1    H3  320   1.172   3.736  10.733
    6TMC1    O5  321   0.930   3.766  11.226
    6TMC1    H5  322   0.853   3.704  11.227
    7TMC1    C1  323   0.202   3.941   7.651
    7TMC1    C2  324   0.261   3.899   7.773
    7TMC1    C3  325   0.385   3.847   7.764
    7TMC1    C4  326   0.251   3.906   7.528
    7TMC1    C5  327   0.369   3.848   7.533
    7TMC1    C6  328   0.442   3.810   7.640
    7TMC1     C  329   0.062   3.986   7.656
    7TMC1     O  330   4.781   3.944   7.751
    7TMC1     H  331   0.216   3.928   7.868
    7TMC1    H1  332   0.200   3.931   7.436
    7TMC1    H2  333   0.539   3.764   7.626
    7TMC1    C7  334   0.429   3.804   7.411
    7TMC1    C8  335   0.454   3.846   7.887
    7TMC1    O1  336   0.466   3.871   7.315
    7TMC1    O2  337   0.448   3.943   7.961
    7TMC1    O3  338   0.423   3.671   7.416
    7TMC1    H3  339   0.358   3.635   7.480
    7TMC1    O5  340   0.559   3.765   7.876
    7TMC1    H5  341   0.543   3.689   7.816
    8TMC1    C1  342   1.351   1.979  15.251
    8TMC1    C2  343   1.472   1.952  15.315
    8TMC1    C3  344   1.480   1.997  15.447
    8TMC1    C4  345   1.252   2.042  15.318
    8TMC1    C5  346   1.259   2.058  15.449
    8TMC1    C6  347   1.379   2.041  15.516
    8TMC1     C  348   1.350   1.950  15.111
    8TMC1     O  349   1.463   1.934  15.065
    8TMC1     H  350   1.558   1.910  15.263
    8TMC1    H1  351   1.159   2.065  15.267
    8TMC1    H2  352   1.389   2.071  15.619
    8TMC1    C7  353   1.152   2.132  15.511
    8TMC1    C8  354   1.599   1.977  15.524
    8TMC1    O1  355   1.038   2.105  15.482
    8TMC1    O2  356   1.590   1.969  15.648
    8TMC1    O3  357   1.189   2.249  15.565
    8TMC1    H3  358   1.286   2.260  15.566
    8TMC1    O5  359   1.703   2.031  15.456
    8TMC1    H5  360   1.672   2.074  15.373
    9TMC1    C1  361   0.376   3.091   8.069
    9TMC1    C2  362   0.249   3.076   8.031
    9TMC1    C3  363   0.199   2.949   8.025
    9TMC1    C4  364   0.457   2.983   8.100
    9TMC1    C5  365   0.400   2.853   8.094
    9TMC1    C6  366   0.268   2.835   8.052
    9TMC1     C  367   0.423   3.232   8.074
    9TMC1     O  368   0.343   3.319   8.086
    9TMC1     H  369   0.188   3.164   8.014
    9TMC1    H1  370   0.562   2.998   8.123
    9TMC1    H2  371   0.210   2.744   8.054
    9TMC1    C7  372   0.480   2.737   8.114
    9TMC1    C8  373   0.071   2.932   7.961
    9TMC1    O1  374   0.593   2.723   8.079
    9TMC1    O2  375   4.773   3.014   7.967
    9TMC1    O3  376   0.403   2.640   8.158
    9TMC1    H3  377   0.338   2.667   8.227
    9TMC1    O5  378   0.091   2.853   7.857
    9TMC1    H5  379   0.169   2.795   7.866
   10TMC2    C1  380   1.754   3.488  11.191
   10TMC2    C2  381   1.845   3.478  11.092
   10TMC2    C3  382   1.820   3.401  10.979
   10TMC2    C4  383   1.644   3.404  11.181
   10TMC2    C5  384   1.630   3.309  11.074
   10TMC2    C6  385   1.721   3.309  10.971
   10TMC2     C  386   1.787   3.525  11.325
   10TMC2     O  387   1.848   3.632  11.339
   10TMC2     H  388   1.915   3.559  11.078
   10TMC2    H1  389   1.569   3.410  11.259
   10TMC2    H2  390   1.723   3.241  10.886
   10TMC2    C7  391   1.527   3.211  11.069
   10TMC2    C8  392   1.899   3.422  10.857
   10TMC2    O1  393   1.564   3.111  11.014
   10TMC2    O2  394   1.866   3.419  10.740
   10TMC2    O5  395   2.024   3.391  10.891
   10TMC2    H5  396   2.032   3.400  10.988
   11TMC2    C1  397   3.833   3.382  10.593
   11TMC2    C2  398   3.933   3.296  10.556
   11TMC2    C3  399   3.989   3.230  10.667
   11TMC2    C4  400   3.771   3.387  10.714
   11TMC2    C5  401   3.841   3.329  10.811
   11TMC2    C6  402   3.952   3.245  10.796
   11TMC2     C  403   3.780   3.468  10.489
   11TMC2     O  404   3.771   3.400  10.389
   11TMC2     H  405   3.979   3.297  10.458
   11TMC2    H1  406   3.696   3.464  10.722
   11TMC2    H2  407   4.007   3.199  10.877
   11TMC2    C7  408   3.825   3.388  10.945
   11TMC2    C8  409   4.116   3.165  10.642
   11TMC2    O1  410   3.918   3.356  11.022
   11TMC2    O2  411   4.183   3.137  10.736
   11TMC2    O5  412   4.103   3.082  10.533
   11TMC2    H5  413   4.012   3.083  10.495
   12TMC2    C1  414   4.682   4.701  10.701
   12TMC2    C2  415   4.705   4.753  10.575
   12TMC2    C3  416   4.611   4.738  10.480
   12TMC2    C4  417   4.557   4.643  10.730
   12TMC2    C5  418   4.465   4.641  10.628
   12TMC2    C6  419   4.492   4.689  10.503
   12TMC2     C  420   4.768   4.726  10.806
   12TMC2     O  421   4.720   4.745  10.914
   12TMC2     H  422   0.005   0.022  10.547
   12TMC2    H1  423   4.531   4.609  10.830
   12TMC2    H2  424   4.421   4.672  10.422
   12TMC2    C7  425   4.339   4.575  10.662
   12TMC2    C8  426   4.639   0.007  10.357
   12TMC2    O1  427   4.340   4.514  10.765
   12TMC2    O2  428   4.751   0.009  10.307
   12TMC2    O5  429   4.519   0.053  10.310
   12TMC2    H5  430   4.466   0.081  10.388
   13TMC2    C1  431   4.368   2.432   8.895
   13TMC2    C2  432   4.394   2.327   8.984
   13TMC2    C3  433   4.405   2.344   9.116
   13TMC2    C4  434   4.354   2.554   8.948
   13TMC2    C5  435   4.350   2.575   9.082
   13TMC2    C6  436   4.388   2.473   9.163
   13TMC2     C  437   4.339   2.403   8.761
   13TMC2     O  438   4.333   2.503   8.692
   13TMC2     H  439   4.414   2.227   8.946
   13TMC2    H1  440   4.332   2.636   8.880
   13TMC2    H2  441   4.416   2.490   9.267
   13TMC2    C7  442   4.225   2.630   9.134
   13TMC2    C8  443   4.331   2.246   9.190
   13TMC2    O1  444   4.215   2.616   9.256
   13TMC2    O2  445   4.277   2.149   9.134
   13TMC2    O5  446   4.285   2.301   9.307
   13TMC2    H5  447   4.361   2.347   9.349
   14TMC2    C1  448   2.639   0.122   9.067
   14TMC2    C2  449   2.764   0.128   9.118
   14TMC2    C3  450   2.856   0.181   9.040
   14TMC2    C4  451   2.610   0.138   8.936
   14TMC2    C5  452   2.713   0.174   8.864
   14TMC2    C6  453   2.843   0.200   8.907
   14TMC2     C  454   2.524   0.061   9.134
   14TMC2     O  455   2.417   0.064   9.073
   14TMC2     H  456   2.780   0.119   9.224
   14TMC2    H1  457   2.512   0.134   8.890
   14TMC2    H2  458   2.924   0.202   8.835
   14TMC2    C7  459   2.695   0.160   8.720
   14TMC2    C8  460   2.987   0.180   9.099
   14TMC2    O1  461   2.608   0.230   8.672
   14TMC2    O2  462   3.010   0.108   9.196
   14TMC2    O5  463   3.042   0.306   9.066
   14TMC2    H5  464   2.988   0.366   9.011
   15TMC2    C1  465   2.147   2.170  10.721
   15TMC2    C2  466   2.096   2.148  10.847
   15TMC2    C3  467   2.132   2.240  10.941
   15TMC2    C4  468   2.236   2.271  10.698
   15TMC2    C5  469   2.264   2.363  10.794
   15TMC2    C6  470   2.205   2.353  10.916
   15TMC2     C  471   2.146   2.052  10.647
   15TMC2     O  472   2.092   1.951  10.694
   15TMC2     H  473   2.055   2.051  10.875
   15TMC2    H1  474   2.290   2.268  10.604
   15TMC2    H2  475   2.214   2.427  10.995
   15TMC2    C7  476   2.369   2.457  10.760
   15TMC2    C8  477   2.084   2.201  11.072
   15TMC2    O1  478   2.407   2.468  10.647
   15TMC2    O2  479   2.013   2.100  11.088
   15TMC2    O5  480   2.186   2.243  11.150
   15TMC2    H5  481   2.231   2.325  11.120
   16TMC2    C1  482   0.114   0.529  11.571
   16TMC2    C2  483   4.767   0.544  11.594
   16TMC2    C3  484   4.721   0.554  11.723
   16TMC2    C4  485   0.200   0.526  11.677
   16TMC2    C5  486   0.156   0.547  11.801
   16TMC2    C6  487   0.021   0.558  11.827
   16TMC2     C  488   0.166   0.570  11.440
   16TMC2     O  489   0.081   0.606  11.361
   16TMC2     H  490   4.699   0.555  11.510
   16TMC2    H1  491   0.308   0.524  11.661
   16TMC2    H2  492   4.764   0.577  11.925
   16TMC2    C7  493   0.237   0.515  11.920
   16TMC2    C8  494   4.591   0.610  11.761
   16TMC2    O1  495   0.331   0.442  11.905
   16TMC2    O2  496   4.527   0.561  11.851
   16TMC2    O5  497   4.544   0.671  11.655
   16TMC2    H5  498   4.616   0.720  11.610
   17TMC2    C1  499   4.785   3.568   7.522
   17TMC2    C2  500   4.680   3.601   7.606
   17TMC2    C3  501   4.600   3.709   7.570
   17TMC2    C4  502   0.019   3.638   7.404
   17TMC2    C5  503   4.731   3.745   7.369
   17TMC2    C6  504   4.624   3.783   7.457
   17TMC2     C  505   0.117   3.513   7.583
   17TMC2     O  506   0.218   3.576   7.564
   17TMC2     H  507   4.677   3.542   7.697
   17TMC2    H1  508   0.108   3.610   7.349
   17TMC2    H2  509   4.586   3.884   7.441
   17TMC2    C7  510   4.784   3.814   7.253
   17TMC2    C8  511   4.491   3.729   7.662
   17TMC2    O1  512   0.088   3.762   7.193
   17TMC2    O2  513   4.490   3.665   7.771
   17TMC2    O5  514   4.394   3.807   7.609
   17TMC2    H5  515   4.398   3.827   7.513
   18TMC2    C1  516   1.186   4.785   8.280
   18TMC2    C2  517   1.094   4.776   8.177
   18TMC2    C3  518   1.008   4.670   8.178
   18TMC2    C4  519   1.184   4.692   8.383
   18TMC2    C5  520   1.086   4.595   8.382
   18TMC2    C6  521   1.005   4.577   8.275
   18TMC2     C  522   1.306   0.059   8.238
   18TMC2     O  523   1.294   0.166   8.177
   18TMC2     H  524   1.100   0.056   8.092
   18TMC2    H1  525   1.251   4.704   8.467
   18TMC2    H2  526   0.950   4.486   8.254
   18TMC2    C7  527   1.108   4.481   8.466
   18TMC2    C8  528   0.928   4.646   8.059
   18TMC2    O1  529   1.086   4.373   8.413
   18TMC2    O2  530   0.863   4.548   8.050
   18TMC2    O5  531   0.899   4.763   8.003
   18TMC2    H5  532   0.958   0.045   8.038
   19TMC2    C1  533   4.260   4.603   8.736
   19TMC2    C2  534   4.160   4.693   8.691
   19TMC2    C3  535   4.203   0.003   8.608
   19TMC2    C4  536   4.366   4.573   8.660
   19TMC2    C5  537   4.402   4.671   8.566
   19TMC2    C6  538   4.325   4.781   8.541
   19TMC2     C  539   4.202   4.489   8.811
   19TMC2     O  540   4.084   4.475   8.774
   19TMC2     H  541   4.062   4.693   8.736
   19TMC2    H1  542   4.414   4.477   8.674
   19TMC2    H2  543   4.353   0.060   8.461
   19TMC2    C7  544   4.540   4.699   8.535
   19TMC2    C8  545   4.104   0.092   8.555
   19TMC2    O1  546   4.567   0.030   8.539
   19TMC2    O2  547   4.102   0.132   8.437
   19TMC2    O5  548   4.013   0.124   8.651
   19TMC2    H5  549   4.035   0.090   8.740
   20TMC2    C1  550   1.586   1.654  15.374
   20TMC2    C2  551   1.529   1.628  15.497
   20TMC2    C3  552   1.615   1.617  15.608
   20TMC2    C4  553   1.721   1.676  15.361
   20TMC2    C5  554   1.798   1.664  15.471
   20TMC2    C6  555   1.746   1.630  15.590
   20TMC2     C  556   1.506   1.616  15.258
   20TMC2     O  557   1.393   1.582  15.287
   20TMC2     H  558   1.421   1.635  15.503
   20TMC2    H1  559   1.768   1.704  15.268
   20TMC2    H2  560   1.810   1.625  15.678
   20TMC2    C7  561   1.940   1.650  15.464
   20TMC2    C8  562   1.547   1.657  15.731
   20TMC2    O1  563   1.995   1.585  15.553
   20TMC2    O2  564   1.443   1.726  15.727
   20TMC2    O5  565   1.562   1.561  15.820
   20TMC2    H5  566   1.657   1.536  15.816
   21TMC2    C1  567   1.354   0.393  10.382
   21TMC2    C2  568   1.342   0.460  10.501
   21TMC2    C3  569   1.398   0.581  10.515
   21TMC2    C4  570   1.418   0.452  10.274
   21TMC2    C5  571   1.459   0.580  10.287
   21TMC2    C6  572   1.448   0.646  10.407
   21TMC2     C  573   1.294   0.272  10.362
   21TMC2     O  574   1.342   0.204  10.271
   21TMC2     H  575   1.303   0.412  10.590
   21TMC2    H1  576   1.434   0.391  10.186
   21TMC2    H2  577   1.473   0.751  10.407
   21TMC2    C7  578   1.527   0.662  10.185
   21TMC2    C8  579   1.492   0.576  10.630
   21TMC2    O1  580   1.623   0.724  10.231
   21TMC2    O2  581   1.492   0.477  10.706
   21TMC2    O5  582   1.615   0.628  10.587
   21TMC2    H5  583   1.610   0.712  10.536
   22TMC2    C1  584   1.971   3.067  14.586
   22TMC2    C2  585   1.861   3.148  14.586
   22TMC2    C3  586   1.813   3.181  14.713
   22TMC2    C4  587   2.031   3.017  14.695
   22TMC2    C5  588   1.985   3.051  14.819
   22TMC2    C6  589   1.869   3.134  14.830
   22TMC2     C  590   2.031   3.021  14.461
   22TMC2     O  591   2.142   2.972  14.463
   22TMC2     H  592   1.810   3.178  14.495
   22TMC2    H1  593   2.123   2.960  14.682
   22TMC2    H2  594   1.830   3.163  14.927
   22TMC2    C7  595   2.017   2.965  14.927
   22TMC2    C8  596   1.705   3.273  14.721
   22TMC2    O1  597   2.017   3.015  15.039
   22TMC2    O2  598   1.713   3.391  14.763
   22TMC2    O5  599   1.604   3.217  14.650
   22TMC2    H5  600   1.618   3.121  14.633
   23TMC2    C1  601   3.725   0.362   6.527
   23TMC2    C2  602   3.828   0.309   6.462
   23TMC2    C3  603   3.954   0.314   6.520
   23TMC2    C4  604   3.736   0.439   6.637
   23TMC2    C5  605   3.862   0.441   6.695
   23TMC2    C6  606   3.971   0.379   6.638
   23TMC2     C  607   3.621   0.407   6.437
   23TMC2     O  608   3.645   0.408   6.318
   23TMC2     H  609   3.809   0.251   6.373
   23TMC2    H1  610   3.654   0.488   6.687
   23TMC2    H2  611   4.071   0.410   6.665
   23TMC2    C7  612   3.877   0.482   6.831
   23TMC2    C8  613   4.071   0.280   6.447
   23TMC2    O1  614   3.792   0.545   6.889
   23TMC2    O2  615   4.184   0.293   6.497
   23TMC2    O5  616   4.050   0.306   6.316
   23TMC2    H5  617   3.953   0.313   6.299
   24TMC2    C1  618   4.561   0.938   6.938
   24TMC2    C2  619   4.579   0.811   6.999
   24TMC2    C3  620   4.486   0.760   7.084
   24TMC2    C4  621   4.453   1.007   6.965
   24TMC2    C5  622   4.366   0.951   7.060
   24TMC2    C6  623   4.373   0.826   7.110
   24TMC2     C  624   4.667   1.001   6.852
   24TMC2     O  625   4.667   1.121   6.839
   24TMC2     H  626   4.665   0.748   6.983
   24TMC2    H1  627   4.429   1.100   6.914
   24TMC2    H2  628   4.286   0.775   7.150
   24TMC2    C7  629   4.252   1.033   7.112
   24TMC2    C8  630   4.493   0.622   7.117
   24TMC2    O1  631   4.156   0.979   7.159
   24TMC2    O2  632   4.570   0.543   7.073
   24TMC2    O5  633   4.450   0.609   7.243
   24TMC2    H5  634   4.388   0.677   7.276
   25TMC2    C1  635   4.307   3.087   7.848
   25TMC2    C2  636   4.220   3.140   7.938
   25TMC2    C3  637   4.204   3.274   7.937
   25TMC2    C4  638   4.372   3.159   7.752
   25TMC2    C5  639   4.335   3.292   7.739
   25TMC2    C6  640   4.250   3.350   7.834
   25TMC2     C  641   4.378   2.961   7.876
   25TMC2     O  642   4.478   2.928   7.819
   25TMC2     H  643   4.164   3.079   8.009
   25TMC2    H1  644   4.424   3.110   7.671
   25TMC2    H2  645   4.219   3.452   7.818
   25TMC2    C7  646   4.364   3.376   7.618
   25TMC2    C8  647   4.126   3.340   8.037
   25TMC2    O1  648   4.290   3.474   7.606
   25TMC2    O2  649   4.056   3.282   8.120
   25TMC2    O5  650   4.144   3.470   8.029
   25TMC2    H5  651   4.231   3.503   7.999
   26TMC2    C1  652   3.799   1.759  14.662
   26TMC2    C2  653   3.786   1.825  14.787
   26TMC2    C3  654   3.711   1.940  14.787
   26TMC2    C4  655   3.750   1.808  14.542
   26TMC2    C5  656   3.667   1.917  14.553
   26TMC2    C6  657   3.651   1.995  14.672
   26TMC2     C  658   3.870   1.633  14.676
   26TMC2     O  659   3.885   1.583  14.787
   26TMC2     H  660   3.809   1.772  14.878
   26TMC2    H1  661   3.757   1.762  14.444
   26TMC2    H2  662   3.583   2.077  14.690
   26TMC2    C7  663   3.594   1.970  14.438
   26TMC2    C8  664   3.693   2.010  14.906
   26TMC2    O1  665   3.481   2.013  14.462
   26TMC2    O2  666   3.607   2.096  14.923
   26TMC2    O5  667   3.806   2.014  14.975
   26TMC2    H5  668   3.882   1.959  14.946
   27TMC2    C1  669   0.450   0.120   8.554
   27TMC2    C2  670   0.540   0.106   8.658
   27TMC2    C3  671   0.553   0.204   8.752
   27TMC2    C4  672   0.375   0.230   8.546
   27TMC2    C5  673   0.380   0.317   8.655
   27TMC2    C6  674   0.462   0.304   8.757
   27TMC2     C  675   0.400   4.786   8.497
   27TMC2     O  676   0.463   4.686   8.530
   27TMC2     H  677   0.585   0.010   8.675
   27TMC2    H1  678   0.309   0.254   8.464
   27TMC2    H2  679   0.467   0.370   8.843
   27TMC2    C7  680   0.317   0.448   8.637
   27TMC2    C8  681   0.604   0.142   8.873
   27TMC2    O1  682   0.300   0.482   8.521
   27TMC2    O2  683   0.571   0.036   8.924
   27TMC2    O5  684   0.730   0.172   8.837
   27TMC2    H5  685   0.741   0.267   8.815
   28TMC2    C1  686   0.767   2.764  13.621
   28TMC2    C2  687   0.771   2.838  13.507
   28TMC2    C3  688   0.722   2.790  13.389
   28TMC2    C4  689   0.712   2.635  13.609
   28TMC2    C5  690   0.653   2.588  13.493
   28TMC2    C6  691   0.657   2.672  13.384
   28TMC2     C  692   0.883   2.798  13.705
   28TMC2     O  693   0.987   2.841  13.651
   28TMC2     H  694   0.822   2.934  13.504
   28TMC2    H1  695   0.722   2.573  13.698
   28TMC2    H2  696   0.615   2.644  13.288
   28TMC2    C7  697   0.545   2.498  13.505
   28TMC2    C8  698   0.762   2.859  13.266
   28TMC2    O1  699   0.484   2.485  13.399
   28TMC2    O2  700   0.769   2.803  13.160
   28TMC2    O5  701   0.747   2.996  13.286
   28TMC2    H5  702   0.712   3.019  13.375
   29TMC2    C1  703   4.644   3.320  10.285
   29TMC2    C2  704   4.677   3.187  10.300
   29TMC2    C3  705   0.022   3.159  10.309
   29TMC2    C4  706   4.738   3.419  10.282
   29TMC2    C5  707   0.082   3.390  10.279
   29TMC2    C6  708   0.118   3.260  10.298
   29TMC2     C  709   4.513   3.360  10.298
   29TMC2     O  710   4.501   3.473  10.342
   29TMC2     H  711   4.601   3.111  10.310
   29TMC2    H1  712   4.705   3.520  10.265
   29TMC2    H2  713   0.221   3.232  10.316
   29TMC2    C7  714   0.174   3.487  10.210
   29TMC2    C8  715   0.049   3.056  10.408
   29TMC2    O1  716   0.140   3.601  10.179
   29TMC2    O2  717   0.101   3.076  10.519
   29TMC2    O5  718   4.759   2.952  10.379
   29TMC2    H5  719   4.732   2.961  10.285
   30TMC2    C1  720   1.991   4.275   9.637
   30TMC2    C2  721   1.977   4.169   9.730
   30TMC2    C3  722   1.885   4.073   9.712
   30TMC2    C4  723   1.901   4.287   9.536
   30TMC2    C5  724   1.810   4.180   9.515
   30TMC2    C6  725   1.801   4.071   9.601
   30TMC2     C  726   2.062   4.395   9.678
   30TMC2     O  727   2.011   4.505   9.697
   30TMC2     H  728   2.033   4.175   9.823
   30TMC2    H1  729   1.908   4.377   9.476
   30TMC2    H2  730   1.729   3.991   9.588
   30TMC2    C7  731   1.742   4.155   9.389
   30TMC2    C8  732   1.920   3.947   9.761
   30TMC2    O1  733   1.669   4.061   9.392
   30TMC2    O2  734   1.884   3.850   9.691
   30TMC2    O5  735   2.018   3.941   9.857
   30TMC2    H5  736   2.020   4.007   9.929
   31TMC2    C1  737   1.357   0.239  10.950
   31TMC2    C2  738   1.332   0.116  10.966
   31TMC2    C3  739   1.410   0.046  11.054
   31TMC2    C4  740   1.452   0.307  11.011
   31TMC2    C5  741   1.535   0.242  11.096
   31TMC2    C6  742   1.513   0.108  11.119
   31TMC2     C  743   1.262   0.308  10.876
   31TMC2     O  744   1.207   0.252  10.779
   31TMC2     H  745   1.242   0.084  10.916
   31TMC2    H1  746   1.482   0.409  10.992
   31TMC2    H2  747   1.561   0.061  11.204
   31TMC2    C7  748   1.557   0.325  11.211
   31TMC2    C8  749   1.360   4.712  11.105
   31TMC2    O1  750   1.493   0.432  11.209
   31TMC2    O2  751   1.403   4.644  11.198
   31TMC2    O5  752   1.244   4.679  11.048
   31TMC2    H5  753   1.237   4.581  11.042
   32TMC2    C1  754   0.973   1.211   7.559
   32TMC2    C2  755   0.944   1.191   7.694
   32TMC2    C3  756   0.818   1.234   7.735
   32TMC2    C4  757   0.878   1.250   7.473
   32TMC2    C5  758   0.756   1.285   7.521
   32TMC2    C6  759   0.724   1.289   7.653
   32TMC2     C  760   1.073   1.120   7.501
   32TMC2     O  761   1.125   1.157   7.395
   32TMC2     H  762   1.019   1.149   7.760
   32TMC2    H1  763   0.898   1.239   7.367
   32TMC2    H2  764   0.632   1.330   7.693
   32TMC2    C7  765   0.643   1.282   7.438
   32TMC2    C8  766   0.781   1.234   7.872
   32TMC2    O1  767   0.558   1.372   7.456
   32TMC2    O2  768   0.665   1.208   7.909
   32TMC2    O5  769   0.886   1.243   7.956
   32TMC2    H5  770   0.960   1.273   7.900
   33TMC2    C1  771   1.514   0.283  11.902
   33TMC2    C2  772   1.402   0.268  11.978
   33TMC2    C3  773   1.349   0.376  12.030
   33TMC2    C4  774   1.574   0.409  11.882
   33TMC2    C5  775   1.496   0.519  11.923
   33TMC2    C6  776   1.382   0.505  11.999
   33TMC2     C  777   1.535   0.166  11.814
   33TMC2     O  778   1.453   0.075  11.821
   33TMC2     H  779   1.366   0.171  12.010
   33TMC2    H1  780   1.663   0.421  11.823
   33TMC2    H2  781   1.326   0.590  12.037
   33TMC2    C7  782   1.560   0.649  11.930
   33TMC2    C8  783   1.222   0.359  12.091
   33TMC2    O1  784   1.480   0.740  11.947
   33TMC2    O2  785   1.159   0.258  12.082
   33TMC2    O5  786   1.237   0.441  12.197
   33TMC2    H5  787   1.326   0.481  12.201
   34TMC2    C1  788   2.194   3.738  10.414
   34TMC2    C2  789   2.121   3.708  10.524
   34TMC2    C3  790   2.166   3.738  10.647
   34TMC2    C4  791   2.309   3.813  10.425
   34TMC2    C5  792   2.344   3.856  10.555
   34TMC2    C6  793   2.276   3.823  10.668
   34TMC2     C  794   2.143   3.713  10.283
   34TMC2     O  795   2.216   3.670  10.196
   34TMC2     H  796   2.034   3.643  10.526
   34TMC2    H1  797   2.358   3.857  10.339
   34TMC2    H2  798   2.291   3.862  10.768
   34TMC2    C7  799   2.432   3.970  10.568
   34TMC2    C8  800   2.085   3.699  10.753
   34TMC2    O1  801   2.458   4.020  10.459
   34TMC2    O2  802   1.976   3.746  10.758
   34TMC2    O5  803   2.163   3.694  10.863
   34TMC2    H5  804   2.253   3.667  10.834
   35TMC2    C1  805   0.183   0.200   9.401
   35TMC2    C2  806   0.188   0.063   9.377
   35TMC2    C3  807   0.280   0.032   9.280
   35TMC2    C4  808   0.274   0.295   9.348
   35TMC2    C5  809   0.362   0.253   9.251
   35TMC2    C6  810   0.365   0.122   9.214
   35TMC2     C  811   0.095   0.253   9.507
   35TMC2     O  812   4.785   0.185   9.542
   35TMC2     H  813   0.132   4.771   9.423
   35TMC2    H1  814   0.258   0.401   9.364
   35TMC2    H2  815   0.447   0.088   9.151
   35TMC2    C7  816   0.430   0.348   9.167
   35TMC2    C8  817   0.291   4.683   9.235
   35TMC2    O1  818   0.489   0.301   9.074
   35TMC2    O2  819   0.398   4.626   9.223
   35TMC2    O5  820   0.171   4.619   9.263
   35TMC2    H5  821   0.096   4.681   9.250
   36TMC2    C1  822   0.701   0.823  15.168
   36TMC2    C2  823   0.669   0.693  15.166
   36TMC2    C3  824   0.541   0.650  15.181
   36TMC2    C4  825   0.603   0.921  15.182
   36TMC2    C5  826   0.482   0.876  15.192
   36TMC2    C6  827   0.444   0.748  15.184
   36TMC2     C  828   0.841   0.855  15.201
   36TMC2     O  829   0.859   0.963  15.258
   36TMC2     H  830   0.751   0.624  15.153
   36TMC2    H1  831   0.629   1.026  15.177
   36TMC2    H2  832   0.345   0.720  15.218
   36TMC2    C7  833   0.378   0.984  15.186
   36TMC2    C8  834   0.503   0.507  15.177
   36TMC2    O1  835   0.392   1.091  15.242
   36TMC2    O2  836   0.567   0.441  15.103
   36TMC2    O5  837   0.390   0.484  15.243
   36TMC2    H5  838   0.369   0.552  15.311
   37TMC2    C1  839   1.685   2.784  10.829
   37TMC2    C2  840   1.645   2.816  10.958
   37TMC2    C3  841   1.730   2.772  11.057
   37TMC2    C4  842   1.801   2.708  10.803
   37TMC2    C5  843   1.873   2.657  10.903
   37TMC2    C6  844   1.831   2.687  11.032
   37TMC2     C  845   1.664   2.882  10.724
   37TMC2     O  846   1.770   2.897  10.662
   37TMC2     H  847   1.562   2.879  10.989
   37TMC2    H1  848   1.814   2.665  10.704
   37TMC2    H2  849   1.899   2.675  11.116
   37TMC2    C7  850   2.014   2.695  10.873
   37TMC2    C8  851   1.724   2.830  11.189
   37TMC2    O1  852   2.090   2.669  10.965
   37TMC2    O2  853   1.786   2.774  11.281
   37TMC2    O5  854   1.681   2.955  11.191
   37TMC2    H5  855   1.636   2.985  11.109
   38TMC2    C1  856   1.608   3.969  10.179
   38TMC2    C2  857   1.686   4.022  10.084
   38TMC2    C3  858   1.717   4.157  10.101
   38TMC2    C4  859   1.549   4.043  10.282
   38TMC2    C5  860   1.578   4.175  10.283
   38TMC2    C6  861   1.668   4.234  10.200
   38TMC2     C  862   1.531   3.847  10.149
   38TMC2     O  863   1.412   3.849  10.180
   38TMC2     H  864   1.713   3.970   9.993
   38TMC2    H1  865   1.482   4.002  10.356
   38TMC2    H2  866   1.708   4.329  10.231
   38TMC2    C7  867   1.527   4.234  10.410
   38TMC2    C8  868   1.847   4.193  10.051
   38TMC2    O1  869   1.527   4.173  10.513
   38TMC2    O2  870   1.923   4.102  10.024
   38TMC2    O5  871   1.882   4.319  10.089
   38TMC2    H5  872   1.816   4.389  10.105
   39TMC2    C1  873   0.842   4.458   8.744
   39TMC2    C2  874   0.849   4.349   8.666
   39TMC2    C3  875   0.849   4.221   8.726
   39TMC2    C4  876   0.837   4.444   8.883
   39TMC2    C5  877   0.838   4.317   8.942
   39TMC2    C6  878   0.836   4.206   8.863
   39TMC2     C  879   0.849   4.599   8.696
   39TMC2     O  880   0.887   4.687   8.777
   39TMC2     H  881   0.846   4.361   8.558
   39TMC2    H1  882   0.838   4.538   8.937
   39TMC2    H2  883   0.831   4.105   8.903
   39TMC2    C7  884   0.860   4.300   9.085
   39TMC2    C8  885   0.831   4.103   8.639
   39TMC2    O1  886   0.841   4.187   9.123
   39TMC2    O2  887   0.777   3.996   8.662
   39TMC2    O5  888   0.923   4.110   8.541
   39TMC2    H5  889   0.977   4.191   8.533
   40TMC2    C1  890   0.784   0.512  14.817
   40TMC2    C2  891   0.707   0.404  14.846
   40TMC2    C3  892   0.777   0.284  14.869
   40TMC2    C4  893   0.918   0.502  14.806
   40TMC2    C5  894   0.983   0.380  14.814
   40TMC2    C6  895   0.913   0.267  14.849
   40TMC2     C  896   0.723   0.644  14.826
   40TMC2     O  897   0.793   0.741  14.861
   40TMC2     H  898   0.599   0.409  14.856
   40TMC2    H1  899   0.975   0.588  14.776
   40TMC2    H2  900   0.955   0.170  14.875
   40TMC2    C7  901   1.122   0.374  14.778
   40TMC2    C8  902   0.703   0.164  14.896
   40TMC2    O1  903   1.176   0.481  14.766
   40TMC2    O2  904   0.725   0.056  14.836
   40TMC2    O5  905   0.608   0.195  14.978
   40TMC2    H5  906   0.599   0.284  15.018
   41TMC2    C1  907   0.161   4.321   8.926
   41TMC2    C2  908   0.169   4.457   8.921
   41TMC2    C3  909   0.069   4.514   8.842
   41TMC2    C4  910   0.061   4.250   8.878
   41TMC2    C5  911   4.742   4.311   8.822
   41TMC2    C6  912   4.749   4.443   8.797
   41TMC2     C  913   0.258   4.251   9.002
   41TMC2     O  914   0.279   4.138   8.960
   41TMC2     H  915   0.246   4.521   8.963
   41TMC2    H1  916   0.060   4.143   8.891
   41TMC2    H2  917   4.666   4.487   8.744
   41TMC2    C7  918   4.637   4.228   8.768
   41TMC2    C8  919   0.063   4.659   8.824
   41TMC2    O1  920   4.572   4.272   8.672
   41TMC2    O2  921   4.743   4.713   8.828
   41TMC2    O5  922   0.178   4.718   8.869
   41TMC2    H5  923   0.257   4.672   8.834
   42TMC2    C1  924   3.086   3.731   8.025
   42TMC2    C2  925   3.019   3.750   8.142
   42TMC2    C3  926   3.090   3.770   8.249
   42TMC2    C4  927   3.214   3.689   8.020
   42TMC2    C5  928   3.277   3.675   8.139
   42TMC2    C6  929   3.223   3.733   8.253
   42TMC2     C  930   3.003   3.694   7.916
   42TMC2     O  931   2.991   3.777   7.822
   42TMC2     H  932   2.913   3.772   8.131
   42TMC2    H1  933   3.244   3.663   7.919
   42TMC2    H2  934   3.276   3.730   8.348
   42TMC2    C7  935   3.397   3.592   8.148
   42TMC2    C8  936   3.024   3.766   8.382
   42TMC2    O1  937   3.484   3.624   8.066
   42TMC2    O2  938   3.079   3.781   8.491
   42TMC2    O5  939   2.948   3.657   8.359
   42TMC2    H5  940   2.947   3.633   8.264
   43TMC2    C1  941   4.047   2.662   8.504
   43TMC2    C2  942   4.131   2.731   8.585
   43TMC2    C3  943   4.071   2.837   8.648
   43TMC2    C4  944   3.917   2.691   8.481
   43TMC2    C5  945   3.861   2.795   8.544
   43TMC2    C6  946   3.939   2.861   8.638
   43TMC2     C  947   4.106   2.636   8.374
   43TMC2     O  948   4.035   2.653   8.275
   43TMC2     H  949   4.232   2.705   8.615
   43TMC2    H1  950   3.856   2.632   8.414
   43TMC2    H2  951   3.909   2.958   8.676
   43TMC2    C7  952   3.796   2.892   8.452
   43TMC2    C8  953   4.138   2.900   8.763
   43TMC2    O1  954   3.800   3.012   8.487
   43TMC2    O2  955   4.207   2.829   8.830
   43TMC2    O5  956   4.169   3.024   8.723
   43TMC2    H5  957   4.105   3.060   8.658
   44TMC2    C1  958   4.647   0.986  11.960
   44TMC2    C2  959   4.526   1.051  11.963
   44TMC2    C3  960   4.519   1.180  11.913
   44TMC2    C4  961   4.755   1.056  11.915
   44TMC2    C5  962   4.742   1.177  11.862
   44TMC2    C6  963   4.625   1.250  11.868
   44TMC2     C  964   4.671   0.864  12.039
   44TMC2     O  965   4.782   0.808  12.017
   44TMC2     H  966   4.434   0.997  11.983
   44TMC2    H1  967   0.061   1.002  11.917
   44TMC2    H2  968   4.639   1.357  11.862
   44TMC2    C7  969   0.075   1.223  11.786
   44TMC2    C8  970   4.404   1.259  11.930
   44TMC2    O1  971   0.183   1.179  11.816
   44TMC2    O2  972   4.409   1.378  11.947
   44TMC2    O5  973   4.291   1.197  11.877
   44TMC2    H5  974   4.310   1.107  11.844
   45TMC2    C1  975   1.459   4.323  14.670
   45TMC2    C2  976   1.523   4.412  14.746
   45TMC2    C3  977   1.643   4.371  14.798
   45TMC2    C4  978   1.502   4.198  14.647
   45TMC2    C5  979   1.626   4.163  14.693
   45TMC2    C6  980   1.697   4.254  14.761
   45TMC2     C  981   1.343   4.372  14.599
   45TMC2     O  982   1.342   4.351  14.481
   45TMC2     H  983   1.481   4.512  14.747
   45TMC2    H1  984   1.449   4.134  14.577
   45TMC2    H2  985   1.793   4.222  14.800
   45TMC2    C7  986   1.695   4.055  14.625
   45TMC2    C8  987   1.736   4.466  14.859
   45TMC2    O1  988   1.663   4.054  14.505
   45TMC2    O2  989   1.857   4.438  14.869
   45TMC2    O5  990   1.688   4.597  14.853
   45TMC2    H5  991   1.597   4.605  14.887
   46TMC2    C1  992   2.532   2.146  15.159
   46TMC2    C2  993   2.442   2.205  15.071
   46TMC2    C3  994   2.469   2.327  15.031
   46TMC2    C4  995   2.642   2.220  15.199
   46TMC2    C5  996   2.674   2.343  15.148
   46TMC2    C6  997   2.576   2.405  15.077
   46TMC2     C  998   2.515   2.015  15.226
   46TMC2     O  999   2.615   1.956  15.265
   46TMC2     H 1000   2.365   2.149  15.018
   46TMC2    H1 1001   2.718   2.172  15.260
   46TMC2    H2 1002   2.596   2.500  15.029
   46TMC2    C7 1003   2.750   2.415  15.248
   46TMC2    C8 1004   2.382   2.367  14.918
   46TMC2    O1 1005   2.765   2.361  15.355
   46TMC2    O2 1006   2.352   2.294  14.819
   46TMC2    O5 1007   2.378   2.496  14.914
   46TMC2    H5 1008   2.402   2.532  15.003
   47TMC2    C1 1009   4.194   2.123  12.157
   47TMC2    C2 1010   4.200   2.149  12.025
   47TMC2    C3 1011   4.076   2.145  11.964
   47TMC2    C4 1012   4.085   2.086  12.220
   47TMC2    C5 1013   3.964   2.084  12.157
   47TMC2    C6 1014   3.960   2.122  12.028
   47TMC2     C 1015   4.313   2.138  12.236
   47TMC2     O 1016   4.303   2.174  12.352
   47TMC2     H 1017   4.293   2.164  11.970
   47TMC2    H1 1018   4.091   2.056  12.324
   47TMC2    H2 1019   3.867   2.121  11.972
   47TMC2    C7 1020   3.887   1.965  12.182
   47TMC2    C8 1021   4.077   2.115  11.828
   47TMC2    O1 1022   3.880   1.934  12.301
   47TMC2    O2 1023   3.992   2.170  11.762
   47TMC2    O5 1024   4.075   1.979  11.840
   47TMC2    H5 1025   4.136   1.941  11.908
   48TMC2    C1 1026   1.670   2.246  10.215
   48TMC2    C2 1027   1.665   2.111  10.258
   48TMC2    C3 1028   1.763   2.075  10.345
   48TMC2    C4 1029   1.756   2.337  10.267
   48TMC2    C5 1030   1.840   2.298  10.373
   48TMC2    C6 1031   1.837   2.166  10.414
   48TMC2     C 1032   1.557   2.296  10.130
   48TMC2     O 1033   1.567   2.401  10.067
   48TMC2     H 1034   1.596   2.036  10.221
   48TMC2    H1 1035   1.756   2.441  10.234
   48TMC2    H2 1036   1.903   2.131  10.492
   48TMC2    C7 1037   1.965   2.373  10.398
   48TMC2    C8 1038   1.787   1.940  10.377
   48TMC2    O1 1039   2.058   2.313  10.461
   48TMC2    O2 1040   1.799   1.908  10.494
   48TMC2    O5 1041   1.861   1.897  10.272
   48TMC2    H5 1042   1.874   1.969  10.207
   49TMC2    C1 1043   1.760   4.362  11.469
   49TMC2    C2 1044   1.743   4.418  11.341
   49TMC2    C3 1045   1.623   4.401  11.291
   49TMC2    C4 1046   1.664   4.327  11.560
   49TMC2    C5 1047   1.539   4.324  11.501
   49TMC2    C6 1048   1.515   4.357  11.365
   49TMC2     C 1049   1.902   4.388  11.512
   49TMC2     O 1050   1.970   4.473  11.455
   49TMC2     H 1051   1.832   4.444  11.285
   49TMC2    H1 1052   1.695   4.285  11.654
   49TMC2    H2 1053   1.413   4.352  11.328
   49TMC2    C7 1054   1.442   4.219  11.550
   49TMC2    C8 1055   1.617   4.410  11.148
   49TMC2    O1 1056   1.366   4.177  11.463
   49TMC2    O2 1057   1.698   4.490  11.100
   49TMC2    O5 1058   1.618   4.276  11.117
   49TMC2    H5 1059   1.545   4.227  11.160
   50TMC2    C1 1060   3.242   1.710  14.279
   50TMC2    C2 1061   3.121   1.686  14.215
   50TMC2    C3 1062   3.071   1.775  14.125
   50TMC2    C4 1063   3.320   1.818  14.244
   50TMC2    C5 1064   3.259   1.913  14.158
   50TMC2    C6 1065   3.142   1.887  14.096
   50TMC2     C 1066   3.285   1.608  14.377
   50TMC2     O 1067   3.203   1.562  14.451
   50TMC2     H 1068   3.069   1.591  14.228
   50TMC2    H1 1069   3.419   1.842  14.280
   50TMC2    H2 1070   3.097   1.964  14.034
   50TMC2    C7 1071   3.343   2.015  14.097
   50TMC2    C8 1072   3.011   1.708  14.014
   50TMC2    O1 1073   3.463   1.988  14.112
   50TMC2    O2 1074   3.061   1.599  13.970
   50TMC2    O5 1075   2.936   1.797  13.941
   50TMC2    H5 1076   2.926   1.884  13.985
   51TMC2    C1 1077   1.932   2.159  14.856
   51TMC2    C2 1078   2.003   2.168  14.739
   51TMC2    C3 1079   1.929   2.145  14.623
   51TMC2    C4 1080   1.795   2.160  14.864
   51TMC2    C5 1081   1.731   2.137  14.747
   51TMC2    C6 1082   1.791   2.132  14.625
   51TMC2     C 1083   1.987   2.240  14.957
   51TMC2     O 1084   1.949   2.217  15.073
   51TMC2     H 1085   2.108   2.192  14.740
   51TMC2    H1 1086   1.741   2.159  14.958
   51TMC2    H2 1087   1.728   2.134  14.537
   51TMC2    C7 1088   1.587   2.130  14.751
   51TMC2    C8 1089   1.990   2.155  14.485
   51TMC2    O1 1090   1.522   2.082  14.654
   51TMC2    O2 1091   1.948   2.088  14.390
   51TMC2    O5 1092   2.117   2.190  14.498
   51TMC2    H5 1093   2.130   2.259  14.567
   52TMC2    C1 1094   3.829   4.170   9.417
   52TMC2    C2 1095   3.899   4.065   9.362
   52TMC2    C3 1096   4.012   4.092   9.294
   52TMC2    C4 1097   3.862   4.303   9.414
   52TMC2    C5 1098   3.977   4.327   9.344
   52TMC2    C6 1099   4.058   4.225   9.296
   52TMC2     C 1100   3.701   4.146   9.477
   52TMC2     O 1101   3.624   4.245   9.480
   52TMC2     H 1102   3.864   3.963   9.371
   52TMC2    H1 1103   3.796   4.374   9.462
   52TMC2    H2 1104   4.158   4.243   9.259
   52TMC2    C7 1105   4.046   4.456   9.364
   52TMC2    C8 1106   4.093   3.991   9.222
   52TMC2    O1 1107   4.140   4.470   9.291
   52TMC2    O2 1108   4.182   4.034   9.151
   52TMC2    O5 1109   4.005   3.897   9.185
   52TMC2    H5 1110   3.956   3.857   9.260
   53TMC2    C1 1111   1.305   0.002   9.549
   53TMC2    C2 1112   1.394   4.715   9.624
   53TMC2    C3 1113   1.494   4.779   9.696
   53TMC2    C4 1114   1.322   0.136   9.532
   53TMC2    C5 1115   1.436   0.190   9.587
   53TMC2    C6 1116   1.523   0.121   9.667
   53TMC2     C 1117   1.192   4.733   9.479
   53TMC2     O 1118   1.159   0.011   9.382
   53TMC2     H 1119   1.386   4.607   9.614
   53TMC2    H1 1120   1.245   0.192   9.481
   53TMC2    H2 1121   1.610   0.172   9.707
   53TMC2    C7 1122   1.430   0.322   9.635
   53TMC2    C8 1123   1.570   4.718   9.805
   53TMC2    O1 1124   1.535   0.385   9.629
   53TMC2    O2 1125   1.631   4.612   9.796
   53TMC2    O5 1126   1.593   0.031   9.891
   53TMC2    H5 1127   1.518   0.095   9.895
   54TMC2    C1 1128   2.260   3.676  13.930
   54TMC2    C2 1129   2.143   3.701  13.868
   54TMC2    C3 1130   2.026   3.703  13.936
   54TMC2    C4 1131   2.255   3.671  14.063
   54TMC2    C5 1132   2.140   3.677  14.134
   54TMC2    C6 1133   2.022   3.691  14.070
   54TMC2     C 1134   2.371   3.606  13.867
   54TMC2     O 1135   2.416   3.513  13.936
   54TMC2     H 1136   2.134   3.714  13.761
   54TMC2    H1 1137   2.338   3.656  14.131
   54TMC2    H2 1138   1.927   3.673  14.119
   54TMC2    C7 1139   2.136   3.689  14.282
   54TMC2    C8 1140   1.911   3.680  13.856
   54TMC2    O1 1141   2.236   3.649  14.337
   54TMC2    O2 1142   1.908   3.645  13.738
   54TMC2    O5 1143   1.825   3.769  13.910
   54TMC2    H5 1144   1.866   3.816  13.986
   55TMC2    C1 1145   3.808   3.614   8.191
   55TMC2    C2 1146   3.851   3.708   8.100
   55TMC2    C3 1147   3.857   3.664   7.968
   55TMC2    C4 1148   3.764   3.488   8.167
   55TMC2    C5 1149   3.768   3.460   8.029
   55TMC2    C6 1150   3.813   3.541   7.930
   55TMC2     C 1151   3.735   3.664   8.308
   55TMC2     O 1152   3.703   3.585   8.390
   55TMC2     H 1153   3.902   3.795   8.140
   55TMC2    H1 1154   3.721   3.424   8.243
   55TMC2    H2 1155   3.836   3.494   7.835
   55TMC2    C7 1156   3.722   3.331   7.980
   55TMC2    C8 1157   3.944   3.734   7.880
   55TMC2    O1 1158   3.692   3.294   7.868
   55TMC2    O2 1159   3.996   3.688   7.774
   55TMC2    O5 1160   3.915   3.863   7.909
   55TMC2    H5 1161   3.839   3.872   7.970
   56TMC2    C1 1162   2.234   1.481  14.689
   56TMC2    C2 1163   2.266   1.553  14.573
   56TMC2    C3 1164   2.394   1.612  14.563
   56TMC2    C4 1165   2.329   1.464  14.788
   56TMC2    C5 1166   2.448   1.524  14.773
   56TMC2    C6 1167   2.485   1.606  14.661
   56TMC2     C 1168   2.096   1.428  14.702
   56TMC2     O 1169   2.016   1.492  14.637
   56TMC2     H 1170   2.190   1.576  14.500
   56TMC2    H1 1171   2.311   1.395  14.870
   56TMC2    H2 1172   2.584   1.647  14.645
   56TMC2    C7 1173   2.559   1.495  14.863
   56TMC2    C8 1174   2.437   1.687  14.453
   56TMC2    O1 1175   2.674   1.508  14.826
   56TMC2    O2 1176   2.499   1.793  14.468
   56TMC2    O5 1177   2.340   1.669  14.357
   56TMC2    H5 1178   2.292   1.584  14.355
   57TMC2    C1 1179   3.821   0.966   8.658
   57TMC2    C2 1180   3.854   1.087   8.721
   57TMC2    C3 1181   3.969   1.085   8.794
   57TMC2    C4 1182   3.897   0.850   8.671
   57TMC2    C5 1183   4.006   0.857   8.748
   57TMC2    C6 1184   4.050   0.972   8.813
   57TMC2     C 1185   3.696   0.957   8.586
   57TMC2     O 1186   3.662   0.854   8.529
   57TMC2     H 1187   3.777   1.160   8.744
   57TMC2    H1 1188   3.870   0.753   8.629
   57TMC2    H2 1189   4.149   0.994   8.852
   57TMC2    C7 1190   4.079   0.735   8.779
   57TMC2    C8 1191   4.008   1.207   8.865
   57TMC2    O1 1192   4.132   0.737   8.895
   57TMC2    O2 1193   4.109   1.208   8.931
   57TMC2    O5 1194   3.977   1.304   8.787
   57TMC2    H5 1195   3.926   1.275   8.708
   58TMC2    C1 1196   1.248   3.022  14.573
   58TMC2    C2 1197   1.333   3.092  14.491
   58TMC2    C3 1198   1.377   3.031  14.377
   58TMC2    C4 1199   1.186   2.909  14.531
   58TMC2    C5 1200   1.223   2.850  14.414
   58TMC2    C6 1201   1.323   2.907  14.339
   58TMC2     C 1202   1.204   3.084  14.695
   58TMC2     O 1203   1.148   3.005  14.772
   58TMC2     H 1204   1.383   3.184  14.521
   58TMC2    H1 1205   1.130   2.848  14.601
   58TMC2    H2 1206   1.381   2.857  14.262
   58TMC2    C7 1207   1.148   2.744  14.350
   58TMC2    C8 1208   1.501   3.073  14.318
   58TMC2    O1 1209   1.203   2.704  14.248
   58TMC2    O2 1210   1.602   3.008  14.290
   58TMC2    O5 1211   1.495   3.205  14.315
   58TMC2    H5 1212   1.403   3.239  14.317
   59TMC2    C1 1213   2.326   0.424  13.266
   59TMC2    C2 1214   2.421   0.352  13.195
   59TMC2    C3 1215   2.554   0.364  13.231
   59TMC2    C4 1216   2.366   0.500  13.374
   59TMC2    C5 1217   2.500   0.521  13.386
   59TMC2    C6 1218   2.600   0.448  13.323
   59TMC2     C 1219   2.182   0.399  13.236
   59TMC2     O 1220   2.160   0.354  13.124
   59TMC2     H 1221   2.404   0.289  13.108
   59TMC2    H1 1222   2.297   0.567  13.424
   59TMC2    H2 1223   2.707   0.458  13.341
   59TMC2    C7 1224   2.545   0.582  13.508
   59TMC2    C8 1225   2.645   0.320  13.126
   59TMC2    O1 1226   2.633   0.527  13.570
   59TMC2    O2 1227   2.627   0.217  13.072
   59TMC2    O5 1228   2.691   0.428  13.060
   59TMC2    H5 1229   2.684   0.517  13.102
   60TMC2    C1 1230   1.234   2.639  10.916
   60TMC2    C2 1231   1.354   2.577  10.901
   60TMC2    C3 1232   1.356   2.439  10.908
   60TMC2    C4 1233   1.118   2.572  10.906
   60TMC2    C5 1234   1.125   2.435  10.901
   60TMC2    C6 1235   1.245   2.366  10.903
   60TMC2     C 1236   1.240   2.781  10.914
   60TMC2     O 1237   1.338   2.826  10.862
   60TMC2     H 1238   1.444   2.636  10.913
   60TMC2    H1 1239   1.020   2.618  10.912
   60TMC2    H2 1240   1.250   2.258  10.903
   60TMC2    C7 1241   1.009   2.349  10.900
   60TMC2    C8 1242   1.483   2.382  10.937
   60TMC2    O1 1243   1.031   2.230  10.914
   60TMC2    O2 1244   1.584   2.422  10.877
   60TMC2    O5 1245   1.485   2.351  11.067
   60TMC2    H5 1246   1.393   2.357  11.098
   61TMC2    C1 1247   4.454   3.689   9.929
   61TMC2    C2 1248   4.530   3.726   9.826
   61TMC2    C3 1249   4.540   3.642   9.717
   61TMC2    C4 1250   4.379   3.573   9.917
   61TMC2    C5 1251   4.392   3.494   9.805
   61TMC2    C6 1252   4.474   3.526   9.703
   61TMC2     C 1253   4.404   3.779  10.035
   61TMC2     O 1254   4.325   3.729  10.115
   61TMC2     H 1255   4.590   3.817   9.832
   61TMC2    H1 1256   4.313   3.533   9.994
   61TMC2    H2 1257   4.468   3.477   9.607
   61TMC2    C7 1258   4.282   3.405   9.772
   61TMC2    C8 1259   4.590   3.698   9.586
   61TMC2    O1 1260   4.299   3.334   9.676
   61TMC2    O2 1261   4.546   3.652   9.480
   61TMC2    O5 1262   4.719   3.738   9.599
   61TMC2    H5 1263   4.743   3.734   9.694
   62TMC2    C1 1264   0.748   0.701  10.504
   62TMC2    C2 1265   0.713   0.570  10.515
   62TMC2    C3 1266   0.581   0.543  10.558
   62TMC2    C4 1267   0.677   0.795  10.575
   62TMC2    C5 1268   0.564   0.766  10.640
   62TMC2    C6 1269   0.509   0.639  10.621
   62TMC2     C 1270   0.887   0.727  10.462
   62TMC2     O 1271   0.961   0.628  10.467
   62TMC2     H 1272   0.774   0.490  10.475
   62TMC2    H1 1273   0.720   0.895  10.576
   62TMC2    H2 1274   0.408   0.614  10.654
   62TMC2    C7 1275   0.489   0.889  10.671
   62TMC2    C8 1276   0.523   0.409  10.555
   62TMC2    O1 1277   0.552   0.989  10.706
   62TMC2    O2 1278   0.441   0.369  10.638
   62TMC2    O5 1279   0.576   0.341  10.449
   62TMC2    H5 1280   0.624   0.392  10.380
   63TMC2    C1 1281   3.865   4.025   6.953
   63TMC2    C2 1282   3.950   4.043   7.067
   63TMC2    C3 1283   4.055   4.127   7.041
   63TMC2    C4 1284   3.887   4.086   6.836
   63TMC2    C5 1285   4.001   4.168   6.816
   63TMC2    C6 1286   4.084   4.192   6.918
   63TMC2     C 1287   3.736   3.965   6.986
   63TMC2     O 1288   3.728   3.901   7.092
   63TMC2     H 1289   3.942   3.990   7.161
   63TMC2    H1 1290   3.840   4.047   6.747
   63TMC2    H2 1291   4.184   4.232   6.905
   63TMC2    C7 1292   4.052   4.197   6.681
   63TMC2    C8 1293   4.151   4.137   7.156
   63TMC2    O1 1294   4.172   4.224   6.692
   63TMC2    O2 1295   4.172   4.040   7.226
   63TMC2    O5 1296   4.251   4.231   7.135
   63TMC2    H5 1297   4.217   4.309   7.086
   64TMC2    C1 1298   3.523   1.456   7.604
   64TMC2    C2 1299   3.429   1.390   7.528
   64TMC2    C3 1300   3.469   1.325   7.416
   64TMC2    C4 1301   3.657   1.449   7.574
   64TMC2    C5 1302   3.692   1.376   7.466
   64TMC2    C6 1303   3.602   1.299   7.388
   64TMC2     C 1304   3.468   1.538   7.703
   64TMC2     O 1305   3.352   1.523   7.741
   64TMC2     H 1306   3.327   1.420   7.547
   64TMC2    H1 1307   3.734   1.516   7.611
   64TMC2    H2 1308   3.629   1.269   7.288
   64TMC2    C7 1309   3.817   1.424   7.407
   64TMC2    C8 1310   3.372   1.241   7.343
   64TMC2    O1 1311   3.841   1.543   7.406
   64TMC2    O2 1312   3.418   1.168   7.257
   64TMC2    O5 1313   3.282   1.203   7.432
   64TMC2    H5 1314   3.231   1.272   7.480
   65TMC2    C1 1315   0.592   4.357   6.872
   65TMC2    C2 1316   0.713   4.287   6.865
   65TMC2    C3 1317   0.712   4.156   6.912
   65TMC2    C4 1318   0.471   4.302   6.913
   65TMC2    C5 1319   0.470   4.170   6.944
   65TMC2    C6 1320   0.590   4.097   6.946
   65TMC2     C 1321   0.585   4.481   6.798
   65TMC2     O 1322   0.689   4.539   6.777
   65TMC2     H 1323   0.800   4.326   6.814
   65TMC2    H1 1324   0.382   4.363   6.920
   65TMC2    H2 1325   0.581   3.993   6.977
   65TMC2    C7 1326   0.349   4.106   6.985
   65TMC2    C8 1327   0.830   4.073   6.905
   65TMC2    O1 1328   0.365   4.012   7.063
   65TMC2    O2 1329   0.918   4.081   6.821
   65TMC2    O5 1330   0.825   3.985   7.006
   65TMC2    H5 1331   0.755   4.003   7.072
   66TMC2    C1 1332   3.084   0.878  15.296
   66TMC2    C2 1333   2.960   0.916  15.334
   66TMC2    C3 1334   2.902   0.868  15.450
   66TMC2    C4 1335   3.145   0.763  15.352
   66TMC2    C5 1336   3.074   0.710  15.458
   66TMC2    C6 1337   2.956   0.758  15.509
   66TMC2     C 1338   3.122   0.891  15.148
   66TMC2     O 1339   3.035   0.914  15.064
   66TMC2     H 1340   2.931   1.001  15.274
   66TMC2    H1 1341   3.232   0.717  15.307
   66TMC2    H2 1342   2.903   0.715  15.594
   66TMC2    C7 1343   3.092   0.572  15.468
   66TMC2    C8 1344   2.830   0.962  15.529
   66TMC2    O1 1345   2.995   0.507  15.502
   66TMC2    O2 1346   2.826   0.949  15.653
   66TMC2    O5 1347   2.751   1.040  15.452
   66TMC2    H5 1348   2.765   1.030  15.355
   67TMC2    C1 1349   3.611   0.004   7.115
   67TMC2    C2 1350   3.568   0.030   7.246
   67TMC2    C3 1351   3.662   0.053   7.345
   67TMC2    C4 1352   3.744   0.001   7.084
   67TMC2    C5 1353   3.833   0.016   7.187
   67TMC2    C6 1354   3.789   0.043   7.316
   67TMC2     C 1355   3.507   0.010   7.018
   67TMC2     O 1356   3.397   4.764   7.057
   67TMC2     H 1357   3.464   0.024   7.274
   67TMC2    H1 1358   3.776   4.751   6.988
   67TMC2    H2 1359   3.859   0.057   7.398
   67TMC2    C7 1360   3.973   4.767   7.160
   67TMC2    C8 1361   3.626   0.078   7.484
   67TMC2    O1 1362   4.015   4.695   7.069
   67TMC2    O2 1363   3.691   0.036   7.578
   67TMC2    O5 1364   3.506   0.142   7.474
   67TMC2    H5 1365   3.501   0.184   7.386
   68TMC2    C1 1366   3.349   0.823   7.350
   68TMC2    C2 1367   3.433   0.720   7.308
   68TMC2    C3 1368   3.553   0.725   7.370
   68TMC2    C4 1369   3.368   0.898   7.462
   68TMC2    C5 1370   3.486   0.888   7.526
   68TMC2    C6 1371   3.586   0.809   7.474
   68TMC2     C 1372   3.230   0.844   7.264
   68TMC2     O 1373   3.210   0.759   7.178
   68TMC2     H 1374   3.408   0.648   7.231
   68TMC2    H1 1375   3.296   0.973   7.491
   68TMC2    H2 1376   3.692   0.823   7.489
   68TMC2    C7 1377   3.525   0.999   7.613
   68TMC2    C8 1378   3.655   0.634   7.323
   68TMC2    O1 1379   3.644   1.022   7.608
   68TMC2    O2 1380   3.754   0.612   7.386
   68TMC2    O5 1381   3.649   0.620   7.187
   68TMC2    H5 1382   3.580   0.674   7.143
   69TMC2    C1 1383   0.265   1.814   6.934
   69TMC2    C2 1384   0.300   1.878   7.047
   69TMC2    C3 1385   0.196   1.921   7.128
   69TMC2    C4 1386   0.132   1.777   6.910
   69TMC2    C5 1387   0.035   1.810   7.005
   69TMC2    C6 1388   0.063   1.886   7.113
   69TMC2     C 1389   0.373   1.745   6.861
   69TMC2     O 1390   0.476   1.714   6.920
   69TMC2     H 1391   0.401   1.902   7.076
   69TMC2    H1 1392   0.099   1.722   6.823
   69TMC2    H2 1393   4.778   1.932   7.179
   69TMC2    C7 1394   4.730   1.699   7.010
   69TMC2    C8 1395   0.231   2.019   7.232
   69TMC2    O1 1396   4.695   1.649   6.902
   69TMC2    O2 1397   0.335   2.083   7.224
   69TMC2    O5 1398   0.127   2.049   7.307
   69TMC2    H5 1399   0.083   1.964   7.328
   70TMC2    C1 1400   0.630   0.222   6.875
   70TMC2    C2 1401   0.543   0.111   6.888
   70TMC2    C3 1402   0.413   0.142   6.893
   70TMC2    C4 1403   0.583   0.352   6.867
   70TMC2    C5 1404   0.451   0.368   6.889
   70TMC2    C6 1405   0.368   0.268   6.903
   70TMC2     C 1406   0.775   0.204   6.866
   70TMC2     O 1407   0.823   0.287   6.784
   70TMC2     H 1408   0.580   0.009   6.895
   70TMC2    H1 1409   0.656   0.432   6.862
   70TMC2    H2 1410   0.261   0.274   6.916
   70TMC2    C7 1411   0.413   0.496   6.943
   70TMC2    C8 1412   0.333   0.043   6.962
   70TMC2    O1 1413   0.483   0.589   6.915
   70TMC2    O2 1414   0.391   4.762   7.046
   70TMC2    O5 1415   0.255   4.773   6.866
   70TMC2    H5 1416   0.225   0.046   6.795
   71TMC2    C1 1417   0.886   3.445  10.318
   71TMC2    C2 1418   0.999   3.519  10.307
   71TMC2    C3 1419   1.001   3.649  10.340
   71TMC2    C4 1420   0.767   3.505  10.349
   71TMC2    C5 1421   0.768   3.639  10.381
   71TMC2    C6 1422   0.883   3.710  10.377
   71TMC2     C 1423   0.890   3.308  10.344
   71TMC2     O 1424   0.805   3.237  10.292
   71TMC2     H 1425   1.093   3.474  10.277
   71TMC2    H1 1426   0.683   3.437  10.353
   71TMC2    H2 1427   0.872   3.816  10.392
   71TMC2    C7 1428   0.642   3.705  10.414
   71TMC2    C8 1429   1.125   3.723  10.357
   71TMC2    O1 1430   0.636   3.829  10.416
   71TMC2    O2 1431   1.115   3.838  10.403
   71TMC2    O5 1432   1.212   3.693  10.259
   71TMC2    H5 1433   1.275   3.766  10.244
   72TMC2    C1 1434   0.831   4.695  10.896
   72TMC2    C2 1435   0.768   4.577  10.876
   72TMC2    C3 1436   0.742   4.496  10.981
   72TMC2    C4 1437   0.873   4.736  11.017
   72TMC2    C5 1438   0.878   4.640  11.118
   72TMC2    C6 1439   0.803   4.521  11.103
   72TMC2     C 1440   0.869   4.774  10.787
   72TMC2     O 1441   0.899   0.106  10.815
   72TMC2     H 1442   0.711   4.562  10.785
   72TMC2    H1 1443   0.933   0.039  11.023
   72TMC2    H2 1444   0.778   4.468  11.195
   72TMC2    C7 1445   0.937   4.669  11.246
   72TMC2    C8 1446   0.652   4.382  10.956
   72TMC2    O1 1447   0.964   4.574  11.318
   72TMC2    O2 1448   0.622   4.335  10.847
   72TMC2    O5 1449   0.563   4.402  11.062
   72TMC2    H5 1450   0.587   4.489  11.099
   73TMC2    C1 1451   4.672   3.844   6.231
   73TMC2    C2 1452   4.780   3.905   6.287
   73TMC2    C3 1453   4.770   4.032   6.332
   73TMC2    C4 1454   4.559   3.912   6.229
   73TMC2    C5 1455   4.549   4.042   6.275
   73TMC2    C6 1456   4.658   4.108   6.336
   73TMC2     C 1457   4.672   3.704   6.194
   73TMC2     O 1458   4.578   3.669   6.124
   73TMC2     H 1459   0.093   3.865   6.277
   73TMC2    H1 1460   4.469   3.863   6.193
   73TMC2    H2 1461   4.658   4.204   6.386
   73TMC2    C7 1462   4.423   4.105   6.294
   73TMC2    C8 1463   0.103   4.105   6.373
   73TMC2    O1 1464   4.423   4.195   6.382
   73TMC2    O2 1465   0.106   4.226   6.371
   73TMC2    O5 1466   0.164   4.039   6.471
   73TMC2    H5 1467   0.144   3.944   6.485
   74TMC2    C1 1468   1.216   2.131  14.142
   74TMC2    C2 1469   1.127   2.070  14.222
   74TMC2    C3 1470   1.156   2.060  14.360
   74TMC2    C4 1471   1.336   2.172  14.184
   74TMC2    C5 1472   1.362   2.155  14.315
   74TMC2    C6 1473   1.273   2.108  14.406
   74TMC2     C 1474   1.160   2.199  14.030
   74TMC2     O 1475   1.057   2.155  13.969
   74TMC2     H 1476   1.030   2.034  14.188
   74TMC2    H1 1477   1.413   2.219  14.124
   74TMC2    H2 1478   1.305   2.095  14.509
   74TMC2    C7 1479   1.488   2.223  14.365
   74TMC2    C8 1480   1.059   2.035  14.456
   74TMC2    O1 1481   1.593   2.197  14.314
   74TMC2    O2 1482   0.978   1.940  14.446
   74TMC2    O5 1483   1.040   2.155  14.519
   74TMC2    H5 1484   1.107   2.225  14.505
   75TMC2    C1 1485   2.966   1.009   8.579
   75TMC2    C2 1486   2.913   1.106   8.497
   75TMC2    C3 1487   2.981   1.224   8.493
   75TMC2    C4 1488   3.057   1.037   8.672
   75TMC2    C5 1489   3.115   1.165   8.677
   75TMC2    C6 1490   3.070   1.263   8.593
   75TMC2     C 1491   2.912   0.878   8.564
   75TMC2     O 1492   2.811   0.869   8.497
   75TMC2     H 1493   2.861   1.070   8.409
   75TMC2    H1 1494   3.082   0.964   8.748
   75TMC2    H2 1495   3.131   1.351   8.581
   75TMC2    C7 1496   3.147   1.213   8.806
   75TMC2    C8 1497   2.925   1.339   8.424
   75TMC2    O1 1498   3.151   1.335   8.817
   75TMC2    O2 1499   2.944   1.458   8.459
   75TMC2    O5 1500   2.922   1.302   8.300
   75TMC2    H5 1501   2.944   1.207   8.286
   76TMC2    C1 1502   3.160   4.580   7.656
   76TMC2    C2 1503   3.195   4.672   7.742
   76TMC2    C3 1504   3.325   4.720   7.736
   76TMC2    C4 1505   3.236   4.528   7.565
   76TMC2    C5 1506   3.368   4.560   7.566
   76TMC2    C6 1507   3.420   4.660   7.654
   76TMC2     C 1508   3.047   4.502   7.703
   76TMC2     O 1509   3.023   4.505   7.820
   76TMC2     H 1510   3.117   4.728   7.793
   76TMC2    H1 1511   3.202   4.462   7.485
   76TMC2    H2 1512   3.520   4.691   7.682
   76TMC2    C7 1513   3.451   4.522   7.451
   76TMC2    C8 1514   3.354   0.070   7.765
   76TMC2    O1 1515   3.391   4.486   7.349
   76TMC2    O2 1516   3.416   0.093   7.870
   76TMC2    O5 1517   3.251   0.138   7.727
   76TMC2    H5 1518   3.214   0.107   7.642
   77TMC2    C1 1519   0.841   3.419   8.858
   77TMC2    C2 1520   0.732   3.401   8.784
   77TMC2    C3 1521   0.726   3.433   8.652
   77TMC2    C4 1522   0.951   3.463   8.791
   77TMC2    C5 1523   0.945   3.506   8.662
   77TMC2    C6 1524   0.834   3.491   8.584
   77TMC2     C 1525   0.827   3.496   8.981
   77TMC2     O 1526   0.923   3.492   9.055
   77TMC2     H 1527   0.643   3.352   8.820
   77TMC2    H1 1528   1.038   3.481   8.854
   77TMC2    H2 1529   0.835   3.508   8.476
   77TMC2    C7 1530   1.067   3.559   8.604
   77TMC2    C8 1531   0.611   3.395   8.579
   77TMC2    O1 1532   1.113   3.506   8.504
   77TMC2    O2 1533   0.500   3.380   8.633
   77TMC2    O5 1534   0.675   3.309   8.503
   77TMC2    H5 1535   0.771   3.313   8.483
   78TMC2    C1 1536   0.555   3.487   9.550
   78TMC2    C2 1537   0.641   3.383   9.556
   78TMC2    C3 1538   0.777   3.411   9.560
   78TMC2    C4 1539   0.592   3.618   9.539
   78TMC2    C5 1540   0.725   3.638   9.567
   78TMC2    C6 1541   0.821   3.542   9.559
   78TMC2     C 1542   0.417   3.462   9.521
   78TMC2     O 1543   0.366   3.545   9.451
   78TMC2     H 1544   0.616   3.278   9.542
   78TMC2    H1 1545   0.533   3.703   9.509
   78TMC2    H2 1546   0.926   3.552   9.586
   78TMC2    C7 1547   0.742   3.721   9.684
   78TMC2    C8 1548   0.863   3.307   9.616
   78TMC2    O1 1549   0.646   3.741   9.756
   78TMC2    O2 1550   0.908   3.317   9.731
   78TMC2    O5 1551   0.945   3.295   9.506
   78TMC2    H5 1552   0.895   3.276   9.424
   79TMC2    C1 1553   2.174   3.287  14.120
   79TMC2    C2 1554   2.264   3.327  14.212
   79TMC2    C3 1555   2.396   3.299  14.189
   79TMC2    C4 1556   2.209   3.218  14.011
   79TMC2    C5 1557   2.340   3.182  13.990
   79TMC2    C6 1558   2.436   3.233  14.072
   79TMC2     C 1559   2.039   3.331  14.118
   79TMC2     O 1560   1.975   3.331  14.015
   79TMC2     H 1561   2.242   3.398  14.291
   79TMC2    H1 1562   2.135   3.171  13.948
   79TMC2    H2 1563   2.538   3.199  14.069
   79TMC2    C7 1564   2.384   3.085  13.897
   79TMC2    C8 1565   2.484   3.376  14.277
   79TMC2    O1 1566   2.478   3.017  13.938
   79TMC2    O2 1567   2.490   3.365  14.398
   79TMC2    O5 1568   2.517   3.480  14.200
   79TMC2    H5 1569   2.481   3.472  14.109
   80TMC2    C1 1570   0.240   1.637   8.546
   80TMC2    C2 1571   0.214   1.591   8.419
   80TMC2    C3 1572   0.258   1.658   8.309
   80TMC2    C4 1573   0.320   1.751   8.558
   80TMC2    C5 1574   0.357   1.820   8.447
   80TMC2    C6 1575   0.323   1.777   8.320
   80TMC2     C 1576   0.227   1.542   8.658
   80TMC2     O 1577   0.310   1.570   8.742
   80TMC2     H 1578   0.158   1.499   8.406
   80TMC2    H1 1579   0.336   1.797   8.655
   80TMC2    H2 1580   0.370   1.827   8.235
   80TMC2    C7 1581   0.402   1.957   8.456
   80TMC2    C8 1582   0.199   1.635   8.182
   80TMC2    O1 1583   0.460   1.992   8.358
   80TMC2    O2 1584   0.188   1.727   8.102
   80TMC2    O5 1585   0.249   1.514   8.144
   80TMC2    H5 1586   0.299   1.461   8.210
   81TMC2    C1 1587   0.880   4.611   9.933
   81TMC2    C2 1588   0.975   4.702   9.891
   81TMC2    C3 1589   0.929   0.008   9.800
   81TMC2    C4 1590   0.752   4.588   9.881
   81TMC2    C5 1591   0.708   4.697   9.807
   81TMC2    C6 1592   0.795   0.007   9.761
   81TMC2     C 1593   0.860   4.634  10.075
   81TMC2     O 1594   0.919   4.729  10.121
   81TMC2     H 1595   1.069   4.717   9.943
   81TMC2    H1 1596   0.685   4.510   9.915
   81TMC2    H2 1597   0.756   0.081   9.693
   81TMC2    C7 1598   0.607   4.768   9.883
   81TMC2    C8 1599   1.025   0.101   9.754
   81TMC2    O1 1600   0.605   0.102   9.882
   81TMC2    O2 1601   1.142   0.119   9.790
   81TMC2    O5 1602   0.985   0.151   9.632
   81TMC2    H5 1603   0.902   0.109   9.601
   82TMC2    C1 1604   4.605   2.983  14.639
   82TMC2    C2 1605   4.635   3.087  14.726
   82TMC2    C3 1606   4.766   3.121  14.739
   82TMC2    C4 1607   4.707   2.897  14.595
   82TMC2    C5 1608   0.046   2.937  14.612
   82TMC2    C6 1609   0.077   3.054  14.677
   82TMC2     C 1610   4.481   2.981  14.558
   82TMC2     O 1611   4.449   2.876  14.502
   82TMC2     H 1612   4.558   3.138  14.783
   82TMC2    H1 1613   4.689   2.801  14.546
   82TMC2    H2 1614   0.182   3.078  14.691
   82TMC2    C7 1615   0.151   2.878  14.536
   82TMC2    C8 1616   0.015   3.229  14.827
   82TMC2    O1 1617   0.135   2.761  14.500
   82TMC2    O2 1618   4.712   3.304  14.855
   82TMC2    O5 1619   0.118   3.200  14.912
   82TMC2    H5 1620   0.150   3.108  14.895
   83TMC2    C1 1621   2.571   0.380  13.864
   83TMC2    C2 1622   2.494   0.439  13.961
   83TMC2    C3 1623   2.551   0.462  14.082
   83TMC2    C4 1624   2.699   0.336  13.900
   83TMC2    C5 1625   2.741   0.349  14.026
   83TMC2    C6 1626   2.671   0.411  14.123
   83TMC2     C 1627   2.493   0.307  13.762
   83TMC2     O 1628   2.373   0.294  13.777
   83TMC2     H 1629   2.394   0.476  13.943
   83TMC2    H1 1630   2.760   0.271  13.839
   83TMC2    H2 1631   2.720   0.459  14.206
   83TMC2    C7 1632   2.851   0.263  14.064
   83TMC2    C8 1633   2.459   0.538  14.165
   83TMC2    O1 1634   2.933   0.234  13.978
   83TMC2    O2 1635   2.371   0.616  14.121
   83TMC2    O5 1636   2.452   0.468  14.280
   83TMC2    H5 1637   2.546   0.459  14.308
   84TMC2    C1 1638   3.636   0.011   8.368
   84TMC2    C2 1639   3.699   0.112   8.436
   84TMC2    C3 1640   3.622   0.226   8.467
   84TMC2    C4 1641   3.499   0.017   8.340
   84TMC2    C5 1642   3.430   0.139   8.368
   84TMC2    C6 1643   3.490   0.240   8.437
   84TMC2     C 1644   3.718   4.678   8.351
   84TMC2     O 1645   3.808   4.657   8.431
   84TMC2     H 1646   3.807   0.106   8.446
   84TMC2    H1 1647   3.458   4.721   8.285
   84TMC2    H2 1648   3.438   0.323   8.483
   84TMC2    C7 1649   3.286   0.150   8.334
   84TMC2    C8 1650   3.682   0.332   8.535
   84TMC2    O1 1651   3.216   0.050   8.332
   84TMC2    O2 1652   3.623   0.439   8.540
   84TMC2    O5 1653   3.795   0.307   8.598
   84TMC2    H5 1654   3.816   0.211   8.600
   85TMC2    C1 1655   4.273   1.921  14.561
   85TMC2    C2 1656   4.299   1.812  14.644
   85TMC2    C3 1657   4.423   1.810  14.693
   85TMC2    C4 1658   4.365   2.016  14.525
   85TMC2    C5 1659   4.489   1.996  14.571
   85TMC2    C6 1660   4.523   1.898  14.660
   85TMC2     C 1661   4.138   1.938  14.515
   85TMC2     O 1662   4.047   1.909  14.596
   85TMC2     H 1663   4.223   1.737  14.662
   85TMC2    H1 1664   4.340   2.101  14.462
   85TMC2    H2 1665   4.618   1.906  14.712
   85TMC2    C7 1666   4.573   2.111  14.594
   85TMC2    C8 1667   4.440   1.715  14.795
   85TMC2    O1 1668   4.693   2.090  14.584
   85TMC2    O2 1669   4.458   1.601  14.758
   85TMC2    O5 1670   4.349   1.751  14.889
   85TMC2    H5 1671   4.338   1.848  14.897
   86TMC2    C1 1672   2.870   4.359   9.142
   86TMC2    C2 1673   2.845   4.464   9.232
   86TMC2    C3 1674   2.815   4.429   9.364
   86TMC2    C4 1675   2.868   4.229   9.182
   86TMC2    C5 1676   2.858   4.200   9.316
   86TMC2    C6 1677   2.822   4.303   9.413
   86TMC2     C 1678   2.917   4.384   9.004
   86TMC2     O 1679   2.983   4.300   8.945
   86TMC2     H 1680   2.852   4.566   9.197
   86TMC2    H1 1681   2.883   4.150   9.109
   86TMC2    H2 1682   2.808   4.276   9.517
   86TMC2    C7 1683   2.965   4.118   9.362
   86TMC2    C8 1684   2.751   4.536   9.438
   86TMC2    O1 1685   2.995   4.109   9.482
   86TMC2    O2 1686   2.778   4.653   9.407
   86TMC2    O5 1687   2.707   4.500   9.562
   86TMC2    H5 1688   2.690   4.403   9.562
   87MPD1     C 1689   1.201   3.986   7.456
   87MPD1    C1 1690   1.320   3.992   7.393
   87MPD1    C2 1691   1.329   3.944   7.268
   87MPD1    C3 1692   1.217   3.896   7.194
   87MPD1    C4 1693   1.100   3.888   7.262
   87MPD1    C5 1694   1.092   3.940   7.392
   87MPD1     H 1695   1.425   3.955   7.219
   87MPD1    H1 1696   1.002   3.873   7.218
   87MPD1    H2 1697   1.187   4.007   7.562
   87MPD1    H3 1698   1.000   3.920   7.447
   87MPD1     N 1699   1.233   3.859   7.062
   87MPD1    H5 1700   1.324   3.883   7.023
   87MPD1    N1 1701   1.425   4.057   7.465
   87MPD1    H6 1702   1.520   4.043   7.431
   87MPD1    H7 1703   1.431   4.020   7.560
   88MPD1     C 1704   4.194   1.664   9.696
   88MPD1    C1 1705   4.082   1.651   9.774
   88MPD1    C2 1706   4.046   1.745   9.864
   88MPD1    C3 1707   4.128   1.854   9.883
   88MPD1    C4 1708   4.242   1.863   9.805
   88MPD1    C5 1709   4.277   1.771   9.707
   88MPD1     H 1710   3.954   1.743   9.922
   88MPD1    H1 1711   4.308   1.949   9.812
   88MPD1    H2 1712   4.214   1.599   9.611
   88MPD1    H3 1713   4.370   1.770   9.652
   88MPD1     N 1714   4.078   1.955   9.968
   88MPD1    H5 1715   3.994   1.931  10.020
   88MPD1    N1 1716   3.978   1.562   9.738
   88MPD1    H6 1717   4.021   1.479   9.699
   88MPD1    H7 1718   3.916   1.545   9.817
   89MPD1     C 1719   2.351   3.632  11.735
   89MPD1    C1 1720   2.271   3.530  11.696
   89MPD1    C2 1721   2.287   3.408  11.759
   89MPD1    C3 1722   2.354   3.394  11.882
   89MPD1    C4 1723   2.425   3.507  11.920
   89MPD1    C5 1724   2.426   3.623  11.848
   89MPD1     H 1725   2.242   3.321  11.713
   89MPD1    H1 1726   2.473   3.503  12.018
   89MPD1    H2 1727   2.358   3.723  11.676
   89MPD1    H3 1728   2.479   3.706  11.892
   89MPD1     N 1729   2.387   3.271  11.953
   89MPD1    H5 1730   2.460   3.273  12.023
   89MPD1    N1 1731   2.197   3.549  11.582
   89MPD1    H6 1732   2.118   3.486  11.589
   89MPD1    H7 1733   2.155   3.637  11.555
   90MPD1     C 1734   0.729   1.846  13.700
   90MPD1    C1 1735   0.767   1.943  13.615
   90MPD1    C2 1736   0.894   1.993  13.615
   90MPD1    C3 1737   0.990   1.928  13.701
   90MPD1    C4 1738   0.951   1.815  13.771
   90MPD1    C5 1739   0.819   1.779  13.775
   90MPD1     H 1740   0.922   2.084  13.562
   90MPD1    H1 1741   1.021   1.758  13.831
   90MPD1    H2 1742   0.624   1.819  13.705
   90MPD1    H3 1743   0.783   1.701  13.842
   90MPD1     N 1744   1.118   1.971  13.721
   90MPD1    H5 1745   1.172   1.931  13.796
   90MPD1    N1 1746   0.666   2.012  13.546
   90MPD1    H6 1747   0.585   1.952  13.528
   90MPD1    H7 1748   0.700   2.050  13.458
   91MPD1     C 1749   3.007   2.423  10.767
   91MPD1    C1 1750   2.877   2.431  10.721
   91MPD1    C2 1751   2.809   2.314  10.694
   91MPD1    C3 1752   2.873   2.195  10.702
   91MPD1    C4 1753   3.002   2.188  10.759
   91MPD1    C5 1754   3.070   2.302  10.787
   91MPD1     H 1755   2.706   2.316  10.661
   91MPD1    H1 1756   3.060   2.098  10.776
   91MPD1    H2 1757   3.069   2.511  10.779
   91MPD1    H3 1758   3.172   2.293  10.823
   91MPD1     N 1759   2.800   2.076  10.665
   91MPD1    H5 1760   2.708   2.099  10.630
   91MPD1    N1 1761   2.820   2.552  10.686
   91MPD1    H6 1762   2.718   2.540  10.688
   91MPD1    H7 1763   2.842   2.634  10.742
   92MPD1     C 1764   2.870   1.094  10.965
   92MPD1    C1 1765   2.735   1.137  10.956
   92MPD1    C2 1766   2.706   1.258  10.900
   92MPD1    C3 1767   2.805   1.347  10.858
   92MPD1    C4 1768   2.937   1.308  10.886
   92MPD1    C5 1769   2.967   1.183  10.936
   92MPD1     H 1770   2.601   1.271  10.874
   92MPD1    H1 1771   3.015   1.376  10.855
   92MPD1    H2 1772   2.887   0.992  10.999
   92MPD1    H3 1773   3.071   1.156  10.950
   92MPD1     N 1774   2.774   1.463  10.780
   92MPD1    H5 1775   2.854   1.516  10.747
   92MPD1    N1 1776   2.632   1.044  10.975
   92MPD1    H6 1777   2.547   1.091  11.006
   92MPD1    H7 1778   2.655   0.955  11.019
   93MPD1     C 1779   1.835   4.186  12.050
   93MPD1    C1 1780   1.758   4.207  12.161
   93MPD1    C2 1781   1.682   4.101  12.206
   93MPD1    C3 1782   1.697   3.970  12.150
   93MPD1    C4 1783   1.792   3.950  12.055
   93MPD1    C5 1784   1.855   4.063  11.999
   93MPD1     H 1785   1.617   4.129  12.289
   93MPD1    H1 1786   1.828   3.852  12.025
   93MPD1    H2 1787   1.894   4.269  12.012
   93MPD1    H3 1788   1.930   4.037  11.925
   93MPD1     N 1789   1.620   3.859  12.191
   93MPD1    H5 1790   1.660   3.769  12.165
   93MPD1    N1 1791   1.754   4.335  12.223
   93MPD1    H6 1792   1.671   4.362  12.276
   93MPD1    H7 1793   1.782   4.410  12.160
   94MPD1     C 1794   3.046   0.196  12.871
   94MPD1    C1 1795   3.132   0.307  12.860
   94MPD1    C2 1796   3.144   0.391  12.968
   94MPD1    C3 1797   3.069   0.372  13.079
   94MPD1    C4 1798   2.984   0.262  13.087
   94MPD1    C5 1799   2.972   0.180  12.982
   94MPD1     H 1800   3.209   0.478  12.967
   94MPD1    H1 1801   2.916   0.235  13.167
   94MPD1    H2 1802   3.027   0.120  12.797
   94MPD1    H3 1803   2.904   0.096  12.988
   94MPD1     N 1804   3.083   0.461  13.185
   94MPD1    H5 1805   3.131   0.548  13.164
   94MPD1    N1 1806   3.198   0.331  12.739
   94MPD1    H6 1807   3.233   0.425  12.725
   94MPD1    H7 1808   3.143   0.313  12.656
   95MPD1     C 1809   1.359   0.635   6.556
   95MPD1    C1 1810   1.278   0.706   6.642
   95MPD1    C2 1811   1.143   0.676   6.623
   95MPD1    C3 1812   1.091   0.562   6.563
   95MPD1    C4 1813   1.181   0.491   6.485
   95MPD1    C5 1814   1.309   0.530   6.491
   95MPD1     H 1815   1.068   0.735   6.674
   95MPD1    H1 1816   1.154   0.408   6.421
   95MPD1    H2 1817   1.460   0.671   6.541
   95MPD1    H3 1818   1.380   0.469   6.437
   95MPD1     N 1819   0.955   0.536   6.571
   95MPD1    H5 1820   0.895   0.602   6.619
   95MPD1    N1 1821   1.314   0.826   6.710
   95MPD1    H6 1822   1.410   0.831   6.741
   95MPD1    H7 1823   1.251   0.852   6.786
   96MPD1     C 1824   4.616   0.826  13.070
   96MPD1    C1 1825   4.491   0.764  13.070
   96MPD1    C2 1826   4.381   0.853  13.075
   96MPD1    C3 1827   4.389   0.990  13.052
   96MPD1    C4 1828   4.514   1.042  13.032
   96MPD1    C5 1829   4.625   0.963  13.044
   96MPD1     H 1830   4.281   0.812  13.072
   96MPD1    H1 1831   4.530   1.148  13.021
   96MPD1    H2 1832   4.709   0.774  13.088
   96MPD1    H3 1833   4.723   1.009  13.051
   96MPD1     N 1834   4.285   1.086  13.044
   96MPD1    H5 1835   4.310   1.183  13.025
   96MPD1    N1 1836   4.477   0.625  13.089
   96MPD1    H6 1837   4.391   0.590  13.046
   96MPD1    H7 1838   4.560   0.568  13.081
   97MPD1     C 1839   3.896   4.528  12.164
   97MPD1    C1 1840   3.932   4.449  12.057
   97MPD1    C2 1841   3.914   4.308  12.069
   97MPD1    C3 1842   3.876   4.262  12.197
   97MPD1    C4 1843   3.855   4.344  12.307
   97MPD1    C5 1844   3.857   4.479  12.287
   97MPD1     H 1845   3.930   4.253  11.977
   97MPD1    H1 1846   3.820   4.305  12.401
   97MPD1    H2 1847   3.900   4.636  12.165
   97MPD1    H3 1848   3.846   4.543  12.373
   97MPD1     N 1849   3.858   4.125  12.234
   97MPD1    H5 1850   3.830   4.105  12.330
   97MPD1    N1 1851   3.946   4.506  11.933
   97MPD1    H6 1852   4.014   4.455  11.877
   97MPD1    H7 1853   3.984   4.600  11.936
   98MPD1     C 1854   3.202   0.739  10.914
   98MPD1    C1 1855   3.243   0.673  10.807
   98MPD1    C2 1856   3.154   0.653  10.705
   98MPD1    C3 1857   3.020   0.690  10.718
   98MPD1    C4 1858   2.979   0.760  10.832
   98MPD1    C5 1859   3.069   0.779  10.931
   98MPD1     H 1860   3.186   0.617  10.607
   98MPD1    H1 1861   2.879   0.799  10.850
   98MPD1    H2 1862   3.270   0.761  10.996
   98MPD1    H3 1863   3.038   0.810  11.030
   98MPD1     N 1864   2.937   0.666  10.599
   98MPD1    H5 1865   2.988   0.634  10.518
   98MPD1    N1 1866   3.379   0.669  10.779
   98MPD1    H6 1867   3.399   0.754  10.728
   98MPD1    H7 1868   3.397   0.584  10.725
   99MPD1     C 1869   0.458   1.938   6.527
   99MPD1    C1 1870   0.401   2.043   6.588
   99MPD1    C2 1871   0.447   2.080   6.709
   99MPD1    C3 1872   0.568   2.032   6.755
   99MPD1    C4 1873   0.626   1.925   6.686
   99MPD1    C5 1874   0.574   1.882   6.569
   99MPD1     H 1875   0.399   2.168   6.752
   99MPD1    H1 1876   0.710   1.879   6.736
   99MPD1    H2 1877   0.404   1.897   6.443
   99MPD1    H3 1878   0.611   1.794   6.519
   99MPD1     N 1879   0.636   2.074   6.869
   99MPD1    H5 1880   0.715   2.015   6.896
   99MPD1    N1 1881   0.280   2.104   6.541
   99MPD1    H6 1882   0.279   2.105   6.439
   99MPD1    H7 1883   0.255   2.193   6.583
  100MPD1     C 1884   4.749   1.343  14.658
  100MPD1    C1 1885   0.002   1.470  14.623
  100MPD1    C2 1886   0.119   1.485  14.548
  100MPD1    C3 1887   0.190   1.367  14.505
  100MPD1    C4 1888   0.151   1.248  14.543
  100MPD1    C5 1889   0.044   1.241  14.627
  100MPD1     H 1890   0.159   1.585  14.536
  100MPD1    H1 1891   0.205   1.156  14.524
  100MPD1    H2 1892   4.652   1.325  14.703
  100MPD1    H3 1893   0.019   1.137  14.645
  100MPD1     N 1894   0.310   1.372  14.427
  100MPD1    H5 1895   0.355   1.281  14.419
  100MPD1    N1 1896   4.714   1.582  14.660
  100MPD1    H6 1897   4.617   1.553  14.671
  100MPD1    H7 1898   4.727   1.665  14.603
  101MPD1     C 1899   2.051   1.324   7.756
  101MPD1    C1 1900   2.184   1.352   7.781
  101MPD1    C2 1901   2.230   1.475   7.731
  101MPD1    C3 1902   2.161   1.562   7.654
  101MPD1    C4 1903   2.033   1.518   7.627
  101MPD1    C5 1904   1.972   1.415   7.696
  101MPD1     H 1905   2.327   1.508   7.769
  101MPD1    H1 1906   1.971   1.577   7.560
  101MPD1    H2 1907   2.011   1.235   7.804
  101MPD1    H3 1908   1.870   1.387   7.670
  101MPD1     N 1909   2.223   1.679   7.598
  101MPD1    H5 1910   2.313   1.702   7.639
  101MPD1    N1 1911   2.264   1.280   7.871
  101MPD1    H6 1912   2.243   1.180   7.872
  101MPD1    H7 1913   2.364   1.291   7.856
  102MPD1     C 1914   1.113   4.252   7.096
  102MPD1    C1 1915   1.111   4.331   7.206
  102MPD1    C2 1916   1.122   4.467   7.191
  102MPD1    C3 1917   1.151   4.525   7.070
  102MPD1    C4 1918   1.147   4.443   6.963
  102MPD1    C5 1919   1.129   4.305   6.966
  102MPD1     H 1920   1.121   4.528   7.280
  102MPD1    H1 1921   1.162   4.475   6.860
  102MPD1    H2 1922   1.087   4.148   7.103
  102MPD1    H3 1923   1.122   4.238   6.882
  102MPD1     N 1924   1.173   4.663   7.053
  102MPD1    H5 1925   1.207   4.686   6.960
  102MPD1    N1 1926   1.084   4.270   7.330
  102MPD1    H6 1927   1.139   4.304   7.409
  102MPD1    H7 1928   1.100   4.170   7.332
  103MPD1     C 1929   0.820   0.874   6.988
  103MPD1    C1 1930   0.913   0.827   7.083
  103MPD1    C2 1931   0.941   0.693   7.071
  103MPD1    C3 1932   0.893   0.608   6.970
  103MPD1    C4 1933   0.811   0.659   6.875
  103MPD1    C5 1934   0.768   0.790   6.883
  103MPD1     H 1935   1.024   0.656   7.131
  103MPD1    H1 1936   0.778   0.594   6.794
  103MPD1    H2 1937   0.789   0.978   6.981
  103MPD1    H3 1938   0.700   0.840   6.815
  103MPD1     N 1939   0.934   0.479   6.953
  103MPD1    H5 1940   0.919   0.425   6.869
  103MPD1    N1 1941   0.941   0.905   7.199
  103MPD1    H6 1942   0.948   1.003   7.176
  103MPD1    H7 1943   1.031   0.881   7.240
  104MPD1     C 1944   4.483   3.665  12.434
  104MPD1    C1 1945   4.481   3.760  12.336
  104MPD1    C2 1946   4.405   3.876  12.355
  104MPD1    C3 1947   4.343   3.901  12.477
  104MPD1    C4 1948   4.372   3.815  12.580
  104MPD1    C5 1949   4.433   3.700  12.557
  104MPD1     H 1950   4.393   3.946  12.273
  104MPD1    H1 1951   4.348   3.837  12.683
  104MPD1    H2 1952   4.516   3.564  12.414
  104MPD1    H3 1953   4.452   3.632  12.639
  104MPD1     N 1954   4.276   4.021  12.505
  104MPD1    H5 1955   4.245   4.028  12.601
  104MPD1    N1 1956   4.525   3.725  12.210
  104MPD1    H6 1957   4.602   3.659  12.211
  104MPD1    H7 1958   4.544   3.806  12.151
  105MPD1     C 1959   2.968   1.162  14.303
  105MPD1    C1 1960   3.011   1.074  14.209
  105MPD1    C2 1961   3.029   1.117  14.076
  105MPD1    C3 1962   3.002   1.256  14.044
  105MPD1    C4 1963   2.954   1.335  14.141
  105MPD1    C5 1964   2.942   1.293  14.264
  105MPD1     H 1965   3.048   1.035  14.007
  105MPD1    H1 1966   2.928   1.438  14.119
  105MPD1    H2 1967   2.955   1.132  14.406
  105MPD1    H3 1968   2.907   1.366  14.336
  105MPD1     N 1969   3.028   1.310  13.919
  105MPD1    H5 1970   3.028   1.410  13.903
  105MPD1    N1 1971   3.023   0.937  14.235
  105MPD1    H6 1972   3.107   0.906  14.187
  105MPD1    H7 1973   3.038   0.926  14.336
  106MPD1     C 1974   3.019   1.754   7.256
  106MPD1    C1 1975   3.080   1.633   7.253
  106MPD1    C2 1976   3.045   1.537   7.341
  106MPD1    C3 1977   2.933   1.555   7.423
  106MPD1    C4 1978   2.856   1.669   7.417
  106MPD1    C5 1979   2.905   1.772   7.335
  106MPD1     H 1980   3.099   1.443   7.337
  106MPD1    H1 1981   2.777   1.699   7.484
  106MPD1    H2 1982   3.043   1.841   7.196
  106MPD1    H3 1983   2.855   1.868   7.338
  106MPD1     N 1984   2.888   1.454   7.507
  106MPD1    H5 1985   2.793   1.467   7.542
  106MPD1    N1 1986   3.197   1.622   7.183
  106MPD1    H6 1987   3.211   1.680   7.101
  106MPD1    H7 1988   3.209   1.529   7.143
  107MPD1     C 1989   4.696   1.853  13.838
  107MPD1    C1 1990   4.691   1.971  13.907
  107MPD1    C2 1991   4.574   2.051  13.905
  107MPD1    C3 1992   4.464   2.006  13.835
  107MPD1    C4 1993   4.469   1.886  13.767
  107MPD1    C5 1994   4.584   1.814  13.773
  107MPD1     H 1995   4.573   2.149  13.950
  107MPD1    H1 1996   4.391   1.842  13.707
  107MPD1    H2 1997   4.780   1.785  13.844
  107MPD1    H3 1998   4.586   1.713  13.734
  107MPD1     N 1999   4.355   2.097  13.831
  107MPD1    H5 2000   4.364   2.186  13.879
  107MPD1    N1 2001   0.008   2.015  13.990
  107MPD1    H6 2002   0.008   2.115  14.008
  107MPD1    H7 2003   0.103   1.986  13.968
  108MPD1     C 2004   3.088   0.711  11.690
  108MPD1    C1 2005   3.206   0.738  11.625
  108MPD1    C2 2006   3.307   0.649  11.626
  108MPD1    C3 2007   3.290   0.528  11.694
  108MPD1    C4 2008   3.171   0.497  11.760
  108MPD1    C5 2009   3.066   0.592  11.759
  108MPD1     H 2010   3.401   0.676  11.578
  108MPD1    H1 2011   3.149   0.402  11.809
  108MPD1    H2 2012   3.017   0.793  11.686
  108MPD1    H3 2013   2.972   0.565  11.804
  108MPD1     N 2014   3.376   0.418  11.684
  108MPD1    H5 2015   3.335   0.334  11.723
  108MPD1    N1 2016   3.226   0.870  11.581
  108MPD1    H6 2017   3.143   0.895  11.529
  108MPD1    H7 2018   3.305   0.875  11.517
  109MPD1     C 2019   3.779   2.728   9.797
  109MPD1    C1 2020   3.842   2.726   9.668
  109MPD1    C2 2021   3.805   2.814   9.571
  109MPD1    C3 2022   3.709   2.903   9.598
  109MPD1    C4 2023   3.650   2.914   9.730
  109MPD1    C5 2024   3.689   2.829   9.829
  109MPD1     H 2025   3.856   2.824   9.476
  109MPD1    H1 2026   3.583   2.989   9.769
  109MPD1    H2 2027   3.812   2.664   9.878
  109MPD1    H3 2028   3.658   2.843   9.932
  109MPD1     N 2029   3.683   2.990   9.497
  109MPD1    H5 2030   3.728   2.975   9.407
  109MPD1    N1 2031   3.939   2.629   9.638
  109MPD1    H6 2032   3.976   2.575   9.716
  109MPD1    H7 2033   4.010   2.659   9.571
  110MPD1     C 2034   2.908   3.422   8.862
  110MPD1    C1 2035   2.899   3.376   8.989
  110MPD1    C2 2036   3.020   3.345   9.057
  110MPD1    C3 2037   3.141   3.373   8.997
  110MPD1    C4 2038   3.140   3.423   8.874
  110MPD1    C5 2039   3.029   3.447   8.809
  110MPD1     H 2040   3.016   3.285   9.147
  110MPD1    H1 2041   3.230   3.446   8.818
  110MPD1    H2 2042   2.820   3.431   8.800
  110MPD1    H3 2043   3.028   3.476   8.705
  110MPD1     N 2044   3.270   3.336   9.054
  110MPD1    H5 2045   3.346   3.367   8.995
  110MPD1    N1 2046   2.773   3.337   9.045
  110MPD1    H6 2047   2.701   3.398   9.006
  110MPD1    H7 2048   2.774   3.356   9.145
  111MPD1     C 2049   2.467   2.488  12.534
  111MPD1    C1 2050   2.524   2.546  12.423
  111MPD1    C2 2051   2.609   2.659  12.453
  111MPD1    C3 2052   2.615   2.715  12.578
  111MPD1    C4 2053   2.543   2.658  12.681
  111MPD1    C5 2054   2.469   2.543  12.654
  111MPD1     H 2055   2.657   2.711  12.371
  111MPD1    H1 2056   2.562   2.688  12.784
  111MPD1    H2 2057   2.423   2.390  12.530
  111MPD1    H3 2058   2.425   2.483  12.733
  111MPD1     N 2059   2.690   2.829  12.603
  111MPD1    H5 2060   2.674   2.873  12.694
  111MPD1    N1 2061   2.535   2.475  12.308
  111MPD1    H6 2062   2.541   2.528  12.221
  111MPD1    H7 2063   2.464   2.402  12.302
  112MPD1     C 2064   4.674   0.409  13.293
  112MPD1    C1 2065   4.603   0.371  13.405
  112MPD1    C2 2066   4.641   0.246  13.459
  112MPD1    C3 2067   4.758   0.180  13.421
  112MPD1    C4 2068   0.042   0.228  13.320
  112MPD1    C5 2069   0.004   0.345  13.254
  112MPD1     H 2070   4.582   0.232  13.549
  112MPD1    H1 2071   0.131   0.178  13.282
  112MPD1    H2 2072   4.643   0.479  13.216
  112MPD1    H3 2073   0.051   0.379  13.162
  112MPD1     N 2074   0.004   0.052  13.474
  112MPD1    H5 2075   0.087   0.014  13.432
  112MPD1    N1 2076   4.485   0.433  13.442
  112MPD1    H6 2077   4.457   0.420  13.540
  112MPD1    H7 2078   4.493   0.533  13.425
  113MPD1     C 2079   2.675   2.223  13.733
  113MPD1    C1 2080   2.586   2.196  13.838
  113MPD1    C2 2081   2.556   2.062  13.865
  113MPD1    C3 2082   2.625   1.956  13.800
  113MPD1    C4 2083   2.720   1.989  13.708
  113MPD1    C5 2084   2.739   2.118  13.673
  113MPD1     H 2085   2.488   2.042  13.946
  113MPD1    H1 2086   2.786   1.915  13.664
  113MPD1    H2 2087   2.702   2.325  13.707
  113MPD1    H3 2088   2.825   2.144  13.613
  113MPD1     N 2089   2.612   1.820  13.830
  113MPD1    H5 2090   2.678   1.757  13.785
  113MPD1    N1 2091   2.526   2.296  13.916
  113MPD1    H6 2092   2.488   2.256  14.001
  113MPD1    H7 2093   2.595   2.365  13.943
  114MPD1     C 2094   0.775   0.463  14.359
  114MPD1    C1 2095   0.882   0.437  14.273
  114MPD1    C2 2096   1.011   0.473  14.313
  114MPD1    C3 2097   1.022   0.561  14.419
  114MPD1    C4 2098   0.913   0.608  14.495
  114MPD1    C5 2099   0.789   0.556  14.461
  114MPD1     H 2100   1.102   0.431  14.270
  114MPD1    H1 2101   0.916   0.683  14.573
  114MPD1    H2 2102   0.678   0.424  14.330
  114MPD1    H3 2103   0.698   0.592  14.507
  114MPD1     N 2104   1.150   0.614  14.454
  114MPD1    H5 2105   1.157   0.677  14.533
  114MPD1    N1 2106   0.863   0.356  14.163
  114MPD1    H6 2107   0.773   0.368  14.117
  114MPD1    H7 2108   0.931   0.383  14.092
  115MPD1     C 2109   1.197   4.090  13.342
  115MPD1    C1 2110   1.214   4.218  13.291
  115MPD1    C2 2111   1.257   4.228  13.157
  115MPD1    C3 2112   1.303   4.110  13.095
  115MPD1    C4 2113   1.283   3.985  13.151
  115MPD1    C5 2114   1.230   3.976  13.271
  115MPD1     H 2115   1.255   4.324  13.107
  115MPD1    H1 2116   1.302   3.894  13.094
  115MPD1    H2 2117   1.165   4.073  13.444
  115MPD1    H3 2118   1.234   3.874  13.306
  115MPD1     N 2119   1.356   4.115  12.965
  115MPD1    H5 2120   1.388   4.024  12.932
  115MPD1    N1 2121   1.154   4.323  13.359
  115MPD1    H6 2122   1.191   4.417  13.346
  115MPD1    H7 2123   1.138   4.306  13.458
  116MPD1     C 2124   4.164   1.019  10.921
  116MPD1    C1 2125   4.111   1.134  10.869
  116MPD1    C2 2126   4.065   1.233  10.955
  116MPD1    C3 2127   4.070   1.201  11.098
  116MPD1    C4 2128   4.133   1.084  11.150
  116MPD1    C5 2129   4.181   0.995  11.059
  116MPD1     H 2130   4.023   1.327  10.921
  116MPD1    H1 2131   4.131   1.044  11.250
  116MPD1    H2 2132   4.204   0.954  10.844
  116MPD1    H3 2133   4.224   0.902  11.094
  116MPD1     N 2134   3.997   1.286  11.183
  116MPD1    H5 2135   3.975   1.375  11.141
  116MPD1    N1 2136   4.089   1.135  10.732
  116MPD1    H6 2137   4.085   1.226  10.687
  116MPD1    H7 2138   4.147   1.069  10.682
  117MPD1     C 2139   0.989   2.743   7.540
  117MPD1    C1 2140   1.015   2.633   7.456
  117MPD1    C2 2141   1.012   2.647   7.320
  117MPD1    C3 2142   0.973   2.768   7.264
  117MPD1    C4 2143   0.956   2.882   7.347
  117MPD1    C5 2144   0.968   2.869   7.488
  117MPD1     H 2145   1.028   2.565   7.251
  117MPD1    H1 2146   0.929   2.979   7.305
  117MPD1    H2 2147   0.980   2.725   7.646
  117MPD1    H3 2148   0.947   2.950   7.556
  117MPD1     N 2149   0.966   2.780   7.123
  117MPD1    H5 2150   0.950   2.869   7.078
  117MPD1    N1 2151   1.049   2.513   7.511
  117MPD1    H6 2152   1.138   2.472   7.483
  117MPD1    H7 2153   1.052   2.522   7.612
  118MPD1     C 2154   3.611   3.041  11.463
  118MPD1    C1 2155   3.663   3.095  11.352
  118MPD1    C2 2156   3.802   3.084  11.343
  118MPD1    C3 2157   3.877   3.030  11.442
  118MPD1    C4 2158   3.825   3.003  11.563
  118MPD1    C5 2159   3.691   3.010  11.568
  118MPD1     H 2160   3.853   3.120  11.254
  118MPD1    H1 2161   3.885   2.956  11.640
  118MPD1    H2 2162   3.503   3.040  11.471
  118MPD1    H3 2163   3.652   2.977  11.664
  118MPD1     N 2164   4.014   3.019  11.409
  118MPD1    H5 2165   4.035   3.043  11.312
  118MPD1    N1 2166   3.584   3.129  11.243
  118MPD1    H6 2167   3.491   3.138  11.283
  118MPD1    H7 2168   3.612   3.217  11.200
  119MPD1     C 2169   2.557   1.846   9.338
  119MPD1    C1 2170   2.665   1.840   9.410
  119MPD1    C2 2171   2.667   1.780   9.542
  119MPD1    C3 2172   2.545   1.730   9.592
  119MPD1    C4 2173   2.433   1.737   9.518
  119MPD1    C5 2174   2.441   1.794   9.392
  119MPD1     H 2175   2.759   1.778   9.600
  119MPD1    H1 2176   2.341   1.692   9.553
  119MPD1    H2 2177   2.556   1.879   9.235
  119MPD1    H3 2178   2.363   1.792   9.316
  119MPD1     N 2179   2.540   1.671   9.721
  119MPD1    H5 2180   2.626   1.659   9.774
  119MPD1    N1 2181   2.780   1.880   9.352
  119MPD1    H6 2182   2.759   1.960   9.292
  119MPD1    H7 2183   2.858   1.916   9.407
  120MPD1     C 2184   1.986   0.850   6.260
  120MPD1    C1 2185   1.909   0.814   6.369
  120MPD1    C2 2186   1.947   0.847   6.496
  120MPD1    C3 2187   2.055   0.927   6.517
  120MPD1    C4 2188   2.131   0.969   6.405
  120MPD1    C5 2189   2.094   0.930   6.277
  120MPD1     H 2190   1.889   0.804   6.576
  120MPD1    H1 2191   2.213   1.038   6.416
  120MPD1    H2 2192   1.965   0.835   6.155
  120MPD1    H3 2193   2.152   0.954   6.190
  120MPD1     N 2194   2.091   0.977   6.642
  120MPD1    H5 2195   2.170   1.041   6.644
  120MPD1    N1 2196   1.803   0.722   6.352
  120MPD1    H6 2197   1.760   0.722   6.260
  120MPD1    H7 2198   1.731   0.739   6.422
  121MPD1     C 2199   1.501   2.290   9.042
  121MPD1    C1 2200   1.421   2.176   9.034
  121MPD1    C2 2201   1.316   2.162   9.122
  121MPD1    C3 2202   1.276   2.261   9.212
  121MPD1    C4 2203   1.348   2.375   9.214
  121MPD1    C5 2204   1.462   2.387   9.133
  121MPD1     H 2205   1.248   2.078   9.116
  121MPD1    H1 2206   1.322   2.449   9.289
  121MPD1    H2 2207   1.597   2.301   8.992
  121MPD1    H3 2208   1.517   2.479   9.140
  121MPD1     N 2209   1.170   2.233   9.297
  121MPD1    H5 2210   1.136   2.138   9.294
  121MPD1    N1 2211   1.458   2.073   8.940
  121MPD1    H6 2212   1.374   2.030   8.903
  121MPD1    H7 2213   1.502   2.121   8.862
  122MPD1     C 2214   1.211   3.103  13.559
  122MPD1    C1 2215   1.168   3.009  13.473
  122MPD1    C2 2216   1.086   3.047  13.374
  122MPD1    C3 2217   1.029   3.173  13.375
  122MPD1    C4 2218   1.064   3.264  13.469
  122MPD1    C5 2219   1.158   3.227  13.566
  122MPD1     H 2220   1.074   2.982  13.288
  122MPD1    H1 2221   1.026   3.365  13.472
  122MPD1    H2 2222   1.282   3.080  13.638
  122MPD1    H3 2223   1.188   3.292  13.647
  122MPD1     N 2224   0.960   3.222  13.266
  122MPD1    H5 2225   0.974   3.174  13.178
  122MPD1    N1 2226   1.224   2.881  13.477
  122MPD1    H6 2227   1.243   2.859  13.575
  122MPD1    H7 2228   1.155   2.818  13.437
  123MPD1     C 2229   0.706   2.308  12.398
  123MPD1    C1 2230   0.682   2.201  12.477
  123MPD1    C2 2231   0.604   2.222  12.593
  123MPD1    C3 2232   0.556   2.346  12.633
  123MPD1    C4 2233   0.580   2.453  12.542
  123MPD1    C5 2234   0.654   2.430  12.432
  123MPD1     H 2235   0.597   2.138  12.661
  123MPD1    H1 2236   0.528   2.546  12.562
  123MPD1    H2 2237   0.768   2.301  12.309
  123MPD1    H3 2238   0.674   2.518  12.371
  123MPD1     N 2239   0.480   2.375  12.746
  123MPD1    H5 2240   0.459   2.473  12.764
  123MPD1    N1 2241   0.714   2.076  12.426
  123MPD1    H6 2242   0.719   2.001  12.494
  123MPD1    H7 2243   0.802   2.080  12.375
  124MPD1     C 2244   1.042   0.107  12.920
  124MPD1    C1 2245   0.963   0.150  13.025
  124MPD1    C2 2246   0.852   0.223  12.990
  124MPD1    C3 2247   0.806   0.234  12.861
  124MPD1    C4 2248   0.883   0.176  12.762
  124MPD1    C5 2249   0.999   0.116  12.786
  124MPD1     H 2250   0.790   0.267  13.068
  124MPD1    H1 2251   0.845   0.193  12.662
  124MPD1    H2 2252   1.141   0.066  12.942
  124MPD1    H3 2253   1.046   0.076  12.697
  124MPD1     N 2254   0.694   0.313  12.831
  124MPD1    H5 2255   0.665   0.329  12.735
  124MPD1    N1 2256   1.006   0.144  13.159
  124MPD1    H6 2257   1.072   0.067  13.165
  124MPD1    H7 2258   0.932   0.125  13.226
  125MPD1     C 2259   3.981   2.615   5.559
  125MPD1    C1 2260   3.957   2.751   5.579
  125MPD1    C2 2261   4.024   2.814   5.682
  125MPD1    C3 2262   4.106   2.745   5.767
  125MPD1    C4 2263   4.102   2.604   5.759
  125MPD1    C5 2264   4.044   2.539   5.656
  125MPD1     H 2265   4.019   2.922   5.691
  125MPD1    H1 2266   4.156   2.548   5.834
  125MPD1    H2 2267   3.934   2.554   5.483
  125MPD1    H3 2268   4.053   2.431   5.642
  125MPD1     N 2269   4.157   2.799   5.887
  125MPD1    H5 2270   4.207   2.731   5.943
  125MPD1    N1 2271   3.897   2.826   5.482
  125MPD1    H6 2272   3.822   2.776   5.433
  125MPD1    H7 2273   3.851   2.903   5.529
  126MPD1     C 2274   1.502   1.690  13.446
  126MPD1    C1 2275   1.480   1.560  13.502
  126MPD1    C2 2276   1.348   1.525  13.534
  126MPD1    C3 2277   1.246   1.609  13.493
  126MPD1    C4 2278   1.266   1.719  13.415
  126MPD1    C5 2279   1.395   1.770  13.410
  126MPD1     H 2280   1.314   1.434  13.582
  126MPD1    H1 2281   1.183   1.780  13.380
  126MPD1    H2 2282   1.599   1.735  13.430
  126MPD1    H3 2283   1.414   1.865  13.362
  126MPD1     N 2284   1.110   1.566  13.520
  126MPD1    H5 2285   1.093   1.487  13.582
  126MPD1    N1 2286   1.583   1.483  13.556
  126MPD1    H6 2287   1.566   1.385  13.574
  126MPD1    H7 2288   1.652   1.480  13.481
  127MPD1     C 2289   3.987   1.806   7.172
  127MPD1    C1 2290   3.974   1.892   7.278
  127MPD1    C2 2291   4.026   2.020   7.262
  127MPD1    C3 2292   4.096   2.056   7.148
  127MPD1    C4 2293   4.121   1.957   7.056
  127MPD1    C5 2294   4.067   1.834   7.070
  127MPD1     H 2295   4.014   2.094   7.339
  127MPD1    H1 2296   4.170   1.984   6.963
  127MPD1    H2 2297   3.949   1.706   7.192
  127MPD1    H3 2298   4.084   1.757   6.995
  127MPD1     N 2299   4.144   2.189   7.127
  127MPD1    H5 2300   4.185   2.201   7.035
  127MPD1    N1 2301   3.880   1.858   7.371
  127MPD1    H6 2302   3.873   1.757   7.377
  127MPD1    H7 2303   3.893   1.896   7.465
  128MPD1     C 2304   4.764   3.002   7.423
  128MPD1    C1 2305   4.680   2.937   7.508
  128MPD1    C2 2306   4.579   2.868   7.458
  128MPD1    C3 2307   4.564   2.855   7.316
  128MPD1    C4 2308   4.666   2.899   7.230
  128MPD1    C5 2309   4.762   2.974   7.288
  128MPD1     H 2310   4.506   2.821   7.522
  128MPD1    H1 2311   4.667   2.893   7.122
  128MPD1    H2 2312   0.056   3.066   7.459
  128MPD1    H3 2313   0.046   3.013   7.217
  128MPD1     N 2314   4.460   2.790   7.241
  128MPD1    H5 2315   4.472   2.770   7.143
  128MPD1    N1 2316   4.698   2.956   7.650
  128MPD1    H6 2317   4.624   2.921   7.710
  128MPD1    H7 2318   4.785   2.923   7.690
  129MPD1     C 2319   0.244   1.679  13.114
  129MPD1    C1 2320   0.176   1.792  13.075
  129MPD1    C2 2321   0.194   1.845  12.946
  129MPD1    C3 2322   0.286   1.789  12.862
  129MPD1    C4 2323   0.368   1.692  12.911
  129MPD1    C5 2324   0.341   1.636  13.033
  129MPD1     H 2325   0.133   1.928  12.910
  129MPD1    H1 2326   0.452   1.644  12.861
  129MPD1    H2 2327   0.235   1.631  13.210
  129MPD1    H3 2328   0.406   1.553  13.058
  129MPD1     N 2329   0.295   1.847  12.731
  129MPD1    H5 2330   0.231   1.918  12.697
  129MPD1    N1 2331   0.066   1.834  13.155
  129MPD1    H6 2332   0.092   1.830  13.254
  129MPD1    H7 2333   0.037   1.929  13.133
  130MPD1     C 2334   4.024   0.684  12.976
  130MPD1    C1 2335   4.129   0.627  12.904
  130MPD1    C2 2336   4.202   0.522  12.947
  130MPD1    C3 2337   4.184   0.487  13.081
  130MPD1    C4 2338   4.088   0.552  13.156
  130MPD1    C5 2339   4.002   0.643  13.097
  130MPD1     H 2340   4.278   0.474  12.886
  130MPD1    H1 2341   4.064   0.518  13.256
  130MPD1    H2 2342   3.958   0.755  12.927
  130MPD1    H3 2343   3.920   0.679  13.159
  130MPD1     N 2344   4.256   0.380  13.144
  130MPD1    H5 2345   4.238   0.370  13.243
  130MPD1    N1 2346   4.135   0.662  12.767
  130MPD1    H6 2347   4.218   0.619  12.727
  130MPD1    H7 2348   4.131   0.761  12.742
  131MPD1     C 2349   3.386   1.226  11.187
  131MPD1    C1 2350   3.285   1.309  11.150
  131MPD1    C2 2351   3.159   1.263  11.165
  131MPD1    C3 2352   3.129   1.151  11.241
  131MPD1    C4 2353   3.230   1.074  11.285
  131MPD1    C5 2354   3.358   1.113  11.258
  131MPD1     H 2355   3.082   1.334  11.139
  131MPD1    H1 2356   3.211   0.984  11.342
  131MPD1    H2 2357   3.492   1.238  11.169
  131MPD1    H3 2358   3.438   1.051  11.297
  131MPD1     N 2359   2.996   1.126  11.277
  131MPD1    H5 2360   2.930   1.197  11.244
  131MPD1    N1 2361   3.322   1.421  11.082
  131MPD1    H6 2362   3.251   1.492  11.065
  131MPD1    H7 2363   3.412   1.459  11.110
  132MPD1     C 2364   2.277   0.393  11.360
  132MPD1    C1 2365   2.308   0.453  11.239
  132MPD1    C2 2366   2.381   0.575  11.238
  132MPD1    C3 2367   2.425   0.632  11.353
  132MPD1    C4 2368   2.381   0.570  11.469
  132MPD1    C5 2369   2.307   0.450  11.473
  132MPD1     H 2370   2.407   0.620  11.142
  132MPD1    H1 2371   2.395   0.615  11.567
  132MPD1    H2 2372   2.239   0.292  11.356
  132MPD1    H3 2373   2.273   0.413  11.569
  132MPD1     N 2374   2.490   0.757  11.360
  132MPD1    H5 2375   2.512   0.780  11.457
  132MPD1    N1 2376   2.277   0.378  11.123
  132MPD1    H6 2377   2.318   0.412  11.036
  132MPD1    H7 2378   2.178   0.385  11.099
  133MPD1     C 2379   3.231   1.803   7.539
  133MPD1    C1 2380   3.260   1.925   7.485
  133MPD1    C2 2381   3.287   2.029   7.566
  133MPD1    C3 2382   3.278   2.011   7.705
  133MPD1    C4 2383   3.228   1.896   7.759
  133MPD1    C5 2384   3.209   1.791   7.681
  133MPD1     H 2385   3.328   2.118   7.521
  133MPD1    H1 2386   3.213   1.875   7.864
  133MPD1    H2 2387   3.223   1.715   7.477
  133MPD1    H3 2388   3.197   1.692   7.725
  133MPD1     N 2389   3.326   2.119   7.788
  133MPD1    H5 2390   3.357   2.202   7.738
  133MPD1    N1 2391   3.296   1.935   7.355
  133MPD1    H6 2392   3.281   2.027   7.313
  133MPD1    H7 2393   3.255   1.870   7.289
  134MPD1     C 2394   3.609   3.961  13.381
  134MPD1    C1 2395   3.731   4.023  13.369
  134MPD1    C2 2396   3.823   4.011  13.467
  134MPD1    C3 2397   3.808   3.913  13.566
  134MPD1    C4 2398   3.696   3.831  13.553
  134MPD1    C5 2399   3.588   3.861  13.475
  134MPD1     H 2400   3.915   4.068  13.467
  134MPD1    H1 2401   3.677   3.744  13.615
  134MPD1    H2 2402   3.530   3.986  13.311
  134MPD1    H3 2403   3.508   3.788  13.467
  134MPD1     N 2404   3.913   3.904  13.655
  134MPD1    H5 2405   4.001   3.951  13.637
  134MPD1    N1 2406   3.748   4.108  13.262
  134MPD1    H6 2407   3.845   4.119  13.235
  134MPD1    H7 2408   3.703   4.071  13.179
  135MPD1     C 2409   1.662   1.163   6.848
  135MPD1    C1 2410   1.573   1.228   6.933
  135MPD1    C2 2411   1.439   1.214   6.914
  135MPD1    C3 2412   1.387   1.140   6.813
  135MPD1    C4 2413   1.475   1.089   6.722
  135MPD1    C5 2414   1.610   1.104   6.737
  135MPD1     H 2415   1.368   1.270   6.974
  135MPD1    H1 2416   1.448   1.032   6.635
  135MPD1    H2 2417   1.768   1.181   6.849
  135MPD1    H3 2418   1.683   1.064   6.667
  135MPD1     N 2419   1.251   1.122   6.783
  135MPD1    H5 2420   1.229   1.067   6.701
  135MPD1    N1 2421   1.630   1.319   7.029
  135MPD1    H6 2422   1.706   1.266   7.071
  135MPD1    H7 2423   1.565   1.342   7.104
  136MPD1     C 2424   2.678   3.264   9.513
  136MPD1    C1 2425   2.779   3.326   9.435
  136MPD1    C2 2426   2.902   3.257   9.429
  136MPD1    C3 2427   2.922   3.135   9.489
  136MPD1    C4 2428   2.823   3.075   9.560
  136MPD1    C5 2429   2.700   3.140   9.575
  136MPD1     H 2430   2.993   3.302   9.389
  136MPD1    H1 2431   2.834   2.981   9.614
  136MPD1    H2 2432   2.587   3.320   9.530
  136MPD1    H3 2433   2.622   3.096   9.636
  136MPD1     N 2434   3.045   3.067   9.459
  136MPD1    H5 2435   3.103   3.108   9.386
  136MPD1    N1 2436   2.748   3.434   9.352
  136MPD1    H6 2437   2.678   3.492   9.397
  136MPD1    H7 2438   2.827   3.495   9.329
  137MPD1     C 2439   3.468   3.118   8.752
  137MPD1    C1 2440   3.569   3.066   8.827
  137MPD1    C2 2441   3.528   2.996   8.939
  137MPD1    C3 2442   3.396   2.991   8.982
  137MPD1    C4 2443   3.300   3.051   8.901
  137MPD1    C5 2444   3.332   3.096   8.779
  137MPD1     H 2445   3.606   2.949   8.997
  137MPD1    H1 2446   3.202   3.040   8.944
  137MPD1    H2 2447   3.491   3.176   8.664
  137MPD1    H3 2448   3.254   3.139   8.717
  137MPD1     N 2449   3.351   2.923   9.089
  137MPD1    H5 2450   3.250   2.921   9.103
  137MPD1    N1 2451   3.700   3.105   8.811
  137MPD1    H6 2452   3.758   3.029   8.847
  137MPD1    H7 2453   3.727   3.144   8.720
  138MPD1     C 2454   2.610   3.466   6.764
  138MPD1    C1 2455   2.543   3.422   6.875
  138MPD1    C2 2456   2.598   3.310   6.941
  138MPD1    C3 2457   2.718   3.256   6.904
  138MPD1    C4 2458   2.785   3.301   6.790
  138MPD1    C5 2459   2.729   3.407   6.722
  138MPD1     H 2460   2.558   3.268   7.032
  138MPD1    H1 2461   2.880   3.265   6.752
  138MPD1    H2 2462   2.581   3.553   6.706
  138MPD1    H3 2463   2.771   3.434   6.626
  138MPD1     N 2464   2.773   3.158   6.981
  138MPD1    H5 2465   2.727   3.122   7.064
  138MPD1    N1 2466   2.415   3.465   6.906
  138MPD1    H6 2467   2.396   3.555   6.862
  138MPD1    H7 2468   2.397   3.472   7.006
  139MPD1     C 2469   4.671   1.633  12.565
  139MPD1    C1 2470   4.705   1.549  12.455
  139MPD1    C2 2471   0.034   1.472  12.467
  139MPD1    C3 2472   0.125   1.485  12.569
  139MPD1    C4 2473   0.094   1.587  12.662
  139MPD1    C5 2474   4.763   1.654  12.662
  139MPD1     H 2475   0.061   1.413  12.381
  139MPD1    H1 2476   0.170   1.599  12.740
  139MPD1    H2 2477   4.582   1.694  12.554
  139MPD1    H3 2478   4.742   1.724  12.742
  139MPD1     N 2479   0.246   1.408  12.587
  139MPD1    H5 2480   0.300   1.420  12.672
  139MPD1    N1 2481   4.616   1.529  12.345
  139MPD1    H6 2482   4.671   1.513  12.261
  139MPD1    H7 2483   4.557   1.610  12.333
  140MPD1     C 2484   3.800   0.428  14.711
  140MPD1    C1 2485   3.866   0.406  14.596
  140MPD1    C2 2486   3.811   0.456  14.478
  140MPD1    C3 2487   3.710   0.546  14.473
  140MPD1    C4 2488   3.651   0.574  14.597
  140MPD1    C5 2489   3.689   0.512  14.707
  140MPD1     H 2490   3.867   0.431  14.389
  140MPD1    H1 2491   3.564   0.637  14.599
  140MPD1    H2 2492   3.836   0.375  14.798
  140MPD1    H3 2493   3.639   0.543  14.798
  140MPD1     N 2494   3.667   0.613  14.360
  140MPD1    H5 2495   3.591   0.679  14.375
  140MPD1    N1 2496   3.974   0.316  14.586
  140MPD1    H6 2497   4.035   0.334  14.666
  140MPD1    H7 2498   4.027   0.332  14.501
  141MPD1     C 2499   4.255   0.981  13.788
  141MPD1    C1 2500   4.240   0.845  13.796
  141MPD1    C2 2501   4.113   0.790  13.816
  141MPD1    C3 2502   3.998   0.867  13.818
  141MPD1    C4 2503   4.015   1.008  13.812
  141MPD1    C5 2504   4.142   1.058  13.797
  141MPD1     H 2505   4.088   0.685  13.826
  141MPD1    H1 2506   3.928   1.069  13.832
  141MPD1    H2 2507   4.351   1.028  13.774
  141MPD1    H3 2508   4.139   1.165  13.780
  141MPD1     N 2509   3.877   0.801  13.849
  141MPD1    H5 2510   3.872   0.700  13.849
  141MPD1    N1 2511   4.348   0.766  13.751
  141MPD1    H6 2512   4.353   0.675  13.797
  141MPD1    H7 2513   4.441   0.807  13.756
  142MPD1     C 2514   2.290   1.799   7.014
  142MPD1    C1 2515   2.318   1.889   6.922
  142MPD1    C2 2516   2.227   1.988   6.906
  142MPD1    C3 2517   2.108   1.995   6.970
  142MPD1    C4 2518   2.081   1.903   7.069
  142MPD1    C5 2519   2.173   1.798   7.086
  142MPD1     H 2520   2.257   2.081   6.859
  142MPD1    H1 2521   1.983   1.889   7.112
  142MPD1    H2 2522   2.365   1.723   7.035
  142MPD1    H3 2523   2.164   1.708   7.146
  142MPD1     N 2524   2.005   2.091   6.949
  142MPD1    H5 2525   1.919   2.083   7.001
  142MPD1    N1 2526   2.441   1.915   6.870
  142MPD1    H6 2527   2.446   1.979   6.791
  142MPD1    H7 2528   2.512   1.842   6.865
  143MPD1     C 2529   2.399   4.490   9.160
  143MPD1    C1 2530   2.493   4.403   9.105
  143MPD1    C2 2531   2.516   4.287   9.174
  143MPD1    C3 2532   2.445   4.257   9.292
  143MPD1    C4 2533   2.358   4.344   9.352
  143MPD1    C5 2534   2.339   4.456   9.280
  143MPD1     H 2535   2.583   4.217   9.125
  143MPD1    H1 2536   2.297   4.310   9.435
  143MPD1    H2 2537   2.378   4.586   9.115
  143MPD1    H3 2538   2.275   4.531   9.326
  143MPD1     N 2539   2.467   4.141   9.365
  143MPD1    H5 2540   2.409   4.120   9.446
  143MPD1    N1 2541   2.574   4.435   8.998
  143MPD1    H6 2542   2.522   4.496   8.936
  143MPD1    H7 2543   2.609   4.348   8.957
  144MPD1     C 2544   1.208   2.510   6.762
  144MPD1    C1 2545   1.271   2.565   6.657
  144MPD1    C2 2546   1.372   2.654   6.692
  144MPD1    C3 2547   1.408   2.677   6.821
  144MPD1    C4 2548   1.339   2.630   6.928
  144MPD1    C5 2549   1.232   2.552   6.895
  144MPD1     H 2550   1.432   2.688   6.608
  144MPD1    H1 2551   1.362   2.648   7.032
  144MPD1    H2 2552   1.123   2.447   6.740
  144MPD1    H3 2553   1.169   2.499   6.966
  144MPD1     N 2554   1.518   2.748   6.839
  144MPD1    H5 2555   1.551   2.796   6.756
  144MPD1    N1 2556   1.226   2.557   6.529
  144MPD1    H6 2557   1.183   2.469   6.503
  144MPD1    H7 2558   1.299   2.571   6.460
  145MPD1     C 2559   1.686   3.494   6.509
  145MPD1    C1 2560   1.597   3.390   6.495
  145MPD1    C2 2561   1.618   3.278   6.571
  145MPD1    C3 2562   1.720   3.278   6.665
  145MPD1    C4 2563   1.806   3.384   6.679
  145MPD1    C5 2564   1.787   3.490   6.597
  145MPD1     H 2565   1.568   3.185   6.543
  145MPD1    H1 2566   1.888   3.397   6.749
  145MPD1    H2 2567   1.673   3.578   6.443
  145MPD1    H3 2568   1.853   3.577   6.594
  145MPD1     N 2569   1.730   3.161   6.742
  145MPD1    H5 2570   1.660   3.088   6.740
  145MPD1    N1 2571   1.515   3.387   6.380
  145MPD1    H6 2572   1.443   3.315   6.388
  145MPD1    H7 2573   1.480   3.471   6.336
  146MPD1     C 2574   3.787   0.996   9.074
  146MPD1    C1 2575   3.656   0.979   9.034
  146MPD1    C2 2576   3.621   0.850   8.999
  146MPD1    C3 2577   3.710   0.743   9.020
  146MPD1    C4 2578   3.834   0.763   9.079
  146MPD1    C5 2579   3.872   0.888   9.096
  146MPD1     H 2580   3.516   0.833   8.980
  146MPD1    H1 2581   3.903   0.680   9.089
  146MPD1    H2 2582   3.823   1.099   9.081
  146MPD1    H3 2583   3.975   0.907   9.122
  146MPD1     N 2584   3.651   0.612   8.985
  146MPD1    H5 2585   3.554   0.600   8.956
  146MPD1    N1 2586   3.570   1.085   9.014
  146MPD1    H6 2587   3.584   1.157   9.085
  146MPD1    H7 2588   3.474   1.051   9.015
  147MPD1     C 2589   3.527   4.571  10.763
  147MPD1    C1 2590   3.455   4.605  10.884
  147MPD1    C2 2591   3.507   4.543  10.999
  147MPD1    C3 2592   3.620   4.463  10.999
  147MPD1    C4 2593   3.684   4.431  10.881
  147MPD1    C5 2594   3.637   4.489  10.765
  147MPD1     H 2595   3.456   4.566  11.092
  147MPD1    H1 2596   3.768   4.364  10.873
  147MPD1    H2 2597   3.482   4.604  10.670
  147MPD1    H3 2598   3.670   4.452  10.668
  147MPD1     N 2599   3.674   4.398  11.110
  147MPD1    H5 2600   3.746   4.328  11.093
  147MPD1    N1 2601   3.326   4.663  10.880
  147MPD1    H6 2602   3.295   4.691  10.973
  147MPD1    H7 2603   3.316   4.738  10.812
  148MPD1     C 2604   4.277   4.261  11.924
  148MPD1    C1 2605   4.192   4.156  11.926
  148MPD1    C2 2606   4.098   4.147  11.823
  148MPD1    C3 2607   4.090   4.243  11.724
  148MPD1    C4 2608   4.172   4.351  11.730
  148MPD1    C5 2609   4.261   4.355  11.831
  148MPD1     H 2610   4.032   4.061  11.821
  148MPD1    H1 2611   4.157   4.425  11.652
  148MPD1    H2 2612   4.354   4.269  12.000
  148MPD1    H3 2613   4.330   4.438  11.833
  148MPD1     N 2614   3.992   4.229  11.630
  148MPD1    H5 2615   3.944   4.140  11.628
  148MPD1    N1 2616   4.215   4.048  12.016
  148MPD1    H6 2617   4.237   4.078  12.111
  148MPD1    H7 2618   4.125   4.001  12.012
  149MPD1     C 2619   2.654   0.669  11.793
  149MPD1    C1 2620   2.522   0.659  11.823
  149MPD1    C2 2621   2.432   0.756  11.781
  149MPD1    C3 2622   2.485   0.863  11.707
  149MPD1    C4 2623   2.622   0.885  11.697
  149MPD1    C5 2624   2.700   0.784  11.734
  149MPD1     H 2625   2.325   0.744  11.795
  149MPD1    H1 2626   2.665   0.955  11.626
  149MPD1    H2 2627   2.732   0.596  11.812
  149MPD1    H3 2628   2.801   0.790  11.696
  149MPD1     N 2629   2.396   0.947  11.638
  149MPD1    H5 2630   2.299   0.919  11.648
  149MPD1    N1 2631   2.485   0.543  11.883
  149MPD1    H6 2632   2.563   0.504  11.935
  149MPD1    H7 2633   2.417   0.565  11.956
  150MPD1     C 2634   3.408   4.015  14.072
  150MPD1    C1 2635   3.459   3.976  13.955
  150MPD1    C2 2636   3.478   3.840  13.931
  150MPD1    C3 2637   3.418   3.746  14.013
  150MPD1    C4 2638   3.353   3.795  14.123
  150MPD1    C5 2639   3.343   3.929  14.156
  150MPD1     H 2640   3.517   3.809  13.835
  150MPD1    H1 2641   3.295   3.733  14.189
  150MPD1    H2 2642   3.407   4.122  14.093
  150MPD1    H3 2643   3.302   3.975  14.245
  150MPD1     N 2644   3.423   3.612  13.974
  150MPD1    H5 2645   3.473   3.596  13.888
  150MPD1    N1 2646   3.534   4.066  13.882
  150MPD1    H6 2647   3.539   4.030  13.787
  150MPD1    H7 2648   3.486   4.156  13.886
  151MPD1     C 2649   0.276   1.064  13.258
  151MPD1    C1 2650   0.253   0.996  13.376
  151MPD1    C2 2651   0.261   1.065  13.494
  151MPD1    C3 2652   0.284   1.201  13.497
  151MPD1    C4 2653   0.299   1.264  13.378
  151MPD1    C5 2654   0.289   1.201  13.257
  151MPD1     H 2655   0.245   1.020  13.591
  151MPD1    H1 2656   0.310   1.372  13.376
  151MPD1    H2 2657   0.274   1.011  13.164
  151MPD1    H3 2658   0.289   1.244  13.158
  151MPD1     N 2659   0.299   1.282  13.617
  151MPD1    H5 2660   0.347   1.370  13.598
  151MPD1    N1 2661   0.243   0.853  13.373
  151MPD1    H6 2662   0.189   0.831  13.290
  151MPD1    H7 2663   0.170   0.830  13.440
  152MPD1     C 2664   1.091   1.675   7.306
  152MPD1    C1 2665   0.981   1.620   7.253
  152MPD1    C2 2666   0.963   1.625   7.112
  152MPD1    C3 2667   1.044   1.698   7.031
  152MPD1    C4 2668   1.155   1.762   7.090
  152MPD1    C5 2669   1.176   1.749   7.229
  152MPD1     H 2670   0.881   1.573   7.064
  152MPD1    H1 2671   1.219   1.832   7.038
  152MPD1    H2 2672   1.101   1.672   7.414
  152MPD1    H3 2673   1.262   1.797   7.277
  152MPD1     N 2674   1.013   1.709   6.888
  152MPD1    H5 2675   0.932   1.655   6.860
  152MPD1    N1 2676   0.909   1.526   7.333
  152MPD1    H6 2677   0.811   1.524   7.306
  152MPD1    H7 2678   0.912   1.547   7.433
  153MPD1     C 2679   3.027   3.908   5.878
  153MPD1    C1 2680   3.028   3.831   5.992
  153MPD1    C2 2681   3.058   3.898   6.113
  153MPD1    C3 2682   3.052   4.035   6.120
  153MPD1    C4 2683   3.039   4.100   6.001
  153MPD1    C5 2684   3.034   4.047   5.884
  153MPD1     H 2685   3.049   3.831   6.197
  153MPD1    H1 2686   3.055   4.207   6.008
  153MPD1    H2 2687   3.013   3.866   5.779
  153MPD1    H3 2688   3.034   4.103   5.791
  153MPD1     N 2689   3.031   4.095   6.248
  153MPD1    H5 2690   3.033   4.033   6.329
  153MPD1    N1 2691   2.979   3.698   5.991
  153MPD1    H6 2692   2.993   3.658   5.898
  153MPD1    H7 2693   3.038   3.650   6.058
  154MPD1     C 2694   2.822   3.785   6.331
  154MPD1    C1 2695   2.779   3.889   6.405
  154MPD1    C2 2696   2.812   3.879   6.538
  154MPD1    C3 2697   2.873   3.771   6.600
  154MPD1    C4 2698   2.909   3.668   6.516
  154MPD1    C5 2699   2.878   3.673   6.382
  154MPD1     H 2700   2.774   3.957   6.604
  154MPD1    H1 2701   2.955   3.576   6.550
  154MPD1    H2 2702   2.788   3.772   6.228
  154MPD1    H3 2703   2.908   3.591   6.318
  154MPD1     N 2704   2.882   3.763   6.739
  154MPD1    H5 2705   2.902   3.673   6.780
  154MPD1    N1 2706   2.693   3.992   6.355
  154MPD1    H6 2707   2.710   4.015   6.257
  154MPD1    H7 2708   2.712   4.081   6.400
  155MPD1     C 2709   2.669   2.264  11.059
  155MPD1    C1 2710   2.666   2.292  11.190
  155MPD1    C2 2711   2.575   2.214  11.265
  155MPD1    C3 2712   2.518   2.097  11.214
  155MPD1    C4 2713   2.528   2.072  11.080
  155MPD1    C5 2714   2.605   2.158  11.004
  155MPD1     H 2715   2.572   2.238  11.370
  155MPD1    H1 2716   2.480   1.988  11.031
  155MPD1    H2 2717   2.743   2.321  11.004
  155MPD1    H3 2718   2.612   2.143  10.896
  155MPD1     N 2719   2.427   2.021  11.294
  155MPD1    H5 2720   2.356   1.968  11.245
  155MPD1    N1 2721   2.711   2.413  11.238
  155MPD1    H6 2722   2.802   2.446  11.206
  155MPD1    H7 2723   2.713   2.415  11.340
  156MPD1     C 2724   3.692   1.915  10.559
  156MPD1    C1 2725   3.598   1.879  10.467
  156MPD1    C2 2726   3.577   1.745  10.426
  156MPD1    C3 2727   3.638   1.644  10.507
  156MPD1    C4 2728   3.715   1.688  10.615
  156MPD1    C5 2729   3.737   1.817  10.643
  156MPD1     H 2730   3.503   1.728  10.349
  156MPD1    H1 2731   3.762   1.616  10.681
  156MPD1    H2 2732   3.713   2.018  10.584
  156MPD1    H3 2733   3.803   1.839  10.726
  156MPD1     N 2734   3.612   1.507  10.493
  156MPD1    H5 2735   3.648   1.450  10.568
  156MPD1    N1 2736   3.546   1.982  10.386
  156MPD1    H6 2737   3.465   1.940  10.341
  156MPD1    H7 2738   3.504   2.060  10.437
  157MPD1     C 2739   4.272   2.187  11.568
  157MPD1    C1 2740   4.233   2.316  11.582
  157MPD1    C2 2741   4.172   2.383  11.473
  157MPD1    C3 2742   4.168   2.328  11.349
  157MPD1    C4 2743   4.213   2.203  11.340
  157MPD1    C5 2744   4.263   2.128  11.445
  157MPD1     H 2745   4.133   2.481  11.498
  157MPD1    H1 2746   4.210   2.138  11.253
  157MPD1    H2 2747   4.304   2.145  11.663
  157MPD1    H3 2748   4.294   2.024  11.433
  157MPD1     N 2749   4.114   2.395  11.242
  157MPD1    H5 2750   4.123   2.348  11.152
  157MPD1    N1 2751   4.235   2.381  11.705
  157MPD1    H6 2752   4.239   2.482  11.695
  157MPD1    H7 2753   4.314   2.350  11.763
  158MPD1     C 2754   3.214   2.286  10.279
  158MPD1    C1 2755   3.105   2.201  10.292
  158MPD1    C2 2756   3.112   2.106  10.393
  158MPD1    C3 2757   3.213   2.097  10.490
  158MPD1    C4 2758   3.306   2.201  10.483
  158MPD1    C5 2759   3.303   2.291  10.383
  158MPD1     H 2760   3.034   2.031  10.394
  158MPD1    H1 2761   3.393   2.201  10.548
  158MPD1    H2 2762   3.241   2.358  10.203
  158MPD1    H3 2763   3.389   2.356  10.376
  158MPD1     N 2764   3.215   1.985  10.578
  158MPD1    H5 2765   3.134   1.923  10.574
  158MPD1    N1 2766   3.006   2.189  10.197
  158MPD1    H6 2767   3.005   2.281  10.153
  158MPD1    H7 2768   3.040   2.132  10.120
  159MPD1     C 2769   3.991   1.742  11.153
  159MPD1    C1 2770   3.974   1.639  11.065
  159MPD1    C2 2771   3.847   1.632  11.002
  159MPD1    C3 2772   3.744   1.717  11.028
  159MPD1    C4 2773   3.771   1.830  11.106
  159MPD1    C5 2774   3.897   1.840  11.168
  159MPD1     H 2775   3.834   1.558  10.924
  159MPD1    H1 2776   3.694   1.905  11.121
  159MPD1    H2 2777   4.086   1.747  11.203
  159MPD1    H3 2778   3.911   1.923  11.236
  159MPD1     N 2779   3.615   1.718  10.971
  159MPD1    H5 2780   3.564   1.804  10.988
  159MPD1    N1 2781   4.073   1.548  11.043
  159MPD1    H6 2782   4.079   1.536  10.942
  159MPD1    H7 2783   4.165   1.578  11.074
  160MPD1     C 2784   3.366   4.243  12.169
  160MPD1    C1 2785   3.256   4.320  12.136
  160MPD1    C2 2786   3.273   4.398  12.022
  160MPD1    C3 2787   3.397   4.424  11.975
  160MPD1    C4 2788   3.505   4.358  12.015
  160MPD1    C5 2789   3.486   4.263  12.115
  160MPD1     H 2790   3.183   4.451  11.993
  160MPD1    H1 2791   3.603   4.373  11.972
  160MPD1    H2 2792   3.361   4.168  12.247
  160MPD1    H3 2793   3.570   4.198  12.138
  160MPD1     N 2794   3.427   4.520  11.876
  160MPD1    H5 2795   3.524   4.536  11.853
  160MPD1    N1 2796   3.129   4.290  12.190
  160MPD1    H6 2797   3.134   4.268  12.289
  160MPD1    H7 2798   3.070   4.372  12.182
  161MPD1     C 2799   4.022   3.377  13.374
  161MPD1    C1 2800   4.088   3.385  13.493
  161MPD1    C2 2801   4.209   3.317  13.508
  161MPD1    C3 2802   4.252   3.228  13.414
  161MPD1    C4 2803   4.168   3.211  13.299
  161MPD1    C5 2804   4.056   3.287  13.284
  161MPD1     H 2805   4.267   3.335  13.598
  161MPD1    H1 2806   4.207   3.148  13.220
  161MPD1    H2 2807   3.932   3.437  13.366
  161MPD1    H3 2808   3.995   3.273  13.195
  161MPD1     N 2809   4.379   3.166  13.424
  161MPD1    H5 2810   4.441   3.186  13.502
  161MPD1    N1 2811   4.040   3.486  13.577
  161MPD1    H6 2812   4.058   3.469  13.676
  161MPD1    H7 2813   3.942   3.512  13.573
  162MPD1     C 2814   4.477   2.244  13.501
  162MPD1    C1 2815   4.383   2.341  13.478
  162MPD1    C2 2816   4.429   2.474  13.474
  162MPD1    C3 2817   4.565   2.506  13.471
  162MPD1    C4 2818   4.657   2.407  13.501
  162MPD1    C5 2819   4.606   2.282  13.515
  162MPD1     H 2820   4.359   2.555  13.463
  162MPD1    H1 2821   4.764   2.424  13.500
  162MPD1    H2 2822   4.461   2.137  13.502
  162MPD1    H3 2823   4.673   2.197  13.523
  162MPD1     N 2824   4.596   2.641  13.454
  162MPD1    H5 2825   4.524   2.709  13.434
  162MPD1    N1 2826   4.245   2.305  13.483
  162MPD1    H6 2827   4.225   2.222  13.427
  162MPD1    H7 2828   4.188   2.374  13.434
  163MPD1     C 2829   2.475   3.714   9.866
  163MPD1    C1 2830   2.583   3.801   9.846
  163MPD1    C2 2831   2.558   3.932   9.885
  163MPD1    C3 2832   2.439   3.964   9.950
  163MPD1    C4 2833   2.335   3.877   9.955
  163MPD1    C5 2834   2.352   3.754   9.906
  163MPD1     H 2835   2.639   4.004   9.883
  163MPD1    H1 2836   2.248   3.904  10.014
  163MPD1    H2 2837   2.493   3.609   9.847
  163MPD1    H3 2838   2.268   3.686   9.910
  163MPD1     N 2839   2.430   4.084  10.032
  163MPD1    H5 2840   2.513   4.134  10.062
  163MPD1    N1 2841   2.703   3.750   9.795
  163MPD1    H6 2842   2.750   3.815   9.732
  163MPD1    H7 2843   2.693   3.659   9.751
  164MPD1     C 2844   3.511   1.858   8.099
  164MPD1    C1 2845   3.629   1.867   8.028
  164MPD1    C2 2846   3.643   1.776   7.924
  164MPD1    C3 2847   3.539   1.691   7.887
  164MPD1    C4 2848   3.426   1.679   7.963
  164MPD1    C5 2849   3.414   1.763   8.070
  164MPD1     H 2850   3.727   1.782   7.856
  164MPD1    H1 2851   3.331   1.631   7.943
  164MPD1    H2 2852   3.490   1.926   8.180
  164MPD1    H3 2853   3.327   1.769   8.135
  164MPD1     N 2854   3.559   1.616   7.771
  164MPD1    H5 2855   3.649   1.623   7.725
  164MPD1    N1 2856   3.718   1.967   8.061
  164MPD1    H6 2857   3.704   1.996   8.158
  164MPD1    H7 2858   3.813   1.937   8.042
  165MPD1     C 2859   3.433   1.312   8.018
  165MPD1    C1 2860   3.317   1.244   7.993
  165MPD1    C2 2861   3.315   1.157   7.881
  165MPD1    C3 2862   3.422   1.142   7.799
  165MPD1    C4 2863   3.538   1.221   7.823
  165MPD1    C5 2864   3.538   1.303   7.932
  165MPD1     H 2865   3.231   1.097   7.849
  165MPD1    H1 2866   3.619   1.232   7.753
  165MPD1    H2 2867   3.434   1.390   8.094
  165MPD1    H3 2868   3.622   1.367   7.954
  165MPD1     N 2869   3.417   1.052   7.684
  165MPD1    H5 2870   3.332   0.997   7.677
  165MPD1    N1 2871   3.204   1.270   8.068
  165MPD1    H6 2872   3.222   1.317   8.156
  165MPD1    H7 2873   3.133   1.198   8.079
  166MPD1     C 2874   1.310   3.836  11.857
  166MPD1    C1 2875   1.252   3.878  11.735
  166MPD1    C2 2876   1.310   3.991  11.684
  166MPD1    C3 2877   1.417   4.057  11.738
  166MPD1    C4 2878   1.475   4.011  11.855
  166MPD1    C5 2879   1.416   3.901  11.906
  166MPD1     H 2880   1.263   4.022  11.592
  166MPD1    H1 2881   1.564   4.059  11.893
  166MPD1    H2 2882   1.280   3.744  11.905
  166MPD1    H3 2883   1.468   3.848  11.985
  166MPD1     N 2884   1.482   4.169  11.672
  166MPD1    H5 2885   1.556   4.215  11.723
  166MPD1    N1 2886   1.134   3.816  11.687
  166MPD1    H6 2887   1.058   3.799  11.752
  166MPD1    H7 2888   1.089   3.854  11.604
  167MPD1     C 2889   2.159   3.322  13.537
  167MPD1    C1 2890   2.096   3.206  13.545
  167MPD1    C2 2891   2.148   3.108  13.626
  167MPD1    C3 2892   2.253   3.139  13.711
  167MPD1    C4 2893   2.317   3.260  13.702
  167MPD1    C5 2894   2.270   3.348  13.612
  167MPD1     H 2895   2.103   3.009  13.636
  167MPD1    H1 2896   2.405   3.294  13.757
  167MPD1    H2 2897   2.124   3.388  13.458
  167MPD1    H3 2898   2.330   3.438  13.600
  167MPD1     N 2899   2.291   3.046  13.806
  167MPD1    H5 2900   2.278   2.948  13.787
  167MPD1    N1 2901   1.979   3.183  13.468
  167MPD1    H6 2902   1.943   3.271  13.432
  167MPD1    H7 2903   1.902   3.135  13.514
  168MPD1     C 2904   0.292   0.925  14.726
  168MPD1    C1 2905   0.408   0.969  14.778
  168MPD1    C2 2906   0.515   0.882  14.798
  168MPD1    C3 2907   0.508   0.748  14.750
  168MPD1    C4 2908   0.396   0.710  14.678
  168MPD1    C5 2909   0.290   0.796  14.663
  168MPD1     H 2910   0.606   0.917  14.845
  168MPD1    H1 2911   0.380   0.605  14.657
  168MPD1    H2 2912   0.211   0.995  14.708
  168MPD1    H3 2913   0.201   0.765  14.609
  168MPD1     N 2914   0.593   0.640  14.783
  168MPD1    H5 2915   0.562   0.555  14.737
  168MPD1    N1 2916   0.424   1.104  14.804
  168MPD1    H6 2917   0.343   1.146  14.849
  168MPD1    H7 2918   0.504   1.130  14.862
  169MPD1     C 2919   4.576   3.447   7.161
  169MPD1    C1 2920   4.664   3.372   7.233
  169MPD1    C2 2921   4.618   3.322   7.350
  169MPD1    C3 2922   4.505   3.381   7.414
  169MPD1    C4 2923   4.427   3.472   7.344
  169MPD1    C5 2924   4.471   3.503   7.219
  169MPD1     H 2925   4.671   3.236   7.390
  169MPD1    H1 2926   4.332   3.503   7.386
  169MPD1    H2 2927   4.591   3.477   7.059
  169MPD1    H3 2928   4.414   3.572   7.158
  169MPD1     N 2929   4.467   3.323   7.536
  169MPD1    H5 2930   4.524   3.246   7.568
  169MPD1    N1 2931   4.779   3.310   7.186
  169MPD1    H6 2932   0.034   3.367   7.113
  169MPD1    H7 2933   0.058   3.297   7.261
  170MPD2     C 2934   1.357   3.033  10.342
  170MPD2    C1 2935   1.306   2.910  10.324
  170MPD2    C2 2936   1.186   2.893  10.256
  170MPD2    C3 2937   1.120   3.009  10.205
  170MPD2    C4 2938   1.180   3.133  10.225
  170MPD2    C5 2939   1.293   3.144  10.297
  170MPD2     H 2940   1.157   2.793  10.228
  170MPD2    H1 2941   1.134   3.226  10.193
  170MPD2    H2 2942   1.445   3.041  10.405
  170MPD2    H3 2943   1.334   3.238  10.332
  170MPD2     N 2944   0.999   3.004  10.130
  170MPD2    H5 2945   0.980   3.083  10.069
  170MPD2    N1 2946   1.394   2.798  10.366
  170MPD2    H7 2947   1.486   2.829  10.395
  171MPD2     C 2948   0.400   2.542  10.043
  171MPD2    C1 2949   0.421   2.585   9.913
  171MPD2    C2 2950   0.358   2.544   9.798
  171MPD2    C3 2951   0.251   2.459   9.820
  171MPD2    C4 2952   0.222   2.415   9.950
  171MPD2    C5 2953   0.293   2.459  10.060
  171MPD2     H 2954   0.385   2.582   9.700
  171MPD2    H1 2955   0.149   2.336   9.965
  171MPD2    H2 2956   0.447   2.574  10.135
  171MPD2    H3 2957   0.268   2.422  10.159
  171MPD2     N 2958   0.188   2.388   9.714
  171MPD2    H5 2959   0.123   2.315   9.741
  171MPD2    N1 2960   0.527   2.682   9.906
  171MPD2    H7 2961   0.565   2.693  10.000
  172MPD2     C 2962   0.435   3.596  10.122
  172MPD2    C1 2963   0.390   3.467  10.100
  172MPD2    C2 2964   0.468   3.374  10.033
  172MPD2    C3 2965   0.593   3.411   9.983
  172MPD2    C4 2966   0.634   3.543  10.001
  172MPD2    C5 2967   0.559   3.631  10.070
  172MPD2     H 2968   0.424   3.276  10.020
  172MPD2    H1 2969   0.733   3.563   9.963
  172MPD2    H2 2970   0.392   3.680  10.174
  172MPD2    H3 2971   0.583   3.737  10.074
  172MPD2     N 2972   0.681   3.308   9.941
  172MPD2    H5 2973   0.782   3.315   9.944
  172MPD2    N1 2974   0.273   3.413  10.151
  172MPD2    H7 2975   0.270   3.312  10.150
  173MPD2     C 2976   1.481   4.531   6.807
  173MPD2    C1 2977   1.475   4.437   6.912
  173MPD2    C2 2978   1.445   4.307   6.878
  173MPD2    C3 2979   1.422   4.265   6.753
  173MPD2    C4 2980   1.418   4.353   6.649
  173MPD2    C5 2981   1.447   4.490   6.677
  173MPD2     H 2982   1.442   4.239   6.962
  173MPD2    H1 2983   1.402   4.324   6.545
  173MPD2    H2 2984   1.505   4.636   6.814
  173MPD2    H3 2985   1.449   4.566   6.599
  173MPD2     N 2986   1.393   4.132   6.743
  173MPD2    H5 2987   1.416   4.077   6.825
  173MPD2    N1 2988   1.511   4.465   7.049
  173MPD2    H7 2989   1.496   4.383   7.106
  174MPD2     C 2990   1.110   3.149   6.358
  174MPD2    C1 2991   1.121   3.139   6.494
  174MPD2    C2 2992   1.171   3.248   6.563
  174MPD2    C3 2993   1.193   3.359   6.493
  174MPD2    C4 2994   1.187   3.363   6.357
  174MPD2    C5 2995   1.146   3.260   6.292
  174MPD2     H 2996   1.182   3.249   6.671
  174MPD2    H1 2997   1.195   3.455   6.300
  174MPD2    H2 2998   1.062   3.065   6.308
  174MPD2    H3 2999   1.147   3.263   6.184
  174MPD2     N 3000   1.228   3.470   6.576
  174MPD2    H5 3001   1.228   3.456   6.677
  174MPD2    N1 3002   1.066   3.029   6.563
  174MPD2    H7 3003   1.014   2.963   6.506
  175MPD2     C 3004   2.096   3.017  12.287
  175MPD2    C1 3005   2.025   2.946  12.378
  175MPD2    C2 3006   1.891   2.947  12.380
  175MPD2    C3 3007   1.823   3.005  12.267
  175MPD2    C4 3008   1.891   3.067  12.172
  175MPD2    C5 3009   2.027   3.077  12.180
  175MPD2     H 3010   1.831   2.898  12.457
  175MPD2    H1 3011   1.846   3.107  12.082
  175MPD2    H2 3012   2.204   3.007  12.286
  175MPD2    H3 3013   2.091   3.126  12.107
  175MPD2     N 3014   1.688   2.977  12.255
  175MPD2    H5 3015   1.655   2.973  12.159
  175MPD2    N1 3016   2.103   2.874  12.472
  175MPD2    H7 3017   2.199   2.909  12.474
  176MPD2     C 3018   1.913   2.587  11.756
  176MPD2    C1 3019   1.796   2.602  11.827
  176MPD2    C2 3020   1.800   2.591  11.961
  176MPD2    C3 3021   1.915   2.559  12.032
  176MPD2    C4 3022   2.031   2.541  11.965
  176MPD2    C5 3023   2.025   2.547  11.824
  176MPD2     H 3024   1.703   2.603  12.007
  176MPD2    H1 3025   2.122   2.527  12.022
  176MPD2    H2 3026   1.918   2.576  11.648
  176MPD2    H3 3027   2.116   2.524  11.769
  176MPD2     N 3028   1.915   2.547  12.175
  176MPD2    H5 3029   2.002   2.533  12.226
  176MPD2    N1 3030   1.673   2.638  11.762
  176MPD2    H7 3031   1.602   2.675  11.825
  177MPD2     C 3032   1.793   2.293  13.196
  177MPD2    C1 3033   1.719   2.229  13.101
  177MPD2    C2 3034   1.720   2.277  12.969
  177MPD2    C3 3035   1.802   2.387  12.944
  177MPD2    C4 3036   1.880   2.445  13.039
  177MPD2    C5 3037   1.880   2.393  13.163
  177MPD2     H 3038   1.668   2.226  12.888
  177MPD2    H1 3039   1.947   2.524  13.009
  177MPD2    H2 3040   1.797   2.250  13.295
  177MPD2    H3 3041   1.936   2.438  13.245
  177MPD2     N 3042   1.810   2.467  12.831
  177MPD2    H5 3043   1.883   2.537  12.825
  177MPD2    N1 3044   1.650   2.112  13.131
  177MPD2    H7 3045   1.661   2.077  13.226
  178MPD2     C 3046   4.651   1.253   7.242
  178MPD2    C1 3047   4.664   1.348   7.336
  178MPD2    C2 3048   4.674   1.477   7.297
  178MPD2    C3 3049   4.673   1.516   7.164
  178MPD2    C4 3050   4.657   1.425   7.071
  178MPD2    C5 3051   4.648   1.295   7.112
  178MPD2     H 3052   4.688   1.553   7.373
  178MPD2    H1 3053   4.664   1.434   6.964
  178MPD2    H2 3054   4.633   1.149   7.269
  178MPD2    H3 3055   4.640   1.222   7.032
  178MPD2     N 3056   4.713   1.647   7.135
  178MPD2    H5 3057   4.760   1.688   7.215
  178MPD2    N1 3058   4.670   1.313   7.472
  178MPD2    H7 3059   4.670   1.393   7.534
  179MPD2     C 3060   0.296   0.743   7.888
  179MPD2    C1 3061   0.160   0.738   7.860
  179MPD2    C2 3062   0.105   0.617   7.821
  179MPD2    C3 3063   0.186   0.506   7.800
  179MPD2    C4 3064   0.324   0.519   7.827
  179MPD2    C5 3065   0.371   0.633   7.872
  179MPD2     H 3066   0.001   0.615   7.790
  179MPD2    H1 3067   0.395   0.437   7.825
  179MPD2    H2 3068   0.337   0.840   7.916
  179MPD2    H3 3069   0.478   0.639   7.888
  179MPD2     N 3070   0.134   0.387   7.736
  179MPD2    H5 3071   0.034   0.371   7.749
  179MPD2    N1 3072   0.082   0.856   7.857
  179MPD2    H7 3073   0.130   0.943   7.881
  180MPD2     C 3074   4.142   0.830   7.934
  180MPD2    C1 3075   4.245   0.867   7.844
  180MPD2    C2 3076   4.297   1.001   7.849
  180MPD2    C3 3077   4.262   1.087   7.955
  180MPD2    C4 3078   4.162   1.045   8.040
  180MPD2    C5 3079   4.096   0.923   8.021
  180MPD2     H 3080   4.364   1.032   7.769
  180MPD2    H1 3081   4.140   1.113   8.122
  180MPD2    H2 3082   4.089   0.735   7.928
  180MPD2    H3 3083   4.011   0.894   8.081
  180MPD2     N 3084   4.331   1.212   7.983
  180MPD2    H5 3085   4.292   1.273   8.054
  180MPD2    N1 3086   4.289   0.768   7.755
  180MPD2    H7 3087   4.266   0.670   7.771
  181MPD2     C 3088   4.288   2.944   9.860
  181MPD2    C1 3089   4.349   2.831   9.820
  181MPD2    C2 3090   4.307   2.704   9.865
  181MPD2    C3 3091   4.207   2.693   9.960
  181MPD2    C4 3092   4.156   2.817  10.016
  181MPD2    C5 3093   4.194   2.935   9.960
  181MPD2     H 3094   4.351   2.611   9.830
  181MPD2    H1 3095   4.087   2.810  10.098
  181MPD2    H2 3096   4.319   3.043   9.829
  181MPD2    H3 3097   4.149   3.025  10.001
  181MPD2     N 3098   4.167   2.560  10.010
  181MPD2    H5 3099   4.189   2.478   9.955
  181MPD2    N1 3100   4.448   2.858   9.727
  181MPD2    H7 3101   4.461   2.957   9.705
  182MPD2     C 3102   3.985   2.078  10.695
  182MPD2    C1 3103   4.079   2.035  10.605
  182MPD2    C2 3104   4.177   1.944  10.637
  182MPD2    C3 3105   4.202   1.911  10.770
  182MPD2    C4 3106   4.104   1.945  10.864
  182MPD2    C5 3107   3.995   2.023  10.820
  182MPD2     H 3108   4.240   1.905  10.559
  182MPD2    H1 3109   4.112   1.908  10.966
  182MPD2    H2 3110   3.895   2.134  10.672
  182MPD2    H3 3111   3.922   2.062  10.889
  182MPD2     N 3112   4.323   1.842  10.801
  182MPD2    H5 3113   4.390   1.823  10.727
  182MPD2    N1 3114   4.074   2.073  10.472
  182MPD2    H7 3115   4.139   2.033  10.406
  183MPD2     C 3116   2.768   3.192  14.292
  183MPD2    C1 3117   2.812   3.282  14.194
  183MPD2    C2 3118   2.833   3.238  14.065
  183MPD2    C3 3119   2.789   3.111  14.031
  183MPD2    C4 3120   2.747   3.022  14.127
  183MPD2    C5 3121   2.737   3.058  14.259
  183MPD2     H 3122   2.859   3.313  13.991
  183MPD2    H1 3123   2.717   2.921  14.102
  183MPD2    H2 3124   2.773   3.223  14.395
  183MPD2    H3 3125   2.711   2.983  14.332
  183MPD2     N 3126   2.772   3.082  13.892
  183MPD2    H5 3127   2.700   3.015  13.866
  183MPD2    N1 3128   2.832   3.416  14.242
  183MPD2    H7 3129   2.811   3.439  14.338
  184MPD2     C 3130   2.198   4.051  14.431
  184MPD2    C1 3131   2.290   3.997  14.527
  184MPD2    C2 3132   2.401   3.928  14.483
  184MPD2    C3 3133   2.428   3.916  14.351
  184MPD2    C4 3134   2.340   3.977  14.258
  184MPD2    C5 3135   2.221   4.040  14.298
  184MPD2     H 3136   2.464   3.883  14.560
  184MPD2    H1 3137   2.354   3.956  14.153
  184MPD2    H2 3138   2.102   4.095  14.456
  184MPD2    H3 3139   2.149   4.086  14.231
  184MPD2     N 3140   2.545   3.850  14.317
  184MPD2    H5 3141   2.606   3.826  14.395
  184MPD2    N1 3142   2.263   4.018  14.664
  184MPD2    H7 3143   2.172   4.058  14.683
  185MPD2     C 3144   3.215   3.640  13.546
  185MPD2    C1 3145   3.160   3.539  13.624
  185MPD2    C2 3146   3.091   3.568  13.743
  185MPD2    C3 3147   3.094   3.705  13.776
  185MPD2    C4 3148   3.134   3.806  13.695
  185MPD2    C5 3149   3.192   3.772  13.580
  185MPD2     H 3150   3.052   3.488  13.805
  185MPD2    H1 3151   3.130   3.912  13.718
  185MPD2    H2 3152   3.269   3.625  13.453
  185MPD2    H3 3153   3.236   3.843  13.512
  185MPD2     N 3154   3.045   3.729  13.908
  185MPD2    H5 3155   3.013   3.649  13.961
  185MPD2    N1 3156   3.189   3.404  13.584
  185MPD2    H7 3157   3.175   3.383  13.485
  186MPD2     C 3158   4.549   3.572   8.654
  186MPD2    C1 3159   4.619   3.482   8.728
  186MPD2    C2 3160   4.575   3.348   8.726
  186MPD2    C3 3161   4.472   3.309   8.645
  186MPD2    C4 3162   4.400   3.403   8.577
  186MPD2    C5 3163   4.441   3.536   8.581
  186MPD2     H 3164   4.626   3.283   8.796
  186MPD2    H1 3165   4.313   3.372   8.520
  186MPD2    H2 3166   4.558   3.680   8.654
  186MPD2    H3 3167   4.382   3.605   8.522
  186MPD2     N 3168   4.435   3.172   8.629
  186MPD2    H5 3169   4.358   3.152   8.566
  186MPD2    N1 3170   4.734   3.516   8.797
  186MPD2    H7 3171   4.769   3.440   8.854
  187MPD2     C 3172   0.001   2.238   8.903
  187MPD2    C1 3173   4.781   2.345   8.979
  187MPD2    C2 3174   4.752   2.464   8.919
  187MPD2    C3 3175   4.707   2.465   8.788
  187MPD2    C4 3176   4.715   2.352   8.708
  187MPD2    C5 3177   4.763   2.244   8.770
  187MPD2     H 3178   4.734   2.549   8.983
  187MPD2    H1 3179   4.681   2.354   8.604
  187MPD2    H2 3180   0.034   2.142   8.943
  187MPD2    H3 3181   4.780   2.161   8.702
  187MPD2     N 3182   4.655   2.587   8.739
  187MPD2    H5 3183   4.626   2.657   8.806
  187MPD2    N1 3184   0.017   2.355   9.116
  187MPD2    H7 3185   0.010   2.443   9.166
  188MPD2     C 3186   0.162   3.213   8.399
  188MPD2    C1 3187   0.036   3.237   8.380
  188MPD2    C2 3188   4.781   3.366   8.382
  188MPD2    C3 3189   0.078   3.476   8.410
  188MPD2    C4 3190   0.207   3.447   8.429
  188MPD2    C5 3191   0.248   3.315   8.426
  188MPD2     H 3192   4.681   3.381   8.343
  188MPD2    H1 3193   0.287   3.516   8.456
  188MPD2    H2 3194   0.204   3.114   8.392
  188MPD2    H3 3195   0.354   3.295   8.439
  188MPD2     N 3196   0.054   3.613   8.398
  188MPD2    H5 3197   0.122   3.684   8.424
  188MPD2    N1 3198   4.720   3.138   8.362
  188MPD2    H7 3199   4.623   3.167   8.376
  189MPD2     C 3200   1.302   2.983   8.750
  189MPD2    C1 3201   1.292   2.940   8.620
  189MPD2    C2 3202   1.279   3.043   8.527
  189MPD2    C3 3203   1.286   3.182   8.557
  189MPD2    C4 3204   1.312   3.218   8.687
  189MPD2    C5 3205   1.309   3.120   8.785
  189MPD2     H 3206   1.272   3.004   8.426
  189MPD2    H1 3207   1.330   3.318   8.723
  189MPD2    H2 3208   1.317   2.902   8.821
  189MPD2    H3 3209   1.326   3.155   8.886
  189MPD2     N 3210   1.297   3.278   8.460
  189MPD2    H5 3211   1.366   3.351   8.477
  189MPD2    N1 3212   1.305   2.807   8.580
  189MPD2    H7 3213   1.288   2.734   8.648
  190MPD2     C 3214   0.959   2.173   8.920
  190MPD2    C1 3215   0.937   2.151   8.783
  190MPD2    C2 3216   1.032   2.203   8.700
  190MPD2    C3 3217   1.132   2.283   8.750
  190MPD2    C4 3218   1.138   2.322   8.878
  190MPD2    C5 3219   1.048   2.263   8.962
  190MPD2     H 3220   1.034   2.165   8.598
  190MPD2    H1 3221   1.217   2.377   8.928
  190MPD2    H2 3222   0.888   2.137   8.994
  190MPD2    H3 3223   1.054   2.298   9.065
  190MPD2     N 3224   1.221   2.348   8.661
  190MPD2    H5 3225   1.268   2.427   8.706
  190MPD2    N1 3226   0.838   2.064   8.738
  190MPD2    H7 3227   0.787   2.020   8.813
  191MPD2     C 3228   1.955   2.332   8.366
  191MPD2    C1 3229   1.865   2.390   8.277
  191MPD2    C2 3230   1.908   2.404   8.148
  191MPD2    C3 3231   2.037   2.399   8.110
  191MPD2    C4 3232   2.128   2.360   8.202
  191MPD2    C5 3233   2.086   2.317   8.323
  191MPD2     H 3234   1.839   2.427   8.068
  191MPD2    H1 3235   2.235   2.355   8.184
  191MPD2    H2 3236   1.932   2.315   8.471
  191MPD2    H3 3237   2.162   2.286   8.394
  191MPD2     N 3238   2.071   2.431   7.978
  191MPD2    H5 3239   1.987   2.458   7.927
  191MPD2    N1 3240   1.728   2.399   8.316
  191MPD2    H7 3241   1.709   2.373   8.413
  192MPD2     C 3242   2.393   2.391  11.903
  192MPD2    C1 3243   2.455   2.492  11.834
  192MPD2    C2 3244   2.547   2.454  11.737
  192MPD2    C3 3245   2.569   2.321  11.709
  192MPD2    C4 3246   2.496   2.219  11.771
  192MPD2    C5 3247   2.411   2.257  11.868
  192MPD2     H 3248   2.605   2.528  11.684
  192MPD2    H1 3249   2.504   2.116  11.738
  192MPD2    H2 3250   2.326   2.407  11.986
  192MPD2    H3 3251   2.353   2.184  11.922
  192MPD2     N 3252   2.669   2.274  11.627
  192MPD2    H5 3253   2.707   2.180  11.626
  192MPD2    N1 3254   2.444   2.628  11.868
  192MPD2    H7 3255   2.497   2.698  11.818
  193MPD2     C 3256   2.473   3.205  12.574
  193MPD2    C1 3257   2.559   3.204  12.475
  193MPD2    C2 3258   2.678   3.278  12.484
  193MPD2    C3 3259   2.707   3.353  12.597
  193MPD2    C4 3260   2.612   3.360  12.696
  193MPD2    C5 3261   2.503   3.279  12.684
  193MPD2     H 3262   2.744   3.277  12.398
  193MPD2    H1 3263   2.624   3.432  12.776
  193MPD2    H2 3264   2.377   3.154  12.566
  193MPD2    H3 3265   2.425   3.276  12.759
  193MPD2     N 3266   2.833   3.421  12.611
  193MPD2    H5 3267   2.841   3.479  12.694
  193MPD2    N1 3268   2.544   3.116  12.360
  193MPD2    H7 3269   2.594   3.128  12.273
  194MPD2     C 3270   0.440   3.920  14.503
  194MPD2    C1 3271   0.347   3.828  14.542
  194MPD2    C2 3272   0.228   3.862  14.596
  194MPD2    C3 3273   0.202   3.994  14.609
  194MPD2    C4 3274   0.300   4.088  14.599
  194MPD2    C5 3275   0.420   4.054  14.540
  194MPD2     H 3276   0.164   3.779  14.624
  194MPD2    H1 3277   0.283   4.194  14.617
  194MPD2    H2 3278   0.530   3.891  14.450
  194MPD2    H3 3279   0.493   4.133  14.525
  194MPD2     N 3280   0.071   4.039  14.637
  194MPD2    H5 3281   0.054   4.139  14.643
  194MPD2    N1 3282   0.374   3.695  14.526
  194MPD2    H7 3283   0.323   3.632  14.587
  195MPD2     C 3284   3.936   3.946  14.626
  195MPD2    C1 3285   4.067   3.926  14.591
  195MPD2    C2 3286   4.103   3.866  14.472
  195MPD2    C3 3287   4.005   3.815  14.393
  195MPD2    C4 3288   3.873   3.825  14.433
  195MPD2    C5 3289   3.842   3.902  14.541
  195MPD2     H 3290   4.206   3.865  14.439
  195MPD2    H1 3291   3.792   3.799  14.366
  195MPD2    H2 3292   3.904   3.998  14.716
  195MPD2    H3 3293   3.737   3.916  14.561
  195MPD2     N 3294   4.022   3.770  14.260
  195MPD2    H5 3295   3.941   3.724  14.220
  195MPD2    N1 3296   4.168   3.972  14.680
  195MPD2    H7 3297   4.140   4.025  14.762
  196MPD2     C 3298   4.477   4.171  13.941
  196MPD2    C1 3299   4.560   4.279  13.986
  196MPD2    C2 3300   4.561   4.303  14.123
  196MPD2    C3 3301   4.491   4.223  14.212
  196MPD2    C4 3302   4.411   4.125  14.165
  196MPD2    C5 3303   4.406   4.096  14.031
  196MPD2     H 3304   4.620   4.383  14.165
  196MPD2    H1 3305   4.364   4.055  14.232
  196MPD2    H2 3306   4.474   4.132  13.840
  196MPD2    H3 3307   4.368   3.998  14.004
  196MPD2     N 3308   4.509   4.251  14.352
  196MPD2    H5 3309   4.594   4.300  14.379
  196MPD2    N1 3310   4.639   4.361  13.908
  196MPD2    H7 3311   4.700   4.425  13.957
  197MPD2     C 3312   0.847   2.177  11.735
  197MPD2    C1 3313   0.814   2.229  11.865
  197MPD2    C2 3314   0.914   2.228  11.963
  197MPD2    C3 3315   1.047   2.191  11.935
  197MPD2    C4 3316   1.082   2.153  11.803
  197MPD2    C5 3317   0.983   2.152  11.710
  197MPD2     H 3318   0.895   2.255  12.067
  197MPD2    H1 3319   1.188   2.142  11.784
  197MPD2    H2 3320   0.779   2.170  11.651
  197MPD2    H3 3321   1.016   2.130  11.609
  197MPD2     N 3322   1.140   2.191  12.039
  197MPD2    H5 3323   1.091   2.204  12.126
  197MPD2    N1 3324   0.680   2.276  11.896
  197MPD2    H7 3325   0.619   2.273  11.815
  198MPD2     C 3326   0.708   2.955  11.950
  198MPD2    C1 3327   0.572   2.929  11.939
  198MPD2    C2 3328   0.488   3.031  11.897
  198MPD2    C3 3329   0.542   3.152  11.858
  198MPD2    C4 3330   0.677   3.167  11.858
  198MPD2    C5 3331   0.763   3.073  11.904
  198MPD2     H 3332   0.380   3.021  11.894
  198MPD2    H1 3333   0.735   3.253  11.824
  198MPD2    H2 3334   0.779   2.876  11.973
  198MPD2    H3 3335   0.870   3.079  11.884
  198MPD2     N 3336   0.461   3.264  11.836
  198MPD2    H5 3337   0.360   3.263  11.840
  198MPD2    N1 3338   0.525   2.797  11.978
  198MPD2    H7 3339   0.598   2.737  12.014
  199MPD2     C 3340   4.685   2.411  11.654
  199MPD2    C1 3341   0.020   2.363  11.636
  199MPD2    C2 3342   0.046   2.281  11.527
  199MPD2    C3 3343   4.733   2.240  11.440
  199MPD2    C4 3344   4.605   2.261  11.473
  199MPD2    C5 3345   4.580   2.352  11.580
  199MPD2     H 3346   0.146   2.248  11.503
  199MPD2    H1 3347   4.522   2.237  11.408
  199MPD2    H2 3348   4.661   2.484  11.731
  199MPD2    H3 3349   4.475   2.372  11.601
  199MPD2     N 3350   4.761   2.157  11.328
  199MPD2    H5 3351   4.681   2.111  11.285
  199MPD2    N1 3352   0.117   2.408  11.726
  199MPD2    H7 3353   0.088   2.475  11.797
  200MPD2     C 3354   4.533   2.655  11.417
  200MPD2    C1 3355   4.664   2.650  11.370
  200MPD2    C2 3356   4.681   2.563  11.266
  200MPD2    C3 3357   4.586   2.482  11.203
  200MPD2    C4 3358   4.462   2.478  11.263
  200MPD2    C5 3359   4.433   2.573  11.366
  200MPD2     H 3360   4.778   2.575  11.218
  200MPD2    H1 3361   4.388   2.406  11.232
  200MPD2    H2 3362   4.516   2.720  11.501
  200MPD2    H3 3363   4.335   2.568  11.411
  200MPD2     N 3364   4.612   2.413  11.083
  200MPD2    H5 3365   4.695   2.451  11.039
  200MPD2    N1 3366   4.763   2.713  11.442
  200MPD2    H7 3367   4.739   2.791  11.502
  201MPD2     C 3368   4.564   2.752  10.563
  201MPD2    C1 3369   4.486   2.653  10.624
  201MPD2    C2 3370   4.352   2.679  10.639
  201MPD2    C3 3371   4.300   2.797  10.607
  201MPD2    C4 3372   4.378   2.901  10.561
  201MPD2    C5 3373   4.509   2.875  10.530
  201MPD2     H 3374   4.288   2.604  10.685
  201MPD2    H1 3375   4.332   2.996  10.538
  201MPD2    H2 3376   4.666   2.735  10.533
  201MPD2    H3 3377   4.569   2.946  10.475
  201MPD2     N 3378   4.165   2.819  10.614
  201MPD2    H5 3379   4.133   2.915  10.599
  201MPD2    N1 3380   4.537   2.526  10.657
  201MPD2    H7 3381   4.479   2.457  10.704
  202MPD2     C 3382   0.519   1.764  10.931
  202MPD2    C1 3383   0.466   1.814  11.046
  202MPD2    C2 3384   0.371   1.916  11.042
  202MPD2    C3 3385   0.331   1.976  10.920
  202MPD2    C4 3386   0.410   1.945  10.811
  202MPD2    C5 3387   0.498   1.842  10.816
  202MPD2     H 3388   0.314   1.922  11.134
  202MPD2    H1 3389   0.390   1.991  10.716
  202MPD2    H2 3390   0.581   1.675  10.923
  202MPD2    H3 3391   0.542   1.794  10.729
  202MPD2     N 3392   0.216   2.063  10.918
  202MPD2    H5 3393   0.162   2.063  11.004
  202MPD2    N1 3394   0.491   1.750  11.169
  202MPD2    H7 3395   0.537   1.659  11.165
  203MPD2     C 3396   1.237   1.591   8.688
  203MPD2    C1 3397   1.161   1.639   8.583
  203MPD2    C2 3398   1.215   1.643   8.459
  203MPD2    C3 3399   1.347   1.605   8.441
  203MPD2    C4 3400   1.428   1.571   8.547
  203MPD2    C5 3401   1.368   1.565   8.668
  203MPD2     H 3402   1.166   1.691   8.375
  203MPD2    H1 3403   1.527   1.530   8.531
  203MPD2    H2 3404   1.199   1.585   8.789
  203MPD2    H3 3405   1.425   1.533   8.755
  203MPD2     N 3406   1.410   1.610   8.318
  203MPD2    H5 3407   1.508   1.584   8.315
  203MPD2    N1 3408   1.027   1.662   8.608
  203MPD2    H7 3409   1.008   1.675   8.707
  204MPD2     C 3410   2.011   1.071   8.336
  204MPD2    C1 3411   1.908   1.126   8.406
  204MPD2    C2 3412   1.811   1.200   8.332
  204MPD2    C3 3413   1.814   1.213   8.190
  204MPD2    C4 3414   1.914   1.151   8.123
  204MPD2    C5 3415   2.009   1.082   8.196
  204MPD2     H 3416   1.735   1.259   8.382
  204MPD2    H1 3417   1.925   1.158   8.015
  204MPD2    H2 3418   2.090   1.015   8.384
  204MPD2    H3 3419   2.096   1.036   8.151
  204MPD2     N 3420   1.705   1.300   8.144
  204MPD2    H5 3421   1.647   1.342   8.216
  204MPD2    N1 3422   1.895   1.110   8.548
  204MPD2    H7 3423   1.963   1.048   8.591
  205MPD2     C 3424   0.978   1.870   7.581
  205MPD2    C1 3425   0.975   1.760   7.652
  205MPD2    C2 3426   1.091   1.690   7.679
  205MPD2    C3 3427   1.214   1.745   7.652
  205MPD2    C4 3428   1.215   1.874   7.602
  205MPD2    C5 3429   1.097   1.928   7.553
  205MPD2     H 3430   1.095   1.595   7.731
  205MPD2    H1 3431   1.303   1.929   7.571
  205MPD2    H2 3432   0.890   1.925   7.552
  205MPD2    H3 3433   1.096   2.021   7.497
  205MPD2     N 3434   1.332   1.692   7.705
  205MPD2    H5 3435   1.420   1.742   7.695
  205MPD2    N1 3436   0.844   1.715   7.679
  205MPD2    H7 3437   0.771   1.782   7.661
  206MPD2     C 3438   1.903   4.028  11.041
  206MPD2    C1 3439   1.877   4.062  11.172
  206MPD2    C2 3440   1.940   4.171  11.231
  206MPD2    C3 3441   2.034   4.239  11.152
  206MPD2    C4 3442   2.043   4.214  11.017
  206MPD2    C5 3443   1.979   4.107  10.958
  206MPD2     H 3444   1.912   4.199  11.333
  206MPD2    H1 3445   2.117   4.259  10.952
  206MPD2    H2 3446   1.855   3.940  11.000
  206MPD2    H3 3447   2.010   4.078  10.858
  206MPD2     N 3448   2.099   4.354  11.211
  206MPD2    H5 3449   2.095   4.364  11.311
  206MPD2    N1 3450   1.786   3.976  11.238
  206MPD2    H7 3451   1.742   3.895  11.196
  207MPD2     C 3452   1.390   3.555  11.001
  207MPD2    C1 3453   1.343   3.577  11.127
  207MPD2    C2 3454   1.231   3.513  11.170
  207MPD2    C3 3455   1.159   3.424  11.085
  207MPD2    C4 3456   1.218   3.394  10.966
  207MPD2    C5 3457   1.329   3.470  10.919
  207MPD2     H 3458   1.183   3.539  11.263
  207MPD2    H1 3459   1.174   3.314  10.909
  207MPD2    H2 3460   1.478   3.602  10.958
  207MPD2    H3 3461   1.372   3.450  10.821
  207MPD2     N 3462   1.028   3.379  11.121
  207MPD2    H5 3463   1.007   3.397  11.219
  207MPD2    N1 3464   1.417   3.669  11.213
  207MPD2    H7 3465   1.494   3.728  11.184
  208MPD2     C 3466   1.613   3.221  11.988
  208MPD2    C1 3467   1.535   3.221  11.877
  208MPD2    C2 3468   1.511   3.344  11.807
  208MPD2    C3 3469   1.582   3.460  11.838
  208MPD2    C4 3470   1.665   3.455  11.944
  208MPD2    C5 3471   1.681   3.337  12.019
  208MPD2     H 3472   1.441   3.338  11.724
  208MPD2    H1 3473   1.732   3.537  11.966
  208MPD2    H2 3474   1.636   3.131  12.044
  208MPD2    H3 3475   1.757   3.344  12.097
  208MPD2     N 3476   1.577   3.573  11.742
  208MPD2    H5 3477   1.510   3.560  11.667
  208MPD2    N1 3478   1.501   3.092  11.824
  208MPD2    H7 3479   1.539   3.009  11.868
  209MPD2     C 3480   2.583   1.937  10.384
  209MPD2    C1 3481   2.692   2.000  10.319
  209MPD2    C2 3482   2.764   1.927  10.230
  209MPD2    C3 3483   2.735   1.797  10.201
  209MPD2    C4 3484   2.636   1.730  10.280
  209MPD2    C5 3485   2.559   1.803  10.366
  209MPD2     H 3486   2.845   1.979  10.182
  209MPD2    H1 3487   2.621   1.623  10.271
  209MPD2    H2 3488   2.517   1.996  10.447
  209MPD2    H3 3489   2.487   1.754  10.432
  209MPD2     N 3490   2.816   1.727  10.109
  209MPD2    H5 3491   2.906   1.770  10.091
  209MPD2    N1 3492   2.722   2.141  10.333
  209MPD2    H7 3493   2.796   2.187  10.281
  210MPD2     C 3494   3.303   2.804   9.972
  210MPD2    C1 3495   3.221   2.893  10.037
  210MPD2    C2 3496   3.118   2.839  10.120
  210MPD2    C3 3497   3.100   2.705  10.146
  210MPD2    C4 3498   3.178   2.625  10.065
  210MPD2    C5 3499   3.280   2.671   9.991
  210MPD2     H 3500   3.062   2.911  10.179
  210MPD2    H1 3501   3.157   2.518  10.060
  210MPD2    H2 3502   3.394   2.828   9.918
  210MPD2    H3 3503   3.330   2.603   9.923
  210MPD2     N 3504   2.997   2.662  10.226
  210MPD2    H5 3505   2.960   2.732  10.289
  210MPD2    N1 3506   3.240   3.034  10.015
  210MPD2    H7 3507   3.279   3.080   9.933
  211MPD2     C 3508   2.238   2.800  10.339
  211MPD2    C1 3509   2.273   2.680  10.399
  211MPD2    C2 3510   2.180   2.584  10.419
  211MPD2    C3 3511   2.048   2.610  10.384
  211MPD2    C4 3512   2.013   2.741  10.356
  211MPD2    C5 3513   2.106   2.835  10.320
  211MPD2     H 3514   2.218   2.485  10.444
  211MPD2    H1 3515   1.907   2.762  10.345
  211MPD2    H2 3516   2.320   2.867  10.316
  211MPD2    H3 3517   2.078   2.933  10.284
  211MPD2     N 3518   1.953   2.508  10.372
  211MPD2    H5 3519   1.858   2.529  10.342
  211MPD2    N1 3520   2.401   2.636  10.414
  211MPD2    H7 3521   2.415   2.552  10.468
  212MPD2     C 3522   1.736   2.799  13.719
  212MPD2    C1 3523   1.634   2.785  13.631
  212MPD2    C2 3524   1.560   2.667  13.629
  212MPD2    C3 3525   1.578   2.569  13.726
  212MPD2    C4 3526   1.688   2.587  13.813
  212MPD2    C5 3527   1.769   2.694  13.800
  212MPD2     H 3528   1.476   2.648  13.564
  212MPD2    H1 3529   1.716   2.501  13.872
  212MPD2    H2 3530   1.802   2.886  13.722
  212MPD2    H3 3531   1.845   2.704  13.877
  212MPD2     N 3532   1.510   2.443  13.731
  212MPD2    H5 3533   1.462   2.418  13.645
  212MPD2    N1 3534   1.592   2.893  13.546
  212MPD2    H7 3535   1.513   2.882  13.483
  213MPD2     C 3536   1.813   1.790  13.646
  213MPD2    C1 3537   1.804   1.921  13.688
  213MPD2    C2 3538   1.898   2.007  13.638
  213MPD2    C3 3539   1.992   1.955  13.548
  213MPD2    C4 3540   1.987   1.827  13.498
  213MPD2    C5 3541   1.898   1.738  13.554
  213MPD2     H 3542   1.901   2.114  13.657
  213MPD2    H1 3543   2.059   1.789  13.427
  213MPD2    H2 3544   1.745   1.710  13.674
  213MPD2    H3 3545   1.900   1.633  13.524
  213MPD2     N 3546   2.092   2.045  13.487
  213MPD2    H5 3547   2.152   1.994  13.423
  213MPD2    N1 3548   1.705   1.971  13.772
  213MPD2    H7 3549   1.710   2.071  13.793
  214MPD2     C 3550   1.043   3.158  10.647
  214MPD2    C1 3551   0.989   3.158  10.525
  214MPD2    C2 3552   0.946   3.032  10.474
  214MPD2    C3 3553   0.957   2.917  10.548
  214MPD2    C4 3554   1.011   2.930  10.674
  214MPD2    C5 3555   1.052   3.048  10.725
  214MPD2     H 3556   0.907   3.021  10.373
  214MPD2    H1 3557   1.053   2.851  10.735
  214MPD2    H2 3558   1.075   3.255  10.685
  214MPD2    H3 3559   1.103   3.045  10.820
  214MPD2     N 3560   0.938   2.791  10.483
  214MPD2    H5 3561   0.940   2.785  10.382
  214MPD2    N1 3562   0.969   3.285  10.455
  214MPD2    H7 3563   1.007   3.365  10.504
  215MPD2     C 3564   0.646   2.328   9.786
  215MPD2    C1 3565   0.610   2.284   9.913
  215MPD2    C2 3566   0.689   2.329  10.014
  215MPD2    C3 3567   0.803   2.408  10.001
  215MPD2    C4 3568   0.825   2.461   9.871
  215MPD2    C5 3569   0.752   2.416   9.761
  215MPD2     H 3570   0.669   2.301  10.117
  215MPD2    H1 3571   0.902   2.522   9.826
  215MPD2    H2 3572   0.588   2.299   9.698
  215MPD2    H3 3573   0.767   2.459   9.663
  215MPD2     N 3574   0.884   2.430  10.113
  215MPD2    H5 3575   0.855   2.385  10.199
  215MPD2    N1 3576   0.501   2.192   9.925
  215MPD2    H7 3577   0.448   2.181   9.839
  216MPD2     C 3578   2.788   4.249  10.804
  216MPD2    C1 3579   2.671   4.247  10.881
  216MPD2    C2 3580   2.579   4.156  10.842
  216MPD2    C3 3581   2.572   4.103  10.719
  216MPD2    C4 3582   2.679   4.125  10.636
  216MPD2    C5 3583   2.791   4.192  10.681
  216MPD2     H 3584   2.500   4.127  10.910
  216MPD2    H1 3585   2.694   4.080  10.538
  216MPD2    H2 3586   2.870   4.307  10.844
  216MPD2    H3 3587   2.885   4.196  10.628
  216MPD2     N 3588   2.466   4.007  10.697
  216MPD2    H5 3589   2.415   3.973  10.778
  216MPD2    N1 3590   2.667   4.317  11.001
  216MPD2    H7 3591   2.593   4.290  11.066
  217MPD2     C 3592   2.702   0.325  11.253
  217MPD2    C1 3593   2.786   0.243  11.324
  217MPD2    C2 3594   2.912   0.289  11.360
  217MPD2    C3 3595   2.952   0.419  11.338
  217MPD2    C4 3596   2.871   0.499  11.260
  217MPD2    C5 3597   2.747   0.449  11.225
  217MPD2     H 3598   2.969   0.230  11.431
  217MPD2    H1 3599   2.892   0.602  11.233
  217MPD2    H2 3600   2.606   0.291  11.218
  217MPD2    H3 3601   2.689   0.519  11.167
  217MPD2     N 3602   3.086   0.446  11.369
  217MPD2    H5 3603   3.133   0.381  11.431
  217MPD2    N1 3604   2.757   0.103  11.347
  217MPD2    H7 3605   2.833   0.050  11.388
  218MPD2     C 3606   2.837   4.423  12.026
  218MPD2    C1 3607   2.754   4.355  11.946
  218MPD2    C2 3608   2.760   4.367  11.812
  218MPD2    C3 3609   2.848   4.451  11.744
  218MPD2    C4 3610   2.920   4.537  11.826
  218MPD2    C5 3611   2.910   4.525  11.965
  218MPD2     H 3612   2.674   4.342  11.751
  218MPD2    H1 3613   2.988   4.616  11.796
  218MPD2    H2 3614   2.843   4.397  12.131
  218MPD2    H3 3615   2.991   4.571  12.021
  218MPD2     N 3616   2.833   4.481  11.605
  218MPD2    H5 3617   2.889   4.560  11.572
  218MPD2    N1 3618   2.665   4.262  12.002
  218MPD2    H7 3619   2.652   4.264  12.102
  219MPD2     C 3620   1.841   4.008   8.191
  219MPD2    C1 3621   1.812   3.929   8.299
  219MPD2    C2 3622   1.721   3.818   8.271
  219MPD2    C3 3623   1.677   3.797   8.143
  219MPD2    C4 3624   1.709   3.880   8.050
  219MPD2    C5 3625   1.791   3.988   8.069
  219MPD2     H 3626   1.707   3.746   8.351
  219MPD2    H1 3627   1.677   3.854   7.949
  219MPD2    H2 3628   1.901   4.097   8.203
  219MPD2    H3 3629   1.804   4.060   7.989
  219MPD2     N 3630   1.592   3.686   8.105
  219MPD2    H5 3631   1.584   3.658   8.008
  219MPD2    N1 3632   1.880   3.948   8.419
  219MPD2    H7 3633   1.962   4.007   8.411
  220MPD2     C 3634   1.479   3.431   8.992
  220MPD2    C1 3635   1.604   3.493   8.967
  220MPD2    C2 3636   1.706   3.472   9.059
  220MPD2    C3 3637   1.686   3.376   9.161
  220MPD2    C4 3638   1.563   3.315   9.176
  220MPD2    C5 3639   1.455   3.350   9.100
  220MPD2     H 3640   1.804   3.512   9.036
  220MPD2    H1 3641   1.536   3.243   9.253
  220MPD2    H2 3642   1.393   3.445   8.927
  220MPD2    H3 3643   1.363   3.293   9.109
  220MPD2     N 3644   1.783   3.333   9.254
  220MPD2    H5 3645   1.748   3.280   9.333
  220MPD2    N1 3646   1.622   3.587   8.859
  220MPD2    H7 3647   1.698   3.654   8.858
  221MPD2     C 3648   1.279   4.251   8.885
  221MPD2    C1 3649   1.295   4.217   8.752
  221MPD2    C2 3650   1.246   4.302   8.654
  221MPD2    C3 3651   1.210   4.433   8.684
  221MPD2    C4 3652   1.229   4.479   8.816
  221MPD2    C5 3653   1.260   4.386   8.914
  221MPD2     H 3654   1.255   4.276   8.549
  221MPD2    H1 3655   1.215   4.584   8.840
  221MPD2    H2 3656   1.322   4.186   8.961
  221MPD2    H3 3657   1.282   4.421   9.014
  221MPD2     N 3658   1.170   4.516   8.586
  221MPD2    H5 3659   1.154   4.613   8.611
  221MPD2    N1 3660   1.370   4.103   8.724
  221MPD2    H7 3661   1.387   4.040   8.801
  222MPD2     C 3662   1.034   0.893  14.273
  222MPD2    C1 3663   0.901   0.926  14.304
  222MPD2    C2 3664   0.874   1.023  14.397
  222MPD2    C3 3665   0.974   1.095  14.454
  222MPD2    C4 3666   1.099   1.068  14.420
  222MPD2    C5 3667   1.134   0.966  14.333
  222MPD2     H 3668   0.769   1.047  14.411
  222MPD2    H1 3669   1.183   1.126  14.456
  222MPD2    H2 3670   1.067   0.804  14.219
  222MPD2    H3 3671   1.235   0.940  14.305
  222MPD2     N 3672   0.957   1.209  14.530
  222MPD2    H5 3673   1.042   1.250  14.567
  222MPD2    N1 3674   0.789   0.863  14.245
  222MPD2    H7 3675   0.698   0.896  14.275
  223MPD2     C 3676   0.265   1.902  14.779
  223MPD2    C1 3677   0.389   1.950  14.789
  223MPD2    C2 3678   0.495   1.861  14.782
  223MPD2    C3 3679   0.474   1.729  14.763
  223MPD2    C4 3680   0.348   1.683  14.750
  223MPD2    C5 3681   0.246   1.770  14.760
  223MPD2     H 3682   0.595   1.904  14.792
  223MPD2    H1 3683   0.325   1.581  14.722
  223MPD2    H2 3684   0.176   1.962  14.794
  223MPD2    H3 3685   0.149   1.721  14.758
  223MPD2     N 3686   0.577   1.638  14.759
  223MPD2    H5 3687   0.551   1.541  14.742
  223MPD2    N1 3688   0.421   2.090  14.804
  223MPD2    H7 3689   0.519   2.113  14.800
  224MPD2     C 3690   1.604   1.599  14.909
  224MPD2    C1 3691   1.520   1.594  15.015
  224MPD2    C2 3692   1.389   1.560  14.998
  224MPD2    C3 3693   1.347   1.505  14.876
  224MPD2    C4 3694   1.430   1.510  14.767
  224MPD2    C5 3695   1.564   1.560  14.785
  224MPD2     H 3696   1.316   1.553  15.078
  224MPD2    H1 3697   1.410   1.474  14.667
  224MPD2    H2 3698   1.709   1.623  14.923
  224MPD2    H3 3699   1.632   1.573  14.701
  224MPD2     N 3700   1.214   1.462  14.845
  224MPD2    H5 3701   1.195   1.435  14.750
  224MPD2    N1 3702   1.570   1.623  15.140
  224MPD2    H7 3703   1.666   1.654  15.146
  225MPD2     C 3704   2.173   1.674  11.211
  225MPD2    C1 3705   2.252   1.567  11.169
  225MPD2    C2 3706   2.295   1.568  11.040
  225MPD2    C3 3707   2.279   1.681  10.958
  225MPD2    C4 3708   2.192   1.775  11.000
  225MPD2    C5 3709   2.143   1.774  11.126
  225MPD2     H 3710   2.364   1.487  11.016
  225MPD2    H1 3711   2.181   1.870  10.949
  225MPD2    H2 3712   2.117   1.670  11.303
  225MPD2    H3 3713   2.072   1.850  11.156
  225MPD2     N 3714   2.362   1.700  10.842
  225MPD2    H5 3715   2.414   1.617  10.815
  225MPD2    N1 3716   2.245   1.442  11.239
  225MPD2    H7 3717   2.263   1.354  11.192
  226MPD2     C 3718   2.263   0.660  10.754
  226MPD2    C1 3719   2.397   0.691  10.759
  226MPD2    C2 3720   2.432   0.820  10.731
  226MPD2    C3 3721   2.330   0.910  10.686
  226MPD2    C4 3722   2.195   0.869  10.675
  226MPD2    C5 3723   2.160   0.749  10.733
  226MPD2     H 3724   2.534   0.855  10.738
  226MPD2    H1 3725   2.113   0.938  10.658
  226MPD2    H2 3726   2.227   0.560  10.775
  226MPD2    H3 3727   2.062   0.705  10.719
  226MPD2     N 3728   2.375   1.036  10.643
  226MPD2    H5 3729   2.473   1.058  10.661
  226MPD2    N1 3730   2.508   0.602  10.799
  226MPD2    H7 3731   2.603   0.638  10.793
  227MPD2     C 3732   3.161   1.142  10.591
  227MPD2    C1 3733   3.117   1.272  10.589
  227MPD2    C2 3734   2.989   1.292  10.535
  227MPD2    C3 3735   2.922   1.183  10.488
  227MPD2    C4 3736   2.971   1.055  10.494
  227MPD2    C5 3737   3.099   1.035  10.540
  227MPD2     H 3738   2.952   1.391  10.509
  227MPD2    H1 3739   2.919   0.970  10.451
  227MPD2    H2 3740   3.260   1.120  10.631
  227MPD2    H3 3741   3.145   0.938  10.556
  227MPD2     N 3742   2.781   1.203  10.451
  227MPD2    H5 3743   2.730   1.116  10.457
  227MPD2    N1 3744   3.197   1.374  10.646
  227MPD2    H7 3745   3.292   1.358  10.678
  228MPD2     C 3746   2.255   1.791  10.216
  228MPD2    C1 3747   2.227   1.740  10.342
  228MPD2    C2 3748   2.191   1.831  10.444
  228MPD2    C3 3749   2.202   1.976  10.417
  228MPD2    C4 3750   2.228   2.019  10.288
  228MPD2    C5 3751   2.244   1.924  10.192
  228MPD2     H 3752   2.157   1.801  10.543
  228MPD2    H1 3753   2.246   2.124  10.266
  228MPD2    H2 3754   2.290   1.725  10.137
  228MPD2    H3 3755   2.263   1.969  10.095
  228MPD2     N 3756   2.179   2.072  10.516
  228MPD2    H5 3757   2.198   2.168  10.488
  228MPD2    N1 3758   2.245   1.603  10.384
  228MPD2    H7 3759   2.224   1.574  10.479
  229MPD2     C 3760   1.565   0.105  13.531
  229MPD2    C1 3761   1.704   0.100  13.551
  229MPD2    C2 3762   1.762   0.202  13.628
  229MPD2    C3 3763   1.684   0.289  13.697
  229MPD2    C4 3764   1.548   0.283  13.679
  229MPD2    C5 3765   1.486   0.193  13.599
  229MPD2     H 3766   1.869   0.196  13.643
  229MPD2    H1 3767   1.484   0.355  13.729
  229MPD2    H2 3768   1.517   0.025  13.477
  229MPD2    H3 3769   1.377   0.192  13.602
  229MPD2     N 3770   1.746   0.380  13.789
  229MPD2    H5 3771   1.675   0.435  13.837
  229MPD2    N1 3772   1.788   4.787  13.505
  229MPD2    H7 3773   1.888   0.011  13.515
  230MPD2     C 3774   1.847   1.182  13.859
  230MPD2    C1 3775   1.956   1.113  13.924
  230MPD2    C2 3776   2.063   1.184  13.971
  230MPD2    C3 3777   2.078   1.321  13.958
  230MPD2    C4 3778   1.971   1.393  13.898
  230MPD2    C5 3779   1.860   1.325  13.855
  230MPD2     H 3780   2.139   1.128  14.025
  230MPD2    H1 3781   1.984   1.501  13.893
  230MPD2    H2 3782   1.751   1.139  13.834
  230MPD2    H3 3783   1.776   1.377  13.811
  230MPD2     N 3784   2.189   1.394  13.995
  230MPD2    H5 3785   2.183   1.496  13.998
  230MPD2    N1 3786   1.943   0.969  13.952
  230MPD2    H7 3787   2.013   0.925  14.011
  231MPD2     C 3788   1.580   0.427  14.390
  231MPD2    C1 3789   1.592   0.408  14.253
  231MPD2    C2 3790   1.491   0.338  14.189
  231MPD2    C3 3791   1.380   0.288  14.251
  231MPD2    C4 3792   1.369   0.303  14.388
  231MPD2    C5 3793   1.478   0.361  14.452
  231MPD2     H 3794   1.508   0.331  14.082
  231MPD2    H1 3795   1.284   0.284  14.452
  231MPD2    H2 3796   1.660   0.472  14.448
  231MPD2    H3 3797   1.477   0.357  14.560
  231MPD2     N 3798   1.279   0.218  14.181
  231MPD2    H5 3799   1.207   0.175  14.238
  231MPD2    N1 3800   1.695   0.455  14.173
  231MPD2    H7 3801   1.693   0.431  14.074
  232MPD2     C 3802   3.347   1.790   9.225
  232MPD2    C1 3803   3.473   1.835   9.182
  232MPD2    C2 3804   3.546   1.765   9.080
  232MPD2    C3 3805   3.489   1.664   9.012
  232MPD2    C4 3806   3.365   1.613   9.059
  232MPD2    C5 3807   3.298   1.678   9.161
  232MPD2     H 3808   3.645   1.800   9.053
  232MPD2    H1 3809   3.328   1.517   9.024
  232MPD2    H2 3810   3.282   1.826   9.304
  232MPD2    H3 3811   3.211   1.626   9.199
  232MPD2     N 3812   3.555   1.596   8.909
  232MPD2    H5 3813   3.512   1.508   8.881
  232MPD2    N1 3814   3.542   1.942   9.243
  232MPD2    H7 3815   3.639   1.954   9.216
  233MPD2     C 3816   4.215   1.963   9.393
  233MPD2    C1 3817   4.135   2.035   9.478
  233MPD2    C2 3818   4.201   2.106   9.584
  233MPD2    C3 3819   4.341   2.106   9.596
  233MPD2    C4 3820   4.412   2.032   9.506
  233MPD2    C5 3821   4.348   1.967   9.400
  233MPD2     H 3822   4.149   2.158   9.663
  233MPD2    H1 3823   4.520   2.024   9.506
  233MPD2    H2 3824   4.171   1.910   9.309
  233MPD2    H3 3825   4.404   1.907   9.330
  233MPD2     N 3826   4.394   2.178   9.704
  233MPD2    H5 3827   4.332   2.193   9.782
  233MPD2    N1 3828   4.003   2.056   9.441
  233MPD2    H7 3829   3.962   2.000   9.367
  234MPD2     C 3830   3.724   2.593   9.074
  234MPD2    C1 3831   3.805   2.574   9.187
  234MPD2    C2 3832   3.945   2.598   9.178
  234MPD2    C3 3833   4.000   2.654   9.061
  234MPD2    C4 3834   3.920   2.677   8.952
  234MPD2    C5 3835   3.782   2.649   8.962
  234MPD2     H 3836   3.996   2.589   9.274
  234MPD2    H1 3837   3.957   2.712   8.856
  234MPD2    H2 3838   3.617   2.580   9.076
  234MPD2    H3 3839   3.711   2.672   8.883
  234MPD2     N 3840   4.140   2.663   9.036
  234MPD2    H5 3841   4.170   2.699   8.946
  234MPD2    N1 3842   3.758   2.508   9.302
  234MPD2    H7 3843   3.824   2.500   9.379
  235MPD2     C 3844   3.254   0.830  14.906
  235MPD2    C1 3845   3.325   0.857  15.016
  235MPD2    C2 3846   3.464   0.864  15.004
  235MPD2    C3 3847   3.528   0.836  14.882
  235MPD2    C4 3848   3.445   0.819  14.766
  235MPD2    C5 3849   3.313   0.818  14.782
  235MPD2     H 3850   3.527   0.883  15.090
  235MPD2    H1 3851   3.484   0.812  14.665
  235MPD2    H2 3852   3.148   0.809  14.897
  235MPD2    H3 3853   3.257   0.808  14.690
  235MPD2     N 3854   3.671   0.837  14.874
  235MPD2    H5 3855   3.723   0.832  14.961
  235MPD2    N1 3856   3.262   0.886  15.137
  235MPD2    H7 3857   3.320   0.900  15.219
  236MPD2     C 3858   4.351   0.514  14.324
  236MPD2    C1 3859   4.257   0.613  14.366
  236MPD2    C2 3860   4.193   0.598  14.490
  236MPD2    C3 3861   4.237   0.509  14.581
  236MPD2    C4 3862   4.328   0.418  14.543
  236MPD2    C5 3863   4.377   0.419  14.418
  236MPD2     H 3864   4.114   0.664  14.523
  236MPD2    H1 3865   4.374   0.351  14.615
  236MPD2    H2 3866   4.398   0.520  14.227
  236MPD2    H3 3867   4.449   0.340  14.401
  236MPD2     N 3868   4.194   0.508  14.721
  236MPD2    H5 3869   4.224   0.423  14.768
  236MPD2    N1 3870   4.214   0.723  14.289
  236MPD2    H7 3871   4.142   0.776  14.336
  237MPD2     C 3872   4.202   1.295  14.453
  237MPD2    C1 3873   4.119   1.282  14.557
  237MPD2    C2 3874   4.043   1.390  14.593
  237MPD2    C3 3875   4.044   1.513  14.532
  237MPD2    C4 3876   4.134   1.530  14.431
  237MPD2    C5 3877   4.207   1.416  14.392
  237MPD2     H 3878   3.958   1.374  14.659
  237MPD2    H1 3879   4.139   1.613  14.361
  237MPD2    H2 3880   4.256   1.211  14.409
  237MPD2    H3 3881   4.279   1.418  14.311
  237MPD2     N 3882   3.952   1.616  14.565
  237MPD2    H5 3883   3.949   1.692  14.498
  237MPD2    N1 3884   4.090   1.168  14.632
  237MPD2    H7 3885   4.033   1.182  14.715
  238MPD2     C 3886   1.762   3.253  12.541
  238MPD2    C1 3887   1.730   3.389  12.546
  238MPD2    C2 3888   1.806   3.471  12.627
  238MPD2    C3 3889   1.905   3.419  12.711
  238MPD2    C4 3890   1.919   3.283  12.715
  238MPD2    C5 3891   1.860   3.202  12.622
  238MPD2     H 3892   1.792   3.578  12.615
  238MPD2    H1 3893   2.003   3.241  12.769
  238MPD2    H2 3894   1.717   3.181  12.474
  238MPD2    H3 3895   1.895   3.099  12.621
  238MPD2     N 3896   1.986   3.507  12.790
  238MPD2    H5 3897   1.947   3.600  12.792
  238MPD2    N1 3898   1.638   3.450  12.463
  238MPD2    H7 3899   1.619   3.548  12.486
  239MPD2     C 3900   0.824   3.472  12.419
  239MPD2    C1 3901   0.930   3.539  12.479
  239MPD2    C2 3902   0.916   3.596  12.603
  239MPD2    C3 3903   0.788   3.615  12.653
  239MPD2    C4 3904   0.679   3.566  12.590
  239MPD2    C5 3905   0.699   3.499  12.471
  239MPD2     H 3906   1.000   3.629  12.663
  239MPD2    H1 3907   0.580   3.579  12.632
  239MPD2    H2 3908   0.828   3.420  12.324
  239MPD2    H3 3909   0.614   3.461  12.416
  239MPD2     N 3910   0.777   3.680  12.781
  239MPD2    H5 3911   0.870   3.698  12.817
  239MPD2    N1 3912   1.052   3.532  12.412
  239MPD2    H7 3913   1.057   3.495  12.318
  240MPD2     C 3914   1.591   3.321   7.061
  240MPD2    C1 3915   1.720   3.349   7.106
  240MPD2    C2 3916   1.805   3.251   7.151
  240MPD2    C3 3917   1.755   3.126   7.187
  240MPD2    C4 3918   1.626   3.092   7.155
  240MPD2    C5 3919   1.548   3.191   7.086
  240MPD2     H 3920   1.902   3.284   7.186
  240MPD2    H1 3921   1.574   2.996   7.154
  240MPD2    H2 3922   1.532   3.393   7.006
  240MPD2    H3 3923   1.451   3.163   7.046
  240MPD2     N 3924   1.839   3.037   7.258
  240MPD2    H5 3925   1.807   2.949   7.297
  240MPD2    N1 3926   1.780   3.478   7.104
  240MPD2    H7 3927   1.882   3.478   7.104
  241MPD2     C 3928   2.834   2.793   7.670
  241MPD2    C1 3929   2.786   2.901   7.598
  241MPD2    C2 3930   2.666   2.908   7.536
  241MPD2    C3 3931   2.579   2.802   7.553
  241MPD2    C4 3932   2.618   2.695   7.627
  241MPD2    C5 3933   2.745   2.691   7.691
  241MPD2     H 3934   2.634   3.001   7.490
  241MPD2    H1 3935   2.547   2.613   7.632
  241MPD2    H2 3936   2.934   2.793   7.713
  241MPD2    H3 3937   2.775   2.604   7.748
  241MPD2     N 3938   2.441   2.807   7.514
  241MPD2    H5 3939   2.381   2.729   7.539
  241MPD2    N1 3940   2.871   3.004   7.588
  241MPD2    H7 3941   2.964   3.000   7.630
  242MPD2     C 3942   1.654   2.892   8.069
  242MPD2    C1 3943   1.635   2.991   7.980
  242MPD2    C2 3944   1.706   2.989   7.863
  242MPD2    C3 3945   1.801   2.894   7.830
  242MPD2    C4 3946   1.810   2.794   7.922
  242MPD2    C5 3947   1.746   2.800   8.042
  242MPD2     H 3948   1.681   3.069   7.794
  242MPD2    H1 3949   1.874   2.708   7.906
  242MPD2    H2 3950   1.596   2.881   8.160
  242MPD2    H3 3951   1.742   2.706   8.097
  242MPD2     N 3952   1.871   2.891   7.709
  242MPD2    H5 3953   1.843   2.956   7.636
  242MPD2    N1 3954   1.555   3.094   8.027
  242MPD2    H7 3955   1.525   3.093   8.124
  243MPD2     C 3956   4.267   3.071  14.372
  243MPD2    C1 3957   4.299   3.136  14.492
  243MPD2    C2 3958   4.222   3.241  14.521
  243MPD2    C3 3959   4.117   3.281  14.441
  243MPD2    C4 3960   4.093   3.214  14.325
  243MPD2    C5 3961   4.169   3.109  14.289
  243MPD2     H 3962   4.252   3.289  14.614
  243MPD2    H1 3963   4.009   3.238  14.261
  243MPD2    H2 3964   4.317   2.979  14.343
  243MPD2    H3 3965   4.139   3.050  14.203
  243MPD2     N 3966   4.027   3.385  14.473
  243MPD2    H5 3967   3.941   3.389  14.418
  243MPD2    N1 3968   4.416   3.100  14.565
  243MPD2    H7 3969   4.438   3.161  14.643
  244MPD2     C 3970   4.161   4.117  15.122
  244MPD2    C1 3971   4.025   4.118  15.105
  244MPD2    C2 3972   3.968   4.008  15.044
  244MPD2    C3 3973   4.042   3.895  15.002
  244MPD2    C4 3974   4.176   3.907  15.015
  244MPD2    C5 3975   4.239   4.017  15.071
  244MPD2     H 3976   3.860   3.998  15.043
  244MPD2    H1 3977   4.238   3.826  14.977
  244MPD2    H2 3978   4.221   4.199  15.160
  244MPD2    H3 3979   4.347   4.025  15.082
  244MPD2     N 3980   3.993   3.784  14.935
  244MPD2    H5 3981   4.061   3.713  14.910
  244MPD2    N1 3982   3.936   4.225  15.130
  244MPD2    H7 3983   3.849   4.217  15.079
  245MPD2     C 3984   3.309   3.612  14.517
  245MPD2    C1 3985   3.402   3.705  14.571
  245MPD2    C2 3986   3.373   3.846  14.568
  245MPD2    C3 3987   3.259   3.885  14.504
  245MPD2    C4 3988   3.171   3.789  14.443
  245MPD2    C5 3989   3.207   3.656  14.440
  245MPD2     H 3990   3.439   3.921  14.610
  245MPD2    H1 3991   3.088   3.816  14.379
  245MPD2    H2 3992   3.328   3.505  14.517
  245MPD2    H3 3993   3.137   3.586  14.396
  245MPD2     N 3994   3.230   4.022  14.499
  245MPD2    H5 3995   3.297   4.075  14.553
  245MPD2    N1 3996   3.523   3.664  14.631
  245MPD2    H7 3997   3.580   3.729  14.684
  246MPD2     C 3998   4.699   2.287   8.264
  246MPD2    C1 3999   4.711   2.318   8.130
  246MPD2    C2 4000   4.659   2.224   8.041
  246MPD2    C3 4001   4.588   2.115   8.080
  246MPD2    C4 4002   4.578   2.088   8.214
  246MPD2    C5 4003   4.637   2.167   8.300
  246MPD2     H 4004   4.679   2.241   7.936
  246MPD2    H1 4005   4.533   1.998   8.253
  246MPD2    H2 4006   4.725   2.359   8.340
  246MPD2    H3 4007   4.643   2.145   8.406
  246MPD2     N 4008   4.517   2.053   7.976
  246MPD2    H5 4009   4.541   2.082   7.882
  246MPD2    N1 4010   4.773   2.439   8.098
  246MPD2    H7 4011   0.042   2.489   8.166
  247MPD2     C 4012   0.201   2.693   7.342
  247MPD2    C1 4013   0.073   2.640   7.345
  247MPD2    C2 4014   0.003   2.631   7.227
  247MPD2    C3 4015   0.066   2.655   7.105
  247MPD2    C4 4016   0.197   2.699   7.100
  247MPD2    C5 4017   0.259   2.722   7.220
  247MPD2     H 4018   4.687   2.599   7.227
  247MPD2    H1 4019   0.252   2.718   7.009
  247MPD2    H2 4020   0.251   2.717   7.435
  247MPD2    H3 4021   0.354   2.774   7.217
  247MPD2     N 4022   4.787   2.634   6.979
  247MPD2    H5 4023   0.059   2.642   6.897
  247MPD2    N1 4024   0.021   2.610   7.477
  247MPD2    H7 4025   0.074   2.619   7.564
  248MPD2     C 4026   3.961   2.223   8.030
  248MPD2    C1 4027   4.030   2.185   7.914
  248MPD2    C2 4028   4.137   2.261   7.870
  248MPD2    C3 4029   4.186   2.356   7.956
  248MPD2    C4 4030   4.127   2.381   8.078
  248MPD2    C5 4031   4.002   2.328   8.107
  248MPD2     H 4032   4.177   2.239   7.772
  248MPD2    H1 4033   4.173   2.457   8.142
  248MPD2    H2 4034   3.859   2.192   8.051
  248MPD2    H3 4035   3.940   2.346   8.194
  248MPD2     N 4036   4.296   2.436   7.921
  248MPD2    H5 4037   4.352   2.491   7.985
  248MPD2    N1 4038   3.963   2.092   7.830
  248MPD2    H7 4039   3.862   2.077   7.837
  249MPD2     C 4040   3.081   4.551  11.069
  249MPD2    C1 4041   3.165   4.519  11.184
  249MPD2    C2 4042   3.197   4.620  11.275
  249MPD2    C3 4043   3.144   4.748  11.247
  249MPD2    C4 4044   3.066   4.765  11.139
  249MPD2    C5 4045   3.024   4.675  11.051
  249MPD2     H 4046   3.252   4.602  11.366
  249MPD2    H1 4047   3.031   0.075  11.106
  249MPD2    H2 4048   3.048   4.481  10.993
  249MPD2    H3 4049   2.977   4.706  10.959
  249MPD2     N 4050   3.160   0.078  11.328
  249MPD2    H5 4051   3.107   0.158  11.296
  249MPD2    N1 4052   3.233   4.398  11.189
  249MPD2    H7 4053   3.314   4.387  11.249
  250MPD2     C 4054   3.742   3.846  11.173
  250MPD2    C1 4055   3.648   3.826  11.074
  250MPD2    C2 4056   3.637   3.704  11.018
  250MPD2    C3 4057   3.735   3.608  11.033
  250MPD2    C4 4058   3.833   3.634  11.130
  250MPD2    C5 4059   3.833   3.752  11.190
  250MPD2     H 4060   3.563   3.685  10.941
  250MPD2    H1 4061   3.895   3.553  11.166
  250MPD2    H2 4062   3.756   3.946  11.213
  250MPD2    H3 4063   3.906   3.775  11.267
  250MPD2     N 4064   3.728   3.489  10.954
  250MPD2    H5 4065   3.650   3.483  10.890
  250MPD2    N1 4066   3.570   3.940  11.049
  250MPD2    H7 4067   3.595   4.031  11.088
  251MPD2     C 4068   3.065   4.569  10.580
  251MPD2    C1 4069   3.127   4.447  10.548
  251MPD2    C2 4070   3.121   4.388  10.415
  251MPD2    C3 4071   3.030   4.446  10.329
  251MPD2    C4 4072   2.956   4.550  10.370
  251MPD2    C5 4073   2.974   4.612  10.492
  251MPD2     H 4074   3.188   4.306  10.391
  251MPD2    H1 4075   2.885   4.589  10.297
  251MPD2    H2 4076   3.071   4.616  10.678
  251MPD2    H3 4077   2.913   4.696  10.525
  251MPD2     N 4078   3.001   4.395  10.194
  251MPD2    H5 4079   2.940   4.449  10.133
  251MPD2    N1 4080   3.220   4.396  10.647
  251MPD2    H7 4081   3.232   4.443  10.736
  252MPD2     C 4082   4.019   2.394  14.155
  252MPD2    C1 4083   4.073   2.518  14.183
  252MPD2    C2 4084   4.207   2.526  14.201
  252MPD2    C3 4085   4.287   2.406  14.214
  252MPD2    C4 4086   4.236   2.285  14.165
  252MPD2    C5 4087   4.100   2.283  14.137
  252MPD2     H 4088   4.253   2.621  14.227
  252MPD2    H1 4089   4.291   2.192  14.160
  252MPD2    H2 4090   3.912   2.382  14.141
  252MPD2    H3 4091   4.041   2.196  14.113
  252MPD2     N 4092   4.423   2.422  14.255
  252MPD2    H5 4093   4.450   2.520  14.264
  252MPD2    N1 4094   4.002   2.639  14.209
  252MPD2    H7 4095   4.060   2.719  14.233
  253MPD2     C 4096   0.318   2.336  13.590
  253MPD2    C1 4097   0.381   2.424  13.675
  253MPD2    C2 4098   0.329   2.456  13.800
  253MPD2    C3 4099   0.209   2.396  13.846
  253MPD2    C4 4100   0.155   2.301  13.761
  253MPD2    C5 4101   0.199   2.282  13.630
  253MPD2     H 4102   0.379   2.525  13.868
  253MPD2    H1 4103   0.072   2.239  13.792
  253MPD2    H2 4104   0.359   2.313  13.492
  253MPD2    H3 4105   0.140   2.217  13.566
  253MPD2     N 4106   0.163   2.437  13.975
  253MPD2    H5 4107   0.223   2.499  14.028
  253MPD2    N1 4108   0.496   2.492  13.636
  253MPD2    H7 4109   0.548   2.540  13.709
  254MPD2     C 4110   4.573   3.046  14.227
  254MPD2    C1 4111   4.694   2.984  14.237
  254MPD2    C2 4112   0.012   3.064  14.230
  254MPD2    C3 4113   4.787   3.205  14.204
  254MPD2    C4 4114   4.659   3.264  14.204
  254MPD2    C5 4115   4.547   3.178  14.211
  254MPD2     H 4116   0.108   3.018  14.247
  254MPD2    H1 4117   4.647   3.366  14.169
  254MPD2    H2 4118   4.483   2.986  14.238
  254MPD2    H3 4119   4.446   3.215  14.200
  254MPD2     N 4120   0.107   3.285  14.176
  254MPD2    H5 4121   0.108   3.377  14.219
  254MPD2    N1 4122   4.722   2.849  14.250
  254MPD2    H7 4123   0.027   2.818  14.276
  255MPD2     C 4124   0.244   2.455  12.409
  255MPD2    C1 4125   0.208   2.367  12.511
  255MPD2    C2 4126   0.156   2.418  12.635
  255MPD2    C3 4127   0.129   2.552  12.651
  255MPD2    C4 4128   0.176   2.640  12.551
  255MPD2    C5 4129   0.229   2.587  12.433
  255MPD2     H 4130   0.127   2.351  12.715
  255MPD2    H1 4131   0.181   2.749  12.551
  255MPD2    H2 4132   0.286   2.420  12.315
  255MPD2    H3 4133   0.266   2.664  12.367
  255MPD2     N 4134   0.057   2.612  12.758
  255MPD2    H5 4135   0.044   2.711  12.745
  255MPD2    N1 4136   0.231   2.226  12.491
  255MPD2    H7 4137   0.236   2.161  12.569
  256MPD2     C 4138   4.165   2.648  13.299
  256MPD2    C1 4139   4.173   2.743  13.200
  256MPD2    C2 4140   4.078   2.844  13.190
  256MPD2    C3 4141   3.978   2.848  13.287
  256MPD2    C4 4142   3.973   2.747  13.381
  256MPD2    C5 4143   4.068   2.647  13.390
  256MPD2     H 4144   4.091   2.931  13.127
  256MPD2    H1 4145   3.883   2.737  13.440
  256MPD2    H2 4146   4.234   2.565  13.293
  256MPD2    H3 4147   4.067   2.569  13.466
  256MPD2     N 4148   3.879   2.953  13.287
  256MPD2    H5 4149   3.807   2.958  13.359
  256MPD2    N1 4150   4.278   2.743  13.107
  256MPD2    H7 4151   4.275   2.833  13.059
  257MPD2     C 4152   4.773   2.973  12.318
  257MPD2    C1 4153   4.645   2.966  12.359
  257MPD2    C2 4154   4.624   2.977  12.502
  257MPD2    C3 4155   4.731   2.990  12.595
  257MPD2    C4 4156   0.066   3.009  12.539
  257MPD2    C5 4157   0.086   3.003  12.403
  257MPD2     H 4158   4.527   2.973  12.549
  257MPD2    H1 4159   0.152   3.035  12.600
  257MPD2    H2 4160   0.012   2.968  12.213
  257MPD2    H3 4161   0.180   3.023  12.354
  257MPD2     N 4162   4.720   2.994  12.732
  257MPD2    H5 4163   0.019   3.001  12.784
  257MPD2    N1 4164   4.533   2.932  12.271
  257MPD2    H7 4165   4.571   2.898  12.183
  258MPD2     C 4166   1.432   4.578  10.290
  258MPD2    C1 4167   1.441   4.437  10.292
  258MPD2    C2 4168   1.403   4.373  10.175
  258MPD2    C3 4169   1.353   4.434  10.066
  258MPD2    C4 4170   1.355   4.575  10.061
  258MPD2    C5 4171   1.394   4.646  10.171
  258MPD2     H 4172   1.402   4.265  10.180
  258MPD2    H1 4173   1.329   4.621   9.966
  258MPD2    H2 4174   1.468   4.629  10.378
  258MPD2    H3 4175   1.401   4.754  10.170
  258MPD2     N 4176   1.324   4.350   9.960
  258MPD2    H5 4177   1.332   4.250   9.971
  258MPD2    N1 4178   1.493   4.365  10.404
  258MPD2    H7 4179   1.494   4.425  10.486
  259MPD2     C 4180   1.615   4.632   9.425
  259MPD2    C1 4181   1.531   4.634   9.317
  259MPD2    C2 4182   1.450   4.520   9.307
  259MPD2    C3 4183   1.459   4.401   9.378
  259MPD2    C4 4184   1.545   4.405   9.484
  259MPD2    C5 4185   1.620   4.516   9.502
  259MPD2     H 4186   1.366   4.516   9.239
  259MPD2    H1 4187   1.571   4.324   9.552
  259MPD2    H2 4188   1.675   4.716   9.458
  259MPD2    H3 4189   1.700   4.507   9.575
  259MPD2     N 4190   1.372   4.289   9.346
  259MPD2    H5 4191   1.349   4.279   9.247
  259MPD2    N1 4192   1.505   4.748   9.231
  259MPD2    H7 4193   1.424   4.734   9.170
  260MPD2     C 4194   1.058   3.900  10.052
  260MPD2    C1 4195   1.132   3.892   9.936
  260MPD2    C2 4196   1.061   3.836   9.825
  260MPD2    C3 4197   0.927   3.805   9.823
  260MPD2    C4 4198   0.855   3.835   9.933
  260MPD2    C5 4199   0.924   3.871  10.046
  260MPD2     H 4200   1.122   3.825   9.737
  260MPD2    H1 4201   0.748   3.827   9.922
  260MPD2    H2 4202   1.089   3.948  10.144
  260MPD2    H3 4203   0.866   3.891  10.136
  260MPD2     N 4204   0.875   3.751   9.702
  260MPD2    H5 4205   0.936   3.737   9.622
  260MPD2    N1 4206   1.275   3.923   9.937
  260MPD2    H7 4207   1.329   3.912  10.023
  261MPD2     C 4208   1.301   3.895   8.300
  261MPD2    C1 4209   1.249   4.010   8.258
  261MPD2    C2 4210   1.111   4.034   8.247
  261MPD2    C3 4211   1.026   3.931   8.294
  261MPD2    C4 4212   1.078   3.816   8.345
  261MPD2    C5 4213   1.217   3.796   8.346
  261MPD2     H 4214   1.076   4.134   8.220
  261MPD2    H1 4215   1.011   3.750   8.399
  261MPD2    H2 4216   1.408   3.878   8.312
  261MPD2    H3 4217   1.265   3.706   8.384
  261MPD2     N 4218   0.882   3.948   8.302
  261MPD2    H5 4219   0.832   3.886   8.365
  261MPD2    N1 4220   1.348   4.102   8.213
  261MPD2    H7 4221   1.445   4.075   8.227
  262MPD2     C 4222   0.984   3.673   7.580
  262MPD2    C1 4223   0.866   3.748   7.581
  262MPD2    C2 4224   0.783   3.746   7.472
  262MPD2    C3 4225   0.807   3.667   7.365
  262MPD2    C4 4226   0.923   3.595   7.360
  262MPD2    C5 4227   1.007   3.599   7.470
  262MPD2     H 4228   0.699   3.813   7.486
  262MPD2    H1 4229   0.960   3.538   7.275
  262MPD2    H2 4230   1.051   3.657   7.663
  262MPD2    H3 4231   1.100   3.544   7.463
  262MPD2     N 4232   0.700   3.674   7.263
  262MPD2    H5 4233   0.642   3.756   7.275
  262MPD2    N1 4234   0.835   3.838   7.683
  262MPD2    H7 4235   0.766   3.908   7.659
  263MPD2     C 4236   1.327   4.248   7.723
  263MPD2    C1 4237   1.276   4.339   7.639
  263MPD2    C2 4238   1.140   4.366   7.648
  263MPD2    C3 4239   1.056   4.294   7.742
  263MPD2    C4 4240   1.115   4.210   7.834
  263MPD2    C5 4241   1.249   4.190   7.819
  263MPD2     H 4242   1.099   4.445   7.586
  263MPD2    H1 4243   1.076   4.152   7.917
  263MPD2    H2 4244   1.432   4.225   7.736
  263MPD2    H3 4245   1.298   4.127   7.894
  263MPD2     N 4246   0.919   4.344   7.751
  263MPD2    H5 4247   0.901   4.413   7.679
  263MPD2    N1 4248   1.360   4.415   7.551
  263MPD2    H7 4249   1.324   4.501   7.510
  264MPD2     C 4250   1.083   2.812  12.892
  264MPD2    C1 4251   1.129   2.747  12.999
  264MPD2    C2 4252   1.227   2.812  13.069
  264MPD2    C3 4253   1.279   2.935  13.040
  264MPD2    C4 4254   1.231   3.000  12.927
  264MPD2    C5 4255   1.139   2.932  12.857
  264MPD2     H 4256   1.246   2.764  13.164
  264MPD2    H1 4257   1.261   3.098  12.893
  264MPD2    H2 4258   0.987   2.783  12.851
  264MPD2    H3 4259   1.095   2.981  12.771
  264MPD2     N 4260   1.360   2.990  13.144
  264MPD2    H5 4261   1.393   2.927  13.217
  264MPD2    N1 4262   1.065   2.630  13.055
  264MPD2    H7 4263   1.096   2.588  13.143
  265MPD2     C 4264   1.259   3.657  13.592
  265MPD2    C1 4265   1.245   3.588  13.480
  265MPD2    C2 4266   1.127   3.617  13.407
  265MPD2    C3 4267   1.037   3.715  13.439
  265MPD2    C4 4268   1.063   3.793  13.546
  265MPD2    C5 4269   1.171   3.757  13.628
  265MPD2     H 4270   1.109   3.561  13.316
  265MPD2    H1 4271   0.991   3.860  13.592
  265MPD2    H2 4272   1.337   3.648  13.668
  265MPD2    H3 4273   1.188   3.817  13.717
  265MPD2     N 4274   0.921   3.742  13.366
  265MPD2    H5 4275   0.869   3.822  13.399
  265MPD2    N1 4276   1.332   3.491  13.422
  265MPD2    H7 4277   1.294   3.449  13.338
  266MPD2     C 4278   2.500   0.449   9.318
  266MPD2    C1 4279   2.569   0.527   9.230
  266MPD2    C2 4280   2.701   0.520   9.238
  266MPD2    C3 4281   2.776   0.432   9.314
  266MPD2    C4 4282   2.701   0.347   9.396
  266MPD2    C5 4283   2.566   0.356   9.396
  266MPD2     H 4284   2.756   0.594   9.180
  266MPD2    H1 4285   2.740   0.275   9.467
  266MPD2    H2 4286   2.391   0.446   9.324
  266MPD2    H3 4287   2.512   0.286   9.458
  266MPD2     N 4288   2.917   0.459   9.322
  266MPD2    H5 4289   2.961   0.527   9.261
  266MPD2    N1 4290   2.514   0.625   9.144
  266MPD2    H7 4291   2.577   0.687   9.094
  267MPD2     C 4292   3.155   1.251   9.091
  267MPD2    C1 4293   3.192   1.133   9.031
  267MPD2    C2 4294   3.224   1.015   9.092
  267MPD2    C3 4295   3.214   1.010   9.227
  267MPD2    C4 4296   3.187   1.126   9.298
  267MPD2    C5 4297   3.162   1.243   9.231
  267MPD2     H 4298   3.226   0.917   9.046
  267MPD2    H1 4299   3.180   1.124   9.406
  267MPD2    H2 4300   3.126   1.345   9.046
  267MPD2    H3 4301   3.130   1.332   9.284
  267MPD2     N 4302   3.235   0.885   9.291
  267MPD2    H5 4303   3.279   0.809   9.240
  267MPD2    N1 4304   3.184   1.120   8.892
  267MPD2    H7 4305   3.207   1.027   8.857
  268MPD2     C 4306   3.753   0.531   9.369
  268MPD2    C1 4307   3.694   0.484   9.482
  268MPD2    C2 4308   3.774   0.458   9.594
  268MPD2    C3 4309   3.910   0.493   9.603
  268MPD2    C4 4310   3.958   0.535   9.479
  268MPD2    C5 4311   3.887   0.544   9.360
  268MPD2     H 4312   3.732   0.414   9.684
  268MPD2    H1 4313   4.057   0.577   9.466
  268MPD2    H2 4314   3.705   0.556   9.275
  268MPD2    H3 4315   3.929   0.577   9.267
  268MPD2     N 4316   3.977   0.475   9.724
  268MPD2    H5 4317   3.925   0.438   9.803
  268MPD2    N1 4318   3.552   0.489   9.492
  268MPD2    H7 4319   3.508   0.468   9.581
  269MPD2     C 4320   2.905   2.347  12.048
  269MPD2    C1 4321   2.899   2.384  12.182
  269MPD2    C2 4322   2.857   2.518  12.216
  269MPD2    C3 4323   2.823   2.610  12.118
  269MPD2    C4 4324   2.826   2.574  11.985
  269MPD2    C5 4325   2.865   2.443  11.959
  269MPD2     H 4326   2.858   2.553  12.318
  269MPD2    H1 4327   2.811   2.646  11.906
  269MPD2    H2 4328   2.936   2.251  12.010
  269MPD2    H3 4329   2.869   2.408  11.857
  269MPD2     N 4330   2.812   2.741  12.158
  269MPD2    H5 4331   2.833   2.768  12.254
  269MPD2    N1 4332   2.935   2.295  12.281
  269MPD2    H7 4333   2.972   2.203  12.260
  270MPD2     C 4334   3.480   2.669  12.900
  270MPD2    C1 4335   3.525   2.544  12.908
  270MPD2    C2 4336   3.444   2.439  12.885
  270MPD2    C3 4337   3.314   2.464  12.864
  270MPD2    C4 4338   3.260   2.587  12.856
  270MPD2    C5 4339   3.345   2.692  12.887
  270MPD2     H 4340   3.487   2.340  12.885
  270MPD2    H1 4341   3.158   2.613  12.830
  270MPD2    H2 4342   3.544   2.753  12.928
  270MPD2    H3 4343   3.307   2.793  12.886
  270MPD2     N 4344   3.229   2.360  12.817
  270MPD2    H5 4345   3.135   2.395  12.802
  270MPD2    N1 4346   3.663   2.516  12.906
  270MPD2    H7 4347   3.702   2.432  12.866
  271MPD2     C 4348   3.408   1.439  12.456
  271MPD2    C1 4349   3.367   1.524  12.350
  271MPD2    C2 4350   3.302   1.641  12.383
  271MPD2    C3 4351   3.274   1.678  12.515
  271MPD2    C4 4352   3.313   1.595  12.618
  271MPD2    C5 4353   3.368   1.473  12.588
  271MPD2     H 4354   3.285   1.701  12.294
  271MPD2    H1 4355   3.293   1.622  12.721
  271MPD2    H2 4356   3.444   1.339  12.433
  271MPD2    H3 4357   3.401   1.408  12.669
  271MPD2     N 4358   3.212   1.805  12.537
  271MPD2    H5 4359   3.219   1.827  12.636
  271MPD2    N1 4360   3.396   1.496  12.211
  271MPD2    H7 4361   3.333   1.549  12.153
  272MPD2     C 4362   4.200   1.764  12.804
  272MPD2    C1 4363   4.123   1.829  12.903
  272MPD2    C2 4364   4.080   1.958  12.874
  272MPD2    C3 4365   4.116   2.017  12.755
  272MPD2    C4 4366   4.199   1.957  12.662
  272MPD2    C5 4367   4.239   1.830  12.692
  272MPD2     H 4368   4.028   2.016  12.949
  272MPD2    H1 4369   4.219   1.993  12.561
  272MPD2    H2 4370   4.231   1.660  12.813
  272MPD2    H3 4371   4.309   1.785  12.623
  272MPD2     N 4372   4.088   2.155  12.730
  272MPD2    H5 4373   4.151   2.200  12.665
  272MPD2    N1 4374   4.096   1.776  13.032
  272MPD2    H7 4375   4.043   1.833  13.098
  273MPD2     C 4376   4.312   2.086  13.167
  273MPD2    C1 4377   4.195   2.156  13.183
  273MPD2    C2 4378   4.091   2.111  13.267
  273MPD2    C3 4379   4.124   2.008  13.353
  273MPD2    C4 4380   4.250   1.947  13.349
  273MPD2    C5 4381   4.336   1.985  13.255
  273MPD2     H 4382   3.992   2.154  13.271
  273MPD2    H1 4383   4.279   1.879  13.428
  273MPD2    H2 4384   4.381   2.114  13.089
  273MPD2    H3 4385   4.430   1.933  13.243
  273MPD2     N 4386   4.009   1.976  13.433
  273MPD2    H5 4387   3.938   2.047  13.445
  273MPD2    N1 4388   4.170   2.262  13.090
  273MPD2    H7 4389   4.236   2.281  13.015
  274MPD2     C 4390   3.339   3.430  11.217
  274MPD2    C1 4391   3.215   3.392  11.165
  274MPD2    C2 4392   3.150   3.470  11.073
  274MPD2    C3 4393   3.196   3.594  11.040
  274MPD2    C4 4394   3.314   3.641  11.110
  274MPD2    C5 4395   3.377   3.559  11.196
  274MPD2     H 4396   3.068   3.432  11.013
  274MPD2    H1 4397   3.356   3.739  11.091
  274MPD2    H2 4398   3.404   3.368  11.278
  274MPD2    H3 4399   3.472   3.596  11.234
  274MPD2     N 4400   3.136   3.676  10.947
  274MPD2    H5 4401   3.184   3.756  10.908
  274MPD2    N1 4402   3.163   3.261  11.187
  274MPD2    H7 4403   3.081   3.244  11.130
  275MPD2     C 4404   2.724   3.706  10.226
  275MPD2    C1 4405   2.678   3.701  10.354
  275MPD2    C2 4406   2.603   3.594  10.390
  275MPD2    C3 4407   2.610   3.486  10.309
  275MPD2    C4 4408   2.673   3.486  10.190
  275MPD2    C5 4409   2.737   3.599  10.147
  275MPD2     H 4410   2.549   3.590  10.484
  275MPD2    H1 4411   2.682   3.394  10.134
  275MPD2    H2 4412   2.779   3.795  10.197
  275MPD2    H3 4413   2.794   3.601  10.054
  275MPD2     N 4414   2.555   3.366  10.365
  275MPD2    H5 4415   2.502   3.366  10.451
  275MPD2    N1 4416   2.715   3.799  10.448
  275MPD2    H7 4417   2.760   3.883  10.413
  276MPD2     C 4418   3.372   3.877  10.079
  276MPD2    C1 4419   3.424   3.921  10.197
  276MPD2    C2 4420   3.340   3.923  10.309
  276MPD2    C3 4421   3.205   3.896  10.296
  276MPD2    C4 4422   3.149   3.886  10.171
  276MPD2    C5 4423   3.235   3.868  10.068
  276MPD2     H 4424   3.375   3.958  10.405
  276MPD2    H1 4425   3.043   3.894  10.148
  276MPD2    H2 4426   3.430   3.858   9.990
  276MPD2    H3 4427   3.199   3.831   9.973
  276MPD2     N 4428   3.112   3.885  10.401
  276MPD2    H5 4429   3.016   3.880  10.369
  276MPD2    N1 4430   3.562   3.937  10.201
  276MPD2    H7 4431   3.611   3.911  10.116
  277MPD2     C 4432   3.401   4.503   9.827
  277MPD2    C1 4433   3.401   4.472   9.962
  277MPD2    C2 4434   3.427   4.341  10.002
  277MPD2    C3 4435   3.495   4.260   9.918
  277MPD2    C4 4436   3.511   4.301   9.784
  277MPD2    C5 4437   3.454   4.417   9.744
  277MPD2     H 4438   3.406   4.296  10.098
  277MPD2    H1 4439   3.556   4.229   9.716
  277MPD2    H2 4440   3.368   4.595   9.779
  277MPD2    H3 4441   3.460   4.440   9.639
  277MPD2     N 4442   3.531   4.122   9.959
  277MPD2    H5 4443   3.467   4.073  10.021
  277MPD2    N1 4444   3.368   4.577  10.052
  277MPD2    H7 4445   3.342   4.666  10.010
  278MPD2     C 4446   4.113   4.419  10.607
  278MPD2    C1 4447   4.115   4.544  10.570
  278MPD2    C2 4448   4.005   4.599  10.499
  278MPD2    C3 4449   3.885   4.536  10.486
  278MPD2    C4 4450   3.889   4.404  10.525
  278MPD2    C5 4451   3.997   4.346  10.588
  278MPD2     H 4452   4.015   4.700  10.463
  278MPD2    H1 4453   3.798   4.350  10.500
  278MPD2    H2 4454   4.203   4.369  10.640
  278MPD2    H3 4455   3.995   4.246  10.629
  278MPD2     N 4456   3.768   4.589  10.424
  278MPD2    H5 4457   3.683   4.534  10.418
  278MPD2    N1 4458   4.235   4.619  10.586
  278MPD2    H7 4459   4.243   4.699  10.525
  279MPD2     C 4460   3.410   0.505  10.044
  279MPD2    C1 4461   3.337   0.406  10.112
  279MPD2    C2 4462   3.213   0.444  10.163
  279MPD2    C3 4463   3.163   0.571  10.141
  279MPD2    C4 4464   3.238   0.667  10.073
  279MPD2    C5 4465   3.365   0.630  10.024
  279MPD2     H 4466   3.147   0.384  10.226
  279MPD2    H1 4467   3.202   0.769  10.066
  279MPD2    H2 4468   3.504   0.482   9.995
  279MPD2    H3 4469   3.427   0.697   9.965
  279MPD2     N 4470   3.032   0.608  10.184
  279MPD2    H5 4471   3.008   0.705  10.167
  279MPD2    N1 4472   3.375   0.271  10.135
  279MPD2    H7 4473   3.310   0.212  10.185
  280MPD2     C 4474   0.735   1.911   8.032
  280MPD2    C1 4475   0.812   1.829   8.108
  280MPD2    C2 4476   0.951   1.849   8.117
  280MPD2    C3 4477   1.000   1.963   8.052
  280MPD2    C4 4478   0.924   2.045   7.977
  280MPD2    C5 4479   0.790   2.016   7.963
  280MPD2     H 4480   1.022   1.786   8.168
  280MPD2    H1 4481   0.958   2.131   7.921
  280MPD2    H2 4482   0.630   1.903   8.007
  280MPD2    H3 4483   0.734   2.073   7.889
  280MPD2     N 4484   1.137   2.000   8.051
  280MPD2    H5 4485   1.160   2.064   7.975
  280MPD2    N1 4486   0.758   1.716   8.178
  280MPD2    H7 4487   0.801   1.690   8.265
  281MPD2     C 4488   0.284   2.278   8.107
  281MPD2    C1 4489   0.364   2.281   7.994
  281MPD2    C2 4490   0.380   2.162   7.921
  281MPD2    C3 4491   0.316   2.042   7.949
  281MPD2    C4 4492   0.229   2.046   8.053
  281MPD2    C5 4493   0.219   2.159   8.131
  281MPD2     H 4494   0.450   2.155   7.839
  281MPD2    H1 4495   0.164   1.966   8.084
  281MPD2    H2 4496   0.285   2.352   8.186
  281MPD2    H3 4497   0.144   2.151   8.209
  281MPD2     N 4498   0.340   1.914   7.895
  281MPD2    H5 4499   0.297   1.832   7.938
  281MPD2    N1 4500   0.424   2.406   7.958
  281MPD2    H7 4501   0.389   2.479   8.019
  282MPD2     C 4502   3.426   1.097  13.664
  282MPD2    C1 4503   3.376   1.042  13.548
  282MPD2    C2 4504   3.382   1.117  13.437
  282MPD2    C3 4505   3.412   1.247  13.437
  282MPD2    C4 4506   3.444   1.304  13.554
  282MPD2    C5 4507   3.464   1.223  13.662
  282MPD2     H 4508   3.343   1.083  13.341
  282MPD2    H1 4509   3.469   1.409  13.560
  282MPD2    H2 4510   3.425   1.038  13.755
  282MPD2    H3 4511   3.492   1.280  13.750
  282MPD2     N 4512   3.388   1.327  13.325
  282MPD2    H5 4513   3.357   1.269  13.248
  282MPD2    N1 4514   3.317   0.911  13.550
  282MPD2    H7 4515   3.306   0.861  13.638
  283MPD2     C 4516   2.732   1.141  13.645
  283MPD2    C1 4517   2.749   1.122  13.775
  283MPD2    C2 4518   2.791   1.000  13.825
  283MPD2    C3 4519   2.825   0.897  13.736
  283MPD2    C4 4520   2.793   0.910  13.601
  283MPD2    C5 4521   2.739   1.035  13.561
  283MPD2     H 4522   2.818   0.977  13.928
  283MPD2    H1 4523   2.796   0.838  13.520
  283MPD2    H2 4524   2.684   1.228  13.603
  283MPD2    H3 4525   2.717   1.053  13.457
  283MPD2     N 4526   2.869   0.784  13.796
  283MPD2    H5 4527   2.859   0.781  13.897
  283MPD2    N1 4528   2.720   1.220  13.873
  283MPD2    H7 4529   2.712   1.186  13.968
  284MPD2     C 4530   0.144   1.065   6.726
  284MPD2    C1 4531   0.101   0.939   6.742
  284MPD2    C2 4532   0.182   0.832   6.707
  284MPD2    C3 4533   0.313   0.855   6.665
  284MPD2    C4 4534   0.358   0.985   6.663
  284MPD2    C5 4535   0.272   1.089   6.682
  284MPD2     H 4536   0.135   0.734   6.710
  284MPD2    H1 4537   0.461   1.006   6.637
  284MPD2    H2 4538   0.084   1.146   6.765
  284MPD2    H3 4539   0.312   1.189   6.670
  284MPD2     N 4540   0.389   0.743   6.624
  284MPD2    H5 4541   0.350   0.650   6.639
  284MPD2    N1 4542   4.764   0.914   6.807
  284MPD2    H7 4543   4.748   0.817   6.833
  285MPD2     C 4544   0.339   4.564   6.539
  285MPD2    C1 4545   0.449   4.583   6.620
  285MPD2    C2 4546   0.508   4.704   6.624
  285MPD2    C3 4547   0.459   0.017   6.543
  285MPD2    C4 4548   0.345   4.784   6.465
  285MPD2    C5 4549   0.285   4.665   6.468
  285MPD2     H 4550   0.598   4.725   6.681
  285MPD2    H1 4551   0.291   0.073   6.410
  285MPD2    H2 4552   0.289   4.469   6.527
  285MPD2    H3 4553   0.194   4.654   6.411
  285MPD2     N 4554   0.512   0.146   6.542
  285MPD2    H5 4555   0.604   0.164   6.581
  285MPD2    N1 4556   0.475   4.481   6.716
  285MPD2    H7 4557   0.417   4.398   6.709
  286MPD2     C 4558   4.780   3.171   9.528
  286MPD2    C1 4559   0.008   3.291   9.469
  286MPD2    C2 4560   0.135   3.352   9.491
  286MPD2    C3 4561   0.238   3.288   9.559
  286MPD2    C4 4562   0.220   3.171   9.618
  286MPD2    C5 4563   0.095   3.116   9.603
  286MPD2     H 4564   0.152   3.454   9.458
  286MPD2    H1 4565   0.302   3.111   9.657
  286MPD2    H2 4566   4.687   3.116   9.521
  286MPD2    H3 4567   0.084   3.019   9.650
  286MPD2     N 4568   0.369   3.341   9.576
  286MPD2    H5 4569   0.434   3.290   9.635
  286MPD2    N1 4570   4.693   3.357   9.387
  286MPD2    H7 4571   4.713   3.454   9.367
  287MPD2     C 4572   4.279   3.898   9.674
  287MPD2    C1 4573   4.346   3.930   9.564
  287MPD2    C2 4574   4.319   3.848   9.458
  287MPD2    C3 4575   4.234   3.738   9.455
  287MPD2    C4 4576   4.175   3.704   9.574
  287MPD2    C5 4577   4.196   3.790   9.680
  287MPD2     H 4578   4.365   3.870   9.362
  287MPD2    H1 4579   4.100   3.626   9.580
  287MPD2    H2 4580   4.291   3.965   9.758
  287MPD2    H3 4581   4.150   3.767   9.775
  287MPD2     N 4582   4.229   3.658   9.338
  287MPD2    H5 4583   4.303   3.685   9.274
  287MPD2    N1 4584   4.443   4.032   9.548
  287MPD2    H7 4585   4.484   4.042   9.456
  288MPD2     C 4586   4.432   4.028   8.698
  288MPD2    C1 4587   4.525   4.010   8.803
  288MPD2    C2 4588   4.523   3.892   8.883
  288MPD2    C3 4589   4.429   3.796   8.855
  288MPD2    C4 4590   4.344   3.813   8.749
  288MPD2    C5 4591   4.350   3.927   8.671
  288MPD2     H 4592   4.587   3.886   8.970
  288MPD2    H1 4593   4.272   3.737   8.722
  288MPD2    H2 4594   4.431   4.113   8.631
  288MPD2    H3 4595   4.275   3.939   8.594
  288MPD2     N 4596   4.422   3.677   8.931
  288MPD2    H5 4597   4.350   3.608   8.913
  288MPD2    N1 4598   4.621   4.107   8.834
  288MPD2    H7 4599   4.680   4.082   8.913
  289MPD2     C 4600   4.222   0.519   8.049
  289MPD2    C1 4601   4.358   0.539   8.042
  289MPD2    C2 4602   4.439   0.458   7.974
  289MPD2    C3 4603   4.389   0.340   7.916
  289MPD2    C4 4604   4.255   0.317   7.925
  289MPD2    C5 4605   4.167   0.405   7.984
  289MPD2     H 4606   4.545   0.482   7.979
  289MPD2    H1 4607   4.215   0.225   7.883
  289MPD2    H2 4608   4.152   0.583   8.101
  289MPD2    H3 4609   4.063   0.378   7.975
  289MPD2     N 4610   4.473   0.241   7.856
  289MPD2    H5 4611   4.429   0.151   7.845
  289MPD2    N1 4612   4.430   0.650   8.101
  289MPD2    H7 4613   4.530   0.663   8.087
  290MPD2     C 4614   4.180   0.017   8.123
  290MPD2    C1 4615   4.280   4.712   8.107
  290MPD2    C2 4616   4.249   4.584   8.067
  290MPD2    C3 4617   4.122   4.551   8.022
  290MPD2    C4 4618   4.018   4.638   8.044
  290MPD2    C5 4619   4.053   4.758   8.099
  290MPD2     H 4620   4.326   4.509   8.078
  290MPD2    H1 4621   3.913   4.619   8.024
  290MPD2    H2 4622   4.207   0.118   8.150
  290MPD2    H3 4623   3.966   0.032   8.120
  290MPD2     N 4624   4.102   4.421   7.968
  290MPD2    H5 4625   4.170   4.350   7.992
  290MPD2    N1 4626   4.412   4.764   8.115
  290MPD2    H7 4627   4.428   0.077   8.124
  291MPD2     C 4628   0.408   0.346   8.166
  291MPD2    C1 4629   0.381   0.236   8.084
  291MPD2    C2 4630   0.480   0.215   7.988
  291MPD2    C3 4631   0.595   0.291   7.973
  291MPD2    C4 4632   0.609   0.404   8.055
  291MPD2    C5 4633   0.525   0.416   8.159
  291MPD2     H 4634   0.470   0.127   7.925
  291MPD2    H1 4635   0.701   0.462   8.059
  291MPD2    H2 4636   0.338   0.361   8.247
  291MPD2    H3 4637   0.556   0.488   8.234
  291MPD2     N 4638   0.682   0.259   7.871
  291MPD2    H5 4639   0.664   0.165   7.836
  291MPD2    N1 4640   0.262   0.157   8.073
  291MPD2    H7 4641   0.252   0.092   7.996
  292MPD2     C 4642   4.525   1.509  12.973
  292MPD2    C1 4643   4.483   1.406  12.888
  292MPD2    C2 4644   4.576   1.318  12.835
  292MPD2    C3 4645   4.708   1.321  12.872
  292MPD2    C4 4646   4.752   1.423  12.949
  292MPD2    C5 4647   4.660   1.524  12.980
  292MPD2     H 4648   4.548   1.243  12.762
  292MPD2    H1 4649   0.070   1.442  12.963
  292MPD2    H2 4650   4.469   1.586  13.025
  292MPD2    H3 4651   4.696   1.607  13.040
  292MPD2     N 4652   0.012   1.219  12.827
  292MPD2    H5 4653   4.759   1.140  12.777
  292MPD2    N1 4654   4.344   1.397  12.861
  292MPD2    H7 4655   4.282   1.455  12.917
  293MPD2     C 4656   3.679   0.581  12.598
  293MPD2    C1 4657   3.644   0.622  12.725
  293MPD2    C2 4658   3.692   0.739  12.772
  293MPD2    C3 4659   3.777   0.818  12.696
  293MPD2    C4 4660   3.816   0.776  12.574
  293MPD2    C5 4661   3.756   0.664  12.520
  293MPD2     H 4662   3.668   0.768  12.874
  293MPD2    H1 4663   3.892   0.825  12.515
  293MPD2    H2 4664   3.643   0.489  12.553
  293MPD2    H3 4665   3.800   0.633  12.426
  293MPD2     N 4666   3.825   0.939  12.748
  293MPD2    H5 4667   3.767   0.968  12.826
  293MPD2    N1 4668   3.567   0.538  12.821
  293MPD2    H7 4669   3.532   0.574  12.909
  294MPD2     C 4670   4.162   3.539  12.377
  294MPD2    C1 4671   4.086   3.517  12.495
  294MPD2    C2 4672   4.100   3.392  12.559
  294MPD2    C3 4673   4.169   3.287  12.496
  294MPD2    C4 4674   4.245   3.320  12.383
  294MPD2    C5 4675   4.236   3.439  12.320
  294MPD2     H 4676   4.048   3.376  12.652
  294MPD2    H1 4677   4.291   3.247  12.317
  294MPD2    H2 4678   4.170   3.630  12.319
  294MPD2    H3 4679   4.283   3.458  12.224
  294MPD2     N 4680   4.173   3.156  12.543
  294MPD2    H5 4681   4.222   3.090  12.483
  294MPD2    N1 4682   4.022   3.628  12.557
  294MPD2    H7 4683   4.002   3.625  12.656
  295MPD2     C 4684   3.410   3.426  12.101
  295MPD2    C1 4685   3.437   3.560  12.061
  295MPD2    C2 4686   3.359   3.621  11.966
  295MPD2    C3 4687   3.248   3.553  11.917
  295MPD2    C4 4688   3.227   3.425  11.952
  295MPD2    C5 4689   3.310   3.360  12.039
  295MPD2     H 4690   3.399   3.714  11.926
  295MPD2    H1 4691   3.158   3.365  11.893
  295MPD2    H2 4692   3.473   3.372  12.171
  295MPD2    H3 4693   3.295   3.254  12.060
  295MPD2     N 4694   3.167   3.612  11.823
  295MPD2    H5 4695   3.209   3.695  11.782
  295MPD2    N1 4696   3.547   3.636  12.119
  295MPD2    H7 4697   3.549   3.735  12.097
  296MPD2     C 4698   3.033   2.918  14.533
  296MPD2    C1 4699   3.035   3.053  14.547
  296MPD2    C2 4700   3.080   3.124  14.431
  296MPD2    C3 4701   3.100   3.068  14.307
  296MPD2    C4 4702   3.076   2.935  14.297
  296MPD2    C5 4703   3.050   2.857  14.408
  296MPD2     H 4704   3.112   3.228  14.437
  296MPD2    H1 4705   3.086   2.881  14.204
  296MPD2    H2 4706   3.024   2.847  14.615
  296MPD2    H3 4707   3.057   2.749  14.402
  296MPD2     N 4708   3.151   3.135  14.195
  296MPD2    H5 4709   3.191   3.225  14.218
  296MPD2    N1 4710   3.023   3.113  14.677
  296MPD2    H7 4711   3.026   3.053  14.759
  297MPD2     C 4712   3.883   3.187  14.740
  297MPD2    C1 4713   3.770   3.177  14.661
  297MPD2    C2 4714   3.645   3.216  14.707
  297MPD2    C3 4715   3.623   3.255  14.835
  297MPD2    C4 4716   3.736   3.279  14.908
  297MPD2    C5 4717   3.859   3.250  14.864
  297MPD2     H 4718   3.561   3.205  14.639
  297MPD2    H1 4719   3.722   3.333  15.001
  297MPD2    H2 4720   3.985   3.168  14.711
  297MPD2    H3 4721   3.944   3.285  14.920
  297MPD2     N 4722   3.494   3.296  14.881
  297MPD2    H5 4723   3.497   3.338  14.974
  297MPD2    N1 4724   3.774   3.112  14.537
  297MPD2    H7 4725   3.684   3.101  14.490
  298MPD2     C 4726   3.055   2.836  15.317
  298MPD2    C1 4727   2.996   2.839  15.190
  298MPD2    C2 4728   2.914   2.739  15.149
  298MPD2    C3 4729   2.890   2.628  15.231
  298MPD2    C4 4730   2.953   2.620  15.351
  298MPD2    C5 4731   3.037   2.723  15.391
  298MPD2     H 4732   2.854   2.751  15.059
  298MPD2    H1 4733   2.930   2.535  15.414
  298MPD2    H2 4734   3.111   2.917  15.363
  298MPD2    H3 4735   3.076   2.724  15.492
  298MPD2     N 4736   2.791   2.531  15.191
  298MPD2    H5 4737   2.777   2.531  15.091
  298MPD2    N1 4738   3.024   2.947  15.097
  298MPD2    H7 4739   2.976   2.940  15.008
  299MPD2     C 4740   4.234   4.687   7.274
  299MPD2    C1 4741   4.172   0.023   7.291
  299MPD2    C2 4742   4.233   0.123   7.369
  299MPD2    C3 4743   4.355   0.098   7.431
  299MPD2    C4 4744   4.412   4.762   7.423
  299MPD2    C5 4745   4.351   4.667   7.344
  299MPD2     H 4746   4.183   0.219   7.376
  299MPD2    H1 4747   4.489   4.739   7.496
  299MPD2    H2 4748   4.193   4.607   7.214
  299MPD2    H3 4749   4.388   4.566   7.341
  299MPD2     N 4750   4.426   0.198   7.509
  299MPD2    H5 4751   4.525   0.176   7.517
  299MPD2    N1 4752   4.047   0.053   7.247
  299MPD2    H7 4753   3.994   0.134   7.277
  300MPD2     C 4754   0.253   0.718   7.047
  300MPD2    C1 4755   0.245   0.596   7.104
  300MPD2    C2 4756   0.166   0.569   7.213
  300MPD2    C3 4757   0.093   0.671   7.272
  300MPD2    C4 4758   0.093   0.796   7.205
  300MPD2    C5 4759   0.175   0.821   7.095
  300MPD2     H 4760   0.162   0.467   7.250
  300MPD2    H1 4761   0.028   0.879   7.231
  300MPD2    H2 4762   0.311   0.734   6.957
  300MPD2    H3 4763   0.184   0.916   7.044
  300MPD2     N 4764   0.005   0.659   7.375
  300MPD2    H5 4765   4.726   0.735   7.387
  300MPD2    N1 4766   0.318   0.492   7.042
  300MPD2    H7 4767   0.307   0.400   7.084
  301MPD2     C 4768   2.569   3.405  13.208
  301MPD2    C1 4769   2.497   3.330  13.125
  301MPD2    C2 4770   2.563   3.244  13.040
  301MPD2    C3 4771   2.700   3.248  13.024
  301MPD2    C4 4772   2.773   3.340  13.104
  301MPD2    C5 4773   2.709   3.408  13.205
  301MPD2     H 4774   2.504   3.177  12.980
  301MPD2    H1 4775   2.880   3.350  13.094
  301MPD2    H2 4776   2.511   3.456  13.285
  301MPD2    H3 4777   2.770   3.476  13.263
  301MPD2     N 4778   2.754   3.170  12.919
  301MPD2    H5 4779   2.691   3.106  12.873
  301MPD2    N1 4780   2.352   3.339  13.114
  301MPD2    H7 4781   2.314   3.273  13.047
  302MPD2     C 4782   1.591   4.016  13.354
  302MPD2    C1 4783   1.723   4.042  13.326
  302MPD2    C2 4784   1.805   3.937  13.287
  302MPD2    C3 4785   1.763   3.801  13.295
  302MPD2    C4 4786   1.633   3.782  13.329
  302MPD2    C5 4787   1.545   3.887  13.357
  302MPD2     H 4788   1.910   3.954  13.267
  302MPD2    H1 4789   1.598   3.680  13.338
  302MPD2    H2 4790   1.524   4.099  13.373
  302MPD2    H3 4791   1.443   3.865  13.387
  302MPD2     N 4792   1.849   3.695  13.255
  302MPD2    H5 4793   1.947   3.722  13.259
  302MPD2    N1 4794   1.761   4.183  13.342
  302MPD2    H7 4795   1.692   4.252  13.369
  303MPD2     C 4796   1.733   2.660  13.297
  303MPD2    C1 4797   1.696   2.732  13.183
  303MPD2    C2 4798   1.754   2.857  13.149
  303MPD2    C3 4799   1.851   2.916  13.226
  303MPD2    C4 4800   1.894   2.846  13.341
  303MPD2    C5 4801   1.833   2.723  13.375
  303MPD2     H 4802   1.728   2.913  13.060
  303MPD2    H1 4803   1.974   2.884  13.403
  303MPD2    H2 4804   1.681   2.571  13.328
  303MPD2    H3 4805   1.858   2.684  13.473
  303MPD2     N 4806   1.910   3.047  13.198
  303MPD2    H5 4807   1.969   3.093  13.265
  303MPD2    N1 4808   1.602   2.670  13.091
  303MPD2    H7 4809   1.549   2.593  13.130
  304MPD2     C 4810   3.909   4.416   7.262
  304MPD2    C1 4811   3.784   4.405   7.203
  304MPD2    C2 4812   3.671   4.458   7.276
  304MPD2    C3 4813   3.691   4.508   7.401
  304MPD2    C4 4814   3.814   4.521   7.444
  304MPD2    C5 4815   3.925   4.473   7.386
  304MPD2     H 4816   3.570   4.455   7.238
  304MPD2    H1 4817   3.831   4.569   7.540
  304MPD2    H2 4818   3.990   4.370   7.207
  304MPD2    H3 4819   4.026   4.479   7.425
  304MPD2     N 4820   3.581   4.530   7.488
  304MPD2    H5 4821   3.607   4.569   7.578
  304MPD2    N1 4822   3.779   4.363   7.069
  304MPD2    H7 4823   3.859   4.369   7.006
  305MPD2     C 4824   3.469   3.517   7.386
  305MPD2    C1 4825   3.367   3.603   7.419
  305MPD2    C2 4826   3.365   3.741   7.394
  305MPD2    C3 4827   3.476   3.796   7.312
  305MPD2    C4 4828   3.574   3.710   7.282
  305MPD2    C5 4829   3.576   3.579   7.323
  305MPD2     H 4830   3.281   3.802   7.425
  305MPD2    H1 4831   3.655   3.734   7.213
  305MPD2    H2 4832   3.472   3.413   7.417
  305MPD2    H3 4833   3.667   3.522   7.309
  305MPD2     N 4834   3.480   3.930   7.262
  305MPD2    H5 4835   3.568   3.972   7.233
  305MPD2    N1 4836   3.250   3.539   7.475
  305MPD2    H7 4837   3.186   3.593   7.532
  306MPD2     C 4838   2.836   4.359   7.023
  306MPD2    C1 4839   2.962   4.411   7.011
  306MPD2    C2 4840   2.967   4.547   6.994
  306MPD2    C3 4841   2.857   4.627   6.974
  306MPD2    C4 4842   2.732   4.558   6.956
  306MPD2    C5 4843   2.724   4.433   6.987
  306MPD2     H 4844   3.064   4.594   7.008
  306MPD2    H1 4845   2.641   4.607   6.921
  306MPD2    H2 4846   2.825   4.251   7.035
  306MPD2    H3 4847   2.630   4.379   6.973
  306MPD2     N 4848   2.864   4.766   6.970
  306MPD2    H5 4849   2.952   0.028   6.972
  306MPD2    N1 4850   3.080   4.333   7.034
  306MPD2    H7 4851   3.074   4.245   7.084
  307MPD2     C 4852   2.619   4.709  10.240
  307MPD2    C1 4853   2.620   0.010  10.137
  307MPD2    C2 4854   2.577   0.136  10.151
  307MPD2    C3 4855   2.552   0.186  10.268
  307MPD2    C4 4856   2.546   0.099  10.373
  307MPD2    C5 4857   2.571   4.749  10.361
  307MPD2     H 4858   2.586   0.211  10.074
  307MPD2    H1 4859   2.525   0.147  10.467
  307MPD2    H2 4860   2.656   4.608  10.227
  307MPD2    H3 4861   2.581   4.691  10.452
  307MPD2     N 4862   2.545   0.329  10.272
  307MPD2    H5 4863   2.534   0.381  10.185
  307MPD2    N1 4864   2.678   4.765  10.008
  307MPD2    H7 4865   2.686   0.060   9.949
  308MPD2     C 4866   1.559   0.092   8.112
  308MPD2    C1 4867   1.539   0.030   8.235
  308MPD2    C2 4868   1.650   4.780   8.311
  308MPD2    C3 4869   1.776   0.031   8.267
  308MPD2    C4 4870   1.797   0.085   8.141
  308MPD2    C5 4871   1.684   0.120   8.064
  308MPD2     H 4872   1.644   4.725   8.404
  308MPD2    H1 4873   1.892   0.113   8.099
  308MPD2    H2 4874   1.472   0.107   8.049
  308MPD2    H3 4875   1.699   0.146   7.960
  308MPD2     N 4876   1.886   4.777   8.337
  308MPD2    H5 4877   1.966   4.777   8.274
  308MPD2    N1 4878   1.413   4.777   8.275
  308MPD2    H7 4879   1.415   4.702   8.344
  309MPD2     C 4880   1.455   0.492   8.600
  309MPD2    C1 4881   1.463   0.380   8.522
  309MPD2    C2 4882   1.395   0.383   8.402
  309MPD2    C3 4883   1.316   0.487   8.367
  309MPD2    C4 4884   1.314   0.594   8.446
  309MPD2    C5 4885   1.385   0.601   8.561
  309MPD2     H 4886   1.404   0.306   8.326
  309MPD2    H1 4887   1.260   0.686   8.425
  309MPD2    H2 4888   1.513   0.504   8.691
  309MPD2    H3 4889   1.392   0.695   8.615
  309MPD2     N 4890   1.234   0.476   8.252
  309MPD2    H5 4891   1.244   0.387   8.205
  309MPD2    N1 4892   1.536   0.264   8.557
  309MPD2    H7 4893   1.548   0.195   8.484
  310MPD2     C 4894   1.657   4.255   8.887
  310MPD2    C1 4895   1.704   4.370   8.952
  310MPD2    C2 4896   1.718   4.375   9.091
  310MPD2    C3 4897   1.707   4.259   9.164
  310MPD2    C4 4898   1.642   4.151   9.109
  310MPD2    C5 4899   1.626   4.147   8.967
  310MPD2     H 4900   1.764   4.465   9.130
  310MPD2    H1 4901   1.628   4.063   9.170
  310MPD2    H2 4902   1.647   4.251   8.779
  310MPD2    H3 4903   1.597   4.057   8.915
  310MPD2     N 4904   1.759   4.254   9.298
  310MPD2    H5 4905   1.810   4.338   9.324
  310MPD2    N1 4906   1.727   4.480   8.864
  310MPD2    H7 4907   1.723   4.462   8.764
  311MPD2     C 4908   0.543   2.678   7.460
  311MPD2    C1 4909   0.599   2.667   7.333
  311MPD2    C2 4910   0.632   2.782   7.260
  311MPD2    C3 4911   0.607   2.907   7.320
  311MPD2    C4 4912   0.533   2.913   7.435
  311MPD2    C5 4913   0.514   2.798   7.509
  311MPD2     H 4914   0.674   2.779   7.160
  311MPD2    H1 4915   0.500   3.007   7.478
  311MPD2    H2 4916   0.515   2.595   7.525
  311MPD2    H3 4917   0.466   2.800   7.606
  311MPD2     N 4918   0.638   3.030   7.252
  311MPD2    H5 4919   0.662   3.020   7.154
  311MPD2    N1 4920   0.645   2.549   7.278
  311MPD2    H7 4921   0.707   2.549   7.198
  312MPD2     C 4922   1.469   2.307   7.345
  312MPD2    C1 4923   1.432   2.300   7.215
  312MPD2    C2 4924   1.307   2.275   7.186
  312MPD2    C3 4925   1.207   2.267   7.281
  312MPD2    C4 4926   1.245   2.268   7.416
  312MPD2    C5 4927   1.379   2.291   7.448
  312MPD2     H 4928   1.269   2.275   7.084
  312MPD2    H1 4929   1.166   2.247   7.488
  312MPD2    H2 4930   1.572   2.332   7.367
  312MPD2    H3 4931   1.420   2.297   7.548
  312MPD2     N 4932   1.076   2.264   7.262
  312MPD2    H5 4933   1.018   2.264   7.346
  312MPD2    N1 4934   1.519   2.318   7.101
  312MPD2    H7 4935   1.491   2.293   7.006
  313MPD2     C 4936   3.607   0.462  15.043
  313MPD2    C1 4937   3.524   0.365  14.989
  313MPD2    C2 4938   3.569   0.237  14.992
  313MPD2    C3 4939   3.689   0.206  15.058
  313MPD2    C4 4940   3.772   0.297  15.115
  313MPD2    C5 4941   3.731   0.425  15.101
  313MPD2     H 4942   3.517   0.148  14.959
  313MPD2    H1 4943   3.866   0.280  15.166
  313MPD2    H2 4944   3.580   0.567  15.034
  313MPD2    H3 4945   3.795   0.509  15.128
  313MPD2     N 4946   3.704   0.066  15.080
  313MPD2    H5 4947   3.630   0.002  15.053
  313MPD2    N1 4948   3.395   0.390  14.934
  313MPD2    H7 4949   3.346   0.317  14.883
  314MPD2     C 4950   3.014   4.477  15.015
  314MPD2    C1 4951   3.125   4.461  14.933
  314MPD2    C2 4952   3.255   4.452  14.991
  314MPD2    C3 4953   3.272   4.461  15.128
  314MPD2    C4 4954   3.162   4.479  15.202
  314MPD2    C5 4955   3.037   4.491  15.147
  314MPD2     H 4956   3.335   4.419  14.927
  314MPD2    H1 4957   3.181   4.493  15.308
  314MPD2    H2 4958   2.916   4.492  14.971
  314MPD2    H3 4959   2.954   4.510  15.214
  314MPD2     N 4960   3.400   4.462  15.179
  314MPD2    H5 4961   3.424   4.494  15.273
  314MPD2    N1 4962   3.126   4.414  14.803
  314MPD2    H7 4963   3.214   4.380  14.767
  315MPD2     C 4964   1.661   1.863   9.991
  315MPD2    C1 4965   1.540   1.834  10.035
  315MPD2    C2 4966   1.432   1.888   9.974
  315MPD2    C3 4967   1.442   1.965   9.859
  315MPD2    C4 4968   1.564   1.999   9.812
  315MPD2    C5 4969   1.674   1.947   9.881
  315MPD2     H 4970   1.333   1.856  10.004
  315MPD2    H1 4971   1.594   2.056   9.725
  315MPD2    H2 4972   1.753   1.820  10.028
  315MPD2    H3 4973   1.769   1.972   9.835
  315MPD2     N 4974   1.321   2.005   9.797
  315MPD2    H5 4975   1.236   1.979   9.847
  315MPD2    N1 4976   1.528   1.732  10.135
  315MPD2    H7 4977   1.611   1.678  10.154
  316MPD2     C 4978   1.290   1.027  10.441
  316MPD2    C1 4979   1.193   1.093  10.376
  316MPD2    C2 4980   1.062   1.037  10.378
  316MPD2    C3 4981   1.041   0.918  10.440
  316MPD2    C4 4982   1.144   0.850  10.511
  316MPD2    C5 4983   1.273   0.907  10.511
  316MPD2     H 4984   0.985   1.082  10.317
  316MPD2    H1 4985   1.126   0.754  10.557
  316MPD2    H2 4986   1.382   1.082  10.455
  316MPD2    H3 4987   1.350   0.859  10.570
  316MPD2     N 4988   0.914   0.856  10.444
  316MPD2    H5 4989   0.839   0.920  10.416
  316MPD2    N1 4990   1.217   1.218  10.320
  316MPD2    H7 4991   1.317   1.236  10.311
  317MPD2     C 4992   1.438   1.783   9.441
  317MPD2    C1 4993   1.542   1.768   9.530
  317MPD2    C2 4994   1.517   1.694   9.643
  317MPD2    C3 4995   1.406   1.608   9.657
  317MPD2    C4 4996   1.325   1.595   9.549
  317MPD2    C5 4997   1.331   1.691   9.450
  317MPD2     H 4998   1.577   1.700   9.733
  317MPD2    H1 4999   1.241   1.527   9.552
  317MPD2    H2 5000   1.446   1.839   9.348
  317MPD2    H3 5001   1.261   1.684   9.368
  317MPD2     N 5002   1.405   1.537   9.778
  317MPD2    H5 5003   1.478   1.564   9.842
  317MPD2    N1 5004   1.659   1.843   9.514
  317MPD2    H7 5005   1.658   1.923   9.452
  318MPD2     C 5006   2.684   2.733   8.474
  318MPD2    C1 5007   2.662   2.860   8.537
  318MPD2    C2 5008   2.617   2.858   8.670
  318MPD2    C3 5009   2.595   2.736   8.734
  318MPD2    C4 5010   2.611   2.618   8.675
  318MPD2    C5 5011   2.658   2.613   8.545
  318MPD2     H 5012   2.599   2.952   8.720
  318MPD2    H1 5013   2.597   2.521   8.722
  318MPD2    H2 5014   2.716   2.731   8.371
  318MPD2    H3 5015   2.681   2.518   8.498
  318MPD2     N 5016   2.546   2.738   8.873
  318MPD2    H5 5017   2.526   2.647   8.914
  318MPD2    N1 5018   2.673   2.980   8.460
  318MPD2    H7 5019   2.705   2.963   8.365
  319MPD2     C 5020   1.809   2.331   9.392
  319MPD2    C1 5021   1.874   2.299   9.275
  319MPD2    C2 5022   1.994   2.365   9.251
  319MPD2    C3 5023   2.058   2.446   9.345
  319MPD2    C4 5024   1.990   2.473   9.462
  319MPD2    C5 5025   1.865   2.412   9.484
  319MPD2     H 5026   2.055   2.338   9.166
  319MPD2    H1 5027   2.031   2.546   9.531
  319MPD2    H2 5028   1.711   2.285   9.404
  319MPD2    H3 5029   1.811   2.438   9.575
  319MPD2     N 5030   2.172   2.523   9.314
  319MPD2    H5 5031   2.204   2.581   9.390
  319MPD2    N1 5032   1.818   2.205   9.191
  319MPD2    H7 5033   1.732   2.173   9.234
  320MPD2     C 5034   2.248   3.112   9.595
  320MPD2    C1 5035   2.316   3.155   9.483
  320MPD2    C2 5036   2.326   3.290   9.456
  320MPD2    C3 5037   2.289   3.385   9.552
  320MPD2    C4 5038   2.222   3.343   9.665
  320MPD2    C5 5039   2.201   3.209   9.684
  320MPD2     H 5040   2.379   3.314   9.365
  320MPD2    H1 5041   2.191   3.411   9.743
  320MPD2    H2 5042   2.227   3.010   9.628
  320MPD2    H3 5043   2.151   3.176   9.774
  320MPD2     N 5044   2.314   3.522   9.543
  320MPD2    H5 5045   2.254   3.577   9.603
  320MPD2    N1 5046   2.373   3.065   9.391
  320MPD2    H7 5047   2.425   3.104   9.313
  321MPD2     C 5048   0.486   0.981  13.951
  321MPD2    C1 5049   0.597   1.061  13.969
  321MPD2    C2 5050   0.651   1.109  13.858
  321MPD2    C3 5051   0.621   1.073  13.734
  321MPD2    C4 5052   0.520   0.983  13.712
  321MPD2    C5 5053   0.455   0.941  13.827
  321MPD2     H 5054   0.722   1.191  13.862
  321MPD2    H1 5055   0.499   0.945  13.613
  321MPD2    H2 5056   0.428   0.944  14.034
  321MPD2    H3 5057   0.376   0.868  13.812
  321MPD2     N 5058   0.667   1.142  13.619
  321MPD2    H5 5059   0.615   1.122  13.535
  321MPD2    N1 5060   0.607   1.130  14.096
  321MPD2    H7 5061   0.550   1.097  14.174
  322MPD2     C 5062   0.666   1.963  14.273
  322MPD2    C1 5063   0.697   1.829  14.253
  322MPD2    C2 5064   0.637   1.764  14.147
  322MPD2    C3 5065   0.537   1.827  14.072
  322MPD2    C4 5066   0.503   1.955  14.097
  322MPD2    C5 5067   0.572   2.024  14.194
  322MPD2     H 5068   0.658   1.661  14.120
  322MPD2    H1 5069   0.418   1.999  14.046
  322MPD2    H2 5070   0.720   2.012  14.353
  322MPD2    H3 5071   0.554   2.130  14.202
  322MPD2     N 5072   0.469   1.761  13.968
  322MPD2    H5 5073   0.388   1.814  13.939
  322MPD2    N1 5074   0.789   1.760  14.339
  322MPD2    H7 5075   0.854   1.818  14.390
  323MPD2     C 5076   1.991   0.370   8.976
  323MPD2    C1 5077   2.000   0.421   8.848
  323MPD2    C2 5078   1.966   0.552   8.824
  323MPD2    C3 5079   1.921   0.632   8.926
  323MPD2    C4 5080   1.927   0.582   9.058
  323MPD2    C5 5081   1.958   0.449   9.081
  323MPD2     H 5082   1.953   0.580   8.720
  323MPD2    H1 5083   1.885   0.635   9.143
  323MPD2    H2 5084   2.012   0.265   8.989
  323MPD2    H3 5085   1.936   0.399   9.175
  323MPD2     N 5086   1.893   0.765   8.894
  323MPD2    H5 5087   1.876   0.784   8.795
  323MPD2    N1 5088   2.046   0.336   8.746
  323MPD2    H7 5089   2.078   0.246   8.782
  324MPD2     C 5090   1.500   1.490   9.115
  324MPD2    C1 5091   1.473   1.391   9.024
  324MPD2    C2 5092   1.345   1.380   8.970
  324MPD2    C3 5093   1.249   1.472   9.011
  324MPD2    C4 5094   1.280   1.576   9.092
  324MPD2    C5 5095   1.405   1.583   9.145
  324MPD2     H 5096   1.324   1.309   8.891
  324MPD2    H1 5097   1.200   1.641   9.127
  324MPD2    H2 5098   1.592   1.511   9.168
  324MPD2    H3 5099   1.429   1.672   9.202
  324MPD2     N 5100   1.110   1.466   8.981
  324MPD2    H5 5101   1.058   1.552   9.000
  324MPD2    N1 5102   1.564   1.298   8.995
  324MPD2    H7 5103   1.542   1.242   8.913
  325MPD2     C 5104   2.426   4.518  12.612
  325MPD2    C1 5105   2.433   4.654  12.584
  325MPD2    C2 5106   2.364   4.738  12.672
  325MPD2    C3 5107   2.291   4.690  12.781
  325MPD2    C4 5108   2.278   4.554  12.796
  325MPD2    C5 5109   2.356   4.474  12.715
  325MPD2     H 5110   2.350   0.054  12.643
  325MPD2    H1 5111   2.217   4.505  12.870
  325MPD2    H2 5112   2.484   4.450  12.550
  325MPD2    H3 5113   2.339   4.367  12.717
  325MPD2     N 5114   2.203   4.777  12.857
  325MPD2    H5 5115   2.131   4.726  12.907
  325MPD2    N1 5116   2.511   4.717  12.487
  325MPD2    H7 5117   2.509   0.031  12.480
  326MPD2     C 5118   3.304   4.659  12.211
  326MPD2    C1 5119   3.223   4.646  12.317
  326MPD2    C2 5120   3.267   4.606  12.447
  326MPD2    C3 5121   3.397   4.568  12.463
  326MPD2    C4 5122   3.478   4.575  12.356
  326MPD2    C5 5123   3.436   4.625  12.236
  326MPD2     H 5124   3.197   4.633  12.525
  326MPD2    H1 5125   3.583   4.549  12.362
  326MPD2    H2 5126   3.277   4.698  12.113
  326MPD2    H3 5127   3.500   4.655  12.153
  326MPD2     N 5128   3.451   4.536  12.589
  326MPD2    H5 5129   3.548   4.504  12.587
  326MPD2    N1 5130   3.087   4.689  12.307
  326MPD2    H7 5131   3.037   4.681  12.395
  327MPD2     C 5132   2.875   0.619  12.126
  327MPD2    C1 5133   2.764   0.544  12.155
  327MPD2    C2 5134   2.644   0.613  12.156
  327MPD2    C3 5135   2.630   0.741  12.114
  327MPD2    C4 5136   2.739   0.806  12.084
  327MPD2    C5 5137   2.854   0.741  12.070
  327MPD2     H 5138   2.555   0.556  12.180
  327MPD2    H1 5139   2.746   0.914  12.069
  327MPD2    H2 5140   2.968   0.566  12.111
  327MPD2    H3 5141   2.940   0.803  12.047
  327MPD2     N 5142   2.497   0.798  12.120
  327MPD2    H5 5143   2.418   0.735  12.124
  327MPD2    N1 5144   2.792   0.415  12.206
  327MPD2    H7 5145   2.885   0.378  12.184
  328MPD2     C 5146   2.337   2.317   6.927
  328MPD2    C1 5147   2.258   2.308   7.045
  328MPD2    C2 5148   2.166   2.411   7.073
  328MPD2    C3 5149   2.152   2.519   6.981
  328MPD2    C4 5150   2.233   2.522   6.869
  328MPD2    C5 5151   2.330   2.425   6.846
  328MPD2     H 5152   2.132   2.415   7.176
  328MPD2    H1 5153   2.210   2.592   6.790
  328MPD2    H2 5154   2.418   2.248   6.907
  328MPD2    H3 5155   2.389   2.428   6.755
  328MPD2     N 5156   2.068   2.625   7.018
  328MPD2    H5 5157   2.003   2.613   7.094
  328MPD2    N1 5158   2.291   2.199   7.139
  328MPD2    H7 5159   2.367   2.140   7.105
  329MPD2     C 5160   2.638   1.381   6.990
  329MPD2    C1 5161   2.521   1.371   7.059
  329MPD2    C2 5162   2.484   1.471   7.145
  329MPD2    C3 5163   2.558   1.583   7.164
  329MPD2    C4 5164   2.674   1.598   7.096
  329MPD2    C5 5165   2.713   1.500   7.013
  329MPD2     H 5166   2.395   1.461   7.205
  329MPD2    H1 5167   2.738   1.683   7.119
  329MPD2    H2 5168   2.665   1.309   6.912
  329MPD2    H3 5169   2.808   1.505   6.961
  329MPD2     N 5170   2.514   1.684   7.250
  329MPD2    H5 5171   2.426   1.661   7.296
  329MPD2    N1 5172   2.425   1.268   7.056
  329MPD2    H7 5173   2.338   1.285   7.106
  330MPD2     C 5174   1.171   2.661   8.022
  330MPD2    C1 5175   1.034   2.669   8.035
  330MPD2    C2 5176   0.988   2.754   8.136
  330MPD2    C3 5177   1.070   2.848   8.202
  330MPD2    C4 5178   1.202   2.848   8.172
  330MPD2    C5 5179   1.246   2.753   8.088
  330MPD2     H 5180   0.881   2.763   8.147
  330MPD2    H1 5181   1.272   2.919   8.215
  330MPD2    H2 5182   1.217   2.586   7.958
  330MPD2    H3 5183   1.353   2.751   8.067
  330MPD2     N 5184   1.035   2.945   8.304
  330MPD2    H5 5185   1.099   3.021   8.320
  330MPD2    N1 5186   0.941   2.582   7.974
  330MPD2    H7 5187   0.845   2.589   8.007
  331MPD2     C 5188   0.762   1.987   7.322
  331MPD2    C1 5189   0.669   1.998   7.420
  331MPD2    C2 5190   0.568   1.909   7.416
  331MPD2    C3 5191   0.547   1.807   7.325
  331MPD2    C4 5192   0.644   1.798   7.228
  331MPD2    C5 5193   0.747   1.890   7.234
  331MPD2     H 5194   0.506   1.910   7.505
  331MPD2    H1 5195   0.643   1.725   7.148
  331MPD2    H2 5196   0.857   2.039   7.318
  331MPD2    H3 5197   0.822   1.890   7.156
  331MPD2     N 5198   0.442   1.711   7.325
  331MPD2    H5 5199   0.444   1.650   7.244
  331MPD2    N1 5200   0.672   2.097   7.523
  331MPD2    H7 5201   0.593   2.097   7.587
  332MPD2     C 5202   3.666   3.364  11.883
  332MPD2    C1 5203   3.642   3.229  11.863
  332MPD2    C2 5204   3.743   3.134  11.884
  332MPD2    C3 5205   3.862   3.176  11.941
  332MPD2    C4 5206   3.888   3.314  11.943
  332MPD2    C5 5207   3.786   3.406  11.925
  332MPD2     H 5208   3.730   3.027  11.879
  332MPD2    H1 5209   3.984   3.359  11.966
  332MPD2    H2 5210   3.579   3.428  11.870
  332MPD2    H3 5211   3.807   3.509  11.950
  332MPD2     N 5212   3.963   3.078  11.966
  332MPD2    H5 5213   3.938   2.980  11.952
  332MPD2    N1 5214   3.508   3.199  11.839
  332MPD2    H7 5215   3.445   3.278  11.849
  333MPD2     C 5216   3.159   2.516  11.696
  333MPD2    C1 5217   3.246   2.609  11.746
  333MPD2    C2 5218   3.375   2.571  11.773
  333MPD2    C3 5219   3.416   2.450  11.718
  333MPD2    C4 5220   3.327   2.356  11.665
  333MPD2    C5 5221   3.195   2.389  11.668
  333MPD2     H 5222   3.449   2.642  11.807
  333MPD2    H1 5223   3.346   2.252  11.639
  333MPD2    H2 5224   3.056   2.543  11.672
  333MPD2    H3 5225   3.117   2.315  11.660
  333MPD2     N 5226   3.558   2.427  11.725
  333MPD2    H5 5227   3.618   2.484  11.783
  333MPD2    N1 5228   3.208   2.740  11.773
  333MPD2    H7 5229   3.278   2.809  11.799
  334MPD2     C 5230   2.802   3.434  11.200
  334MPD2    C1 5231   2.884   3.503  11.290
  334MPD2    C2 5232   2.943   3.428  11.395
  334MPD2    C3 5233   2.901   3.296  11.425
  334MPD2    C4 5234   2.796   3.251  11.345
  334MPD2    C5 5235   2.749   3.318  11.234
  334MPD2     H 5236   3.042   3.458  11.430
  334MPD2    H1 5237   2.750   3.159  11.379
  334MPD2    H2 5238   2.763   3.486  11.113
  334MPD2    H3 5239   2.682   3.261  11.170
  334MPD2     N 5240   2.976   3.209  11.504
  334MPD2    H5 5241   2.952   3.111  11.507
  334MPD2    N1 5242   2.941   3.629  11.265
  334MPD2    H7 5243   2.935   3.658  11.168
  335MPD2     C 5244   0.179   0.533   9.740
  335MPD2    C1 5245   0.114   0.414   9.703
  335MPD2    C2 5246   0.021   0.348   9.787
  335MPD2    C3 5247   0.015   0.388   9.919
  335MPD2    C4 5248   0.086   0.501   9.951
  335MPD2    C5 5249   0.156   0.577   9.862
  335MPD2     H 5250   4.746   0.263   9.760
  335MPD2    H1 5251   0.101   0.533  10.053
  335MPD2    H2 5252   0.247   0.589   9.677
  335MPD2    H3 5253   0.209   0.667   9.893
  335MPD2     N 5254   4.738   0.314  10.026
  335MPD2    H5 5255   4.772   0.322  10.121
  335MPD2    N1 5256   0.147   0.363   9.577
  335MPD2    H7 5257   0.234   0.402   9.543
  336MPD2     C 5258   0.417   4.521   9.633
  336MPD2    C1 5259   0.373   4.646   9.659
  336MPD2    C2 5260   0.442   4.748   9.599
  336MPD2    C3 5261   0.558   4.725   9.523
  336MPD2    C4 5262   0.599   4.598   9.493
  336MPD2    C5 5263   0.530   4.499   9.559
  336MPD2     H 5264   0.407   0.057   9.631
  336MPD2    H1 5265   0.689   4.579   9.437
  336MPD2    H2 5266   0.366   4.438   9.679
  336MPD2    H3 5267   0.560   4.397   9.541
  336MPD2     N 5268   0.637   0.050   9.473
  336MPD2    H5 5269   0.718   0.012   9.425
  336MPD2    N1 5270   0.265   4.658   9.742
  336MPD2    H7 5271   0.227   4.572   9.779
  337MPD2     C 5272   4.274   4.289   9.550
  337MPD2    C1 5273   4.291   4.294   9.685
  337MPD2    C2 5274   4.393   4.367   9.744
  337MPD2    C3 5275   4.477   4.446   9.673
  337MPD2    C4 5276   4.466   4.434   9.536
  337MPD2    C5 5277   4.366   4.357   9.477
  337MPD2     H 5278   4.392   4.372   9.853
  337MPD2    H1 5279   4.534   4.478   9.465
  337MPD2    H2 5280   4.203   4.227   9.497
  337MPD2    H3 5281   4.363   4.358   9.369
  337MPD2     N 5282   4.572   4.535   9.736
  337MPD2    H5 5283   4.626   4.594   9.674
  337MPD2    N1 5284   4.192   4.237   9.779
  337MPD2    H7 5285   4.195   4.260   9.878
  338MPD2     C 5286   4.290   4.714  11.938
  338MPD2    C1 5287   4.289   4.667  12.068
  338MPD2    C2 5288   4.193   4.714  12.151
  338MPD2    C3 5289   4.097   0.020  12.122
  338MPD2    C4 5290   4.097   0.064  11.993
  338MPD2    C5 5291   4.193   0.014  11.905
  338MPD2     H 5292   4.209   4.702  12.258
  338MPD2    H1 5293   4.033   0.144  11.959
  338MPD2    H2 5294   4.365   4.683  11.866
  338MPD2    H3 5295   4.206   0.048  11.802
  338MPD2     N 5296   4.030   0.081  12.225
  338MPD2    H5 5297   4.041   0.046  12.319
  338MPD2    N1 5298   4.397   4.589  12.120
  338MPD2    H7 5299   4.387   4.586  12.221
  339MPD2     C 5300   4.001   0.156  13.037
  339MPD2    C1 5301   4.050   0.112  12.917
  339MPD2    C2 5302   4.128   4.783  12.921
  339MPD2    C3 5303   4.147   4.712  13.034
  339MPD2    C4 5304   4.091   4.760  13.147
  339MPD2    C5 5305   4.026   0.089  13.149
  339MPD2     H 5306   4.167   4.756  12.824
  339MPD2    H1 5307   4.094   4.707  13.241
  339MPD2    H2 5308   3.942   0.246  13.043
  339MPD2    H3 5309   3.989   0.123  13.246
  339MPD2     N 5310   4.203   4.589  13.044
  339MPD2    H5 5311   4.199   4.545  13.136
  339MPD2    N1 5312   4.016   0.187  12.804
  339MPD2    H7 5313   3.978   0.280  12.822
  340MPD2     C 5314   4.631   0.624  12.212
  340MPD2    C1 5315   4.528   0.704  12.166
  340MPD2    C2 5316   4.401   0.680  12.220
  340MPD2    C3 5317   4.382   0.586  12.316
  340MPD2    C4 5318   4.482   0.526  12.377
  340MPD2    C5 5319   4.607   0.556  12.329
  340MPD2     H 5320   4.319   0.748  12.200
  340MPD2    H1 5321   4.467   0.467  12.467
  340MPD2    H2 5322   4.734   0.623  12.180
  340MPD2    H3 5323   4.692   0.516  12.383
  340MPD2     N 5324   4.252   0.555  12.352
  340MPD2    H5 5325   4.181   0.597  12.293
  340MPD2    N1 5326   4.554   0.826  12.097
  340MPD2    H7 5327   4.485   0.900  12.093
  341MPD2     C 5328   0.279   4.047  12.100
  341MPD2    C1 5329   0.141   4.051  12.101
  341MPD2    C2 5330   0.075   3.933  12.076
  341MPD2    C3 5331   0.139   3.811  12.045
  341MPD2    C4 5332   0.277   3.811  12.052
  341MPD2    C5 5333   0.346   3.927  12.078
  341MPD2     H 5334   4.755   3.927  12.089
  341MPD2    H1 5335   0.331   3.719  12.032
  341MPD2    H2 5336   0.333   4.140  12.109
  341MPD2    H3 5337   0.454   3.925  12.081
  341MPD2     N 5338   0.048   3.704  12.003
  341MPD2    H5 5339   4.739   3.732  12.009
  341MPD2    N1 5340   0.074   4.168  12.132
  341MPD2    H7 5341   4.765   4.185  12.104
  342MPD2     C 5342   0.727   3.951  11.780
  342MPD2    C1 5343   0.597   3.965  11.729
  342MPD2    C2 5344   0.553   4.082  11.681
  342MPD2    C3 5345   0.634   4.199  11.684
  342MPD2    C4 5346   0.758   4.188  11.739
  342MPD2    C5 5347   0.801   4.063  11.786
  342MPD2     H 5348   0.450   4.080  11.646
  342MPD2    H1 5349   0.820   4.276  11.749
  342MPD2    H2 5350   0.769   3.853  11.803
  342MPD2    H3 5351   0.900   4.040  11.827
  342MPD2     N 5352   0.586   4.327  11.641
  342MPD2    H5 5353   0.656   4.400  11.645
  342MPD2    N1 5354   0.512   3.850  11.734
  342MPD2    H7 5355   0.563   3.762  11.745
  343MPD2     C 5356   0.220   4.345  10.995
  343MPD2    C1 5357   0.204   4.245  10.907
  343MPD2    C2 5358   0.086   4.219  10.841
  343MPD2    C3 5359   4.767   4.314  10.857
  343MPD2    C4 5360   4.782   4.404  10.960
  343MPD2    C5 5361   0.108   4.418  11.029
  343MPD2     H 5362   0.077   4.132  10.778
  343MPD2    H1 5363   4.704   4.475  10.985
  343MPD2    H2 5364   0.312   4.356  11.052
  343MPD2    H3 5365   0.104   4.484  11.115
  343MPD2     N 5366   4.644   4.313  10.784
  343MPD2    H5 5367   4.560   4.336  10.838
  343MPD2    N1 5368   0.319   4.173  10.867
  343MPD2    H7 5369   0.409   4.209  10.899
  344MPD2     C 5370   0.433   0.054  10.109
  344MPD2    C1 5371   0.438   4.715  10.056
  344MPD2    C2 5372   0.372   4.616  10.126
  344MPD2    C3 5373   0.309   4.638  10.252
  344MPD2    C4 5374   0.301   4.762  10.300
  344MPD2    C5 5375   0.372   0.068  10.227
  344MPD2     H 5376   0.384   4.511  10.100
  344MPD2    H1 5377   0.267   0.001  10.399
  344MPD2    H2 5378   0.478   0.141  10.062
  344MPD2    H3 5379   0.384   0.163  10.278
  344MPD2     N 5380   0.256   4.522  10.313
  344MPD2    H5 5381   0.267   4.440  10.254
  344MPD2    N1 5382   0.528   4.678   9.947
  344MPD2    H7 5383   0.525   4.582   9.913
  345MPD2     C 5384   0.323   3.532  10.489
  345MPD2    C1 5385   0.405   3.638  10.473
  345MPD2    C2 5386   0.347   3.764  10.474
  345MPD2    C3 5387   0.206   3.782  10.502
  345MPD2    C4 5388   0.131   3.667  10.537
  345MPD2    C5 5389   0.188   3.547  10.525
  345MPD2     H 5390   0.410   3.848  10.446
  345MPD2    H1 5391   0.028   3.674  10.570
  345MPD2    H2 5392   0.366   3.434  10.503
  345MPD2    H3 5393   0.142   3.457  10.563
  345MPD2     N 5394   0.151   3.915  10.500
  345MPD2    H5 5395   0.055   3.920  10.533
  345MPD2    N1 5396   0.542   3.616  10.452
  345MPD2    H7 5397   0.574   3.523  10.429
  346MPD2     C 5398   1.747   0.525   6.693
  346MPD2    C1 5399   1.665   0.599   6.774
  346MPD2    C2 5400   1.540   0.547   6.803
  346MPD2    C3 5401   1.501   0.422   6.769
  346MPD2    C4 5402   1.586   0.354   6.683
  346MPD2    C5 5403   1.702   0.407   6.635
  346MPD2     H 5404   1.474   0.614   6.856
  346MPD2    H1 5405   1.553   0.267   6.627
  346MPD2    H2 5406   1.850   0.550   6.673
  346MPD2    H3 5407   1.760   0.339   6.574
  346MPD2     N 5408   1.378   0.364   6.809
  346MPD2    H5 5409   1.319   0.411   6.877
  346MPD2    N1 5410   1.714   0.717   6.834
  346MPD2    H7 5411   1.808   0.745   6.807
  347MPD2     C 5412   1.459   0.068  12.301
  347MPD2    C1 5413   1.439   0.193  12.348
  347MPD2    C2 5414   1.539   0.284  12.335
  347MPD2    C3 5415   1.660   0.252  12.274
  347MPD2    C4 5416   1.683   0.125  12.222
  347MPD2    C5 5417   1.579   0.039  12.238
  347MPD2     H 5418   1.523   0.388  12.364
  347MPD2    H1 5419   1.778   0.091  12.182
  347MPD2    H2 5420   1.382   4.779  12.308
  347MPD2    H3 5421   1.592   4.730  12.191
  347MPD2     N 5422   1.754   0.356  12.274
  347MPD2    H5 5423   1.733   0.446  12.316
  347MPD2    N1 5424   1.323   0.217  12.430
  347MPD2    H7 5425   1.240   0.159  12.421
  348MPD2     C 5426   0.609   0.680  13.071
  348MPD2    C1 5427   0.637   0.722  12.945
  348MPD2    C2 5428   0.761   0.684  12.896
  348MPD2    C3 5429   0.853   0.605  12.965
  348MPD2    C4 5430   0.811   0.569  13.095
  348MPD2    C5 5431   0.694   0.614  13.145
  348MPD2     H 5432   0.777   0.712  12.793
  348MPD2    H1 5433   0.876   0.506  13.154
  348MPD2    H2 5434   0.516   0.703  13.121
  348MPD2    H3 5435   0.678   0.587  13.249
  348MPD2     N 5436   0.974   0.561  12.913
  348MPD2    H5 5437   1.015   0.481  12.960
  348MPD2    N1 5438   0.544   0.788  12.861
  348MPD2    H7 5439   0.565   0.791  12.761
  349MPD2     C 5440   1.039   0.872  12.106
  349MPD2    C1 5441   0.996   0.880  12.242
  349MPD2    C2 5442   0.970   0.758  12.302
  349MPD2    C3 5443   0.982   0.637  12.234
  349MPD2    C4 5444   1.016   0.639  12.103
  349MPD2    C5 5445   1.051   0.753  12.045
  349MPD2     H 5446   0.945   0.764  12.407
  349MPD2    H1 5447   1.002   0.547  12.047
  349MPD2    H2 5448   1.046   0.961  12.045
  349MPD2    H3 5449   1.065   0.747  11.937
  349MPD2     N 5450   0.981   0.516  12.302
  349MPD2    H5 5451   1.047   0.448  12.266
  349MPD2    N1 5452   1.002   1.000  12.320
  349MPD2    H7 5453   0.983   0.976  12.417
  350MPD2     C 5454   3.935   4.756   9.549
  350MPD2    C1 5455   4.028   4.680   9.482
  350MPD2    C2 5456   4.143   4.739   9.432
  350MPD2    C3 5457   4.162   0.093   9.457
  350MPD2    C4 5458   4.061   0.165   9.523
  350MPD2    C5 5459   3.951   0.099   9.561
  350MPD2     H 5460   4.218   4.677   9.384
  350MPD2    H1 5461   4.080   0.269   9.549
  350MPD2    H2 5462   3.842   4.713   9.585
  350MPD2    H3 5463   3.876   0.152   9.618
  350MPD2     N 5464   4.277   0.161   9.418
  350MPD2    H5 5465   4.274   0.262   9.407
  350MPD2    N1 5466   3.989   4.544   9.458
  350MPD2    H7 5467   3.911   4.520   9.518
  351MPD2     C 5468   0.077   0.391   9.090
  351MPD2    C1 5469   0.102   0.298   8.993
  351MPD2    C2 5470   0.177   0.335   8.884
  351MPD2    C3 5471   0.210   0.466   8.860
  351MPD2    C4 5472   0.176   0.556   8.954
  351MPD2    C5 5473   0.111   0.520   9.065
  351MPD2     H 5474   0.193   0.264   8.803
  351MPD2    H1 5475   0.215   0.657   8.950
  351MPD2    H2 5476   0.014   0.372   9.176
  351MPD2    H3 5477   0.089   0.602   9.132
  351MPD2     N 5478   0.282   0.520   8.750
  351MPD2    H5 5479   0.289   0.621   8.738
  351MPD2    N1 5480   0.072   0.163   9.009
  351MPD2    H7 5481   0.128   0.102   8.951
  352MPD2     C 5482   4.259   0.526   8.527
  352MPD2    C1 5483   4.220   0.572   8.647
  352MPD2    C2 5484   4.279   0.515   8.755
  352MPD2    C3 5485   4.374   0.424   8.745
  352MPD2    C4 5486   4.414   0.384   8.619
  352MPD2    C5 5487   4.354   0.430   8.506
  352MPD2     H 5488   4.242   0.542   8.853
  352MPD2    H1 5489   4.480   0.302   8.596
  352MPD2    H2 5490   4.212   0.565   8.437
  352MPD2    H3 5491   4.397   0.408   8.409
  352MPD2     N 5492   4.430   0.365   8.862
  352MPD2    H5 5493   4.491   0.285   8.847
  352MPD2    N1 5494   4.114   0.671   8.659
  352MPD2    H7 5495   4.090   0.719   8.573
  353MPD2     C 5496   4.697   2.903  11.899
  353MPD2    C1 5497   4.559   2.916  11.886
  353MPD2    C2 5498   4.494   3.038  11.892
  353MPD2    C3 5499   4.569   3.154  11.898
  353MPD2    C4 5500   4.705   3.139  11.918
  353MPD2    C5 5501   4.766   3.019  11.916
  353MPD2     H 5502   4.387   3.031  11.882
  353MPD2    H1 5503   4.770   3.225  11.932
  353MPD2    H2 5504   4.738   2.803  11.897
  353MPD2    H3 5505   0.085   3.010  11.936
  353MPD2     N 5506   4.508   3.276  11.896
  353MPD2    H5 5507   4.565   3.359  11.909
  353MPD2    N1 5508   4.500   2.797  11.851
  353MPD2    H7 5509   4.561   2.731  11.804
  354MPD2     C 5510   3.836   4.403  13.017
  354MPD2    C1 5511   3.846   4.483  12.898
  354MPD2    C2 5512   3.800   4.611  12.904
  354MPD2    C3 5513   3.759   4.668  13.020
  354MPD2    C4 5514   3.765   4.592  13.137
  354MPD2    C5 5515   3.798   4.459  13.136
  354MPD2     H 5516   3.796   4.681  12.821
  354MPD2    H1 5517   3.753   4.648  13.229
  354MPD2    H2 5518   3.857   4.297  13.005
  354MPD2    H3 5519   3.793   4.411  13.233
  354MPD2     N 5520   3.714   0.015  13.021
  354MPD2    H5 5521   3.703   0.062  12.932
  354MPD2    N1 5522   3.910   4.436  12.785
  354MPD2    H7 5523   3.911   4.508  12.713
  355MPD2     C 5524   4.527   0.195  12.587
  355MPD2    C1 5525   4.484   0.139  12.464
  355MPD2    C2 5526   4.381   0.045  12.456
  355MPD2    C3 5527   4.347   4.771  12.569
  355MPD2    C4 5528   4.390   0.037  12.691
  355MPD2    C5 5529   4.470   0.150  12.705
  355MPD2     H 5530   4.358   0.006  12.358
  355MPD2    H1 5531   4.367   4.776  12.785
  355MPD2    H2 5532   4.614   0.259  12.592
  355MPD2    H3 5533   4.504   0.179  12.803
  355MPD2     N 5534   4.266   4.654  12.572
  355MPD2    H5 5535   4.244   4.609  12.661
  355MPD2    N1 5536   4.550   0.202  12.351
  355MPD2    H7 5537   4.642   0.240  12.366
  356MPD2     C 5538   2.960   0.941  13.243
  356MPD2    C1 5539   2.937   1.076  13.243
  356MPD2    C2 5540   2.872   1.125  13.129
  356MPD2    C3 5541   2.849   1.043  13.021
  356MPD2    C4 5542   2.869   0.910  13.025
  356MPD2    C5 5543   2.925   0.854  13.137
  356MPD2     H 5544   2.846   1.230  13.115
  356MPD2    H1 5545   2.856   0.845  12.939
  356MPD2    H2 5546   2.992   0.892  13.334
  356MPD2    H3 5547   2.937   0.746  13.145
  356MPD2     N 5548   2.779   1.075  12.905
  356MPD2    H5 5549   2.753   0.998  12.844
  356MPD2    N1 5550   2.981   1.151  13.349
  356MPD2    H7 5551   3.028   1.102  13.425
  357MPD2     C 5552   3.423   2.069  13.657
  357MPD2    C1 5553   3.361   2.027  13.538
  357MPD2    C2 5554   3.278   1.913  13.544
  357MPD2    C3 5555   3.265   1.842  13.663
  357MPD2    C4 5556   3.327   1.885  13.774
  357MPD2    C5 5557   3.412   1.992  13.771
  357MPD2     H 5558   3.228   1.876  13.455
  357MPD2    H1 5559   3.334   1.827  13.865
  357MPD2    H2 5560   3.491   2.153  13.663
  357MPD2    H3 5561   3.484   2.002  13.852
  357MPD2     N 5562   3.190   1.724  13.675
  357MPD2    H5 5563   3.208   1.669  13.759
  357MPD2    N1 5564   3.371   2.084  13.410
  357MPD2    H7 5565   3.329   2.037  13.331
  358MPD2     C 5566   1.171   2.737   9.033
  358MPD2    C1 5567   1.100   2.845   9.085
  358MPD2    C2 5568   1.137   2.890   9.204
  358MPD2    C3 5569   1.241   2.829   9.274
  358MPD2    C4 5570   1.318   2.728   9.220
  358MPD2    C5 5571   1.287   2.684   9.093
  358MPD2     H 5572   1.092   2.976   9.254
  358MPD2    H1 5573   1.404   2.680   9.267
  358MPD2    H2 5574   1.146   2.686   8.941
  358MPD2    H3 5575   1.343   2.603   9.049
  358MPD2     N 5576   1.261   2.856   9.412
  358MPD2    H5 5577   1.336   2.806   9.459
  358MPD2    N1 5578   0.977   2.884   9.023
  358MPD2    H7 5579   0.950   2.829   8.942
  359MPD2     C 5580   0.345   2.912   9.412
  359MPD2    C1 5581   0.470   2.959   9.380
  359MPD2    C2 5582   0.477   3.065   9.282
  359MPD2    C3 5583   0.358   3.108   9.226
  359MPD2    C4 5584   0.234   3.065   9.260
  359MPD2    C5 5585   0.230   2.965   9.359
  359MPD2     H 5586   0.578   3.097   9.256
  359MPD2    H1 5587   0.138   3.098   9.224
  359MPD2    H2 5588   0.337   2.829   9.482
  359MPD2    H3 5589   0.138   2.923   9.397
  359MPD2     N 5590   0.368   3.187   9.110
  359MPD2    H5 5591   0.288   3.249   9.102
  359MPD2    N1 5592   0.577   2.901   9.452
  359MPD2    H7 5593   0.554   2.827   9.518
  360MPD2     C 5594   0.720   2.395   8.904
  360MPD2    C1 5595   0.822   2.488   8.899
  360MPD2    C2 5596   0.871   2.543   9.016
  360MPD2    C3 5597   0.840   2.494   9.141
  360MPD2    C4 5598   0.735   2.401   9.150
  360MPD2    C5 5599   0.677   2.361   9.031
  360MPD2     H 5600   0.949   2.619   9.021
  360MPD2    H1 5601   0.709   2.373   9.252
  360MPD2    H2 5602   0.676   2.342   8.820
  360MPD2    H3 5603   0.599   2.287   9.038
  360MPD2     N 5604   0.898   2.552   9.251
  360MPD2    H5 5605   0.959   2.630   9.229
  360MPD2    N1 5606   0.867   2.521   8.768
  360MPD2    H7 5607   0.831   2.461   8.694
  361MPD2     C 5608   0.286   1.018   8.146
  361MPD2    C1 5609   0.259   0.928   8.248
  361MPD2    C2 5610   0.361   0.860   8.300
  361MPD2    C3 5611   0.491   0.863   8.251
  361MPD2    C4 5612   0.516   0.946   8.149
  361MPD2    C5 5613   0.411   1.026   8.100
  361MPD2     H 5614   0.348   0.790   8.382
  361MPD2    H1 5615   0.618   0.942   8.112
  361MPD2    H2 5616   0.208   1.075   8.097
  361MPD2    H3 5617   0.429   1.099   8.022
  361MPD2     N 5618   0.593   0.794   8.314
  361MPD2    H5 5619   0.671   0.771   8.254
  361MPD2    N1 5620   0.130   0.905   8.304
  361MPD2    H7 5621   0.126   0.847   8.387
  362MPD2     C 5622   0.778   0.120   8.296
  362MPD2    C1 5623   0.835   0.156   8.419
  362MPD2    C2 5624   0.833   0.053   8.514
  362MPD2    C3 5625   0.784   4.715   8.481
  362MPD2    C4 5626   0.713   4.690   8.366
  362MPD2    C5 5627   0.713   0.004   8.272
  362MPD2     H 5628   0.873   0.076   8.612
  362MPD2    H1 5629   0.680   4.592   8.337
  362MPD2    H2 5630   0.767   0.196   8.219
  362MPD2    H3 5631   0.674   4.760   8.176
  362MPD2     N 5632   0.792   4.607   8.565
  362MPD2    H5 5633   0.755   4.517   8.537
  362MPD2    N1 5634   0.869   0.288   8.458
  362MPD2    H7 5635   0.883   0.298   8.558
  363MPD2     C 5636   0.745   0.741   9.109
  363MPD2    C1 5637   0.705   0.646   9.018
  363MPD2    C2 5638   0.609   0.551   9.052
  363MPD2    C3 5639   0.558   0.548   9.182
  363MPD2    C4 5640   0.600   0.649   9.266
  363MPD2    C5 5641   0.691   0.745   9.232
  363MPD2     H 5642   0.573   0.480   8.979
  363MPD2    H1 5643   0.549   0.656   9.361
  363MPD2    H2 5644   0.825   0.810   9.085
  363MPD2    H3 5645   0.716   0.813   9.313
  363MPD2     N 5646   0.464   0.459   9.236
  363MPD2    H5 5647   0.435   0.472   9.332
  363MPD2    N1 5648   0.774   0.652   8.898
  363MPD2    H7 5649   0.823   0.738   8.877
  364MPD2     C 5650   2.525   0.940   7.225
  364MPD2    C1 5651   2.627   0.891   7.304
  364MPD2    C2 5652   2.700   0.783   7.257
  364MPD2    C3 5653   2.675   0.729   7.131
  364MPD2    C4 5654   2.568   0.779   7.060
  364MPD2    C5 5655   2.495   0.883   7.107
  364MPD2     H 5656   2.781   0.744   7.318
  364MPD2    H1 5657   2.526   0.728   6.974
  364MPD2    H2 5658   2.473   1.033   7.248
  364MPD2    H3 5659   2.407   0.919   7.056
  364MPD2     N 5660   2.730   0.605   7.102
  364MPD2    H5 5661   2.800   0.568   7.165
  364MPD2    N1 5662   2.674   0.945   7.426
  364MPD2    H7 5663   2.746   0.895   7.478
  365MPD2     C 5664   3.189   0.658   7.614
  365MPD2    C1 5665   3.060   0.670   7.585
  365MPD2    C2 5666   3.000   0.597   7.487
  365MPD2    C3 5667   3.072   0.500   7.421
  365MPD2    C4 5668   3.201   0.479   7.461
  365MPD2    C5 5669   3.258   0.560   7.549
  365MPD2     H 5670   2.905   0.629   7.445
  365MPD2    H1 5671   3.269   0.407   7.416
  365MPD2    H2 5672   3.240   0.730   7.676
  365MPD2    H3 5673   3.364   0.545   7.570
  365MPD2     N 5674   3.006   0.437   7.317
  365MPD2    H5 5675   2.907   0.455   7.304
  365MPD2    N1 5676   2.981   0.785   7.629
  365MPD2    H7 5677   2.884   0.776   7.600
  366MPD2     C 5678   1.733   3.157   8.741
  366MPD2    C1 5679   1.870   3.167   8.712
  366MPD2    C2 5680   1.959   3.135   8.812
  366MPD2    C3 5681   1.923   3.094   8.936
  366MPD2    C4 5682   1.787   3.077   8.959
  366MPD2    C5 5683   1.692   3.107   8.863
  366MPD2     H 5684   2.066   3.151   8.800
  366MPD2    H1 5685   1.750   3.021   9.043
  366MPD2    H2 5686   1.658   3.192   8.671
  366MPD2    H3 5687   1.590   3.101   8.897
  366MPD2     N 5688   2.022   3.086   9.035
  366MPD2    H5 5689   2.113   3.126   9.015
  366MPD2    N1 5690   1.914   3.183   8.584
  366MPD2    H7 5691   2.011   3.157   8.567
  367MPD2     C 5692   2.000   3.668   8.060
  367MPD2    C1 5693   1.958   3.562   7.984
  367MPD2    C2 5694   1.936   3.578   7.847
  367MPD2    C3 5695   1.965   3.698   7.787
  367MPD2    C4 5696   2.033   3.785   7.864
  367MPD2    C5 5697   2.053   3.777   7.999
  367MPD2     H 5698   1.889   3.496   7.795
  367MPD2    H1 5699   2.082   3.868   7.816
  367MPD2    H2 5700   2.016   3.654   8.167
  367MPD2    H3 5701   2.097   3.861   8.051
  367MPD2     N 5702   1.945   3.721   7.654
  367MPD2    H5 5703   2.027   3.770   7.620
  367MPD2    N1 5704   1.908   3.455   8.059
  367MPD2    H7 5705   1.914   3.474   8.158
  368MPD2     C 5706   1.805   2.683   8.566
  368MPD2    C1 5707   1.935   2.650   8.573
  368MPD2    C2 5708   2.018   2.694   8.477
  368MPD2    C3 5709   1.978   2.782   8.381
  368MPD2    C4 5710   1.846   2.812   8.373
  368MPD2    C5 5711   1.759   2.769   8.469
  368MPD2     H 5712   2.122   2.669   8.490
  368MPD2    H1 5713   1.803   2.872   8.293
  368MPD2    H2 5714   1.730   2.635   8.628
  368MPD2    H3 5715   1.653   2.791   8.461
  368MPD2     N 5716   2.076   2.822   8.289
  368MPD2    H5 5717   2.155   2.759   8.296
  368MPD2    N1 5718   1.988   2.554   8.669
  368MPD2    H7 5719   2.089   2.545   8.671
  369MPD2     C 5720   1.855   0.295   7.093
  369MPD2    C1 5721   1.911   0.389   7.174
  369MPD2    C2 5722   2.001   0.341   7.265
  369MPD2    C3 5723   2.037   0.204   7.271
  369MPD2    C4 5724   1.979   0.113   7.185
  369MPD2    C5 5725   1.890   0.164   7.099
  369MPD2     H 5726   2.055   0.417   7.321
  369MPD2    H1 5727   2.002   0.007   7.183
  369MPD2    H2 5728   1.795   0.328   7.009
  369MPD2    H3 5729   1.840   0.095   7.032
  369MPD2     N 5730   2.137   0.152   7.356
  369MPD2    H5 5731   2.162   0.055   7.341
  369MPD2    N1 5732   1.880   0.525   7.167
  369MPD2    H7 5733   1.827   0.556   7.086
  370MPD2     C 5734   1.351   1.036   7.738
  370MPD2    C1 5735   1.388   0.904   7.722
  370MPD2    C2 5736   1.489   0.874   7.632
  370MPD2    C3 5737   1.547   0.976   7.554
  370MPD2    C4 5738   1.511   1.113   7.572
  370MPD2    C5 5739   1.419   1.133   7.668
  370MPD2     H 5740   1.516   0.771   7.612
  370MPD2    H1 5741   1.553   1.203   7.528
  370MPD2    H2 5742   1.261   1.058   7.794
  370MPD2    H3 5743   1.375   1.233   7.664
  370MPD2     N 5744   1.646   0.937   7.465
  370MPD2    H5 5745   1.669   0.838   7.466
  370MPD2    N1 5746   1.303   0.811   7.779
  370MPD2    H7 5747   1.225   0.849   7.830
  371MPD2     C 5748   0.560   3.466   8.184
  371MPD2    C1 5749   0.627   3.358   8.128
  371MPD2    C2 5750   0.767   3.376   8.118
  371MPD2    C3 5751   0.828   3.497   8.147
  371MPD2    C4 5752   0.754   3.608   8.200
  371MPD2    C5 5753   0.618   3.587   8.219
  371MPD2     H 5754   0.827   3.301   8.067
  371MPD2    H1 5755   0.800   3.705   8.215
  371MPD2    H2 5756   0.458   3.459   8.220
  371MPD2    H3 5757   0.559   3.662   8.270
  371MPD2     N 5758   0.959   3.528   8.112
  371MPD2    H5 5759   1.008   3.593   8.173
  371MPD2    N1 5760   0.558   3.236   8.088
  371MPD2    H7 5761   0.615   3.155   8.065
  372MPD2     C 5762   0.434   3.130   7.693
  372MPD2    C1 5763   0.460   3.263   7.692
  372MPD2    C2 5764   0.355   3.351   7.662
  372MPD2    C3 5765   0.221   3.302   7.655
  372MPD2    C4 5766   0.199   3.166   7.660
  372MPD2    C5 5767   0.306   3.082   7.685
  372MPD2     H 5768   0.367   3.458   7.668
  372MPD2    H1 5769   0.100   3.123   7.649
  372MPD2    H2 5770   0.510   3.056   7.717
  372MPD2    H3 5771   0.295   2.974   7.689
  372MPD2     N 5772   0.105   3.386   7.635
  372MPD2    H5 5773   0.015   3.342   7.649
  372MPD2    N1 5774   0.603   3.309   7.702
  372MPD2    H7 5775   0.667   3.231   7.691
  373MPD2     C 5776   1.215   3.052   7.159
  373MPD2    C1 5777   1.121   3.157   7.147
  373MPD2    C2 5778   1.079   3.232   7.259
  373MPD2    C3 5779   1.114   3.191   7.382
  373MPD2    C4 5780   1.202   3.079   7.387
  373MPD2    C5 5781   1.264   3.024   7.280
  373MPD2     H 5782   1.005   3.311   7.250
  373MPD2    H1 5783   1.249   3.041   7.477
  373MPD2    H2 5784   1.266   3.003   7.078
  373MPD2    H3 5785   1.343   2.951   7.298
  373MPD2     N 5786   1.051   3.256   7.495
  373MPD2    H5 5787   0.996   3.339   7.477
  373MPD2    N1 5788   1.088   3.192   7.014
  373MPD2    H7 5789   1.137   3.145   6.939
  374MPD2     C 5790   2.614   3.411   7.325
  374MPD2    C1 5791   2.588   3.515   7.241
  374MPD2    C2 5792   2.457   3.559   7.220
  374MPD2    C3 5793   2.353   3.497   7.298
  374MPD2    C4 5794   2.387   3.390   7.379
  374MPD2    C5 5795   2.514   3.351   7.398
  374MPD2     H 5796   2.438   3.619   7.132
  374MPD2    H1 5797   2.317   3.335   7.440
  374MPD2    H2 5798   2.715   3.380   7.350
  374MPD2    H3 5799   2.548   3.269   7.460
  374MPD2     N 5800   2.217   3.535   7.303
  374MPD2    H5 5801   2.153   3.496   7.371
  374MPD2    N1 5802   2.692   3.588   7.178
  374MPD2    H7 5803   2.657   3.670   7.129
  375MPD2     C 5804   2.002   0.654  11.177
  375MPD2    C1 5805   1.950   0.766  11.237
  375MPD2    C2 5806   1.812   0.784  11.258
  375MPD2    C3 5807   1.725   0.685  11.210
  375MPD2    C4 5808   1.781   0.580  11.144
  375MPD2    C5 5809   1.916   0.562  11.132
  375MPD2     H 5810   1.773   0.862  11.322
  375MPD2    H1 5811   1.722   0.503  11.095
  375MPD2    H2 5812   2.106   0.639  11.149
  375MPD2    H3 5813   1.952   0.470  11.087
  375MPD2     N 5814   1.583   0.689  11.224
  375MPD2    H5 5815   1.533   0.606  11.191
  375MPD2    N1 5816   2.046   0.864  11.279
  375MPD2    H7 5817   2.144   0.837  11.269
  376MPD2     C 5818   1.035   0.470  10.825
  376MPD2    C1 5819   1.144   0.518  10.887
  376MPD2    C2 5820   1.138   0.650  10.940
  376MPD2    C3 5821   1.021   0.730  10.931
  376MPD2    C4 5822   0.914   0.679  10.852
  376MPD2    C5 5823   0.924   0.553  10.809
  376MPD2     H 5824   1.225   0.674  11.000
  376MPD2    H1 5825   0.821   0.733  10.834
  376MPD2    H2 5826   1.021   0.365  10.804
  376MPD2    H3 5827   0.839   0.510  10.757
  376MPD2     N 5828   1.011   0.857  10.987
  376MPD2    H5 5829   0.935   0.914  10.952
  376MPD2    N1 5830   1.246   0.434  10.930
  376MPD2    H7 5831   1.314   0.475  10.993
  377MPD2     C 5832   1.102   0.011  11.465
  377MPD2    C1 5833   1.047   0.074  11.354
  377MPD2    C2 5834   1.082   0.206  11.331
  377MPD2    C3 5835   1.163   0.284  11.412
  377MPD2    C4 5836   1.223   0.215  11.519
  377MPD2    C5 5837   1.183   0.080  11.545
  377MPD2     H 5838   1.025   0.251  11.251
  377MPD2    H1 5839   1.291   0.257  11.592
  377MPD2    H2 5840   1.078   4.695  11.487
  377MPD2    H3 5841   1.214   0.036  11.639
  377MPD2     N 5842   1.187   0.420  11.392
  377MPD2    H5 5843   1.264   0.451  11.450
  377MPD2    N1 5844   0.958   0.018  11.260
  377MPD2    H7 5845   0.954   0.071  11.174
  378MPD2     C 5846   1.846   1.075  13.266
  378MPD2    C1 5847   1.774   0.969  13.217
  378MPD2    C2 5848   1.714   0.889  13.314
  378MPD2    C3 5849   1.740   0.907  13.448
  378MPD2    C4 5850   1.816   1.009  13.491
  378MPD2    C5 5851   1.876   1.089  13.400
  378MPD2     H 5852   1.641   0.817  13.278
  378MPD2    H1 5853   1.841   1.022  13.596
  378MPD2    H2 5854   1.885   1.155  13.203
  378MPD2    H3 5855   1.933   1.174  13.434
  378MPD2     N 5856   1.686   0.828  13.549
  378MPD2    H5 5857   1.740   0.833  13.635
  378MPD2    N1 5858   1.748   0.961  13.079
  378MPD2    H7 5859   1.776   1.041  13.023
  379MPD2     C 5860   1.001   1.230  13.207
  379MPD2    C1 5861   1.133   1.216  13.246
  379MPD2    C2 5862   1.220   1.317  13.221
  379MPD2    C3 5863   1.187   1.427  13.146
  379MPD2    C4 5864   1.059   1.438  13.093
  379MPD2    C5 5865   0.971   1.338  13.123
  379MPD2     H 5866   1.314   1.317  13.276
  379MPD2    H1 5867   1.023   1.524  13.039
  379MPD2    H2 5868   0.931   1.151  13.227
  379MPD2    H3 5869   0.866   1.347  13.098
  379MPD2     N 5870   1.293   1.527  13.141
  379MPD2    H5 5871   1.380   1.509  13.189
  379MPD2    N1 5872   1.166   1.095  13.309
  379MPD2    H7 5873   1.091   1.028  13.325
  380MPD2     C 5874   0.910   0.458  13.419
  380MPD2    C1 5875   0.934   0.574  13.484
  380MPD2    C2 5876   0.844   0.624  13.572
  380MPD2    C3 5877   0.735   0.546  13.616
  380MPD2    C4 5878   0.719   0.426  13.555
  380MPD2    C5 5879   0.799   0.389  13.454
  380MPD2     H 5880   0.850   0.726  13.607
  380MPD2    H1 5881   0.647   0.349  13.582
  380MPD2    H2 5882   0.969   0.429  13.332
  380MPD2    H3 5883   0.768   0.304  13.394
  380MPD2     N 5884   0.663   0.597  13.727
  380MPD2    H5 5885   0.693   0.689  13.758
  380MPD2    N1 5886   1.044   0.660  13.450
  380MPD2    H7 5887   1.046   0.758  13.477
  381MPD2     C 5888   4.266   2.791  13.690
  381MPD2    C1 5889   4.334   2.700  13.768
  381MPD2    C2 5890   4.459   2.732  13.813
  381MPD2    C3 5891   4.517   2.853  13.782
  381MPD2    C4 5892   4.448   2.945  13.710
  381MPD2    C5 5893   4.328   2.913  13.652
  381MPD2     H 5894   4.518   2.657  13.864
  381MPD2    H1 5895   4.479   3.049  13.702
  381MPD2    H2 5896   4.178   2.764  13.632
  381MPD2    H3 5897   4.272   2.982  13.590
  381MPD2     N 5898   4.644   2.879  13.837
  381MPD2    H5 5899   4.694   2.806  13.886
  381MPD2    N1 5900   4.279   2.579  13.798
  381MPD2    H7 5901   4.341   2.501  13.816
  382MPD2     C 5902   3.287   2.356  13.967
  382MPD2    C1 5903   3.357   2.237  13.996
  382MPD2    C2 5904   3.494   2.233  13.950
  382MPD2    C3 5905   3.557   2.335  13.878
  382MPD2    C4 5906   3.481   2.444  13.857
  382MPD2    C5 5907   3.352   2.456  13.904
  382MPD2     H 5908   3.559   2.152  13.983
  382MPD2    H1 5909   3.523   2.528  13.804
  382MPD2    H2 5910   3.181   2.370  13.985
  382MPD2    H3 5911   3.301   2.548  13.875
  382MPD2     N 5912   3.698   2.335  13.829
  382MPD2    H5 5913   3.750   2.415  13.792
  382MPD2    N1 5914   3.288   2.131  14.060
  382MPD2    H7 5915   3.190   2.145  14.083
  383MPD2     C 5916   3.004   0.992  12.597
  383MPD2    C1 5917   2.967   1.123  12.565
  383MPD2    C2 5918   3.003   1.217  12.653
  383MPD2    C3 5919   3.086   1.192  12.760
  383MPD2    C4 5920   3.109   1.061  12.799
  383MPD2    C5 5921   3.066   0.966  12.715
  383MPD2     H 5922   2.976   1.322  12.646
  383MPD2    H1 5923   3.150   1.026  12.893
  383MPD2    H2 5924   2.991   0.917  12.520
  383MPD2    H3 5925   3.088   0.864  12.747
  383MPD2     N 5926   3.128   1.296  12.842
  383MPD2    H5 5927   3.084   1.385  12.820
  383MPD2    N1 5928   2.874   1.158  12.464
  383MPD2    H7 5929   2.853   1.257  12.452
  384MPD2     C 5930   2.611   1.881  13.416
  384MPD2    C1 5931   2.603   1.747  13.415
  384MPD2    C2 5932   2.688   1.671  13.339
  384MPD2    C3 5933   2.794   1.731  13.274
  384MPD2    C4 5934   2.789   1.869  13.255
  384MPD2    C5 5935   2.703   1.943  13.334
  384MPD2     H 5936   2.692   1.563  13.346
  384MPD2    H1 5937   2.848   1.924  13.184
  384MPD2    H2 5938   2.542   1.935  13.480
  384MPD2    H3 5939   2.699   2.050  13.316
  384MPD2     N 5940   2.895   1.645  13.221
  384MPD2    H5 5941   2.888   1.545  13.237
  384MPD2    N1 5942   2.499   1.691  13.491
  384MPD2    H7 5943   2.442   1.759  13.541
  385MPD2     C 5944   0.798   4.066  14.436
  385MPD2    C1 5945   0.894   3.968  14.457
  385MPD2    C2 5946   0.926   3.876  14.369
  385MPD2    C3 5947   0.860   3.865  14.248
  385MPD2    C4 5948   0.758   3.959  14.223
  385MPD2    C5 5949   0.730   4.057  14.321
  385MPD2     H 5950   1.006   3.808  14.395
  385MPD2    H1 5951   0.700   3.963  14.132
  385MPD2    H2 5952   0.770   4.135  14.515
  385MPD2    H3 5953   0.653   4.128  14.294
  385MPD2     N 5954   0.908   3.776  14.148
  385MPD2    H5 5955   0.881   3.798  14.053
  385MPD2    N1 5956   0.956   3.946  14.582
  385MPD2    H7 5957   0.995   3.855  14.604
  386MPD2     C 5958   1.291   4.353  13.678
  386MPD2    C1 5959   1.238   4.355  13.805
  386MPD2    C2 5960   1.230   4.238  13.884
  386MPD2    C3 5961   1.286   4.117  13.847
  386MPD2    C4 5962   1.342   4.116  13.718
  386MPD2    C5 5963   1.344   4.231  13.639
  386MPD2     H 5964   1.191   4.249  13.985
  386MPD2    H1 5965   1.382   4.024  13.678
  386MPD2    H2 5966   1.297   4.439  13.613
  386MPD2    H3 5967   1.393   4.207  13.546
  386MPD2     N 5968   1.271   4.001  13.927
  386MPD2    H5 5969   1.221   4.009  14.014
  386MPD2    N1 5970   1.177   4.467  13.858
  386MPD2    H7 5971   1.151   4.469  13.956
  387MPD2     C 5972   1.851   3.457  14.417
  387MPD2    C1 5973   1.872   3.424  14.288
  387MPD2    C2 5974   1.770   3.452  14.196
  387MPD2    C3 5975   1.648   3.498  14.246
  387MPD2    C4 5976   1.638   3.554  14.365
  387MPD2    C5 5977   1.740   3.526  14.453
  387MPD2     H 5978   1.764   3.415  14.094
  387MPD2    H1 5979   1.541   3.592  14.398
  387MPD2    H2 5980   1.928   3.437  14.491
  387MPD2    H3 5981   1.723   3.529  14.560
  387MPD2     N 5982   1.545   3.499  14.152
  387MPD2    H5 5983   1.560   3.490  14.052
  387MPD2    N1 5984   1.995   3.367  14.248
  387MPD2    H7 5985   2.060   3.354  14.325
  388MPD2     C 5986   4.465   2.165  10.470
  388MPD2    C1 5987   4.389   2.267  10.425
  388MPD2    C2 5988   4.302   2.336  10.509
  388MPD2    C3 5989   4.292   2.303  10.643
  388MPD2    C4 5990   4.371   2.203  10.693
  388MPD2    C5 5991   4.455   2.129  10.603
  388MPD2     H 5992   4.239   2.419  10.478
  388MPD2    H1 5993   4.368   2.170  10.796
  388MPD2    H2 5994   4.530   2.109  10.404
  388MPD2    H3 5995   4.519   2.051  10.642
  388MPD2     N 5996   4.193   2.372  10.716
  388MPD2    H5 5997   4.143   2.449  10.672
  388MPD2    N1 5998   4.379   2.305  10.288
  388MPD2    H7 5999   4.357   2.403  10.271
  389MPD2     C 6000   0.111   2.770   9.816
  389MPD2    C1 6001   0.041   2.734   9.926
  389MPD2    C2 6002   0.095   2.757  10.044
  389MPD2    C3 6003   0.217   2.827  10.057
  389MPD2    C4 6004   0.277   2.877   9.948
  389MPD2    C5 6005   0.228   2.841   9.829
  389MPD2     H 6006   0.050   2.727  10.137
  389MPD2    H1 6007   0.367   2.935   9.963
  389MPD2    H2 6008   0.070   2.733   9.723
  389MPD2    H3 6009   0.282   2.861   9.737
  389MPD2     N 6010   0.263   2.837  10.190
  389MPD2    H5 6011   0.217   2.767  10.248
  389MPD2    N1 6012   4.716   2.653   9.903
  389MPD2    H7 6013   4.693   2.629   9.807
  390MPD2     C 6014   3.860   3.871  10.795
  390MPD2    C1 6015   3.940   3.757  10.783
  390MPD2    C2 6016   3.906   3.669  10.686
  390MPD2    C3 6017   3.790   3.684  10.611
  390MPD2    C4 6018   3.705   3.795  10.635
  390MPD2    C5 6019   3.741   3.883  10.727
  390MPD2     H 6020   3.969   3.581  10.680
  390MPD2    H1 6021   3.620   3.827  10.577
  390MPD2    H2 6022   3.884   3.949  10.866
  390MPD2    H3 6023   3.686   3.977  10.735
  390MPD2     N 6024   3.744   3.595  10.516
  390MPD2    H5 6025   3.667   3.622  10.456
  390MPD2    N1 6026   4.054   3.729  10.860
  390MPD2    H7 6027   4.097   3.642  10.833
  391MPD2     C 6028   4.671   3.391  11.646
  391MPD2    C1 6029   4.611   3.305  11.557
  391MPD2    C2 6030   4.531   3.361  11.462
  391MPD2    C3 6031   4.500   3.497  11.468
  391MPD2    C4 6032   4.567   3.583  11.552
  391MPD2    C5 6033   4.654   3.525  11.639
  391MPD2     H 6034   4.477   3.302  11.389
  391MPD2    H1 6035   4.552   3.691  11.558
  391MPD2    H2 6036   4.727   3.354  11.731
  391MPD2    H3 6037   4.697   3.591  11.714
  391MPD2     N 6038   4.417   3.542  11.369
  391MPD2    H5 6039   4.379   3.467  11.311
  391MPD2    N1 6040   4.646   3.170  11.575
  391MPD2    H7 6041   4.706   3.154  11.655
  392MPD2     C 6042   4.542   3.201  10.809
  392MPD2    C1 6043   4.466   3.209  10.928
  392MPD2    C2 6044   4.451   3.096  10.997
  392MPD2    C3 6045   4.506   2.973  10.960
  392MPD2    C4 6046   4.577   2.962  10.845
  392MPD2    C5 6047   4.600   3.081  10.775
  392MPD2     H 6048   4.386   3.103  11.083
  392MPD2    H1 6049   4.618   2.869  10.810
  392MPD2    H2 6050   4.564   3.285  10.744
  392MPD2    H3 6051   4.656   3.082  10.682
  392MPD2     N 6052   4.480   2.856  11.026
  392MPD2    H5 6053   4.518   2.777  10.975
  392MPD2    N1 6054   4.405   3.328  10.977
  392MPD2    H7 6055   4.346   3.320  11.059
  393MPD2     C 6056   3.375   0.413   6.285
  393MPD2    C1 6057   3.387   0.447   6.415
  393MPD2    C2 6058   3.279   0.511   6.476
  393MPD2    C3 6059   3.171   0.552   6.399
  393MPD2    C4 6060   3.163   0.520   6.266
  393MPD2    C5 6061   3.268   0.453   6.214
  393MPD2     H 6062   3.282   0.538   6.581
  393MPD2    H1 6063   3.084   0.550   6.198
  393MPD2    H2 6064   3.442   0.346   6.233
  393MPD2    H3 6065   3.260   0.416   6.112
  393MPD2     N 6066   3.070   0.622   6.465
  393MPD2    H5 6067   3.087   0.655   6.560
  393MPD2    N1 6068   3.500   0.424   6.495
  393MPD2    H7 6069   3.485   0.441   6.594
  394MPD2     C 6070   2.253   0.631   6.635
  394MPD2    C1 6071   2.355   0.609   6.720
  394MPD2    C2 6072   2.335   0.510   6.821
  394MPD2    C3 6073   2.211   0.439   6.832
  394MPD2    C4 6074   2.111   0.467   6.745
  394MPD2    C5 6075   2.129   0.574   6.665
  394MPD2     H 6076   2.425   0.471   6.867
  394MPD2    H1 6077   2.010   0.431   6.759
  394MPD2    H2 6078   2.258   0.712   6.564
  394MPD2    H3 6079   2.046   0.599   6.600
  394MPD2     N 6080   2.195   0.324   6.920
  394MPD2    H5 6081   2.109   0.273   6.902
  394MPD2    N1 6082   2.486   0.661   6.697
  394MPD2    H7 6083   2.554   0.643   6.770
  395MPD2     C 6084   2.985   1.129   7.264
  395MPD2    C1 6085   3.045   1.010   7.231
  395MPD2    C2 6086   2.991   0.939   7.121
  395MPD2    C3 6087   2.879   0.991   7.050
  395MPD2    C4 6088   2.816   1.103   7.090
  395MPD2    C5 6089   2.876   1.171   7.198
  395MPD2     H 6090   3.044   0.857   7.076
  395MPD2    H1 6091   2.726   1.142   7.045
  395MPD2    H2 6092   3.032   1.196   7.335
  395MPD2    H3 6093   2.828   1.267   7.214
  395MPD2     N 6094   2.830   0.938   6.926
  395MPD2    H5 6095   2.756   0.998   6.891
  395MPD2    N1 6096   3.160   0.965   7.290
  395MPD2    H7 6097   3.207   1.023   7.359
  396MPD2     C 6098   2.493   1.592  12.303
  396MPD2    C1 6099   2.515   1.604  12.443
  396MPD2    C2 6100   2.519   1.738  12.490
  396MPD2    C3 6101   2.484   1.845  12.416
  396MPD2    C4 6102   2.469   1.829  12.285
  396MPD2    C5 6103   2.475   1.706  12.226
  396MPD2     H 6104   2.552   1.752  12.592
  396MPD2    H1 6105   2.446   1.912  12.219
  396MPD2    H2 6106   2.487   1.496  12.254
  396MPD2    H3 6107   2.463   1.702  12.118
  396MPD2     N 6108   2.476   1.971  12.474
  396MPD2    H5 6109   2.480   2.045  12.405
  396MPD2    N1 6110   2.535   1.493  12.530
  396MPD2    H7 6111   2.558   1.515  12.626
  397MPD2     C 6112   1.881   0.775  12.672
  397MPD2    C1 6113   1.999   0.714  12.718
  397MPD2    C2 6114   2.119   0.784  12.709
  397MPD2    C3 6115   2.125   0.904  12.642
  397MPD2    C4 6116   2.011   0.963  12.593
  397MPD2    C5 6117   1.890   0.896  12.607
  397MPD2     H 6118   2.211   0.746  12.753
  397MPD2    H1 6119   2.015   1.058  12.541
  397MPD2    H2 6120   1.789   0.717  12.675
  397MPD2    H3 6121   1.801   0.938  12.562
  397MPD2     N 6122   2.235   0.984  12.642
  397MPD2    H5 6123   2.219   1.083  12.628
  397MPD2    N1 6124   2.001   0.584  12.771
  397MPD2    H7 6125   2.079   0.543  12.821
  398MPD2     C 6126   2.177   1.318  10.822
  398MPD2    C1 6127   2.051   1.291  10.781
  398MPD2    C2 6128   1.994   1.171  10.809
  398MPD2    C3 6129   2.067   1.084  10.891
  398MPD2    C4 6130   2.193   1.113  10.943
  398MPD2    C5 6131   2.243   1.232  10.911
  398MPD2     H 6132   1.897   1.147  10.766
  398MPD2    H1 6133   2.236   1.059  11.026
  398MPD2    H2 6134   2.225   1.412  10.798
  398MPD2    H3 6135   2.336   1.273  10.949
  398MPD2     N 6136   2.000   0.971  10.940
  398MPD2    H5 6137   2.048   0.915  11.010
  398MPD2    N1 6138   1.978   1.380  10.702
  398MPD2    H7 6139   1.878   1.362  10.701
  399MPD2     C 6140   1.864   1.591  11.415
  399MPD2    C1 6141   1.795   1.600  11.296
  399MPD2    C2 6142   1.748   1.484  11.233
  399MPD2    C3 6143   1.769   1.364  11.296
  399MPD2    C4 6144   1.847   1.350  11.413
  399MPD2    C5 6145   1.895   1.463  11.476
  399MPD2     H 6146   1.698   1.493  11.137
  399MPD2    H1 6147   1.854   1.250  11.455
  399MPD2    H2 6148   1.882   1.679  11.476
  399MPD2    H3 6149   1.948   1.450  11.570
  399MPD2     N 6150   1.728   1.244  11.237
  399MPD2    H5 6151   1.786   1.162  11.254
  399MPD2    N1 6152   1.765   1.727  11.252
  399MPD2    H7 6153   1.781   1.800  11.322
  400MPD2     C 6154   1.235   1.342  10.688
  400MPD2    C1 6155   1.362   1.310  10.717
  400MPD2    C2 6156   1.396   1.188  10.765
  400MPD2    C3 6157   1.296   1.099  10.806
  400MPD2    C4 6158   1.168   1.139  10.784
  400MPD2    C5 6159   1.134   1.259  10.727
  400MPD2     H 6160   1.501   1.164  10.779
  400MPD2    H1 6161   1.086   1.071  10.802
  400MPD2    H2 6162   1.212   1.439  10.647
  400MPD2    H3 6163   1.028   1.280  10.713
  400MPD2     N 6164   1.309   0.965  10.856
  400MPD2    H5 6165   1.225   0.908  10.865
  400MPD2    N1 6166   1.454   1.405  10.671
  400MPD2    H7 6167   1.417   1.479  10.611
  401MPD2     C 6168   4.371   3.922  10.772
  401MPD2    C1 6169   4.342   4.028  10.856
  401MPD2    C2 6170   4.450   4.073  10.940
  401MPD2    C3 6171   4.560   3.987  10.960
  401MPD2    C4 6172   4.579   3.880  10.881
  401MPD2    C5 6173   4.492   3.853  10.780
  401MPD2     H 6174   4.437   4.163  10.999
  401MPD2    H1 6175   4.673   3.826  10.875
  401MPD2    H2 6176   4.293   3.883  10.707
  401MPD2    H3 6177   4.513   3.768  10.717
  401MPD2     N 6178   4.654   4.020  11.058
  401MPD2    H5 6179   4.729   3.953  11.074
  401MPD2    N1 6180   4.215   4.085  10.848
  401MPD2    H7 6181   4.163   4.043  10.772
  402MPD2     C 6182   3.870   0.144  11.298
  402MPD2    C1 6183   3.832   0.012  11.334
  402MPD2    C2 6184   3.923   4.702  11.313
  402MPD2    C3 6185   4.041   4.715  11.253
  402MPD2    C4 6186   4.074   0.059  11.207
  402MPD2    C5 6187   3.987   0.165  11.230
  402MPD2     H 6188   3.890   4.609  11.357
  402MPD2    H1 6189   4.153   0.076  11.134
  402MPD2    H2 6190   3.808   0.231  11.312
  402MPD2    H3 6191   4.013   0.255  11.175
  402MPD2     N 6192   4.124   4.607  11.242
  402MPD2    H5 6193   4.091   4.525  11.291
  402MPD2    N1 6194   3.707   0.001  11.405
  402MPD2    H7 6195   3.651   0.085  11.411
  403MPD2     C 6196   4.542   4.195  11.629
  403MPD2    C1 6197   4.433   4.135  11.571
  403MPD2    C2 6198   4.389   4.017  11.625
  403MPD2    C3 6199   4.455   3.954  11.733
  403MPD2    C4 6200   4.556   4.027  11.802
  403MPD2    C5 6201   4.593   4.146  11.743
  403MPD2     H 6202   4.314   3.964  11.567
  403MPD2    H1 6203   4.593   3.993  11.899
  403MPD2    H2 6204   4.588   4.291  11.608
  403MPD2    H3 6205   4.673   4.193  11.800
  403MPD2     N 6206   4.419   3.826  11.764
  403MPD2    H5 6207   4.339   3.795  11.710
  403MPD2    N1 6208   4.380   4.195  11.454
  403MPD2    H7 6209   4.438   4.270  11.418
  404MPD2     C 6210   0.566   2.480   6.445
  404MPD2    C1 6211   0.560   2.515   6.581
  404MPD2    C2 6212   0.438   2.493   6.642
  404MPD2    C3 6213   0.329   2.439   6.586
  404MPD2    C4 6214   0.337   2.419   6.446
  404MPD2    C5 6215   0.455   2.433   6.382
  404MPD2     H 6216   0.423   2.526   6.745
  404MPD2    H1 6217   0.252   2.405   6.381
  404MPD2    H2 6218   0.659   2.484   6.388
  404MPD2    H3 6219   0.461   2.424   6.274
  404MPD2     N 6220   0.214   2.426   6.657
  404MPD2    H5 6221   0.207   2.429   6.758
  404MPD2    N1 6222   0.667   2.570   6.651
  404MPD2    H7 6223   0.661   2.584   6.752
  405MPD2     C 6224   4.424   1.835   7.209
  405MPD2    C1 6225   4.434   1.963   7.257
  405MPD2    C2 6226   4.457   2.074   7.177
  405MPD2    C3 6227   4.480   2.053   7.041
  405MPD2    C4 6228   4.471   1.925   6.992
  405MPD2    C5 6229   4.445   1.815   7.074
  405MPD2     H 6230   4.477   2.170   7.222
  405MPD2    H1 6231   4.482   1.901   6.887
  405MPD2    H2 6232   4.400   1.751   7.272
  405MPD2    H3 6233   4.446   1.719   7.023
  405MPD2     N 6234   4.507   2.165   6.956
  405MPD2    H5 6235   4.503   2.259   6.994
  405MPD2    N1 6236   4.413   1.987   7.395
  405MPD2    H7 6237   4.390   2.083   7.418
  406MPD2     C 6238   0.954   1.560   9.336
  406MPD2    C1 6239   0.942   1.694   9.309
  406MPD2    C2 6240   0.868   1.734   9.193
  406MPD2    C3 6241   0.809   1.640   9.110
  406MPD2    C4 6242   0.825   1.505   9.140
  406MPD2    C5 6243   0.891   1.466   9.254
  406MPD2     H 6244   0.866   1.837   9.162
  406MPD2    H1 6245   0.791   1.427   9.073
  406MPD2    H2 6246   0.998   1.527   9.429
  406MPD2    H3 6247   0.896   1.359   9.271
  406MPD2     N 6248   0.745   1.665   8.981
  406MPD2    H5 6249   0.712   1.591   8.920
  406MPD2    N1 6250   0.993   1.788   9.405
  406MPD2    H7 6251   0.998   1.744   9.497
  407MPD2     C 6252   0.787   2.601  13.995
  407MPD2    C1 6253   0.775   2.702  13.903
  407MPD2    C2 6254   0.655   2.765  13.884
  407MPD2    C3 6255   0.543   2.719  13.954
  407MPD2    C4 6256   0.557   2.616  14.047
  407MPD2    C5 6257   0.680   2.566  14.072
  407MPD2     H 6258   0.647   2.844  13.810
  407MPD2    H1 6259   0.478   2.584  14.113
  407MPD2    H2 6260   0.885   2.571  14.029
  407MPD2    H3 6261   0.708   2.492  14.146
  407MPD2     N 6262   0.426   2.796  13.941
  407MPD2    H5 6263   0.432   2.876  13.880
  407MPD2    N1 6264   0.888   2.730  13.824
  407MPD2    H7 6265   0.979   2.699  13.856
  408MPD2     C 6266   3.087   2.474   9.787
  408MPD2    C1 6267   3.213   2.461   9.729
  408MPD2    C2 6268   3.288   2.345   9.744
  408MPD2    C3 6269   3.240   2.238   9.820
  408MPD2    C4 6270   3.112   2.247   9.867
  408MPD2    C5 6271   3.040   2.364   9.852
  408MPD2     H 6272   3.385   2.337   9.696
  408MPD2    H1 6273   3.068   2.157   9.907
  408MPD2    H2 6274   3.021   2.559   9.772
  408MPD2    H3 6275   2.938   2.370   9.887
  408MPD2     N 6276   3.322   2.137   9.872
  408MPD2    H5 6277   3.269   2.071   9.929
  408MPD2    N1 6278   3.254   2.576   9.661
  408MPD2    H7 6279   3.193   2.656   9.670
  409MPD2     C 6280   3.498   1.458   9.355
  409MPD2    C1 6281   3.621   1.519   9.361
  409MPD2    C2 6282   3.644   1.605   9.469
  409MPD2    C3 6283   3.550   1.613   9.571
  409MPD2    C4 6284   3.432   1.535   9.567
  409MPD2    C5 6285   3.409   1.455   9.456
  409MPD2     H 6286   3.740   1.655   9.477
  409MPD2    H1 6287   3.351   1.533   9.638
  409MPD2    H2 6288   3.467   1.401   9.267
  409MPD2    H3 6289   3.314   1.405   9.441
  409MPD2     N 6290   3.584   1.702   9.675
  409MPD2    H5 6291   3.673   1.751   9.672
  409MPD2    N1 6292   3.723   1.518   9.262
  409MPD2    H7 6293   3.797   1.585   9.276
  410MPD2     C 6294   3.026   1.398  10.175
  410MPD2    C1 6295   3.111   1.385  10.071
  410MPD2    C2 6296   3.216   1.476  10.055
  410MPD2    C3 6297   3.227   1.589  10.134
  410MPD2    C4 6298   3.143   1.601  10.247
  410MPD2    C5 6299   3.043   1.501  10.266
  410MPD2     H 6300   3.297   1.467   9.984
  410MPD2    H1 6301   3.152   1.687  10.312
  410MPD2    H2 6302   2.934   1.340  10.179
  410MPD2    H3 6303   2.975   1.505  10.350
  410MPD2     N 6304   3.326   1.680  10.091
  410MPD2    H5 6305   3.370   1.649  10.005
  410MPD2    N1 6306   3.106   1.270   9.980
  410MPD2    H7 6307   3.043   1.193  10.003
  411MPD2     C 6308   0.340   3.515  10.847
  411MPD2    C1 6309   0.458   3.447  10.806
  411MPD2    C2 6310   0.440   3.326  10.753
  411MPD2    C3 6311   0.319   3.265  10.749
  411MPD2    C4 6312   0.206   3.330  10.796
  411MPD2    C5 6313   0.213   3.463  10.830
  411MPD2     H 6314   0.529   3.281  10.711
  411MPD2    H1 6315   0.111   3.282  10.782
  411MPD2    H2 6316   0.353   3.619  10.877
  411MPD2    H3 6317   0.125   3.518  10.862
  411MPD2     N 6318   0.312   3.134  10.691
  411MPD2    H5 6319   0.227   3.100  10.647
  411MPD2    N1 6320   0.593   3.489  10.805
  411MPD2    H7 6321   0.667   3.441  10.754
  412MPD2     C 6322   0.721   2.282  10.899
  412MPD2    C1 6323   0.776   2.375  10.814
  412MPD2    C2 6324   0.696   2.448  10.728
  412MPD2    C3 6325   0.556   2.435  10.733
  412MPD2    C4 6326   0.504   2.347  10.824
  412MPD2    C5 6327   0.587   2.268  10.897
  412MPD2     H 6328   0.746   2.508  10.653
  412MPD2    H1 6329   0.396   2.337  10.828
  412MPD2    H2 6330   0.786   2.236  10.973
  412MPD2    H3 6331   0.549   2.209  10.980
  412MPD2     N 6332   0.475   2.516  10.656
  412MPD2    H5 6333   0.377   2.520  10.680
  412MPD2    N1 6334   0.914   2.411  10.830
  412MPD2    H7 6335   0.942   2.495  10.781
  413MPD2     C 6336   2.260   0.002   9.573
  413MPD2    C1 6337   2.218   0.010   9.441
  413MPD2    C2 6338   2.314   0.008   9.336
  413MPD2    C3 6339   2.450   0.018   9.364
  413MPD2    C4 6340   2.491   0.003   9.491
  413MPD2    C5 6341   2.392   4.780   9.591
  413MPD2     H 6342   2.275   0.015   9.235
  413MPD2    H1 6343   2.594   0.006   9.525
  413MPD2    H2 6344   2.200   0.014   9.663
  413MPD2    H3 6345   2.433   0.005   9.690
  413MPD2     N 6346   2.552   0.035   9.266
  413MPD2    H5 6347   2.646   0.032   9.306
  413MPD2    N1 6348   2.080   0.029   9.421
  413MPD2    H7 6349   2.039   0.064   9.507
  414MPD2     C 6350   2.198   0.751   9.531
  414MPD2    C1 6351   2.088   0.764   9.447
  414MPD2    C2 6352   1.984   0.675   9.463
  414MPD2    C3 6353   2.008   0.559   9.533
  414MPD2    C4 6354   2.117   0.543   9.615
  414MPD2    C5 6355   2.215   0.645   9.612
  414MPD2     H 6356   1.897   0.690   9.400
  414MPD2    H1 6357   2.126   0.453   9.673
  414MPD2    H2 6358   2.278   0.823   9.526
  414MPD2    H3 6359   2.307   0.641   9.670
  414MPD2     N 6360   1.931   0.444   9.518
  414MPD2    H5 6361   1.952   0.359   9.568
  414MPD2    N1 6362   2.071   0.857   9.340
  414MPD2    H7 6363   1.999   0.840   9.270
  415MPD2     C 6364   2.353   0.250  15.108
  415MPD2    C1 6365   2.356   0.361  15.020
  415MPD2    C2 6366   2.477   0.418  14.978
  415MPD2    C3 6367   2.599   0.366  15.025
  415MPD2    C4 6368   2.602   0.252  15.102
  415MPD2    C5 6369   2.478   0.201  15.155
  415MPD2     H 6370   2.486   0.506  14.915
  415MPD2    H1 6371   2.691   0.216  15.153
  415MPD2    H2 6372   2.265   0.207  15.155
  415MPD2    H3 6373   2.472   0.118  15.224
  415MPD2     N 6374   2.721   0.433  14.995
  415MPD2    H5 6375   2.712   0.513  14.934
  415MPD2    N1 6376   2.242   0.420  14.972
  415MPD2    H7 6377   2.259   0.503  14.915
  416MPD2     C 6378   3.063   0.543  14.329
  416MPD2    C1 6379   3.138   0.449  14.397
  416MPD2    C2 6380   3.239   0.391  14.325
  416MPD2    C3 6381   3.277   0.426  14.193
  416MPD2    C4 6382   3.192   0.516  14.124
  416MPD2    C5 6383   3.088   0.575  14.198
  416MPD2     H 6384   3.293   0.307  14.366
  416MPD2    H1 6385   3.208   0.548  14.022
  416MPD2    H2 6386   2.984   0.606  14.368
  416MPD2    H3 6387   3.027   0.650  14.149
  416MPD2     N 6388   3.384   0.368  14.118
  416MPD2    H5 6389   3.389   0.403  14.023
  416MPD2    N1 6390   3.122   0.424  14.539
  416MPD2    H7 6391   3.198   0.372  14.583
  417MPD2     C 6392   2.987   4.021  12.396
  417MPD2    C1 6393   3.057   3.937  12.482
  417MPD2    C2 6394   3.017   3.941  12.612
  417MPD2    C3 6395   2.928   4.034  12.664
  417MPD2    C4 6396   2.855   4.114  12.578
  417MPD2    C5 6397   2.887   4.109  12.445
  417MPD2     H 6398   3.067   3.869  12.676
  417MPD2    H1 6399   2.789   4.192  12.614
  417MPD2    H2 6400   3.008   4.027  12.290
  417MPD2    H3 6401   2.840   4.179  12.377
  417MPD2     N 6402   2.898   4.043  12.796
  417MPD2    H5 6403   2.825   4.112  12.812
  417MPD2    N1 6404   3.146   3.841  12.435
  417MPD2    H7 6405   3.130   3.806  12.341
  418MPD2     C 6406   2.417   4.653  13.103
  418MPD2    C1 6407   2.367   4.537  13.163
  418MPD2    C2 6408   2.447   4.426  13.173
  418MPD2    C3 6409   2.576   4.430  13.123
  418MPD2    C4 6410   2.616   4.548  13.060
  418MPD2    C5 6411   2.539   4.659  13.049
  418MPD2     H 6412   2.421   4.328  13.212
  418MPD2    H1 6413   2.714   4.559  13.014
  418MPD2    H2 6414   2.367   4.749  13.100
  418MPD2    H3 6415   2.583   4.749  13.006
  418MPD2     N 6416   2.677   4.330  13.140
  418MPD2    H5 6417   2.767   4.337  13.095
  418MPD2    N1 6418   2.236   4.524  13.208
  418MPD2    H7 6419   2.221   4.433  13.251
  419MPD2     C 6420   2.779   3.630  13.578
  419MPD2    C1 6421   2.689   3.730  13.534
  419MPD2    C2 6422   2.566   3.758  13.604
  419MPD2    C3 6423   2.533   3.670  13.702
  419MPD2    C4 6424   2.620   3.570  13.738
  419MPD2    C5 6425   2.736   3.536  13.673
  419MPD2     H 6426   2.507   3.845  13.577
  419MPD2    H1 6427   2.608   3.499  13.819
  419MPD2    H2 6428   2.873   3.604  13.531
  419MPD2    H3 6429   2.794   3.448  13.696
  419MPD2     N 6430   2.412   3.681  13.764
  419MPD2    H5 6431   2.366   3.771  13.748
  419MPD2    N1 6432   2.723   3.808  13.421
  419MPD2    H7 6433   2.669   3.892  13.402
  420MPD2     C 6434   1.839   0.558  11.548
  420MPD2    C1 6435   1.699   0.552  11.535
  420MPD2    C2 6436   1.646   0.446  11.460
  420MPD2    C3 6437   1.725   0.368  11.379
  420MPD2    C4 6438   1.854   0.363  11.413
  420MPD2    C5 6439   1.916   0.453  11.497
  420MPD2     H 6440   1.538   0.436  11.448
  420MPD2    H1 6441   1.919   0.295  11.359
  420MPD2    H2 6442   1.893   0.632  11.607
  420MPD2    H3 6443   2.021   0.445  11.519
  420MPD2     N 6444   1.668   0.291  11.281
  420MPD2    H5 6445   1.728   0.220  11.240
  420MPD2    N1 6446   1.621   0.655  11.602
  420MPD2    H7 6447   1.670   0.738  11.633
  421MPD2     C 6448   0.827   0.988  11.765
  421MPD2    C1 6449   0.894   1.065  11.669
  421MPD2    C2 6450   0.828   1.176  11.616
  421MPD2    C3 6451   0.706   1.221  11.661
  421MPD2    C4 6452   0.656   1.152  11.767
  421MPD2    C5 6453   0.714   1.041  11.815
  421MPD2     H 6454   0.886   1.241  11.551
  421MPD2    H1 6455   0.572   1.190  11.825
  421MPD2    H2 6456   0.866   0.897  11.809
  421MPD2    H3 6457   0.678   0.989  11.902
  421MPD2     N 6458   0.639   1.334  11.622
  421MPD2    H5 6459   0.574   1.371  11.690
  421MPD2    N1 6460   1.012   1.017  11.615
  421MPD2    H7 6461   1.051   1.084  11.549
  422MPD2     C 6462   1.425   1.472  11.463
  422MPD2    C1 6463   1.491   1.393  11.552
  422MPD2    C2 6464   1.583   1.439  11.644
  422MPD2    C3 6465   1.627   1.572  11.638
  422MPD2    C4 6466   1.563   1.649  11.547
  422MPD2    C5 6467   1.463   1.603  11.465
  422MPD2     H 6468   1.632   1.377  11.719
  422MPD2    H1 6469   1.581   1.755  11.547
  422MPD2    H2 6470   1.359   1.434  11.386
  422MPD2    H3 6471   1.433   1.665  11.381
  422MPD2     N 6472   1.716   1.635  11.723
  422MPD2    H5 6473   1.730   1.735  11.712
  422MPD2    N1 6474   1.447   1.255  11.539
  422MPD2    H7 6475   1.369   1.236  11.476
  423MPD2     C 6476   2.325   1.256  13.207
  423MPD2    C1 6477   2.254   1.368  13.238
  423MPD2    C2 6478   2.255   1.473  13.144
  423MPD2    C3 6479   2.334   1.470  13.038
  423MPD2    C4 6480   2.413   1.360  13.010
  423MPD2    C5 6481   2.406   1.256  13.095
  423MPD2     H 6482   2.191   1.560  13.148
  423MPD2    H1 6483   2.477   1.358  12.923
  423MPD2    H2 6484   2.313   1.174  13.277
  423MPD2    H3 6485   2.479   1.183  13.062
  423MPD2     N 6486   2.318   1.585  12.960
  423MPD2    H5 6487   2.251   1.653  12.992
  423MPD2    N1 6488   2.189   1.365  13.363
  423MPD2    H7 6489   2.230   1.300  13.430
  424MPD2     C 6490   2.532   0.734  13.764
  424MPD2    C1 6491   2.475   0.783  13.646
  424MPD2    C2 6492   2.409   0.904  13.644
  424MPD2    C3 6493   2.406   0.978  13.759
  424MPD2    C4 6494   2.461   0.926  13.875
  424MPD2    C5 6495   2.521   0.804  13.880
  424MPD2     H 6496   2.356   0.924  13.551
  424MPD2    H1 6497   2.468   0.986  13.965
  424MPD2    H2 6498   2.585   0.640  13.769
  424MPD2    H3 6499   2.570   0.768  13.970
  424MPD2     N 6500   2.366   1.112  13.750
  424MPD2    H5 6501   2.383   1.167  13.834
  424MPD2    N1 6502   2.483   0.704  13.529
  424MPD2    H7 6503   2.434   0.740  13.447
  425MPD2     C 6504   4.460   1.944   8.787
  425MPD2    C1 6505   4.403   1.873   8.686
  425MPD2    C2 6506   4.278   1.819   8.714
  425MPD2    C3 6507   4.225   1.822   8.843
  425MPD2    C4 6508   4.289   1.900   8.936
  425MPD2    C5 6509   4.409   1.954   8.914
  425MPD2     H 6510   4.222   1.779   8.630
  425MPD2    H1 6511   4.251   1.922   9.035
  425MPD2    H2 6512   4.547   2.005   8.766
  425MPD2    H3 6513   4.458   2.012   8.991
  425MPD2     N 6514   4.112   1.756   8.873
  425MPD2    H5 6515   4.072   1.707   8.794
  425MPD2    N1 6516   4.457   1.865   8.562
  425MPD2    H7 6517   4.391   1.858   8.486
  426MPD2     C 6518   2.619   3.975   7.989
  426MPD2    C1 6519   2.577   4.087   8.057
  426MPD2    C2 6520   2.484   4.171   8.007
  426MPD2    C3 6521   2.450   4.169   7.878
  426MPD2    C4 6522   2.499   4.067   7.806
  426MPD2    C5 6523   2.578   3.968   7.856
  426MPD2     H 6524   2.451   4.247   8.078
  426MPD2    H1 6525   2.477   4.080   7.701
  426MPD2    H2 6526   2.688   3.898   8.023
  426MPD2    H3 6527   2.607   3.884   7.796
  426MPD2     N 6528   2.380   4.270   7.811
  426MPD2    H5 6529   2.390   4.258   7.711
  426MPD2    N1 6530   2.620   4.101   8.194
  426MPD2    H7 6531   2.572   4.167   8.255
  427MPD2     C 6532   2.417   0.285   7.803
  427MPD2    C1 6533   2.301   0.215   7.840
  427MPD2    C2 6534   2.251   0.251   7.967
  427MPD2    C3 6535   2.325   0.325   8.053
  427MPD2    C4 6536   2.440   0.395   8.013
  427MPD2    C5 6537   2.478   0.373   7.883
  427MPD2     H 6538   2.168   0.198   8.014
  427MPD2    H1 6539   2.506   0.445   8.083
  427MPD2    H2 6540   2.460   0.272   7.704
  427MPD2    H3 6541   2.564   0.424   7.840
  427MPD2     N 6542   2.282   0.317   8.191
  427MPD2    H5 6543   2.188   0.284   8.208
  427MPD2    N1 6544   2.251   0.110   7.757
  427MPD2    H7 6545   2.305   0.083   7.676
  428MPD2     C 6546   2.280   4.445   7.119
  428MPD2    C1 6547   2.335   4.378   7.228
  428MPD2    C2 6548   2.397   4.253   7.209
  428MPD2    C3 6549   2.406   4.197   7.084
  428MPD2    C4 6550   2.344   4.262   6.982
  428MPD2    C5 6551   2.282   4.381   6.998
  428MPD2     H 6552   2.452   4.210   7.292
  428MPD2    H1 6553   2.340   4.213   6.886
  428MPD2    H2 6554   2.216   4.532   7.124
  428MPD2    H3 6555   2.231   4.422   6.912
  428MPD2     N 6556   2.464   4.075   7.052
  428MPD2    H5 6557   2.487   4.062   6.954
  428MPD2    N1 6558   2.327   4.430   7.358
  428MPD2    H7 6559   2.360   4.369   7.433
  429MPD2     C 6560   4.176   0.423  11.481
  429MPD2    C1 6561   4.123   0.356  11.588
  429MPD2    C2 6562   4.201   0.320  11.698
  429MPD2    C3 6563   4.338   0.326  11.678
  429MPD2    C4 6564   4.392   0.375  11.559
  429MPD2    C5 6565   4.314   0.438  11.469
  429MPD2     H 6566   4.160   0.275  11.787
  429MPD2    H1 6567   4.500   0.367  11.546
  429MPD2    H2 6568   4.101   0.457  11.410
  429MPD2    H3 6569   4.353   0.483  11.378
  429MPD2     N 6570   4.414   0.270  11.780
  429MPD2    H5 6571   4.369   0.261  11.870
  429MPD2    N1 6572   3.982   0.334  11.596
  429MPD2    H7 6573   3.922   0.398  11.545
  430MPD2     C 6574   3.423   0.330  12.421
  430MPD2    C1 6575   3.450   0.436  12.335
  430MPD2    C2 6576   3.507   0.408  12.207
  430MPD2    C3 6577   3.531   0.277  12.170
  430MPD2    C4 6578   3.496   0.179  12.255
  430MPD2    C5 6579   3.445   0.206  12.376
  430MPD2     H 6580   3.521   0.493  12.140
  430MPD2    H1 6581   3.515   0.074  12.237
  430MPD2    H2 6582   3.388   0.346  12.522
  430MPD2    H3 6583   3.416   0.131  12.449
  430MPD2     N 6584   3.593   0.255  12.044
  430MPD2    H5 6585   3.607   0.338  11.987
  430MPD2    N1 6586   3.408   0.565  12.374
  430MPD2    H7 6587   3.367   0.582  12.465
  431MPD2     C 6588   4.288   3.217   8.973
  431MPD2    C1 6589   4.256   3.137   9.084
  431MPD2    C2 6590   4.122   3.132   9.124
  431MPD2    C3 6591   4.022   3.199   9.055
  431MPD2    C4 6592   4.054   3.277   8.945
  431MPD2    C5 6593   4.189   3.286   8.913
  431MPD2     H 6594   4.093   3.079   9.215
  431MPD2    H1 6595   3.990   3.341   8.885
  431MPD2    H2 6596   4.388   3.239   8.938
  431MPD2    H3 6597   4.211   3.358   8.835
  431MPD2     N 6598   3.900   3.199   9.130
  431MPD2    H5 6599   3.896   3.142   9.213
  431MPD2    N1 6600   4.361   3.082   9.153
  431MPD2    H7 6601   4.454   3.092   9.113
  432MPD2     C 6602   1.094   2.498  12.108
  432MPD2    C1 6603   1.204   2.575  12.134
  432MPD2    C2 6604   1.241   2.599  12.268
  432MPD2    C3 6605   1.163   2.561  12.376
  432MPD2    C4 6606   1.057   2.489  12.342
  432MPD2    C5 6607   1.017   2.459  12.214
  432MPD2     H 6608   1.342   2.635  12.288
  432MPD2    H1 6609   0.996   2.444  12.420
  432MPD2    H2 6610   1.066   2.478  12.006
  432MPD2    H3 6611   0.926   2.404  12.191
  432MPD2     N 6612   1.194   2.566  12.514
  432MPD2    H5 6613   1.127   2.516  12.571
  432MPD2    N1 6614   1.280   2.617  12.023
  432MPD2    H7 6615   1.274   2.572  11.932
  433MPD2     C 6616   0.874   3.108  12.303
  433MPD2    C1 6617   0.976   3.124  12.394
  433MPD2    C2 6618   0.950   3.158  12.524
  433MPD2    C3 6619   0.817   3.165  12.567
  433MPD2    C4 6620   0.717   3.156  12.477
  433MPD2    C5 6621   0.742   3.126  12.345
  433MPD2     H 6622   1.037   3.163  12.588
  433MPD2    H1 6623   0.617   3.165  12.517
  433MPD2    H2 6624   0.891   3.104  12.196
  433MPD2    H3 6625   0.663   3.114  12.272
  433MPD2     N 6626   0.775   3.190  12.694
  433MPD2    H5 6627   0.676   3.181  12.712
  433MPD2    N1 6628   1.111   3.092  12.364
  433MPD2    H7 6629   1.168   3.066  12.444
  434MPD2     C 6630   3.612   3.677  11.516
  434MPD2    C1 6631   3.702   3.773  11.571
  434MPD2    C2 6632   3.809   3.735  11.649
  434MPD2    C3 6633   3.845   3.600  11.650
  434MPD2    C4 6634   3.762   3.510  11.604
  434MPD2    C5 6635   3.645   3.547  11.538
  434MPD2     H 6636   3.871   3.815  11.689
  434MPD2    H1 6637   3.776   3.404  11.623
  434MPD2    H2 6638   3.513   3.706  11.482
  434MPD2    H3 6639   3.571   3.476  11.502
  434MPD2     N 6640   3.971   3.562  11.707
  434MPD2    H5 6641   3.980   3.463  11.724
  434MPD2    N1 6642   3.678   3.910  11.573
  434MPD2    H7 6643   3.737   3.962  11.636
  435MPD2     C 6644   1.421   4.753  12.800
  435MPD2    C1 6645   1.507   4.701  12.708
  435MPD2    C2 6646   1.600   4.785  12.644
  435MPD2    C3 6647   1.617   0.129  12.685
  435MPD2    C4 6648   1.524   0.187  12.766
  435MPD2    C5 6649   1.431   0.105  12.824
  435MPD2     H 6650   1.662   4.731  12.572
  435MPD2    H1 6651   1.531   0.290  12.798
  435MPD2    H2 6652   1.343   4.688  12.840
  435MPD2    H3 6653   1.367   0.157  12.894
  435MPD2     N 6654   1.720   0.211  12.646
  435MPD2    H5 6655   1.702   0.310  12.654
  435MPD2    N1 6656   1.492   4.557  12.682
  435MPD2    H7 6657   1.428   4.506  12.742
  436MPD2     C 6658   1.879   4.301  12.897
  436MPD2    C1 6659   1.982   4.303  12.804
  436MPD2    C2 6660   2.050   4.195  12.773
  436MPD2    C3 6661   2.029   4.078  12.845
  436MPD2    C4 6662   1.925   4.069  12.932
  436MPD2    C5 6663   1.860   4.184  12.961
  436MPD2     H 6664   2.133   4.212  12.705
  436MPD2    H1 6665   1.904   3.991  13.004
  436MPD2    H2 6666   1.819   4.386  12.928
  436MPD2    H3 6667   1.782   4.178  13.036
  436MPD2     N 6668   2.095   3.959  12.812
  436MPD2    H5 6669   2.042   3.879  12.844
  436MPD2    N1 6670   2.000   4.418  12.721
  436MPD2    H7 6671   2.034   4.403  12.626
  437MPD2     C 6672   2.068   4.601  11.819
  437MPD2    C1 6673   2.099   4.515  11.925
  437MPD2    C2 6674   2.088   4.554  12.057
  437MPD2    C3 6675   2.047   4.685  12.087
  437MPD2    C4 6676   2.004   4.763  11.988
  437MPD2    C5 6677   2.020   4.725  11.857
  437MPD2     H 6678   2.129   4.491  12.134
  437MPD2    H1 6679   1.980   0.081  12.002
  437MPD2    H2 6680   2.089   4.574  11.717
  437MPD2    H3 6681   1.995   0.006  11.777
  437MPD2     N 6682   2.038   4.728  12.225
  437MPD2    H5 6683   2.000   0.033  12.245
  437MPD2    N1 6684   2.153   4.386  11.882
  437MPD2    H7 6685   2.135   4.359  11.785
  438MPD2     C 6686   3.574   2.615  12.461
  438MPD2    C1 6687   3.596   2.724  12.549
  438MPD2    C2 6688   3.483   2.798  12.579
  438MPD2    C3 6689   3.357   2.757  12.543
  438MPD2    C4 6690   3.342   2.652  12.453
  438MPD2    C5 6691   3.445   2.580  12.411
  438MPD2     H 6692   3.497   2.884  12.643
  438MPD2    H1 6693   3.241   2.625  12.423
  438MPD2    H2 6694   3.653   2.557  12.416
  438MPD2    H3 6695   3.430   2.500  12.340
  438MPD2     N 6696   3.240   2.839  12.568
  438MPD2    H5 6697   3.155   2.790  12.540
  438MPD2    N1 6698   3.718   2.766  12.588
  438MPD2    H7 6699   3.718   2.832  12.665
  439MPD2     C 6700   2.042   4.279   8.415
  439MPD2    C1 6701   2.023   4.353   8.304
  439MPD2    C2 6702   2.131   4.411   8.244
  439MPD2    C3 6703   2.259   4.402   8.294
  439MPD2    C4 6704   2.285   4.314   8.395
  439MPD2    C5 6705   2.173   4.253   8.450
  439MPD2     H 6706   2.120   4.466   8.152
  439MPD2    H1 6707   2.384   4.279   8.421
  439MPD2    H2 6708   1.961   4.234   8.470
  439MPD2    H3 6709   2.196   4.180   8.527
  439MPD2     N 6710   2.362   4.486   8.245
  439MPD2    H5 6711   2.340   4.544   8.166
  439MPD2    N1 6712   1.902   4.376   8.238
  439MPD2    H7 6713   1.901   4.429   8.151
  440MPD2     C 6714   3.099   0.460   8.316
  440MPD2    C1 6715   3.115   0.325   8.296
  440MPD2    C2 6716   3.005   0.241   8.269
  440MPD2    C3 6717   2.878   0.302   8.247
  440MPD2    C4 6718   2.869   0.436   8.258
  440MPD2    C5 6719   2.974   0.512   8.289
  440MPD2     H 6720   3.022   0.134   8.272
  440MPD2    H1 6721   2.771   0.480   8.251
  440MPD2    H2 6722   3.178   0.522   8.357
  440MPD2    H3 6723   2.959   0.619   8.278
  440MPD2     N 6724   2.767   0.225   8.229
  440MPD2    H5 6725   2.678   0.262   8.196
  440MPD2    N1 6726   3.249   0.281   8.327
  440MPD2    H7 6727   3.316   0.356   8.336
  441MPD2     C 6728   2.875   0.130   7.703
  441MPD2    C1 6729   2.749   0.080   7.711
  441MPD2    C2 6730   2.662   0.099   7.605
  441MPD2    C3 6731   2.703   0.171   7.492
  441MPD2    C4 6732   2.834   0.212   7.487
  441MPD2    C5 6733   2.914   0.193   7.593
  441MPD2     H 6734   2.559   0.065   7.613
  441MPD2    H1 6735   2.859   0.272   7.401
  441MPD2    H2 6736   2.936   0.129   7.792
  441MPD2    H3 6737   3.003   0.255   7.596
  441MPD2     N 6738   2.609   0.230   7.402
  441MPD2    H5 6739   2.517   0.188   7.401
  441MPD2    N1 6740   2.710   0.017   7.837
  441MPD2    H7 6741   2.783   0.011   7.908
  442MPD2     C 6742   0.463   4.332  12.998
  442MPD2    C1 6743   0.446   4.241  13.091
  442MPD2    C2 6744   0.349   4.268  13.191
  442MPD2    C3 6745   0.267   4.382  13.191
  442MPD2    C4 6746   0.299   4.477  13.097
  442MPD2    C5 6747   0.399   4.451  13.002
  442MPD2     H 6748   0.318   4.195  13.265
  442MPD2    H1 6749   0.253   4.575  13.104
  442MPD2    H2 6750   0.531   4.304  12.918
  442MPD2    H3 6751   0.419   4.527  12.927
  442MPD2     N 6752   0.189   4.426  13.304
  442MPD2    H5 6753   0.192   4.525  13.323
  442MPD2    N1 6754   0.525   4.125  13.086
  442MPD2    H7 6755   0.576   4.109  12.999
  443MPD2     C 6756   1.499   3.329  10.540
  443MPD2    C1 6757   1.615   3.259  10.523
  443MPD2    C2 6758   1.633   3.139  10.584
  443MPD2    C3 6759   1.532   3.080  10.660
  443MPD2    C4 6760   1.418   3.146  10.672
  443MPD2    C5 6761   1.400   3.272  10.614
  443MPD2     H 6762   1.727   3.086  10.571
  443MPD2    H1 6763   1.324   3.109  10.712
  443MPD2    H2 6764   1.483   3.430  10.503
  443MPD2    H3 6765   1.305   3.324  10.621
  443MPD2     N 6766   1.552   2.956  10.733
  443MPD2    H5 6767   1.478   2.913  10.788
  443MPD2    N1 6768   1.718   3.317  10.447
  443MPD2    H7 6769   1.718   3.418  10.442
  444MPD2     C 6770   2.303   3.083  10.687
  444MPD2    C1 6771   2.174   3.093  10.634
  444MPD2    C2 6772   2.089   2.993  10.664
  444MPD2    C3 6773   2.118   2.887  10.748
  444MPD2    C4 6774   2.244   2.876  10.794
  444MPD2    C5 6775   2.333   2.974  10.764
  444MPD2     H 6776   1.989   2.999  10.623
  444MPD2    H1 6777   2.288   2.792  10.846
  444MPD2    H2 6778   2.373   3.165  10.679
  444MPD2    H3 6779   2.432   2.959  10.805
  444MPD2     N 6780   2.010   2.797  10.777
  444MPD2    H5 6781   1.927   2.812  10.721
  444MPD2    N1 6782   2.128   3.193  10.544
  444MPD2    H7 6783   2.028   3.195  10.526
  445MPD2     C 6784   2.572   2.955   9.940
  445MPD2    C1 6785   2.604   3.092   9.943
  445MPD2    C2 6786   2.500   3.170   9.983
  445MPD2    C3 6787   2.371   3.129  10.016
  445MPD2    C4 6788   2.337   2.999   9.987
  445MPD2    C5 6789   2.443   2.917   9.960
  445MPD2     H 6790   2.531   3.274   9.984
  445MPD2    H1 6791   2.240   2.950   9.992
  445MPD2    H2 6792   2.648   2.885   9.908
  445MPD2    H3 6793   2.415   2.813   9.947
  445MPD2     N 6794   2.282   3.219  10.072
  445MPD2    H5 6795   2.318   3.312  10.091
  445MPD2    N1 6796   2.736   3.139   9.918
  445MPD2    H7 6797   2.804   3.066   9.900
  446MPD2     C 6798   3.649   1.306  14.571
  446MPD2    C1 6799   3.521   1.324  14.610
  446MPD2    C2 6800   3.443   1.419  14.552
  446MPD2    C3 6801   3.493   1.484  14.438
  446MPD2    C4 6802   3.619   1.457  14.389
  446MPD2    C5 6803   3.703   1.380  14.468
  446MPD2     H 6804   3.343   1.441  14.585
  446MPD2    H1 6805   3.654   1.510  14.301
  446MPD2    H2 6806   3.706   1.228  14.622
  446MPD2    H3 6807   3.802   1.351  14.432
  446MPD2     N 6808   3.417   1.572  14.359
  446MPD2    H5 6809   3.462   1.630  14.288
  446MPD2    N1 6810   3.486   1.274  14.737
  446MPD2    H7 6811   3.563   1.249  14.799
  447MPD2     C 6812   3.255   1.891  14.739
  447MPD2    C1 6813   3.189   1.871  14.861
  447MPD2    C2 6814   3.224   1.763  14.936
  447MPD2    C3 6815   3.335   1.687  14.901
  447MPD2    C4 6816   3.403   1.714  14.783
  447MPD2    C5 6817   3.360   1.815  14.705
  447MPD2     H 6818   3.158   1.741  15.019
  447MPD2    H1 6819   3.482   1.648  14.748
  447MPD2    H2 6820   3.234   1.969  14.666
  447MPD2    H3 6821   3.400   1.831  14.605
  447MPD2     N 6822   3.375   1.576  14.981
  447MPD2    H5 6823   3.454   1.523  14.946
  447MPD2    N1 6824   3.063   1.938  14.887
  447MPD2    H7 6825   3.005   1.915  14.967
  448MPD2     C 6826   2.542   1.386  15.214
  448MPD2    C1 6827   2.600   1.404  15.093
  448MPD2    C2 6828   2.739   1.387  15.080
  448MPD2    C3 6829   2.813   1.331  15.180
  448MPD2    C4 6830   2.748   1.322  15.304
  448MPD2    C5 6831   2.619   1.357  15.326
  448MPD2     H 6832   2.782   1.397  14.982
  448MPD2    H1 6833   2.802   1.282  15.390
  448MPD2    H2 6834   2.436   1.397  15.234
  448MPD2    H3 6835   2.572   1.351  15.424
  448MPD2     N 6836   2.950   1.291  15.169
  448MPD2    H5 6837   3.003   1.266  15.253
  448MPD2    N1 6838   2.519   1.441  14.982
  448MPD2    H7 6839   2.420   1.448  15.004
  449MPD2     C 6840   0.508   4.339   8.510
  449MPD2    C1 6841   0.477   4.225   8.442
  449MPD2    C2 6842   0.446   4.112   8.513
  449MPD2    C3 6843   0.449   4.109   8.646
  449MPD2    C4 6844   0.488   4.223   8.717
  449MPD2    C5 6845   0.516   4.339   8.647
  449MPD2     H 6846   0.421   4.021   8.460
  449MPD2    H1 6847   0.476   4.219   8.825
  449MPD2    H2 6848   0.535   4.433   8.464
  449MPD2    H3 6849   0.531   4.424   8.712
  449MPD2     N 6850   0.415   4.003   8.732
  449MPD2    H5 6851   0.396   4.035   8.827
  449MPD2    N1 6852   0.454   4.220   8.310
  449MPD2    H7 6853   0.440   4.126   8.274
  450MPD2     C 6854   0.594   3.825   9.273
  450MPD2    C1 6855   0.496   3.770   9.200
  450MPD2    C2 6856   0.526   3.662   9.123
  450MPD2    C3 6857   0.662   3.628   9.106
  450MPD2    C4 6858   0.757   3.694   9.177
  450MPD2    C5 6859   0.722   3.790   9.268
  450MPD2     H 6860   0.454   3.601   9.070
  450MPD2    H1 6861   0.863   3.673   9.173
  450MPD2    H2 6862   0.568   3.895   9.352
  450MPD2    H3 6863   0.800   3.834   9.329
  450MPD2     N 6864   0.697   3.534   9.011
  450MPD2    H5 6865   0.616   3.485   8.974
  450MPD2    N1 6866   0.366   3.814   9.229
  450MPD2    H7 6867   0.363   3.856   9.322
  451MPD2     C 6868   3.406   3.123  12.314
  451MPD2    C1 6869   3.295   3.173  12.367
  451MPD2    C2 6870   3.296   3.245  12.484
  451MPD2    C3 6871   3.416   3.257  12.556
  451MPD2    C4 6872   3.525   3.188  12.508
  451MPD2    C5 6873   3.518   3.124  12.388
  451MPD2     H 6874   3.207   3.301  12.512
  451MPD2    H1 6875   3.623   3.192  12.554
  451MPD2    H2 6876   3.412   3.066  12.222
  451MPD2    H3 6877   3.602   3.078  12.336
  451MPD2     N 6878   3.429   3.326  12.686
  451MPD2    H5 6879   3.515   3.310  12.737
  451MPD2    N1 6880   3.165   3.168  12.310
  451MPD2    H7 6881   3.086   3.212  12.357
  452MPD2     C 6882   0.048   2.866   8.867
  452MPD2    C1 6883   0.077   2.811   8.993
  452MPD2    C2 6884   0.199   2.755   9.012
  452MPD2    C3 6885   0.287   2.749   8.900
  452MPD2    C4 6886   0.246   2.794   8.778
  452MPD2    C5 6887   0.126   2.852   8.756
  452MPD2     H 6888   0.230   2.717   9.109
  452MPD2    H1 6889   0.322   2.803   8.700
  452MPD2    H2 6890   4.740   2.918   8.859
  452MPD2    H3 6891   0.108   2.890   8.656
  452MPD2     N 6892   0.424   2.714   8.908
  452MPD2    H5 6893   0.476   2.740   8.825
  452MPD2    N1 6894   4.756   2.815   9.094
  452MPD2    H7 6895   4.683   2.885   9.080
  453MPD2     C 6896   2.319   0.921   7.521
  453MPD2    C1 6897   2.271   0.872   7.402
  453MPD2    C2 6898   2.170   0.950   7.341
  453MPD2    C3 6899   2.118   1.076   7.382
  453MPD2    C4 6900   2.179   1.126   7.504
  453MPD2    C5 6901   2.272   1.043   7.567
  453MPD2     H 6902   2.131   0.909   7.249
  453MPD2    H1 6903   2.146   1.213   7.559
  453MPD2    H2 6904   2.398   0.876   7.581
  453MPD2    H3 6905   2.312   1.081   7.660
  453MPD2     N 6906   2.021   1.153   7.310
  453MPD2    H5 6907   1.980   1.225   7.369
  453MPD2    N1 6908   2.321   0.746   7.358
  453MPD2    H7 6909   2.394   0.706   7.416
  454MPD2     C 6910   2.563   4.650  15.411
  454MPD2    C1 6911   2.585   4.605  15.279
  454MPD2    C2 6912   2.522   4.493  15.232
  454MPD2    C3 6913   2.435   4.418  15.311
  454MPD2    C4 6914   2.420   4.459  15.443
  454MPD2    C5 6915   2.489   4.568  15.491
  454MPD2     H 6916   2.543   4.460  15.131
  454MPD2    H1 6917   2.361   4.407  15.517
  454MPD2    H2 6918   2.607   4.742  15.449
  454MPD2    H3 6919   2.475   4.608  15.590
  454MPD2     N 6920   2.355   4.312  15.259
  454MPD2    H5 6921   2.283   4.262  15.310
  454MPD2    N1 6922   2.677   4.684  15.208
  454MPD2    H7 6923   2.742   4.742  15.261
  455MPD2     C 6924   3.338   0.168  15.261
  455MPD2    C1 6925   3.210   0.210  15.262
  455MPD2    C2 6926   3.163   0.318  15.336
  455MPD2    C3 6927   3.253   0.394  15.412
  455MPD2    C4 6928   3.387   0.353  15.403
  455MPD2    C5 6929   3.429   0.241  15.333
  455MPD2     H 6930   3.067   0.364  15.315
  455MPD2    H1 6931   3.466   0.409  15.451
  455MPD2    H2 6932   3.375   0.077  15.216
  455MPD2    H3 6933   3.532   0.210  15.319
  455MPD2     N 6934   3.219   0.529  15.445
  455MPD2    H5 6935   3.290   0.601  15.442
  455MPD2    N1 6936   3.117   0.148  15.178
  455MPD2    H7 6937   3.022   0.183  15.182
  456MPD2     C 6938   3.113   4.782  14.402
  456MPD2    C1 6939   3.013   0.059  14.472
  456MPD2    C2 6940   2.927   0.139  14.402
  456MPD2    C3 6941   2.951   0.159  14.265
  456MPD2    C4 6942   3.062   0.096  14.198
  456MPD2    C5 6943   3.144   0.014  14.270
  456MPD2     H 6944   2.854   0.200  14.454
  456MPD2    H1 6945   3.088   0.107  14.094
  456MPD2    H2 6946   3.174   4.709  14.455
  456MPD2    H3 6947   3.226   4.748  14.224
  456MPD2     N 6948   2.852   0.238  14.199
  456MPD2    H5 6949   2.774   0.270  14.254
  456MPD2    N1 6950   2.995   0.039  14.611
  456MPD2    H7 6951   3.061   4.771  14.664
  457MPD2     C 6952   4.607   4.154  12.513
  457MPD2    C1 6953   4.611   4.099  12.639
  457MPD2    C2 6954   4.692   3.989  12.670
  457MPD2    C3 6955   4.777   3.952  12.571
  457MPD2    C4 6956   4.764   4.001  12.445
  457MPD2    C5 6957   4.672   4.092  12.410
  457MPD2     H 6958   4.696   3.941  12.767
  457MPD2    H1 6959   0.026   3.946  12.365
  457MPD2    H2 6960   4.529   4.223  12.485
  457MPD2    H3 6961   4.658   4.131  12.309
  457MPD2     N 6962   0.065   3.839  12.600
  457MPD2    H5 6963   0.058   3.790  12.688
  457MPD2    N1 6964   4.511   4.137  12.734
  457MPD2    H7 6965   4.436   4.202  12.716
  458MPD2     C 6966   0.241   3.406  13.411
  458MPD2    C1 6967   0.165   3.326  13.327
  458MPD2    C2 6968   0.171   3.352  13.193
  458MPD2    C3 6969   0.248   3.465  13.146
  458MPD2    C4 6970   0.301   3.554  13.237
  458MPD2    C5 6971   0.302   3.519  13.367
  458MPD2     H 6972   0.116   3.298  13.117
  458MPD2    H1 6973   0.353   3.645  13.210
  458MPD2    H2 6974   0.254   3.381  13.516
  458MPD2    H3 6975   0.354   3.592  13.429
  458MPD2     N 6976   0.263   3.477  13.006
  458MPD2    H5 6977   0.227   3.396  12.957
  458MPD2    N1 6978   0.081   3.219  13.368
  458MPD2    H7 6979   0.022   3.188  13.292
  459MPD2     C 6980   0.063   3.311  12.248
  459MPD2    C1 6981   0.111   3.333  12.376
  459MPD2    C2 6982   0.023   3.342  12.481
  459MPD2    C3 6983   4.677   3.343  12.464
  459MPD2    C4 6984   4.633   3.319  12.336
  459MPD2    C5 6985   4.714   3.306  12.227
  459MPD2     H 6986   0.055   3.346  12.584
  459MPD2    H1 6987   4.526   3.310  12.322
  459MPD2    H2 6988   0.125   3.302  12.160
  459MPD2    H3 6989   4.671   3.308  12.128
  459MPD2     N 6990   4.587   3.318  12.580
  459MPD2    H5 6991   4.492   3.289  12.560
  459MPD2    N1 6992   0.248   3.323  12.401
  459MPD2    H7 6993   0.303   3.294  12.320
  460MPD2     C 6994   1.315   2.329   9.964
  460MPD2    C1 6995   1.326   2.240  10.071
  460MPD2    C2 6996   1.215   2.164  10.105
  460MPD2    C3 6997   1.101   2.166  10.022
  460MPD2    C4 6998   1.101   2.250   9.906
  460MPD2    C5 6999   1.206   2.330   9.881
  460MPD2     H 7000   1.223   2.085  10.178
  460MPD2    H1 7001   1.011   2.254   9.845
  460MPD2    H2 7002   1.396   2.393   9.931
  460MPD2    H3 7003   1.195   2.386   9.789
  460MPD2     N 7004   0.980   2.099  10.049
  460MPD2    H5 7005   0.904   2.100   9.981
  460MPD2    N1 7006   1.450   2.217  10.142
  460MPD2    H7 7007   1.453   2.144  10.212
  461MPD2     C 7008   0.460   1.631  10.531
  461MPD2    C1 7009   0.396   1.755  10.510
  461MPD2    C2 7010   0.271   1.762  10.561
  461MPD2    C3 7011   0.207   1.665  10.632
  461MPD2    C4 7012   0.276   1.552  10.651
  461MPD2    C5 7013   0.399   1.532  10.602
  461MPD2     H 7014   0.216   1.854  10.544
  461MPD2    H1 7015   0.241   1.470  10.713
  461MPD2    H2 7016   0.563   1.608  10.507
  461MPD2    H3 7017   0.463   1.455  10.643
  461MPD2     N 7018   0.091   1.687  10.706
  461MPD2    H5 7019   0.077   1.620  10.780
  461MPD2    N1 7020   0.457   1.870  10.444
  461MPD2    H7 7021   0.411   1.958  10.422
  462MPD2     C 7022   4.525   0.807   9.122
  462MPD2    C1 7023   4.653   0.843   9.092
  462MPD2    C2 7024   4.678   0.859   8.957
  462MPD2    C3 7025   4.581   0.849   8.857
  462MPD2    C4 7026   4.452   0.817   8.894
  462MPD2    C5 7027   4.424   0.800   9.029
  462MPD2     H 7028   4.781   0.866   8.924
  462MPD2    H1 7029   4.371   0.795   8.825
  462MPD2    H2 7030   4.495   0.794   9.225
  462MPD2    H3 7031   4.327   0.760   9.055
  462MPD2     N 7032   4.608   0.876   8.719
  462MPD2    H5 7033   4.702   0.866   8.683
  462MPD2    N1 7034   4.741   0.849   9.198
  462MPD2    H7 7035   4.698   0.828   9.288
  463MPD2     C 7036   1.333   0.885  15.038
  463MPD2    C1 7037   1.274   0.793  14.962
  463MPD2    C2 7038   1.146   0.759  15.000
  463MPD2    C3 7039   1.077   0.814  15.111
  463MPD2    C4 7040   1.144   0.914  15.178
  463MPD2    C5 7041   1.273   0.949  15.143
  463MPD2     H 7042   1.097   0.677  14.948
  463MPD2    H1 7043   1.101   0.968  15.262
  463MPD2    H2 7044   1.435   0.919  15.023
  463MPD2    H3 7045   1.340   1.009  15.203
  463MPD2     N 7046   0.939   0.785  15.126
  463MPD2    H5 7047   0.913   0.717  15.056
  463MPD2    N1 7048   1.329   0.737  14.847
  463MPD2    H7 7049   1.265   0.677  14.796
  464MPD2     C 7050   2.010   1.237  14.318
  464MPD2    C1 7051   1.881   1.255  14.362
  464MPD2    C2 7052   1.803   1.141  14.387
  464MPD2    C3 7053   1.854   1.012  14.373
  464MPD2    C4 7054   1.983   0.992  14.341
  464MPD2    C5 7055   2.061   1.108  14.316
  464MPD2     H 7056   1.701   1.156  14.422
  464MPD2    H1 7057   2.039   0.899  14.340
  464MPD2    H2 7058   2.070   1.323  14.289
  464MPD2    H3 7059   2.160   1.101  14.273
  464MPD2     N 7060   1.776   0.899  14.383
  464MPD2    H5 7061   1.817   0.806  14.377
  464MPD2    N1 7062   1.836   1.392  14.367
  464MPD2    H7 7063   1.914   1.453  14.346
  465MPD2     C 7064   1.587   1.523  12.544
  465MPD2    C1 7065   1.677   1.431  12.589
  465MPD2    C2 7066   1.814   1.469  12.597
  465MPD2    C3 7067   1.849   1.600  12.564
  465MPD2    C4 7068   1.752   1.690  12.522
  465MPD2    C5 7069   1.621   1.652  12.515
  465MPD2     H 7070   1.888   1.408  12.648
  465MPD2    H1 7071   1.769   1.792  12.490
  465MPD2    H2 7072   1.481   1.500  12.537
  465MPD2    H3 7073   1.549   1.727  12.484
  465MPD2     N 7074   1.982   1.640  12.572
  465MPD2    H5 7075   2.049   1.564  12.579
  465MPD2    N1 7076   1.625   1.307  12.635
  465MPD2    H7 7077   1.529   1.279  12.618
  466MPD2     C 7078   3.227   0.250  10.801
  466MPD2    C1 7079   3.182   0.277  10.924
  466MPD2    C2 7080   3.266   0.271  11.034
  466MPD2    C3 7081   3.397   0.225  11.018
  466MPD2    C4 7082   3.435   0.182  10.897
  466MPD2    C5 7083   3.350   0.189  10.795
  466MPD2     H 7084   3.223   0.306  11.126
  466MPD2    H1 7085   3.538   0.149  10.884
  466MPD2    H2 7086   3.171   0.257  10.709
  466MPD2    H3 7087   3.402   0.168  10.702
  466MPD2     N 7088   3.486   0.199  11.130
  466MPD2    H5 7089   3.570   0.145  11.116
  466MPD2    N1 7090   3.045   0.308  10.943
  466MPD2    H7 7091   3.013   0.313  11.039
  467MPD2     C 7092   2.417   4.409  10.649
  467MPD2    C1 7093   2.545   4.453  10.629
  467MPD2    C2 7094   2.601   4.562  10.692
  467MPD2    C3 7095   2.524   4.635  10.781
  467MPD2    C4 7096   2.397   4.592  10.805
  467MPD2    C5 7097   2.350   4.482  10.740
  467MPD2     H 7098   2.699   4.593  10.658
  467MPD2    H1 7099   2.351   4.643  10.889
  467MPD2    H2 7100   2.377   4.319  10.604
  467MPD2    H3 7101   2.249   4.453  10.770
  467MPD2     N 7102   2.558   4.752  10.847
  467MPD2    H5 7103   2.487   0.009  10.903
  467MPD2    N1 7104   2.634   4.407  10.522
  467MPD2    H7 7105   2.731   4.438  10.521
  468MPD2     C 7106   2.248   4.544   8.850
  468MPD2    C1 7107   2.325   4.596   8.746
  468MPD2    C2 7108   2.411   4.514   8.674
  468MPD2    C3 7109   2.428   4.384   8.716
  468MPD2    C4 7110   2.341   4.331   8.817
  468MPD2    C5 7111   2.254   4.412   8.875
  468MPD2     H 7112   2.475   4.542   8.591
  468MPD2    H1 7113   2.360   4.229   8.850
  468MPD2    H2 7114   2.174   4.605   8.901
  468MPD2    H3 7115   2.180   4.361   8.936
  468MPD2     N 7116   2.524   4.308   8.642
  468MPD2    H5 7117   2.554   4.349   8.554
  468MPD2    N1 7118   2.301   4.732   8.713
  468MPD2    H7 7119   2.229   4.776   8.770
  469MPD2     C 7120   3.223   4.388   8.408
  469MPD2    C1 7121   3.205   4.304   8.513
  469MPD2    C2 7122   3.302   4.294   8.608
  469MPD2    C3 7123   3.417   4.363   8.599
  469MPD2    C4 7124   3.446   4.443   8.492
  469MPD2    C5 7125   3.340   4.452   8.403
  469MPD2     H 7126   3.304   4.209   8.676
  469MPD2    H1 7127   3.533   4.506   8.480
  469MPD2    H2 7128   3.160   4.402   8.321
  469MPD2    H3 7129   3.353   4.514   8.315
  469MPD2     N 7130   3.499   4.337   8.706
  469MPD2    H5 7131   3.465   4.283   8.785
  469MPD2    N1 7132   3.084   4.236   8.523
  469MPD2    H7 7133   3.010   4.264   8.459
  470MPD2     C 7134   1.507   1.198  12.327
  470MPD2    C1 7135   1.630   1.227  12.275
  470MPD2    C2 7136   1.721   1.122  12.274
  470MPD2    C3 7137   1.686   0.989  12.297
  470MPD2    C4 7138   1.562   0.966  12.354
  470MPD2    C5 7139   1.472   1.073  12.375
  470MPD2     H 7140   1.824   1.136  12.245
  470MPD2    H1 7141   1.530   0.867  12.385
  470MPD2    H2 7142   1.432   1.276  12.342
  470MPD2    H3 7143   1.375   1.037  12.407
  470MPD2     N 7144   1.789   0.892  12.294
  470MPD2    H5 7145   1.877   0.924  12.256
  470MPD2    N1 7146   1.654   1.357  12.231
  470MPD2    H7 7147   1.578   1.423  12.244
  471MPD2     C 7148   1.238   1.768  11.874
  471MPD2    C1 7149   1.351   1.830  11.840
  471MPD2    C2 7150   1.379   1.897  11.720
  471MPD2    C3 7151   1.285   1.876  11.618
  471MPD2    C4 7152   1.166   1.812  11.642
  471MPD2    C5 7153   1.145   1.755  11.769
  471MPD2     H 7154   1.472   1.947  11.697
  471MPD2    H1 7155   1.092   1.806  11.563
  471MPD2    H2 7156   1.225   1.735  11.976
  471MPD2    H3 7157   1.054   1.697  11.777
  471MPD2     N 7158   1.314   1.920  11.482
  471MPD2    H5 7159   1.248   1.883  11.415
  471MPD2    N1 7160   1.465   1.817  11.924
  471MPD2    H7 7161   1.547   1.865  11.888
  472MPD2     C 7162   2.666   0.505   9.865
  472MPD2    C1 7163   2.785   0.476   9.796
  472MPD2    C2 7164   2.881   0.576   9.777
  472MPD2    C3 7165   2.851   0.709   9.825
  472MPD2    C4 7166   2.729   0.737   9.877
  472MPD2    C5 7167   2.633   0.638   9.902
  472MPD2     H 7168   2.971   0.548   9.723
  472MPD2    H1 7169   2.702   0.840   9.901
  472MPD2    H2 7170   2.581   0.438   9.881
  472MPD2    H3 7171   2.532   0.661   9.934
  472MPD2     N 7172   2.944   0.818   9.820
  472MPD2    H5 7173   2.904   0.906   9.852
  472MPD2    N1 7174   2.822   0.347   9.749
  472MPD2    H7 7175   2.908   0.341   9.696
  473MPD2     C 7176   3.681   0.735   9.775
  473MPD2    C1 7177   3.598   0.849   9.765
  473MPD2    C2 7178   3.578   0.921   9.881
  473MPD2    C3 7179   3.611   0.876  10.004
  473MPD2    C4 7180   3.686   0.762  10.010
  473MPD2    C5 7181   3.723   0.691   9.895
  473MPD2     H 7182   3.537   1.022   9.886
  473MPD2    H1 7183   3.726   0.730  10.106
  473MPD2    H2 7184   3.714   0.684   9.685
  473MPD2    H3 7185   3.795   0.610   9.898
  473MPD2     N 7186   3.602   0.955  10.116
  473MPD2    H5 7187   3.658   0.928  10.196
  473MPD2    N1 7188   3.556   0.905   9.636
  473MPD2    H7 7189   3.604   0.875   9.552
  474MPD2     C 7190   1.070   4.571  14.737
  474MPD2    C1 7191   1.158   4.521  14.638
  474MPD2    C2 7192   1.128   4.558  14.504
  474MPD2    C3 7193   1.026   4.642  14.468
  474MPD2    C4 7194   0.959   4.699  14.572
  474MPD2    C5 7195   0.969   4.657  14.705
  474MPD2     H 7196   1.191   4.529  14.421
  474MPD2    H1 7197   0.891   4.774  14.535
  474MPD2    H2 7198   1.078   4.542  14.841
  474MPD2    H3 7199   0.898   4.689  14.781
  474MPD2     N 7200   0.997   4.689  14.337
  474MPD2    H5 7201   0.938   4.771  14.327
  474MPD2    N1 7202   1.266   4.450  14.678
  474MPD2    H7 7203   1.279   4.435  14.778
  475MPD2     C 7204   2.086   2.467   9.932
  475MPD2    C1 7205   1.978   2.394   9.888
  475MPD2    C2 7206   1.855   2.446   9.927
  475MPD2    C3 7207   1.842   2.564  10.009
  475MPD2    C4 7208   1.954   2.631  10.042
  475MPD2    C5 7209   2.075   2.578  10.019
  475MPD2     H 7210   1.759   2.411   9.892
  475MPD2    H1 7211   1.957   2.730  10.087
  475MPD2    H2 7212   2.191   2.442   9.919
  475MPD2    H3 7213   2.166   2.630  10.047
  475MPD2     N 7214   1.714   2.623  10.023
  475MPD2    H5 7215   1.643   2.558   9.989
  475MPD2    N1 7216   2.000   2.290   9.800
  475MPD2    H7 7217   2.095   2.278   9.766
  476MPD2     C 7218   2.070   1.504   9.883
  476MPD2    C1 7219   2.055   1.632   9.909
  476MPD2    C2 7220   1.995   1.673  10.032
  476MPD2    C3 7221   1.943   1.576  10.110
  476MPD2    C4 7222   1.964   1.438  10.085
  476MPD2    C5 7223   2.020   1.399   9.963
  476MPD2     H 7224   1.976   1.778  10.053
  476MPD2    H1 7225   1.936   1.361  10.156
  476MPD2    H2 7226   2.116   1.480   9.788
  476MPD2    H3 7227   2.031   1.294   9.938
  476MPD2     N 7228   1.881   1.617  10.231
  476MPD2    H5 7229   1.903   1.711  10.264
  476MPD2    N1 7230   2.092   1.720   9.804
  476MPD2    H7 7231   2.130   1.677   9.719
  477MPD2     C 7232   2.092   3.782  12.361
  477MPD2    C1 7233   2.085   3.911  12.322
  477MPD2    C2 7234   1.989   4.000  12.374
  477MPD2    C3 7235   1.907   3.959  12.476
  477MPD2    C4 7236   1.906   3.826  12.516
  477MPD2    C5 7237   2.000   3.739  12.452
  477MPD2     H 7238   1.984   4.103  12.341
  477MPD2    H1 7239   1.839   3.790  12.593
  477MPD2    H2 7240   2.164   3.711  12.322
  477MPD2    H3 7241   1.997   3.633  12.475
  477MPD2     N 7242   1.828   4.058  12.542
  477MPD2    H5 7243   1.831   4.151  12.501
  477MPD2    N1 7244   2.169   3.967  12.221
  477MPD2    H7 7245   2.150   4.059  12.182
  478MPD2     C 7246   1.867   1.752  12.949
  478MPD2    C1 7247   1.923   1.747  13.075
  478MPD2    C2 7248   2.032   1.819  13.102
  478MPD2    C3 7249   2.066   1.933  13.028
  478MPD2    C4 7250   1.989   1.957  12.922
  478MPD2    C5 7251   1.906   1.860  12.874
  478MPD2     H 7252   2.071   1.809  13.202
  478MPD2    H1 7253   1.990   2.047  12.862
  478MPD2    H2 7254   1.778   1.698  12.917
  478MPD2    H3 7255   1.844   1.878  12.787
  478MPD2     N 7256   2.157   2.035  13.073
  478MPD2    H5 7257   2.169   2.117  13.015
  478MPD2    N1 7258   1.878   1.658  13.182
  478MPD2    H7 7259   1.948   1.630  13.249
  479MPD2     C 7260   2.203   2.760  13.128
  479MPD2    C1 7261   2.253   2.711  13.247
  479MPD2    C2 7262   2.322   2.784  13.339
  479MPD2    C3 7263   2.346   2.916  13.300
  479MPD2    C4 7264   2.300   2.967  13.177
  479MPD2    C5 7265   2.220   2.892  13.102
  479MPD2     H 7266   2.354   2.751  13.437
  479MPD2    H1 7267   2.324   3.064  13.136
  479MPD2    H2 7268   2.143   2.699  13.061
  479MPD2    H3 7269   2.184   2.930  13.007
  479MPD2     N 7270   2.435   3.003  13.368
  479MPD2    H5 7271   2.458   3.091  13.321
  479MPD2    N1 7272   2.236   2.574  13.276
  479MPD2    H7 7273   2.256   2.540  13.370
  480MPD2     C 7274   3.376   3.243   8.074
  480MPD2    C1 7275   3.249   3.196   8.051
  480MPD2    C2 7276   3.181   3.107   8.134
  480MPD2    C3 7277   3.244   3.067   8.250
  480MPD2    C4 7278   3.369   3.129   8.282
  480MPD2    C5 7279   3.438   3.219   8.194
  480MPD2     H 7280   3.080   3.073   8.111
  480MPD2    H1 7281   3.419   3.120   8.378
  480MPD2    H2 7282   3.423   3.319   8.013
  480MPD2    H3 7283   3.533   3.265   8.217
  480MPD2     N 7284   3.194   2.976   8.352
  480MPD2    H5 7285   3.249   2.975   8.437
  480MPD2    N1 7286   3.195   3.257   7.939
  480MPD2    H7 7287   3.266   3.299   7.881
  481MPD2     C 7288   2.636   4.763  13.988
  481MPD2    C1 7289   2.768   4.718  13.953
  481MPD2    C2 7290   2.841   4.648  14.046
  481MPD2    C3 7291   2.785   4.621  14.169
  481MPD2    C4 7292   2.658   4.662  14.201
  481MPD2    C5 7293   2.588   4.741  14.118
  481MPD2     H 7294   2.942   4.614  14.023
  481MPD2    H1 7295   2.611   4.625  14.291
  481MPD2    H2 7296   2.576   0.039  13.924
  481MPD2    H3 7297   2.494   4.779  14.156
  481MPD2     N 7298   2.858   4.545  14.261
  481MPD2    H5 7299   2.813   4.547  14.352
  481MPD2    N1 7300   2.820   4.754  13.824
  481MPD2    H7 7301   2.752   0.007  13.760
  482MPD2     C 7302   2.529   4.661  13.485
  482MPD2    C1 7303   2.620   4.754  13.438
  482MPD2    C2 7304   2.628   0.095  13.488
  482MPD2    C3 7305   2.546   0.136  13.596
  482MPD2    C4 7306   2.458   0.042  13.642
  482MPD2    C5 7307   2.453   4.702  13.596
  482MPD2     H 7308   2.686   0.173  13.441
  482MPD2    H1 7309   2.379   0.060  13.715
  482MPD2    H2 7310   2.538   4.561  13.445
  482MPD2    H3 7311   2.389   4.636  13.654
  482MPD2     N 7312   2.567   0.262  13.656
  482MPD2    H5 7313   2.650   0.315  13.631
  482MPD2    N1 7314   2.699   4.696  13.338
  482MPD2    H7 7315   2.652   4.624  13.284
  483MPD2     C 7316   3.496   0.597  13.559
  483MPD2    C1 7317   3.493   0.529  13.440
  483MPD2    C2 7318   3.405   0.425  13.433
  483MPD2    C3 7319   3.325   0.396  13.542
  483MPD2    C4 7320   3.352   0.457  13.665
  483MPD2    C5 7321   3.438   0.558  13.669
  483MPD2     H 7322   3.396   0.368  13.341
  483MPD2    H1 7323   3.296   0.441  13.756
  483MPD2    H2 7324   3.561   0.681  13.579
  483MPD2    H3 7325   3.463   0.619  13.755
  483MPD2     N 7326   3.232   0.287  13.549
  483MPD2    H5 7327   3.193   0.261  13.639
  483MPD2    N1 7328   3.578   0.588  13.338
  483MPD2    H7 7329   3.634   0.669  13.364
  484MPD2     C 7330   1.481   2.200  10.667
  484MPD2    C1 7331   1.388   2.123  10.734
  484MPD2    C2 7332   1.261   2.100  10.688
  484MPD2    C3 7333   1.222   2.166  10.572
  484MPD2    C4 7334   1.312   2.249  10.505
  484MPD2    C5 7335   1.436   2.263  10.561
  484MPD2     H 7336   1.190   2.045  10.749
  484MPD2    H1 7337   1.283   2.315  10.424
  484MPD2    H2 7338   1.585   2.215  10.695
  484MPD2    H3 7339   1.516   2.317  10.511
  484MPD2     N 7340   1.091   2.169  10.517
  484MPD2    H5 7341   1.076   2.230  10.438
  484MPD2    N1 7342   1.434   2.073  10.857
  484MPD2    H7 7343   1.531   2.093  10.878
  485MPD2     C 7344   3.789   1.935  11.624
  485MPD2    C1 7345   3.858   1.838  11.548
  485MPD2    C2 7346   3.785   1.763  11.455
  485MPD2    C3 7347   3.652   1.779  11.442
  485MPD2    C4 7348   3.586   1.875  11.514
  485MPD2    C5 7349   3.657   1.961  11.594
  485MPD2     H 7350   3.834   1.691  11.390
  485MPD2    H1 7351   3.477   1.874  11.510
  485MPD2    H2 7352   3.843   2.001  11.692
  485MPD2    H3 7353   3.602   2.035  11.651
  485MPD2     N 7354   3.578   1.691  11.358
  485MPD2    H5 7355   3.480   1.715  11.347
  485MPD2    N1 7356   3.998   1.816  11.577
  485MPD2    H7 7357   4.040   1.874  11.650
  486MPD2     C 7358   3.795   1.489  12.007
  486MPD2    C1 7359   3.819   1.572  11.903
  486MPD2    C2 7360   3.839   1.708  11.922
  486MPD2    C3 7361   3.855   1.755  12.051
  486MPD2    C4 7362   3.827   1.669  12.156
  486MPD2    C5 7363   3.801   1.535  12.134
  486MPD2     H 7364   3.851   1.773  11.836
  486MPD2    H1 7365   3.838   1.698  12.260
  486MPD2    H2 7366   3.770   1.384  11.999
  486MPD2    H3 7367   3.786   1.461  12.212
  486MPD2     N 7368   3.891   1.895  12.065
  486MPD2    H5 7369   3.944   1.934  11.988
  486MPD2    N1 7370   3.806   1.536  11.762
  486MPD2    H7 7371   3.807   1.617  11.701
  487MPD2     C 7372   1.959   4.314   7.735
  487MPD2    C1 7373   1.973   4.353   7.603
  487MPD2    C2 7374   2.060   4.272   7.526
  487MPD2    C3 7375   2.115   4.157   7.570
  487MPD2    C4 7376   2.107   4.125   7.705
  487MPD2    C5 7377   2.027   4.202   7.783
  487MPD2     H 7378   2.081   4.296   7.422
  487MPD2    H1 7379   2.160   4.044   7.753
  487MPD2    H2 7380   1.899   4.374   7.804
  487MPD2    H3 7381   2.021   4.179   7.888
  487MPD2     N 7382   2.191   4.077   7.480
  487MPD2    H5 7383   2.204   4.115   7.387
  487MPD2    N1 7384   1.888   4.454   7.550
  487MPD2    H7 7385   1.817   4.482   7.617
  488MPD2     C 7386   2.599   3.457   7.737
  488MPD2    C1 7387   2.647   3.577   7.697
  488MPD2    C2 7388   2.759   3.621   7.757
  488MPD2    C3 7389   2.810   3.547   7.871
  488MPD2    C4 7390   2.752   3.430   7.907
  488MPD2    C5 7391   2.646   3.386   7.840
  488MPD2     H 7392   2.816   3.700   7.711
  488MPD2    H1 7393   2.795   3.379   7.993
  488MPD2    H2 7394   2.504   3.422   7.696
  488MPD2    H3 7395   2.585   3.307   7.884
  488MPD2     N 7396   2.929   3.584   7.943
  488MPD2    H5 7397   2.963   3.529   8.021
  488MPD2    N1 7398   2.566   3.654   7.609
  488MPD2    H7 7399   2.470   3.623   7.607
  489MPD2     C 7400   1.056   2.567  11.511
  489MPD2    C1 7401   1.032   2.702  11.507
  489MPD2    C2 7402   0.902   2.758  11.511
  489MPD2    C3 7403   0.794   2.685  11.553
  489MPD2    C4 7404   0.817   2.551  11.573
  489MPD2    C5 7405   0.943   2.498  11.545
  489MPD2     H 7406   0.892   2.864  11.495
  489MPD2    H1 7407   0.734   2.486  11.597
  489MPD2    H2 7408   1.151   2.514  11.506
  489MPD2    H3 7409   0.960   2.392  11.560
  489MPD2     N 7410   0.674   2.753  11.551
  489MPD2    H5 7411   0.677   2.843  11.504
  489MPD2    N1 7412   1.144   2.780  11.484
  489MPD2    H7 7413   1.138   2.880  11.502
  490MPD2     C 7414   3.490   3.002  13.753
  490MPD2    C1 7415   3.579   3.069  13.827
  490MPD2    C2 7416   3.642   3.182  13.765
  490MPD2    C3 7417   3.601   3.220  13.637
  490MPD2    C4 7418   3.501   3.153  13.572
  490MPD2    C5 7419   3.454   3.042  13.631
  490MPD2     H 7420   3.719   3.239  13.815
  490MPD2    H1 7421   3.471   3.173  13.470
  490MPD2    H2 7422   3.452   2.911  13.796
  490MPD2    H3 7423   3.385   2.977  13.578
  490MPD2     N 7424   3.663   3.341  13.587
  490MPD2    H5 7425   3.693   3.407  13.658
  490MPD2    N1 7426   3.616   3.019  13.955
  490MPD2    H7 7427   3.565   2.936  13.983
  491MPD2     C 7428   3.776   3.886  12.817
  491MPD2    C1 7429   3.658   3.899  12.888
  491MPD2    C2 7430   3.606   3.779  12.941
  491MPD2    C3 7431   3.667   3.658  12.929
  491MPD2    C4 7432   3.790   3.651  12.868
  491MPD2    C5 7433   3.843   3.767  12.808
  491MPD2     H 7434   3.512   3.774  12.996
  491MPD2    H1 7435   3.854   3.564  12.871
  491MPD2    H2 7436   3.826   3.978  12.789
  491MPD2    H3 7437   3.948   3.763  12.780
  491MPD2     N 7438   3.621   3.544  13.000
  491MPD2    H5 7439   3.539   3.558  13.058
  491MPD2    N1 7440   3.604   4.027  12.918
  491MPD2    H7 7441   3.521   4.023  12.977
  492MPD2     C 7442   0.615   1.739  12.280
  492MPD2    C1 7443   0.635   1.616  12.223
  492MPD2    C2 7444   0.588   1.597  12.094
  492MPD2    C3 7445   0.531   1.696  12.017
  492MPD2    C4 7446   0.526   1.817  12.075
  492MPD2    C5 7447   0.558   1.836  12.207
  492MPD2     H 7448   0.601   1.502  12.042
  492MPD2    H1 7449   0.476   1.899  12.023
  492MPD2    H2 7450   0.642   1.756  12.384
  492MPD2    H3 7451   0.546   1.934  12.253
  492MPD2     N 7452   0.497   1.668  11.885
  492MPD2    H5 7453   0.507   1.574  11.848
  492MPD2    N1 7454   0.719   1.515  12.281
  492MPD2    H7 7455   0.733   1.430  12.226
  493MPD2     C 7456   1.342   1.663  12.689
  493MPD2    C1 7457   1.285   1.657  12.566
  493MPD2    C2 7458   1.267   1.773  12.488
  493MPD2    C3 7459   1.316   1.894  12.530
  493MPD2    C4 7460   1.374   1.895  12.654
  493MPD2    C5 7461   1.390   1.783  12.727
  493MPD2     H 7462   1.209   1.758  12.398
  493MPD2    H1 7463   1.411   1.985  12.703
  493MPD2    H2 7464   1.352   1.572  12.748
  493MPD2    H3 7465   1.438   1.798  12.823
  493MPD2     N 7466   1.298   2.009  12.447
  493MPD2    H5 7467   1.273   1.989  12.351
  493MPD2    N1 7468   1.213   1.547  12.519
  493MPD2    H7 7469   1.164   1.567  12.432
  494MPD2     C 7470   3.234   2.511  11.026
  494MPD2    C1 7471   3.290   2.432  11.114
  494MPD2    C2 7472   3.426   2.406  11.106
  494MPD2    C3 7473   3.504   2.473  11.008
  494MPD2    C4 7474   3.442   2.554  10.920
  494MPD2    C5 7475   3.313   2.575  10.933
  494MPD2     H 7476   3.475   2.334  11.171
  494MPD2    H1 7477   3.494   2.614  10.846
  494MPD2    H2 7478   3.128   2.533  11.024
  494MPD2    H3 7479   3.265   2.652  10.874
  494MPD2     N 7480   3.640   2.446  11.006
  494MPD2    H5 7481   3.679   2.397  11.086
  494MPD2    N1 7482   3.211   2.355  11.212
  494MPD2    H7 7483   3.255   2.292  11.280
  495MPD2     C 7484   2.636   1.562  11.118
  495MPD2    C1 7485   2.666   1.542  11.249
  495MPD2    C2 7486   2.726   1.649  11.319
  495MPD2    C3 7487   2.760   1.767  11.249
  495MPD2    C4 7488   2.719   1.779  11.114
  495MPD2    C5 7489   2.662   1.677  11.050
  495MPD2     H 7490   2.755   1.638  11.422
  495MPD2    H1 7491   2.732   1.874  11.063
  495MPD2    H2 7492   2.605   1.477  11.058
  495MPD2    H3 7493   2.631   1.678  10.946
  495MPD2     N 7494   2.815   1.881  11.319
  495MPD2    H5 7495   2.836   1.872  11.418
  495MPD2    N1 7496   2.656   1.414  11.313
  495MPD2    H7 7497   2.712   1.395  11.395
  496MPD2     C 7498   2.750   1.138   9.370
  496MPD2    C1 7499   2.616   1.117   9.405
  496MPD2    C2 7500   2.572   1.137   9.531
  496MPD2    C3 7501   2.665   1.163   9.634
  496MPD2    C4 7502   2.793   1.183   9.602
  496MPD2    C5 7503   2.840   1.174   9.471
  496MPD2     H 7504   2.467   1.122   9.555
  496MPD2    H1 7505   2.867   1.209   9.676
  496MPD2    H2 7506   2.782   1.126   9.267
  496MPD2    H3 7507   2.945   1.186   9.445
  496MPD2     N 7508   2.602   1.189   9.758
  496MPD2    H5 7509   2.501   1.185   9.764
  496MPD2    N1 7510   2.520   1.075   9.310
  496MPD2    H7 7511   2.426   1.053   9.342
  497MPD2     C 7512   4.449   1.660   9.252
  497MPD2    C1 7513   4.452   1.591   9.131
  497MPD2    C2 7514   4.361   1.492   9.106
  497MPD2    C3 7515   4.271   1.455   9.198
  497MPD2    C4 7516   4.275   1.514   9.320
  497MPD2    C5 7517   4.359   1.619   9.343
  497MPD2     H 7518   4.360   1.437   9.012
  497MPD2    H1 7519   4.211   1.495   9.406
  497MPD2    H2 7520   4.506   1.750   9.267
  497MPD2    H3 7521   4.362   1.660   9.443
  497MPD2     N 7522   4.184   1.349   9.174
  497MPD2    H5 7523   4.213   1.286   9.099
  497MPD2    N1 7524   4.554   1.621   9.039
  497MPD2    H7 7525   4.617   1.696   9.068
  498MPD2     C 7526   3.645   1.261   9.694
  498MPD2    C1 7527   3.760   1.183   9.703
  498MPD2    C2 7528   3.835   1.177   9.822
  498MPD2    C3 7529   3.795   1.269   9.926
  498MPD2    C4 7530   3.688   1.357   9.908
  498MPD2    C5 7531   3.603   1.340   9.801
  498MPD2     H 7532   3.931   1.126   9.825
  498MPD2    H1 7533   3.655   1.429   9.982
  498MPD2    H2 7534   3.583   1.273   9.606
  498MPD2    H3 7535   3.512   1.398   9.792
  498MPD2     N 7536   3.893   1.291  10.023
  498MPD2    H5 7537   3.955   1.213  10.042
  498MPD2    N1 7538   3.804   1.123   9.581
  498MPD2    H7 7539   3.747   1.133   9.498
  499MPD2     C 7540   4.592   1.380   9.598
  499MPD2    C1 7541   4.491   1.300   9.644
  499MPD2    C2 7542   4.432   1.208   9.558
  499MPD2    C3 7543   4.458   1.200   9.427
  499MPD2    C4 7544   4.543   1.294   9.381
  499MPD2    C5 7545   4.616   1.376   9.465
  499MPD2     H 7546   4.366   1.139   9.609
  499MPD2    H1 7547   4.575   1.285   9.278
  499MPD2    H2 7548   4.636   1.452   9.666
  499MPD2    H3 7549   4.689   1.446   9.427
  499MPD2     N 7550   4.386   1.106   9.345
  499MPD2    H5 7551   4.378   1.120   9.245
  499MPD2    N1 7552   4.446   1.309   9.770
  499MPD2    H7 7553   4.503   1.356   9.840
  500MPD2     C 7554   1.951   3.339  11.770
  500MPD2    C1 7555   1.926   3.238  11.684
  500MPD2    C2 7556   1.867   3.269  11.567
  500MPD2    C3 7557   1.831   3.399  11.537
  500MPD2    C4 7558   1.868   3.500  11.620
  500MPD2    C5 7559   1.923   3.470  11.735
  500MPD2     H 7560   1.859   3.197  11.487
  500MPD2    H1 7561   1.858   3.604  11.591
  500MPD2    H2 7562   2.000   3.321  11.865
  500MPD2    H3 7563   1.960   3.544  11.805
  500MPD2     N 7564   1.780   3.419  11.406
  500MPD2    H5 7565   1.750   3.339  11.351
  500MPD2    N1 7566   1.987   3.115  11.704
  500MPD2    H7 7567   2.064   3.103  11.768
  501MPD2     C 7568   2.629   3.055  11.691
  501MPD2    C1 7569   2.545   3.130  11.611
  501MPD2    C2 7570   2.569   3.273  11.592
  501MPD2    C3 7571   2.679   3.322  11.655
  501MPD2    C4 7572   2.768   3.240  11.731
  501MPD2    C5 7573   2.734   3.110  11.752
  501MPD2     H 7574   2.494   3.327  11.536
  501MPD2    H1 7575   2.848   3.285  11.789
  501MPD2    H2 7576   2.624   2.947  11.701
  501MPD2    H3 7577   2.798   3.058  11.823
  501MPD2     N 7578   2.713   3.460  11.664
  501MPD2    H5 7579   2.794   3.477  11.723
  501MPD2    N1 7580   2.428   3.078  11.553
  501MPD2    H7 7581   2.376   3.147  11.500
  502MPD2     C 7582   1.786   2.429  11.305
  502MPD2    C1 7583   1.908   2.448  11.365
  502MPD2    C2 7584   1.977   2.342  11.413
  502MPD2    C3 7585   1.927   2.213  11.388
  502MPD2    C4 7586   1.808   2.194  11.323
  502MPD2    C5 7587   1.739   2.307  11.284
  502MPD2     H 7588   2.068   2.357  11.470
  502MPD2    H1 7589   1.776   2.093  11.298
  502MPD2    H2 7590   1.723   2.511  11.271
  502MPD2    H3 7591   1.653   2.291  11.221
  502MPD2     N 7592   2.004   2.105  11.435
  502MPD2    H5 7593   2.097   2.126  11.469
  502MPD2    N1 7594   1.946   2.581  11.378
  502MPD2    H7 7595   1.869   2.647  11.374
  503MPD2     C 7596   3.346   3.168  10.764
  503MPD2    C1 7597   3.461   3.164  10.690
  503MPD2    C2 7598   3.574   3.107  10.750
  503MPD2    C3 7599   3.563   3.069  10.880
  503MPD2    C4 7600   3.446   3.087  10.953
  503MPD2    C5 7601   3.333   3.133  10.889
  503MPD2     H 7602   3.669   3.112  10.699
  503MPD2    H1 7603   3.449   3.061  11.058
  503MPD2    H2 7604   3.255   3.194  10.711
  503MPD2    H3 7605   3.243   3.137  10.950
  503MPD2     N 7606   3.679   3.030  10.962
  503MPD2    H5 7607   3.675   3.047  11.062
  503MPD2    N1 7608   3.453   3.197  10.555
  503MPD2    H7 7609   3.364   3.236  10.527
  504MPD2     C 7610   3.307   2.625  10.553
  504MPD2    C1 7611   3.349   2.754  10.562
  504MPD2    C2 7612   3.261   2.865  10.545
  504MPD2    C3 7613   3.133   2.838  10.524
  504MPD2    C4 7614   3.085   2.708  10.522
  504MPD2    C5 7615   3.178   2.609  10.518
  504MPD2     H 7616   3.300   2.966  10.553
  504MPD2    H1 7617   2.980   2.679  10.517
  504MPD2    H2 7618   3.363   2.538  10.586
  504MPD2    H3 7619   3.144   2.506  10.516
  504MPD2     N 7620   3.054   2.949  10.516
  504MPD2    H5 7621   3.106   3.037  10.519
  504MPD2    N1 7622   3.487   2.776  10.599
  504MPD2    H7 7623   3.517   2.868  10.629
  505MPD2     C 7624   4.345   0.873  12.656
  505MPD2    C1 7625   4.384   0.913  12.530
  505MPD2    C2 7626   4.522   0.900  12.491
  505MPD2    C3 7627   4.611   0.845  12.586
  505MPD2    C4 7628   4.565   0.792  12.711
  505MPD2    C5 7629   4.433   0.810  12.736
  505MPD2     H 7630   4.558   0.923  12.391
  505MPD2    H1 7631   4.627   0.742  12.785
  505MPD2    H2 7632   4.241   0.881  12.684
  505MPD2    H3 7633   4.391   0.763  12.825
  505MPD2     N 7634   4.752   0.855  12.555
  505MPD2    H5 7635   4.778   0.926  12.488
  505MPD2    N1 7636   4.284   0.989  12.451
  505MPD2    H7 7637   4.191   1.004  12.489
  506MPD2     C 7638   0.838   2.235  11.364
  506MPD2    C1 7639   0.748   2.150  11.296
  506MPD2    C2 7640   0.792   2.055  11.212
  506MPD2    C3 7641   0.923   2.058  11.164
  506MPD2    C4 7642   1.009   2.145  11.215
  506MPD2    C5 7643   0.970   2.225  11.321
  506MPD2     H 7644   0.721   1.979  11.179
  506MPD2    H1 7645   1.112   2.155  11.184
  506MPD2    H2 7646   0.809   2.308  11.439
  506MPD2    H3 7647   1.043   2.293  11.364
  506MPD2     N 7648   0.954   2.002  11.040
  506MPD2    H5 7649   1.008   2.064  10.981
  506MPD2    N1 7650   0.610   2.169  11.308
  506MPD2    H7 7651   0.551   2.099  11.264
  507MPD2     C 7652   0.105   2.797  11.071
  507MPD2    C1 7653   0.238   2.774  11.084
  507MPD2    C2 7654   0.327   2.880  11.090
  507MPD2    C3 7655   0.289   3.010  11.067
  507MPD2    C4 7656   0.155   3.035  11.059
  507MPD2    C5 7657   0.072   2.932  11.065
  507MPD2     H 7658   0.432   2.855  11.095
  507MPD2    H1 7659   0.107   3.132  11.053
  507MPD2    H2 7660   0.031   2.720  11.091
  507MPD2    H3 7661   4.756   2.963  11.065
  507MPD2     N 7662   0.376   3.122  11.080
  507MPD2    H5 7663   0.335   3.215  11.074
  507MPD2    N1 7664   0.287   2.644  11.109
  507MPD2    H7 7665   0.378   2.641  11.155
  508MPD2     C 7666   1.556   0.121  14.700
  508MPD2    C1 7667   1.536   0.236  14.778
  508MPD2    C2 7668   1.406   0.286  14.789
  508MPD2    C3 7669   1.300   0.207  14.739
  508MPD2    C4 7670   1.324   0.085  14.674
  508MPD2    C5 7671   1.453   0.041  14.655
  508MPD2     H 7672   1.385   0.375  14.847
  508MPD2    H1 7673   1.246   0.031  14.621
  508MPD2    H2 7674   1.653   0.074  14.686
  508MPD2    H3 7675   1.470   4.742  14.593
  508MPD2     N 7676   1.163   0.245  14.739
  508MPD2    H5 7677   1.091   0.175  14.730
  508MPD2    N1 7678   1.649   0.310  14.819
  508MPD2    H7 7679   1.742   0.281  14.792
  509MPD2     C 7680   1.728   1.080  14.782
  509MPD2    C1 7681   1.849   1.024  14.800
  509MPD2    C2 7682   1.969   1.102  14.808
  509MPD2    C3 7683   1.962   1.230  14.762
  509MPD2    C4 7684   1.838   1.284  14.729
  509MPD2    C5 7685   1.722   1.213  14.742
  509MPD2     H 7686   2.068   1.064  14.830
  509MPD2    H1 7687   1.831   1.384  14.689
  509MPD2    H2 7688   1.631   1.039  14.809
  509MPD2    H3 7689   1.628   1.265  14.730
  509MPD2     N 7690   2.090   1.305  14.755
  509MPD2    H5 7691   2.170   1.253  14.790
  509MPD2    N1 7692   1.841   0.891  14.848
  509MPD2    H7 7693   1.752   0.842  14.852
  510MPD2     C 7694   0.414   2.797  14.415
  510MPD2    C1 7695   0.376   2.926  14.440
  510MPD2    C2 7696   0.452   3.020  14.376
  510MPD2    C3 7697   0.576   3.000  14.331
  510MPD2    C4 7698   0.616   2.869  14.319
  510MPD2    C5 7699   0.533   2.768  14.353
  510MPD2     H 7700   0.406   3.116  14.358
  510MPD2    H1 7701   0.708   2.842  14.267
  510MPD2    H2 7702   0.361   2.709  14.451
  510MPD2    H3 7703   0.560   2.664  14.335
  510MPD2     N 7704   0.661   3.097  14.270
  510MPD2    H5 7705   0.727   3.054  14.206
  510MPD2    N1 7706   0.258   2.962  14.501
  510MPD2    H7 7707   0.253   3.062  14.518
  511MPD2     C 7708   0.845   3.077  15.131
  511MPD2    C1 7709   0.897   3.040  15.013
  511MPD2    C2 7710   0.842   3.093  14.897
  511MPD2    C3 7711   0.748   3.191  14.895
  511MPD2    C4 7712   0.705   3.240  15.019
  511MPD2    C5 7713   0.752   3.174  15.134
  511MPD2     H 7714   0.878   3.061  14.799
  511MPD2    H1 7715   0.622   3.309  15.030
  511MPD2    H2 7716   0.875   3.037  15.227
  511MPD2    H3 7717   0.708   3.202  15.229
  511MPD2     N 7718   0.693   3.229  14.768
  511MPD2    H5 7719   0.737   3.185  14.687
  511MPD2    N1 7720   1.000   2.943  14.997
  511MPD2    H7 7721   1.052   2.942  14.910
  512MPD2     C 7722   4.638   1.720  10.273
  512MPD2    C1 7723   4.636   1.582  10.250
  512MPD2    C2 7724   4.754   1.507  10.260
  512MPD2    C3 7725   0.089   1.569  10.285
  512MPD2    C4 7726   0.087   1.708  10.311
  512MPD2    C5 7727   4.758   1.783  10.293
  512MPD2     H 7728   4.752   1.399  10.253
  512MPD2    H1 7729   0.172   1.769  10.338
  512MPD2    H2 7730   4.548   1.780  10.267
  512MPD2    H3 7731   4.763   1.889  10.317
  512MPD2     N 7732   0.214   1.509  10.299
  512MPD2    H5 7733   0.273   1.585  10.330
  512MPD2    N1 7734   4.521   1.517  10.203
  512MPD2    H7 7735   4.528   1.423  10.164
  513MPD2     C 7736   0.274   3.548  11.406
  513MPD2    C1 7737   0.398   3.488  11.389
  513MPD2    C2 7738   0.426   3.368  11.444
  513MPD2    C3 7739   0.330   3.297  11.512
  513MPD2    C4 7740   0.219   3.365  11.548
  513MPD2    C5 7741   0.190   3.482  11.485
  513MPD2     H 7742   0.512   3.305  11.424
  513MPD2    H1 7743   0.139   3.311  11.595
  513MPD2    H2 7744   0.237   3.637  11.356
  513MPD2    H3 7745   0.094   3.529  11.501
  513MPD2     N 7746   0.361   3.166  11.549
  513MPD2    H5 7747   0.450   3.130  11.516
  513MPD2    N1 7748   0.494   3.567  11.312
  513MPD2    H7 7749   0.475   3.664  11.285
  514MPD2     C 7750   1.718   4.345  15.221
  514MPD2    C1 7751   1.752   4.236  15.139
  514MPD2    C2 7752   1.650   4.160  15.076
  514MPD2    C3 7753   1.522   4.216  15.078
  514MPD2    C4 7754   1.493   4.328  15.143
  514MPD2    C5 7755   1.587   4.383  15.221
  514MPD2     H 7756   1.660   4.066  15.024
  514MPD2    H1 7757   1.396   4.375  15.154
  514MPD2    H2 7758   1.783   4.408  15.280
  514MPD2    H3 7759   1.567   4.472  15.278
  514MPD2     N 7760   1.427   4.154  14.995
  514MPD2    H5 7761   1.449   4.064  14.954
  514MPD2    N1 7762   1.890   4.213  15.116
  514MPD2    H7 7763   1.949   4.287  15.152
  515MPD2     C 7764   3.633   0.460   7.700
  515MPD2    C1 7765   3.656   0.582   7.765
  515MPD2    C2 7766   3.564   0.620   7.864
  515MPD2    C3 7767   3.452   0.546   7.889
  515MPD2    C4 7768   3.430   0.427   7.818
  515MPD2    C5 7769   3.519   0.386   7.723
  515MPD2     H 7770   3.581   0.710   7.922
  515MPD2    H1 7771   3.343   0.362   7.827
  515MPD2    H2 7772   3.691   0.423   7.617
  515MPD2    H3 7773   3.512   0.288   7.679
  515MPD2     N 7774   3.353   0.604   7.978
  515MPD2    H5 7775   3.376   0.698   8.009
  515MPD2    N1 7776   3.767   0.659   7.717
  515MPD2    H7 7777   3.806   0.625   7.630
  516MPD2     C 7778   3.278   1.188   8.374
  516MPD2    C1 7779   3.306   1.052   8.385
  516MPD2    C2 7780   3.424   1.020   8.450
  516MPD2    C3 7781   3.510   1.109   8.509
  516MPD2    C4 7782   3.478   1.238   8.497
  516MPD2    C5 7783   3.363   1.278   8.427
  516MPD2     H 7784   3.456   0.917   8.458
  516MPD2    H1 7785   3.539   1.323   8.524
  516MPD2    H2 7786   3.187   1.228   8.331
  516MPD2    H3 7787   3.342   1.385   8.429
  516MPD2     N 7788   3.630   1.076   8.581
  516MPD2    H5 7789   3.664   1.149   8.643
  516MPD2    N1 7790   3.231   0.949   8.309
  516MPD2    H7 7791   3.271   0.856   8.310
  517MPD2     C 7792   2.313   0.904   7.892
  517MPD2    C1 7793   2.372   0.796   7.828
  517MPD2    C2 7794   2.507   0.770   7.862
  517MPD2    C3 7795   2.580   0.868   7.930
  517MPD2    C4 7796   2.519   0.984   7.981
  517MPD2    C5 7797   2.381   1.001   7.960
  517MPD2     H 7798   2.559   0.681   7.827
  517MPD2    H1 7799   2.567   1.055   8.048
  517MPD2    H2 7800   2.207   0.920   7.879
  517MPD2    H3 7801   2.331   1.081   8.014
  517MPD2     N 7802   2.718   0.859   7.966
  517MPD2    H5 7803   2.750   0.936   8.024
  517MPD2    N1 7804   2.288   0.706   7.763
  517MPD2    H7 7805   2.187   0.710   7.769
  518MPD2     C 7806   0.329   2.792  13.449
  518MPD2    C1 7807   0.327   2.796  13.311
  518MPD2    C2 7808   0.366   2.904  13.243
  518MPD2    C3 7809   0.410   3.017  13.308
  518MPD2    C4 7810   0.403   3.016  13.446
  518MPD2    C5 7811   0.359   2.908  13.522
  518MPD2     H 7812   0.361   2.896  13.135
  518MPD2    H1 7813   0.428   3.107  13.498
  518MPD2    H2 7814   0.306   2.713  13.520
  518MPD2    H3 7815   0.353   2.908  13.631
  518MPD2     N 7816   0.461   3.130  13.236
  518MPD2    H5 7817   0.516   3.192  13.294
  518MPD2    N1 7818   0.293   2.680  13.244
  518MPD2    H7 7819   0.272   2.605  13.309
  519MPD2     C 7820   0.304   1.768  13.524
  519MPD2    C1 7821   0.400   1.791  13.423
  519MPD2    C2 7822   0.389   1.908  13.344
  519MPD2    C3 7823   0.285   1.992  13.353
  519MPD2    C4 7824   0.190   1.975  13.452
  519MPD2    C5 7825   0.199   1.860  13.534
  519MPD2     H 7826   0.463   1.918  13.266
  519MPD2    H1 7827   0.102   2.034  13.472
  519MPD2    H2 7828   0.315   1.678  13.584
  519MPD2    H3 7829   0.140   1.856  13.624
  519MPD2     N 7830   0.279   2.090  13.254
  519MPD2    H5 7831   0.355   2.082  13.187
  519MPD2    N1 7832   0.510   1.698  13.408
  519MPD2    H7 7833   0.580   1.728  13.341
  520MPD2     C 7834   1.070   2.087  12.764
  520MPD2    C1 7835   1.121   2.142  12.875
  520MPD2    C2 7836   1.056   2.135  12.994
  520MPD2    C3 7837   0.930   2.076  13.000
  520MPD2    C4 7838   0.881   2.016  12.882
  520MPD2    C5 7839   0.950   2.024  12.765
  520MPD2     H 7840   1.096   2.186  13.081
  520MPD2    H1 7841   0.782   1.974  12.875
  520MPD2    H2 7842   1.125   2.086  12.670
  520MPD2    H3 7843   0.906   1.981  12.676
  520MPD2     N 7844   0.828   2.083  13.104
  520MPD2    H5 7845   0.755   2.014  13.095
  520MPD2    N1 7846   1.239   2.219  12.857
  520MPD2    H7 7847   1.284   2.213  12.766
  521MPD2     C 7848   1.024   3.889   9.000
  521MPD2    C1 7849   1.155   3.846   8.994
  521MPD2    C2 7850   1.184   3.755   8.892
  521MPD2    C3 7851   1.096   3.723   8.787
  521MPD2    C4 7852   0.968   3.779   8.789
  521MPD2    C5 7853   0.935   3.860   8.896
  521MPD2     H 7854   1.281   3.707   8.890
  521MPD2    H1 7855   0.894   3.770   8.711
  521MPD2    H2 7856   1.002   3.956   9.082
  521MPD2    H3 7857   0.839   3.908   8.912
  521MPD2     N 7858   1.145   3.637   8.686
  521MPD2    H5 7859   1.244   3.619   8.688
  521MPD2    N1 7860   1.248   3.868   9.103
  521MPD2    H7 7861   1.212   3.921   9.182
  522MPD2     C 7862   1.971   3.996   9.185
  522MPD2    C1 7863   1.932   3.889   9.262
  522MPD2    C2 7864   1.986   3.877   9.384
  522MPD2    C3 7865   2.083   3.964   9.431
  522MPD2    C4 7866   2.113   4.073   9.353
  522MPD2    C5 7867   2.057   4.090   9.226
  522MPD2     H 7868   1.957   3.804   9.459
  522MPD2    H1 7869   2.187   4.150   9.372
  522MPD2    H2 7870   1.908   4.015   9.098
  522MPD2    H3 7871   2.079   4.178   9.167
  522MPD2     N 7872   2.147   3.935   9.550
  522MPD2    H5 7873   2.131   3.841   9.584
  522MPD2    N1 7874   1.828   3.806   9.224
  522MPD2    H7 7875   1.777   3.822   9.138
  523MPD2     C 7876   1.320   3.420   9.985
  523MPD2    C1 7877   1.385   3.332   9.901
  523MPD2    C2 7878   1.431   3.377   9.779
  523MPD2    C3 7879   1.397   3.505   9.735
  523MPD2    C4 7880   1.329   3.592   9.819
  523MPD2    C5 7881   1.293   3.550   9.945
  523MPD2     H 7882   1.485   3.305   9.717
  523MPD2    H1 7883   1.310   3.696   9.794
  523MPD2    H2 7884   1.311   3.386  10.088
  523MPD2    H3 7885   1.247   3.623  10.009
  523MPD2     N 7886   1.434   3.547   9.602
  523MPD2    H5 7887   1.488   3.475   9.556
  523MPD2    N1 7888   1.410   3.204   9.955
  523MPD2    H7 7889   1.382   3.182  10.051
  524MPD2     C 7890   4.768   1.812   9.856
  524MPD2    C1 7891   0.019   1.830   9.725
  524MPD2    C2 7892   0.081   1.724   9.663
  524MPD2    C3 7893   0.097   1.602   9.719
  524MPD2    C4 7894   0.035   1.583   9.842
  524MPD2    C5 7895   4.776   1.686   9.916
  524MPD2     H 7896   0.121   1.742   9.564
  524MPD2    H1 7897   0.029   1.485   9.890
  524MPD2    H2 7898   4.728   1.896   9.912
  524MPD2    H3 7899   4.750   1.668  10.020
  524MPD2     N 7900   0.182   1.502   9.660
  524MPD2    H5 7901   0.174   1.405   9.688
  524MPD2    N1 7902   4.786   1.952   9.664
  524MPD2    H7 7903   4.784   2.035   9.722
  525MPD2     C 7904   4.772   1.278   8.743
  525MPD2    C1 7905   0.097   1.361   8.759
  525MPD2    C2 7906   0.163   1.360   8.879
  525MPD2    C3 7907   0.124   1.290   8.992
  525MPD2    C4 7908   0.004   1.219   8.982
  525MPD2    C5 7909   4.729   1.214   8.855
  525MPD2     H 7910   0.249   1.420   8.906
  525MPD2    H1 7911   4.754   1.165   9.069
  525MPD2    H2 7912   4.703   1.291   8.661
  525MPD2    H3 7913   4.635   1.161   8.844
  525MPD2     N 7914   0.202   1.298   9.111
  525MPD2    H5 7915   0.294   1.339   9.096
  525MPD2    N1 7916   0.127   1.449   8.653
  525MPD2    H7 7917   0.073   1.439   8.568
  526MPD2     C 7918   0.500   1.845   9.223
  526MPD2    C1 7919   0.456   1.716   9.194
  526MPD2    C2 7920   0.365   1.706   9.091
  526MPD2    C3 7921   0.310   1.818   9.028
  526MPD2    C4 7922   0.346   1.944   9.069
  526MPD2    C5 7923   0.432   1.955   9.171
  526MPD2     H 7924   0.336   1.609   9.053
  526MPD2    H1 7925   0.289   2.026   9.028
  526MPD2    H2 7926   0.577   1.874   9.293
  526MPD2    H3 7927   0.460   2.049   9.217
  526MPD2     N 7928   0.213   1.795   8.925
  526MPD2    H5 7929   0.200   1.696   8.907
  526MPD2    N1 7930   0.514   1.605   9.259
  526MPD2    H7 7931   0.550   1.617   9.353
  527MPD2     C 7932   2.263   4.546   9.849
  527MPD2    C1 7933   2.289   4.434   9.776
  527MPD2    C2 7934   2.411   4.370   9.792
  527MPD2    C3 7935   2.498   4.411   9.891
  527MPD2    C4 7936   2.460   4.510   9.971
  527MPD2    C5 7937   2.342   4.576   9.953
  527MPD2     H 7938   2.432   4.288   9.723
  527MPD2    H1 7939   2.523   4.540  10.054
  527MPD2    H2 7940   2.164   4.591   9.854
  527MPD2    H3 7941   2.323   4.660  10.018
  527MPD2     N 7942   2.628   4.344   9.905
  527MPD2    H5 7943   2.678   4.387   9.982
  527MPD2    N1 7944   2.191   4.360   9.703
  527MPD2    H7 7945   2.207   4.261   9.692
  528MPD2     C 7946   3.559   3.830   9.617
  528MPD2    C1 7947   3.568   3.968   9.590
  528MPD2    C2 7948   3.459   4.043   9.616
  528MPD2    C3 7949   3.351   3.994   9.679
  528MPD2    C4 7950   3.340   3.859   9.707
  528MPD2    C5 7951   3.450   3.780   9.681
  528MPD2     H 7952   3.446   4.147   9.592
  528MPD2    H1 7953   3.255   3.817   9.761
  528MPD2    H2 7954   3.638   3.759   9.594
  528MPD2    H3 7955   3.452   3.673   9.696
  528MPD2     N 7956   3.250   4.089   9.714
  528MPD2    H5 7957   3.262   4.182   9.675
  528MPD2    N1 7958   3.687   4.020   9.531
  528MPD2    H7 7959   3.766   3.960   9.510
  529MPD2     C 7960   0.105   1.161  10.525
  529MPD2    C1 7961   0.050   1.033  10.552
  529MPD2    C2 7962   0.129   0.931  10.611
  529MPD2    C3 7963   0.270   0.962  10.625
  529MPD2    C4 7964   0.312   1.088  10.595
  529MPD2    C5 7965   0.228   1.184  10.558
  529MPD2     H 7966   0.088   0.831  10.617
  529MPD2    H1 7967   0.415   1.121  10.590
  529MPD2    H2 7968   0.055   1.247  10.482
  529MPD2    H3 7969   0.267   1.282  10.536
  529MPD2     N 7970   0.359   0.872  10.671
  529MPD2    H5 7971   0.323   0.778  10.660
  529MPD2    N1 7972   4.703   1.010  10.515
  529MPD2    H7 7973   4.655   0.927  10.546
  530MPD2     C 7974   4.275   0.928   9.960
  530MPD2    C1 7975   4.308   1.026  10.050
  530MPD2    C2 7976   4.431   1.086  10.043
  530MPD2    C3 7977   4.525   1.041   9.954
  530MPD2    C4 7978   4.499   0.938   9.871
  530MPD2    C5 7979   4.372   0.886   9.873
  530MPD2     H 7980   4.452   1.169  10.110
  530MPD2    H1 7981   4.575   0.893   9.808
  530MPD2    H2 7982   4.173   0.895   9.949
  530MPD2    H3 7983   4.352   0.806   9.803
  530MPD2     N 7984   4.647   1.107   9.934
  530MPD2    H5 7985   4.707   1.069   9.862
  530MPD2    N1 7986   4.202   1.054  10.147
  530MPD2    H7 7987   4.114   1.012  10.119
  531MPD2     C 7988   4.361   1.417  10.916
  531MPD2    C1 7989   4.473   1.409  10.835
  531MPD2    C2 7990   4.600   1.414  10.888
  531MPD2    C3 7991   4.624   1.414  11.025
  531MPD2    C4 7992   4.515   1.411  11.108
  531MPD2    C5 7993   4.390   1.416  11.054
  531MPD2     H 7994   4.677   1.375  10.823
  531MPD2    H1 7995   4.519   1.407  11.216
  531MPD2    H2 7996   4.259   1.411  10.879
  531MPD2    H3 7997   4.311   1.417  11.129
  531MPD2     N 7998   4.754   1.377  11.073
  531MPD2    H5 7999   4.755   1.344  11.169
  531MPD2    N1 8000   4.465   1.401  10.698
  531MPD2    H7 8001   4.550   1.405  10.643
  532MPD2     C 8002   1.678   0.439   7.942
  532MPD2    C1 8003   1.683   0.363   7.825
  532MPD2    C2 8004   1.563   0.300   7.789
  532MPD2    C3 8005   1.444   0.299   7.867
  532MPD2    C4 8006   1.452   0.370   7.981
  532MPD2    C5 8007   1.563   0.436   8.015
  532MPD2     H 8008   1.572   0.226   7.710
  532MPD2    H1 8009   1.368   0.387   8.048
  532MPD2    H2 8010   1.760   0.500   7.977
  532MPD2    H3 8011   1.556   0.496   8.105
  532MPD2     N 8012   1.324   0.227   7.819
  532MPD2    H5 8013   1.351   0.150   7.758
  532MPD2    N1 8014   1.798   0.358   7.740
  532MPD2    H7 8015   1.779   0.325   7.646
  533MPD2     C 8016   0.464   4.749  10.970
  533MPD2    C1 8017   0.353   4.716  11.039
  533MPD2    C2 8018   0.230   4.724  10.971
  533MPD2    C3 8019   0.224   4.759  10.839
  533MPD2    C4 8020   0.340   0.001  10.775
  533MPD2    C5 8021   0.456   0.007  10.840
  533MPD2     H 8022   0.139   4.694  11.021
  533MPD2    H1 8023   0.332   0.043  10.676
  533MPD2    H2 8024   0.557   4.743  11.025
  533MPD2    H3 8025   0.546   0.025  10.783
  533MPD2     N 8026   0.107   4.757  10.760
  533MPD2    H5 8027   0.117   4.730  10.662
  533MPD2    N1 8028   0.361   4.677  11.178
  533MPD2    H7 8029   0.271   4.677  11.224
  534MPD2     C 8030   0.910   0.093  11.777
  534MPD2    C1 8031   0.865   4.752  11.770
  534MPD2    C2 8032   0.937   4.650  11.828
  534MPD2    C3 8033   1.061   4.686  11.884
  534MPD2    C4 8034   1.110   0.026  11.887
  534MPD2    C5 8035   1.034   0.126  11.828
  534MPD2     H 8036   0.913   4.544  11.828
  534MPD2    H1 8037   1.204   0.061  11.928
  534MPD2    H2 8038   0.846   0.171  11.739
  534MPD2    H3 8039   1.064   0.230  11.825
  534MPD2     N 8040   1.124   4.576  11.942
  534MPD2    H5 8041   1.069   4.491  11.936
  534MPD2    N1 8042   0.741   4.709  11.718
  534MPD2    H7 8043   0.731   4.608  11.716
  535MPD2     C 8044   4.053   1.463   7.633
  535MPD2    C1 8045   4.000   1.371   7.720
  535MPD2    C2 8046   3.940   1.414   7.835
  535MPD2    C3 8047   3.949   1.551   7.877
  535MPD2    C4 8048   3.983   1.638   7.785
  535MPD2    C5 8049   4.042   1.594   7.667
  535MPD2     H 8050   3.913   1.332   7.901
  535MPD2    H1 8051   3.982   1.743   7.811
  535MPD2    H2 8052   4.106   1.430   7.544
  535MPD2    H3 8053   4.088   1.659   7.593
  535MPD2     N 8054   3.903   1.575   8.008
  535MPD2    H5 8055   3.879   1.490   8.058
  535MPD2    N1 8056   3.998   1.234   7.704
  535MPD2    H7 8057   3.935   1.183   7.765
  536MPD2     C 8058   4.160   0.359   7.038
  536MPD2    C1 8059   4.052   0.440   7.012
  536MPD2    C2 8060   4.022   0.547   7.100
  536MPD2    C3 8061   4.090   0.556   7.222
  536MPD2    C4 8062   4.200   0.469   7.240
  536MPD2    C5 8063   4.239   0.377   7.147
  536MPD2     H 8064   3.935   0.611   7.088
  536MPD2    H1 8065   4.264   0.486   7.326
  536MPD2    H2 8066   4.199   0.298   6.958
  536MPD2    H3 8067   4.327   0.315   7.151
  536MPD2     N 8068   4.058   0.653   7.314
  536MPD2    H5 8069   3.965   0.691   7.308
  536MPD2    N1 8070   3.977   0.404   6.889
  536MPD2    H7 8071   4.024   0.336   6.830
  537MPD2     C 8072   1.531   4.762   7.700
  537MPD2    C1 8073   1.430   4.705   7.766
  537MPD2    C2 8074   1.303   4.722   7.714
  537MPD2    C3 8075   1.285   4.787   7.595
  537MPD2    C4 8076   1.396   0.054   7.532
  537MPD2    C5 8077   1.521   0.038   7.582
  537MPD2     H 8078   1.223   4.674   7.769
  537MPD2    H1 8079   1.380   0.109   7.440
  537MPD2    H2 8080   1.627   4.766   7.749
  537MPD2    H3 8081   1.609   0.082   7.536
  537MPD2     N 8082   1.155   0.045   7.555
  537MPD2    H5 8083   1.155   0.123   7.490
  537MPD2    N1 8084   1.448   4.622   7.877
  537MPD2    H7 8085   1.363   4.583   7.917
  538MPD2     C 8086   4.047   3.821   8.530
  538MPD2    C1 8087   4.040   3.958   8.515
  538MPD2    C2 8088   4.090   4.017   8.396
  538MPD2    C3 8089   4.136   3.943   8.292
  538MPD2    C4 8090   4.130   3.807   8.294
  538MPD2    C5 8091   4.086   3.751   8.418
  538MPD2     H 8092   4.090   4.125   8.388
  538MPD2    H1 8093   4.155   3.738   8.214
  538MPD2    H2 8094   4.034   3.769   8.624
  538MPD2    H3 8095   4.087   3.643   8.420
  538MPD2     N 8096   4.162   4.024   8.184
  538MPD2    H5 8097   4.162   4.125   8.190
  538MPD2    N1 8098   3.987   4.045   8.615
  538MPD2    H7 8099   4.006   4.144   8.604
  539MPD2     C 8100   4.681   4.179   7.392
  539MPD2    C1 8101   4.688   4.118   7.513
  539MPD2    C2 8102   4.581   4.099   7.595
  539MPD2    C3 8103   4.462   4.144   7.553
  539MPD2    C4 8104   4.447   4.197   7.426
  539MPD2    C5 8105   4.554   4.219   7.348
  539MPD2     H 8106   4.593   4.053   7.692
  539MPD2    H1 8107   4.348   4.218   7.386
  539MPD2    H2 8108   4.764   4.184   7.323
  539MPD2    H3 8109   4.537   4.259   7.249
  539MPD2     N 8110   4.353   4.110   7.641
  539MPD2    H5 8111   4.378   4.071   7.731
  539MPD2    N1 8112   0.030   4.058   7.541
  539MPD2    H7 8113   0.098   4.062   7.466
  540MPD2     C 8114   0.369   0.640  12.395
  540MPD2    C1 8115   0.386   0.523  12.331
  540MPD2    C2 8116   0.327   0.499  12.208
  540MPD2    C3 8117   0.251   0.603  12.150
  540MPD2    C4 8118   0.217   0.711  12.223
  540MPD2    C5 8119   0.290   0.736  12.336
  540MPD2     H 8120   0.340   0.403  12.160
  540MPD2    H1 8121   0.154   0.790  12.184
  540MPD2    H2 8122   0.429   0.675  12.478
  540MPD2    H3 8123   0.284   0.834  12.382
  540MPD2     N 8124   0.194   0.597  12.023
  540MPD2    H5 8125   0.127   0.669  11.999
  540MPD2    N1 8126   0.472   0.418  12.380
  540MPD2    H7 8127   0.508   0.349  12.315
  541MPD2     C 8128   0.276   4.728  12.721
  541MPD2    C1 8129   0.338   0.039  12.653
  541MPD2    C2 8130   0.418   0.003  12.542
  541MPD2    C3 8131   0.432   4.659  12.500
  541MPD2    C4 8132   0.366   4.562  12.575
  541MPD2    C5 8133   0.290   4.599  12.681
  541MPD2     H 8134   0.472   0.080  12.488
  541MPD2    H1 8135   0.372   4.455  12.555
  541MPD2    H2 8136   0.206   4.748  12.800
  541MPD2    H3 8137   0.248   4.530  12.753
  541MPD2     N 8138   0.482   4.642  12.365
  541MPD2    H5 8139   0.494   4.728  12.313
  541MPD2    N1 8140   0.327   0.176  12.685
  541MPD2    H7 8141   0.376   0.244  12.628
  542MPD2     C 8142   2.995   1.277  11.836
  542MPD2    C1 8143   3.037   1.361  11.936
  542MPD2    C2 8144   3.100   1.293  12.043
  542MPD2    C3 8145   3.098   1.157  12.053
  542MPD2    C4 8146   3.049   1.082  11.947
  542MPD2    C5 8147   3.009   1.146  11.833
  542MPD2     H 8148   3.138   1.351  12.126
  542MPD2    H1 8149   3.051   0.974  11.953
  542MPD2    H2 8150   2.935   1.327  11.760
  542MPD2    H3 8151   2.973   1.091  11.748
  542MPD2     N 8152   3.165   1.084  12.159
  542MPD2    H5 8153   3.174   0.985  12.138
  542MPD2    N1 8154   3.033   1.501  11.919
  542MPD2    H7 8155   2.981   1.527  11.836
  543MPD2     C 8156   3.390   2.115  11.970
  543MPD2    C1 8157   3.296   2.034  11.918
  543MPD2    C2 8158   3.344   1.921  11.851
  543MPD2    C3 8159   3.470   1.877  11.863
  543MPD2    C4 8160   3.560   1.968  11.914
  543MPD2    C5 8161   3.522   2.089  11.954
  543MPD2     H 8162   3.272   1.870  11.789
  543MPD2    H1 8163   3.666   1.951  11.898
  543MPD2    H2 8164   3.359   2.218  11.985
  543MPD2    H3 8165   3.594   2.170  11.958
  543MPD2     N 8166   3.518   1.749  11.827
  543MPD2    H5 8167   3.616   1.731  11.845
  543MPD2    N1 8168   3.154   2.040  11.930
  543MPD2    H7 8169   3.101   1.969  11.881
  544MPD2     C 8170   2.535   1.665  11.658
  544MPD2    C1 8171   2.627   1.714  11.750
  544MPD2    C2 8172   2.639   1.645  11.866
  544MPD2    C3 8173   2.598   1.511  11.876
  544MPD2    C4 8174   2.509   1.461  11.782
  544MPD2    C5 8175   2.470   1.545  11.677
  544MPD2     H 8176   2.685   1.696  11.950
  544MPD2    H1 8177   2.465   1.362  11.793
  544MPD2    H2 8178   2.522   1.716  11.564
  544MPD2    H3 8179   2.418   1.508  11.589
  544MPD2     N 8180   2.634   1.443  11.997
  544MPD2    H5 8181   2.662   1.499  12.077
  544MPD2    N1 8182   2.677   1.842  11.725
  544MPD2    H7 8183   2.627   1.891  11.652
  545MPD2     C 8184   0.049   3.219   6.291
  545MPD2    C1 8185   4.719   3.265   6.232
  545MPD2    C2 8186   4.696   3.402   6.212
  545MPD2    C3 8187   4.782   3.491   6.271
  545MPD2    C4 8188   0.113   3.446   6.332
  545MPD2    C5 8189   0.145   3.311   6.335
  545MPD2     H 8190   4.611   3.446   6.162
  545MPD2    H1 8191   0.187   3.513   6.373
  545MPD2    H2 8192   0.074   3.114   6.301
  545MPD2    H3 8193   0.242   3.281   6.372
  545MPD2     N 8194   4.771   3.633   6.260
  545MPD2    H5 8195   0.040   3.682   6.329
  545MPD2    N1 8196   4.628   3.163   6.188
  545MPD2    H7 8197   4.659   3.069   6.211
  546MPD2     C 8198   4.163   2.375   6.557
  546MPD2    C1 8199   4.198   2.490   6.620
  546MPD2    C2 8200   4.235   2.598   6.539
  546MPD2    C3 8201   4.233   2.578   6.402
  546MPD2    C4 8202   4.192   2.462   6.339
  546MPD2    C5 8203   4.149   2.361   6.423
  546MPD2     H 8204   4.259   2.695   6.583
  546MPD2    H1 8205   4.170   2.461   6.233
  546MPD2    H2 8206   4.126   2.291   6.614
  546MPD2    H3 8207   4.113   2.269   6.379
  546MPD2     N 8208   4.272   2.677   6.308
  546MPD2    H5 8209   4.261   2.658   6.209
  546MPD2    N1 8210   4.204   2.480   6.764
  546MPD2    H7 8211   4.170   2.397   6.811
  547MPD2     C 8212   0.618   4.121  11.318
  547MPD2    C1 8213   0.521   4.038  11.273
  547MPD2    C2 8214   0.542   3.966  11.154
  547MPD2    C3 8215   0.650   3.990  11.077
  547MPD2    C4 8216   0.751   4.074  11.122
  547MPD2    C5 8217   0.734   4.128  11.246
  547MPD2     H 8218   0.470   3.896  11.113
  547MPD2    H1 8219   0.842   4.094  11.066
  547MPD2    H2 8220   0.616   4.175  11.411
  547MPD2    H3 8221   0.806   4.198  11.288
  547MPD2     N 8222   0.649   3.931  10.952
  547MPD2    H5 8223   0.576   3.864  10.931
  547MPD2    N1 8224   0.391   4.045  11.332
  547MPD2    H7 8225   0.371   4.111  11.407
  548MPD2     C 8226   0.598   4.601  10.506
  548MPD2    C1 8227   0.636   4.470  10.467
  548MPD2    C2 8228   0.692   4.457  10.340
  548MPD2    C3 8229   0.732   4.563  10.267
  548MPD2    C4 8230   0.711   4.692  10.316
  548MPD2    C5 8231   0.631   4.703  10.433
  548MPD2     H 8232   0.709   4.361  10.294
  548MPD2    H1 8233   0.733   4.781  10.259
  548MPD2    H2 8234   0.539   4.613  10.596
  548MPD2    H3 8235   0.602   0.013  10.467
  548MPD2     N 8236   0.781   4.540  10.132
  548MPD2    H5 8237   0.761   4.451  10.088
  548MPD2    N1 8238   0.612   4.351  10.545
  548MPD2    H7 8239   0.555   4.370  10.627
  549MPD2     C 8240   4.559   1.390  13.655
  549MPD2    C1 8241   4.437   1.423  13.699
  549MPD2    C2 8242   4.388   1.372  13.817
  549MPD2    C3 8243   4.468   1.291  13.893
  549MPD2    C4 8244   4.592   1.249  13.845
  549MPD2    C5 8245   4.636   1.305  13.728
  549MPD2     H 8246   4.287   1.395  13.846
  549MPD2    H1 8247   4.641   1.165  13.892
  549MPD2    H2 8248   4.586   1.420  13.554
  549MPD2    H3 8249   4.725   1.257  13.689
  549MPD2     N 8250   4.419   1.221  14.003
  549MPD2    H5 8251   4.469   1.144  14.046
  549MPD2    N1 8252   4.348   1.506  13.624
  549MPD2    H7 8253   4.253   1.515  13.659
  550MPD2     C 8254   3.416   1.261  14.083
  550MPD2    C1 8255   3.453   1.134  14.093
  550MPD2    C2 8256   3.585   1.103  14.124
  550MPD2    C3 8257   3.687   1.205  14.117
  550MPD2    C4 8258   3.650   1.333  14.101
  550MPD2    C5 8259   3.513   1.359  14.073
  550MPD2     H 8260   3.610   1.003  14.159
  550MPD2    H1 8261   3.727   1.409  14.104
  550MPD2    H2 8262   3.312   1.283  14.061
  550MPD2    H3 8263   3.490   1.463  14.051
  550MPD2     N 8264   3.824   1.179  14.134
  550MPD2    H5 8265   3.888   1.258  14.125
  550MPD2    N1 8266   3.353   1.039  14.090
  550MPD2    H7 8267   3.262   1.082  14.098
  551MPD2     C 8268   3.202   3.949   9.351
  551MPD2    C1 8269   3.178   4.045   9.256
  551MPD2    C2 8270   3.271   4.096   9.172
  551MPD2    C3 8271   3.398   4.043   9.171
  551MPD2    C4 8272   3.425   3.947   9.267
  551MPD2    C5 8273   3.331   3.906   9.356
  551MPD2     H 8274   3.239   4.180   9.112
  551MPD2    H1 8275   3.514   3.886   9.258
  551MPD2    H2 8276   3.140   3.903   9.426
  551MPD2    H3 8277   3.360   3.840   9.437
  551MPD2     N 8278   3.496   4.083   9.076
  551MPD2    H5 8279   3.459   4.163   9.027
  551MPD2    N1 8280   3.061   4.118   9.267
  551MPD2    H7 8281   3.039   4.169   9.182
  552MPD2     C 8282   1.157   3.451  15.045
  552MPD2    C1 8283   1.156   3.506  14.915
  552MPD2    C2 8284   1.192   3.431  14.803
  552MPD2    C3 8285   1.209   3.298  14.820
  552MPD2    C4 8286   1.197   3.238  14.940
  552MPD2    C5 8287   1.181   3.313  15.056
  552MPD2     H 8288   1.204   3.477  14.706
  552MPD2    H1 8289   1.222   3.136  14.965
  552MPD2    H2 8290   1.136   3.506  15.136
  552MPD2    H3 8291   1.171   3.261  15.150
  552MPD2     N 8292   1.223   3.222  14.700
  552MPD2    H5 8293   1.247   3.280  14.620
  552MPD2    N1 8294   1.147   3.646  14.897
  552MPD2    H7 8295   1.133   3.675  14.801
  553MPD2     C 8296   1.685   2.721   9.371
  553MPD2    C1 8297   1.701   2.833   9.449
  553MPD2    C2 8298   1.620   2.841   9.560
  553MPD2    C3 8299   1.522   2.757   9.592
  553MPD2    C4 8300   1.518   2.640   9.519
  553MPD2    C5 8301   1.597   2.621   9.407
  553MPD2     H 8302   1.619   2.933   9.619
  553MPD2    H1 8303   1.453   2.559   9.551
  553MPD2    H2 8304   1.746   2.693   9.286
  553MPD2    H3 8305   1.598   2.524   9.358
  553MPD2     N 8306   1.445   2.785   9.703
  553MPD2    H5 8307   1.475   2.867   9.754
  553MPD2    N1 8308   1.789   2.932   9.415
  553MPD2    H7 8309   1.833   2.922   9.324
  554MPD2     C 8310   3.691   2.735  11.236
  554MPD2    C1 8311   3.667   2.705  11.372
  554MPD2    C2 8312   3.545   2.712  11.433
  554MPD2    C3 8313   3.430   2.716  11.352
  554MPD2    C4 8314   3.454   2.740  11.216
  554MPD2    C5 8315   3.582   2.746  11.159
  554MPD2     H 8316   3.530   2.683  11.536
  554MPD2    H1 8317   3.371   2.762  11.150
  554MPD2    H2 8318   3.788   2.752  11.191
  554MPD2    H3 8319   3.602   2.752  11.053
  554MPD2     N 8320   3.307   2.697  11.414
  554MPD2    H5 8321   3.301   2.658  11.507
  554MPD2    N1 8322   3.788   2.690  11.443
  554MPD2    H7 8323   3.872   2.671  11.391
  555MPD2     C 8324   4.308   2.495  12.051
  555MPD2    C1 8325   4.176   2.518  12.061
  555MPD2    C2 8326   4.131   2.555  12.185
  555MPD2    C3 8327   4.225   2.579  12.287
  555MPD2    C4 8328   4.360   2.541  12.273
  555MPD2    C5 8329   4.399   2.498  12.153
  555MPD2     H 8330   4.024   2.566  12.203
  555MPD2    H1 8331   4.431   2.563  12.352
  555MPD2    H2 8332   4.341   2.451  11.957
  555MPD2    H3 8333   4.501   2.470  12.132
  555MPD2     N 8334   4.183   2.639  12.404
  555MPD2    H5 8335   4.089   2.676  12.397
  555MPD2    N1 8336   4.087   2.496  11.950
  555MPD2    H7 8337   4.129   2.461  11.863
  556MPD2     C 8338   3.361   2.944  13.199
  556MPD2    C1 8339   3.253   2.867  13.234
  556MPD2    C2 8340   3.139   2.938  13.268
  556MPD2    C3 8341   3.131   3.080  13.275
  556MPD2    C4 8342   3.242   3.151  13.243
  556MPD2    C5 8343   3.349   3.080  13.204
  556MPD2     H 8344   3.045   2.886  13.286
  556MPD2    H1 8345   3.254   3.258  13.251
  556MPD2    H2 8346   3.459   2.901  13.181
  556MPD2    H3 8347   3.446   3.128  13.202
  556MPD2     N 8348   3.015   3.150  13.322
  556MPD2    H5 8349   3.019   3.250  13.340
  556MPD2    N1 8350   3.245   2.724  13.237
  556MPD2    H7 8351   3.153   2.681  13.240
  557MPD2     C 8352   4.540   2.017  12.393
  557MPD2    C1 8353   4.523   2.004  12.254
  557MPD2    C2 8354   4.607   1.923  12.191
  557MPD2    C3 8355   4.720   1.868  12.254
  557MPD2    C4 8356   4.735   1.889  12.392
  557MPD2    C5 8357   4.646   1.971  12.457
  557MPD2     H 8358   4.588   1.912  12.085
  557MPD2    H1 8359   0.020   1.832  12.449
  557MPD2    H2 8360   4.464   2.069  12.451
  557MPD2    H3 8361   4.664   1.972  12.564
  557MPD2     N 8362   0.029   1.793  12.179
  557MPD2    H5 8363   4.775   1.762  12.092
  557MPD2    N1 8364   4.411   2.057  12.180
  557MPD2    H7 8365   4.398   2.036  12.081
  558MPD2     C 8366   2.295   1.826  14.925
  558MPD2    C1 8367   2.319   1.880  14.798
  558MPD2    C2 8368   2.214   1.880  14.708
  558MPD2    C3 8369   2.085   1.832  14.739
  558MPD2    C4 8370   2.071   1.772  14.856
  558MPD2    C5 8371   2.174   1.771  14.949
  558MPD2     H 8372   2.240   1.909  14.608
  558MPD2    H1 8373   1.975   1.731  14.888
  558MPD2    H2 8374   2.368   1.827  15.005
  558MPD2    H3 8375   2.164   1.731  15.050
  558MPD2     N 8376   1.987   1.807  14.637
  558MPD2    H5 8377   2.023   1.826  14.544
  558MPD2    N1 8378   2.436   1.948  14.765
  558MPD2    H7 8379   2.440   2.001  14.679
  559MPD2     C 8380   1.089   1.856  14.875
  559MPD2    C1 8381   1.214   1.889  14.915
  559MPD2    C2 8382   1.320   1.865  14.831
  559MPD2    C3 8383   1.296   1.827  14.703
  559MPD2    C4 8384   1.172   1.805  14.658
  559MPD2    C5 8385   1.067   1.819  14.747
  559MPD2     H 8386   1.419   1.904  14.854
  559MPD2    H1 8387   1.144   1.767  14.560
  559MPD2    H2 8388   1.007   1.855  14.946
  559MPD2    H3 8389   0.968   1.790  14.713
  559MPD2     N 8390   1.418   1.815  14.624
  559MPD2    H5 8391   1.505   1.817  14.676
  559MPD2    N1 8392   1.227   1.947  15.047
  559MPD2    H7 8393   1.146   1.951  15.108
  560MPD2     C 8394   1.976   0.956  11.947
  560MPD2    C1 8395   2.013   0.820  11.952
  560MPD2    C2 8396   1.921   0.726  11.925
  560MPD2    C3 8397   1.786   0.749  11.927
  560MPD2    C4 8398   1.755   0.883  11.941
  560MPD2    C5 8399   1.843   0.982  11.934
  560MPD2     H 8400   1.947   0.621  11.931
  560MPD2    H1 8401   1.653   0.915  11.954
  560MPD2    H2 8402   2.053   1.032  11.949
  560MPD2    H3 8403   1.813   1.085  11.917
  560MPD2     N 8404   1.700   0.640  11.925
  560MPD2    H5 8405   1.735   0.549  11.898
  560MPD2    N1 8406   2.147   0.785  11.979
  560MPD2    H7 8407   2.222   0.851  11.958
  561MPD2     C 8408   3.175   3.325   8.535
  561MPD2    C1 8409   3.124   3.363   8.411
  561MPD2    C2 8410   3.209   3.432   8.323
  561MPD2    C3 8411   3.340   3.465   8.358
  561MPD2    C4 8412   3.386   3.430   8.479
  561MPD2    C5 8413   3.305   3.365   8.570
  561MPD2     H 8414   3.166   3.456   8.227
  561MPD2    H1 8415   3.484   3.455   8.517
  561MPD2    H2 8416   3.105   3.286   8.608
  561MPD2    H3 8417   3.345   3.338   8.667
  561MPD2     N 8418   3.425   3.547   8.271
  561MPD2    H5 8419   3.522   3.545   8.301
  561MPD2    N1 8420   2.991   3.331   8.380
  561MPD2    H7 8421   2.934   3.282   8.448
  562MPD2     C 8422   2.695   3.843   8.791
  562MPD2    C1 8423   2.807   3.768   8.748
  562MPD2    C2 8424   2.795   3.679   8.646
  562MPD2    C3 8425   2.671   3.670   8.583
  562MPD2    C4 8426   2.565   3.751   8.624
  562MPD2    C5 8427   2.573   3.830   8.731
  562MPD2     H 8428   2.882   3.626   8.611
  562MPD2    H1 8429   2.467   3.748   8.577
  562MPD2    H2 8430   2.699   3.909   8.877
  562MPD2    H3 8431   2.486   3.884   8.767
  562MPD2     N 8432   2.668   3.577   8.480
  562MPD2    H5 8433   2.747   3.514   8.467
  562MPD2    N1 8434   2.933   3.774   8.809
  562MPD2    H7 8435   3.014   3.722   8.776
  563MPD2     C 8436   0.716   1.239  10.590
  563MPD2    C1 8437   0.673   1.303  10.700
  563MPD2    C2 8438   0.739   1.420  10.728
  563MPD2    C3 8439   0.842   1.464  10.641
  563MPD2    C4 8440   0.887   1.387  10.530
  563MPD2    C5 8441   0.822   1.272  10.515
  563MPD2     H 8442   0.707   1.473  10.817
  563MPD2    H1 8443   0.964   1.420  10.461
  563MPD2    H2 8444   0.663   1.153  10.553
  563MPD2    H3 8445   0.862   1.205  10.439
  563MPD2     N 8446   0.895   1.594  10.657
  563MPD2    H5 8447   0.841   1.659  10.714
  563MPD2    N1 8448   0.562   1.249  10.778
  563MPD2    H7 8449   0.522   1.162  10.744
  564MPD2     C 8450   4.692   4.452  13.007
  564MPD2    C1 8451   4.654   4.573  12.953
  564MPD2    C2 8452   4.672   4.586  12.815
  564MPD2    C3 8453   4.726   4.483  12.741
  564MPD2    C4 8454   4.778   4.371  12.800
  564MPD2    C5 8455   4.755   4.357  12.934
  564MPD2     H 8456   4.643   4.680  12.771
  564MPD2    H1 8457   0.034   4.295  12.738
  564MPD2    H2 8458   4.666   4.424  13.108
  564MPD2    H3 8459   4.776   4.262  12.980
  564MPD2     N 8460   4.743   4.477  12.600
  564MPD2    H5 8461   4.783   4.391  12.563
  564MPD2    N1 8462   4.604   4.683  13.025
  564MPD2    H7 8463   4.581   4.767  12.973
  565MPD2     C 8464   4.161   4.736  13.955
  565MPD2    C1 8465   4.076   4.783  13.850
  565MPD2    C2 8466   4.138   0.008  13.729
  565MPD2    C3 8467   4.268   4.778  13.705
  565MPD2    C4 8468   4.351   4.735  13.807
  565MPD2    C5 8469   4.296   4.712  13.931
  565MPD2     H 8470   4.065   0.047  13.658
  565MPD2    H1 8471   4.459   4.737  13.800
  565MPD2    H2 8472   4.122   4.728  14.056
  565MPD2    H3 8473   4.368   4.683  14.007
  565MPD2     N 8474   4.332   0.003  13.572
  565MPD2    H5 8475   4.433   0.001  13.575
  565MPD2    N1 8476   3.940   0.033  13.860
  565MPD2    H7 8477   3.889   0.066  13.779
  566MPD2     C 8478   2.826   3.673  12.138
  566MPD2    C1 8479   2.757   3.561  12.170
  566MPD2    C2 8480   2.664   3.564  12.273
  566MPD2    C3 8481   2.632   3.683  12.344
  566MPD2    C4 8482   2.714   3.787  12.319
  566MPD2    C5 8483   2.805   3.785  12.218
  566MPD2     H 8484   2.603   3.478  12.299
  566MPD2    H1 8485   2.694   3.879  12.373
  566MPD2    H2 8486   2.903   3.669  12.061
  566MPD2    H3 8487   2.851   3.878  12.187
  566MPD2     N 8488   2.525   3.699  12.443
  566MPD2    H5 8489   2.536   3.773  12.512
  566MPD2    N1 8490   2.785   3.443  12.099
  566MPD2    H7 8491   2.855   3.456  12.027
  567MPD2     C 8492   3.387   2.681   8.708
  567MPD2    C1 8493   3.376   2.545   8.688
  567MPD2    C2 8494   3.432   2.485   8.574
  567MPD2    C3 8495   3.473   2.558   8.467
  567MPD2    C4 8496   3.477   2.693   8.489
  567MPD2    C5 8497   3.446   2.755   8.610
  567MPD2     H 8498   3.420   2.379   8.559
  567MPD2    H1 8499   3.507   2.768   8.417
  567MPD2    H2 8500   3.367   2.734   8.800
  567MPD2    H3 8501   3.467   2.861   8.624
  567MPD2     N 8502   3.501   2.507   8.337
  567MPD2    H5 8503   3.505   2.572   8.259
  567MPD2    N1 8504   3.332   2.459   8.794
  567MPD2    H7 8505   3.348   2.359   8.790
  568MPD2     C 8506   3.475   2.833   7.413
  568MPD2    C1 8507   3.347   2.788   7.436
  568MPD2    C2 8508   3.318   2.727   7.552
  568MPD2    C3 8509   3.425   2.688   7.639
  568MPD2    C4 8510   3.551   2.715   7.604
  568MPD2    C5 8511   3.579   2.793   7.495
  568MPD2     H 8512   3.216   2.699   7.573
  568MPD2    H1 8513   3.631   2.699   7.674
  568MPD2    H2 8514   3.505   2.879   7.320
  568MPD2    H3 8515   3.683   2.817   7.474
  568MPD2     N 8516   3.402   2.614   7.756
  568MPD2    H5 8517   3.307   2.581   7.771
  568MPD2    N1 8518   3.236   2.822   7.363
  568MPD2    H7 8519   3.145   2.795   7.400
  569MPD2     C 8520   3.735   1.359  12.609
  569MPD2    C1 8521   3.722   1.249  12.523
  569MPD2    C2 8522   3.638   1.147  12.561
  569MPD2    C3 8523   3.566   1.154  12.682
  569MPD2    C4 8524   3.592   1.264  12.763
  569MPD2    C5 8525   3.668   1.369  12.724
  569MPD2     H 8526   3.623   1.060  12.499
  569MPD2    H1 8527   3.550   1.276  12.862
  569MPD2    H2 8528   3.797   1.444  12.581
  569MPD2    H3 8529   3.682   1.466  12.770
  569MPD2     N 8530   3.479   1.061  12.730
  569MPD2    H5 8531   3.455   1.079  12.827
  569MPD2    N1 8532   3.797   1.229  12.407
  569MPD2    H7 8533   3.768   1.149  12.352
  570MPD2     C 8534   4.586   3.604  13.614
  570MPD2    C1 8535   4.453   3.614  13.577
  570MPD2    C2 8536   4.407   3.556  13.459
  570MPD2    C3 8537   4.494   3.493  13.375
  570MPD2    C4 8538   4.631   3.498  13.399
  570MPD2    C5 8539   4.671   3.562  13.514
  570MPD2     H 8540   4.304   3.558  13.425
  570MPD2    H1 8541   4.710   3.460  13.335
  570MPD2    H2 8542   4.628   3.639  13.707
  570MPD2    H3 8543   4.776   3.552  13.541
  570MPD2     N 8544   4.449   3.441  13.248
  570MPD2    H5 8545   4.353   3.458  13.219
  570MPD2    N1 8546   4.357   3.673  13.662
  570MPD2    H7 8547   4.262   3.666  13.625
  571MPD2     C 8548   2.974   2.212   8.692
  571MPD2    C1 8549   2.938   2.330   8.737
  571MPD2    C2 8550   2.858   2.341   8.855
  571MPD2    C3 8551   2.823   2.231   8.922
  571MPD2    C4 8552   2.861   2.107   8.879
  571MPD2    C5 8553   2.931   2.100   8.761
  571MPD2     H 8554   2.841   2.443   8.887
  571MPD2    H1 8555   2.835   2.015   8.931
  571MPD2    H2 8556   3.027   2.194   8.599
  571MPD2    H3 8557   2.972   2.004   8.733
  571MPD2     N 8558   2.752   2.261   9.040
  571MPD2    H5 8559   2.744   2.361   9.054
  571MPD2    N1 8560   2.963   2.453   8.674
  571MPD2    H7 8561   2.922   2.533   8.721
  572MPD2     C 8562   2.801   2.912   9.238
  572MPD2    C1 8563   2.814   2.782   9.195
  572MPD2    C2 8564   2.892   2.754   9.082
  572MPD2    C3 8565   2.954   2.854   9.008
  572MPD2    C4 8566   2.931   2.985   9.049
  572MPD2    C5 8567   2.856   3.009   9.164
  572MPD2     H 8568   2.919   2.654   9.049
  572MPD2    H1 8569   2.973   3.072   9.000
  572MPD2    H2 8570   2.744   2.939   9.327
  572MPD2    H3 8571   2.849   3.111   9.201
  572MPD2     N 8572   3.034   2.820   8.896
  572MPD2    H5 8573   3.057   2.723   8.876
  572MPD2    N1 8574   2.738   2.682   9.265
  572MPD2    H7 8575   2.704   2.713   9.355
  573MPD2     C 8576   0.360   1.621   6.522
  573MPD2    C1 8577   0.399   1.620   6.654
  573MPD2    C2 8578   0.483   1.522   6.696
  573MPD2    C3 8579   0.547   1.437   6.598
  573MPD2    C4 8580   0.513   1.451   6.465
  573MPD2    C5 8581   0.412   1.541   6.427
  573MPD2     H 8582   0.504   1.515   6.802
  573MPD2    H1 8583   0.571   1.396   6.392
  573MPD2    H2 8584   0.291   1.701   6.496
  573MPD2    H3 8585   0.388   1.561   6.323
  573MPD2     N 8586   0.646   1.335   6.629
  573MPD2    H5 8587   0.689   1.281   6.554
  573MPD2    N1 8588   0.338   1.717   6.735
  573MPD2    H7 8589   0.255   1.766   6.703
  574MPD2     C 8590   0.717   1.123   6.233
  574MPD2    C1 8591   0.797   1.109   6.340
  574MPD2    C2 8592   0.882   1.218   6.371
  574MPD2    C3 8593   0.870   1.337   6.301
  574MPD2    C4 8594   0.786   1.346   6.189
  574MPD2    C5 8595   0.716   1.236   6.152
  574MPD2     H 8596   0.971   1.212   6.433
  574MPD2    H1 8597   0.765   1.440   6.140
  574MPD2    H2 8598   0.669   1.034   6.195
  574MPD2    H3 8599   0.642   1.243   6.073
  574MPD2     N 8600   0.925   1.458   6.351
  574MPD2    H5 8601   0.919   1.535   6.285
  574MPD2    N1 8602   0.805   0.978   6.403
  574MPD2    H7 8603   0.767   0.900   6.350
  575MPD2     C 8604   2.689   2.248   7.435
  575MPD2    C1 8605   2.620   2.361   7.440
  575MPD2    C2 8606   2.676   2.472   7.385
  575MPD2    C3 8607   2.798   2.470   7.319
  575MPD2    C4 8608   2.860   2.344   7.306
  575MPD2    C5 8609   2.802   2.240   7.366
  575MPD2     H 8610   2.618   2.563   7.392
  575MPD2    H1 8611   2.946   2.333   7.242
  575MPD2    H2 8612   2.652   2.152   7.470
  575MPD2    H3 8613   2.859   2.148   7.357
  575MPD2     N 8614   2.857   2.581   7.255
  575MPD2    H5 8615   2.953   2.571   7.224
  575MPD2    N1 8616   2.498   2.362   7.511
  575MPD2    H7 8617   2.475   2.273   7.554
  576MPD2     C 8618   0.833   3.776  12.223
  576MPD2    C1 8619   0.815   3.918  12.205
  576MPD2    C2 8620   0.903   3.991  12.141
  576MPD2    C3 8621   1.020   3.937  12.084
  576MPD2    C4 8622   1.040   3.803  12.112
  576MPD2    C5 8623   0.948   3.725  12.176
  576MPD2     H 8624   0.886   4.098  12.138
  576MPD2    H1 8625   1.133   3.754  12.084
  576MPD2    H2 8626   0.752   3.721  12.269
  576MPD2    H3 8627   0.964   3.619  12.189
  576MPD2     N 8628   1.125   4.013  12.029
  576MPD2    H5 8629   1.213   3.964  12.013
  576MPD2    N1 8630   0.702   3.974  12.272
  576MPD2    H7 8631   0.663   3.931  12.355
  577MPD2     C 8632   1.245   4.030  12.578
  577MPD2    C1 8633   1.218   4.145  12.504
  577MPD2    C2 8634   1.103   4.215  12.534
  577MPD2    C3 8635   1.021   4.175  12.635
  577MPD2    C4 8636   1.049   4.052  12.697
  577MPD2    C5 8637   1.160   3.980  12.671
  577MPD2     H 8638   1.073   4.293  12.466
  577MPD2    H1 8639   0.981   4.008  12.769
  577MPD2    H2 8640   1.343   3.984  12.567
  577MPD2    H3 8641   1.181   3.889  12.727
  577MPD2     N 8642   0.885   4.223  12.636
  577MPD2    H5 8643   0.811   4.168  12.678
  577MPD2    N1 8644   1.293   4.175  12.384
  577MPD2    H7 8645   1.364   4.109  12.354
  578MPD2     C 8646   1.014   0.894  13.019
  578MPD2    C1 8647   1.077   0.968  12.921
  578MPD2    C2 8648   0.996   1.064  12.861
  578MPD2    C3 8649   0.860   1.089  12.893
  578MPD2    C4 8650   0.813   1.024  13.006
  578MPD2    C5 8651   0.891   0.929  13.068
  578MPD2     H 8652   1.037   1.127  12.784
  578MPD2    H1 8653   0.715   1.041  13.049
  578MPD2    H2 8654   1.069   0.818  13.073
  578MPD2    H3 8655   0.840   0.865  13.140
  578MPD2     N 8656   0.782   1.175  12.813
  578MPD2    H5 8657   0.830   1.199  12.727
  578MPD2    N1 8658   1.215   0.945  12.886
  578MPD2    H7 8659   1.260   0.865  12.930
  579MPD2     C 8660   0.640   0.754  12.237
  579MPD2    C1 8661   0.577   0.868  12.200
  579MPD2    C2 8662   0.523   0.879  12.077
  579MPD2    C3 8663   0.533   0.776  11.984
  579MPD2    C4 8664   0.590   0.659  12.021
  579MPD2    C5 8665   0.647   0.653  12.143
  579MPD2     H 8666   0.490   0.979  12.053
  579MPD2    H1 8667   0.600   0.572  11.957
  579MPD2    H2 8668   0.686   0.736  12.334
  579MPD2    H3 8669   0.682   0.557  12.179
  579MPD2     N 8670   0.478   0.784  11.856
  579MPD2    H5 8671   0.521   0.726  11.785
  579MPD2    N1 8672   0.568   0.983  12.281
  579MPD2    H7 8673   0.515   1.064  12.249
  580MPD2     C 8674   4.016   3.336  10.182
  580MPD2    C1 8675   4.100   3.444  10.191
  580MPD2    C2 8676   4.235   3.433  10.221
  580MPD2    C3 8677   4.282   3.300  10.231
  580MPD2    C4 8678   4.193   3.189  10.212
  580MPD2    C5 8679   4.061   3.207  10.183
  580MPD2     H 8680   4.297   3.520  10.243
  580MPD2    H1 8681   4.238   3.091  10.222
  580MPD2    H2 8682   3.909   3.348  10.168
  580MPD2    H3 8683   3.992   3.128  10.154
  580MPD2     N 8684   4.419   3.275  10.257
  580MPD2    H5 8685   4.447   3.183  10.226
  580MPD2    N1 8686   4.051   3.577  10.187
  580MPD2    H7 8687   4.121   3.642  10.220
  581MPD2     C 8688   4.247   4.238  10.205
  581MPD2    C1 8689   4.228   4.111  10.258
  581MPD2    C2 8690   4.285   4.005  10.192
  581MPD2    C3 8691   4.372   4.021  10.086
  581MPD2    C4 8692   4.397   4.144  10.042
  581MPD2    C5 8693   4.329   4.255  10.102
  581MPD2     H 8694   4.270   3.902  10.219
  581MPD2    H1 8695   4.475   4.164   9.969
  581MPD2    H2 8696   4.207   4.329  10.248
  581MPD2    H3 8697   4.358   4.354  10.068
  581MPD2     N 8698   4.426   3.912  10.013
  581MPD2    H5 8699   4.493   3.944   9.944
  581MPD2    N1 8700   4.134   4.105  10.361
  581MPD2    H7 8701   4.050   4.158  10.338
  582MPD2     C 8702   0.070   0.693  10.350
  582MPD2    C1 8703   0.003   0.744  10.239
  582MPD2    C2 8704   4.681   0.683  10.180
  582MPD2    C3 8705   4.627   0.568  10.237
  582MPD2    C4 8706   4.698   0.521  10.344
  582MPD2    C5 8707   0.023   0.572  10.401
  582MPD2     H 8708   4.638   0.728  10.091
  582MPD2    H1 8709   4.664   0.425  10.382
  582MPD2    H2 8710   0.154   0.748  10.391
  582MPD2    H3 8711   0.085   0.517  10.471
  582MPD2     N 8712   4.517   0.499  10.189
  582MPD2    H5 8713   4.481   0.414  10.231
  582MPD2    N1 8714   0.049   0.862  10.174
  582MPD2    H7 8715   4.781   0.901  10.099
  583MPD2     C 8716   0.522   0.848   7.656
  583MPD2    C1 8717   0.438   0.813   7.549
  583MPD2    C2 8718   0.356   0.920   7.496
  583MPD2    C3 8719   0.351   1.040   7.566
  583MPD2    C4 8720   0.427   1.068   7.675
  583MPD2    C5 8721   0.509   0.964   7.725
  583MPD2     H 8722   0.294   0.909   7.407
  583MPD2    H1 8723   0.439   1.170   7.710
  583MPD2    H2 8724   0.586   0.773   7.701
  583MPD2    H3 8725   0.557   0.985   7.820
  583MPD2     N 8726   0.268   1.133   7.507
  583MPD2    H5 8727   0.234   1.109   7.414
  583MPD2    N1 8728   0.429   0.683   7.495
  583MPD2    H7 8729   0.337   0.654   7.464
  584MPD2     C 8730   0.832   4.693   7.065
  584MPD2    C1 8731   0.794   0.031   7.037
  584MPD2    C2 8732   0.728   0.103   7.125
  584MPD2    C3 8733   0.703   0.059   7.252
  584MPD2    C4 8734   0.730   4.717   7.277
  584MPD2    C5 8735   0.800   4.642   7.188
  584MPD2     H 8736   0.707   0.208   7.108
  584MPD2    H1 8737   0.716   4.673   7.375
  584MPD2    H2 8738   0.888   4.635   6.992
  584MPD2    H3 8739   0.825   4.541   7.220
  584MPD2     N 8740   0.647   0.159   7.344
  584MPD2    H5 8741   0.632   0.253   7.310
  584MPD2    N1 8742   0.832   0.092   6.917
  584MPD2    H7 8743   0.910   0.048   6.868
  585MPD2     C 8744   3.491   0.846  11.835
  585MPD2    C1 8745   3.498   0.981  11.814
  585MPD2    C2 8746   3.617   1.046  11.841
  585MPD2    C3 8747   3.722   0.980  11.908
  585MPD2    C4 8748   3.703   0.848  11.944
  585MPD2    C5 8749   3.592   0.781  11.903
  585MPD2     H 8750   3.636   1.147  11.808
  585MPD2    H1 8751   3.764   0.784  12.008
  585MPD2    H2 8752   3.397   0.796  11.811
  585MPD2    H3 8753   3.573   0.678  11.929
  585MPD2     N 8754   3.834   1.058  11.948
  585MPD2    H5 8755   3.839   1.157  11.926
  585MPD2    N1 8756   3.383   1.047  11.756
  585MPD2    H7 8757   3.327   0.976  11.710
  586MPD2     C 8758   2.695   2.846  10.838
  586MPD2    C1 8759   2.693   2.773  10.957
  586MPD2    C2 8760   2.615   2.655  10.960
  586MPD2    C3 8761   2.532   2.626  10.853
  586MPD2    C4 8762   2.530   2.704  10.743
  586MPD2    C5 8763   2.614   2.819  10.735
  586MPD2     H 8764   2.610   2.594  11.050
  586MPD2    H1 8765   2.462   2.703  10.659
  586MPD2    H2 8766   2.771   2.921  10.820
  586MPD2    H3 8767   2.610   2.883  10.648
  586MPD2     N 8768   2.445   2.515  10.863
  586MPD2    H5 8769   2.433   2.472  10.954
  586MPD2    N1 8770   2.774   2.803  11.069
  586MPD2    H7 8771   2.782   2.726  11.136
  587MPD2     C 8772   4.328   1.148  11.510
  587MPD2    C1 8773   4.425   1.237  11.544
  587MPD2    C2 8774   4.562   1.207  11.525
  587MPD2    C3 8775   4.599   1.072  11.504
  587MPD2    C4 8776   4.494   0.984  11.472
  587MPD2    C5 8777   4.364   1.020  11.475
  587MPD2     H 8778   4.647   1.268  11.552
  587MPD2    H1 8779   4.523   0.884  11.440
  587MPD2    H2 8780   4.222   1.164  11.526
  587MPD2    H3 8781   4.286   0.950  11.447
  587MPD2     N 8782   4.742   1.042  11.506
  587MPD2    H5 8783   0.015   1.123  11.509
  587MPD2    N1 8784   4.396   1.367  11.584
  587MPD2    H7 8785   4.297   1.384  11.599
  588MPD2     C 8786   0.080   1.819  11.441
  588MPD2    C1 8787   4.735   1.830  11.410
  588MPD2    C2 8788   4.641   1.875  11.504
  588MPD2    C3 8789   4.685   1.892  11.638
  588MPD2    C4 8790   0.029   1.877  11.673
  588MPD2    C5 8791   0.121   1.844  11.571
  588MPD2     H 8792   4.537   1.885  11.475
  588MPD2    H1 8793   0.056   1.893  11.777
  588MPD2    H2 8794   0.157   1.795  11.370
  588MPD2    H3 8795   0.223   1.816  11.596
  588MPD2     N 8796   4.600   1.931  11.746
  588MPD2    H5 8797   4.635   1.979  11.829
  588MPD2    N1 8798   4.697   1.807  11.275
  588MPD2    H7 8799   4.608   1.850  11.254
  589MPD2     C 8800   3.985   3.829  13.175
  589MPD2    C1 8801   4.080   3.848  13.074
  589MPD2    C2 8802   4.121   3.736  13.002
  589MPD2    C3 8803   4.070   3.610  13.029
  589MPD2    C4 8804   3.978   3.601  13.129
  589MPD2    C5 8805   3.929   3.706  13.200
  589MPD2     H 8806   4.194   3.755  12.924
  589MPD2    H1 8807   3.944   3.501  13.154
  589MPD2    H2 8808   3.952   3.905  13.245
  589MPD2    H3 8809   3.869   3.709  13.290
  589MPD2     N 8810   4.109   3.493  12.959
  589MPD2    H5 8811   4.067   3.404  12.981
  589MPD2    N1 8812   4.139   3.971  13.052
  589MPD2    H7 8813   4.212   3.976  12.982
  590MPD2     C 8814   1.547   2.267   6.310
  590MPD2    C1 8815   1.537   2.235   6.447
  590MPD2    C2 8816   1.446   2.135   6.479
  590MPD2    C3 8817   1.380   2.054   6.386
  590MPD2    C4 8818   1.398   2.087   6.255
  590MPD2    C5 8819   1.486   2.186   6.222
  590MPD2     H 8820   1.436   2.109   6.584
  590MPD2    H1 8821   1.343   2.039   6.175
  590MPD2    H2 8822   1.606   2.347   6.267
  590MPD2    H3 8823   1.499   2.209   6.117
  590MPD2     N 8824   1.290   1.960   6.433
  590MPD2    H5 8825   1.298   1.950   6.534
  590MPD2    N1 8826   1.611   2.309   6.541
  590MPD2    H7 8827   1.675   2.380   6.508
  591MPD2     C 8828   1.186   2.597  13.706
  591MPD2    C1 8829   1.101   2.488  13.692
  591MPD2    C2 8830   1.107   2.399  13.797
  591MPD2    C3 8831   1.196   2.414  13.909
  591MPD2    C4 8832   1.262   2.530  13.913
  591MPD2    C5 8833   1.261   2.617  13.812
  591MPD2     H 8834   1.056   2.305  13.778
  591MPD2    H1 8835   1.326   2.559  13.996
  591MPD2    H2 8836   1.204   2.674  13.631
  591MPD2    H3 8837   1.323   2.706  13.813
  591MPD2     N 8838   1.217   2.326  14.016
  591MPD2    H5 8839   1.289   2.345  14.085
  591MPD2    N1 8840   1.039   2.455  13.567
  591MPD2    H7 8841   0.971   2.381  13.575
  592MPD2     C 8842   3.001   0.384   8.645
  592MPD2    C1 8843   3.103   0.450   8.708
  592MPD2    C2 8844   3.099   0.589   8.701
  592MPD2    C3 8845   2.993   0.653   8.635
  592MPD2    C4 8846   2.883   0.579   8.583
  592MPD2    C5 8847   2.893   0.443   8.598
  592MPD2     H 8848   3.183   0.648   8.739
  592MPD2    H1 8849   2.806   0.621   8.519
  592MPD2    H2 8850   3.010   0.276   8.637
  592MPD2    H3 8851   2.819   0.379   8.551
  592MPD2     N 8852   3.008   0.787   8.603
  592MPD2    H5 8853   3.099   0.820   8.634
  592MPD2    N1 8854   3.212   0.382   8.778
  592MPD2    H7 8855   3.223   0.283   8.762
  593MPD2     C 8856   3.455   0.037   9.703
  593MPD2    C1 8857   3.348   0.057   9.622
  593MPD2    C2 8858   3.363   0.098   9.486
  593MPD2    C3 8859   3.487   0.129   9.436
  593MPD2    C4 8860   3.595   0.112   9.525
  593MPD2    C5 8861   3.582   0.071   9.657
  593MPD2     H 8862   3.272   0.124   9.433
  593MPD2    H1 8863   3.695   0.136   9.491
  593MPD2    H2 8864   3.441   4.787   9.803
  593MPD2    H3 8865   3.664   0.058   9.726
  593MPD2     N 8866   3.508   0.172   9.304
  593MPD2    H5 8867   3.606   0.191   9.284
  593MPD2    N1 8868   3.214   0.063   9.669
  593MPD2    H7 8869   3.148   0.070   9.593
  594MPD2     C 8870   1.221   0.648   7.380
  594MPD2    C1 8871   1.100   0.644   7.449
  594MPD2    C2 8872   1.046   0.756   7.507
  594MPD2    C3 8873   1.112   0.876   7.489
  594MPD2    C4 8874   1.229   0.884   7.411
  594MPD2    C5 8875   1.285   0.766   7.368
  594MPD2     H 8876   0.949   0.756   7.555
  594MPD2    H1 8877   1.290   0.973   7.409
  594MPD2    H2 8878   1.269   0.559   7.340
  594MPD2    H3 8879   1.375   0.777   7.309
  594MPD2     N 8880   1.054   0.993   7.544
  594MPD2    H5 8881   0.977   0.982   7.609
  594MPD2    N1 8882   1.026   0.529   7.468
  594MPD2    H7 8883   0.931   0.540   7.501
  595MPD2     C 8884   3.317   4.588  13.618
  595MPD2    C1 8885   3.412   4.675  13.568
  595MPD2    C2 8886   3.436   4.661  13.433
  595MPD2    C3 8887   3.379   4.558  13.356
  595MPD2    C4 8888   3.281   4.481  13.413
  595MPD2    C5 8889   3.250   4.495  13.539
  595MPD2     H 8890   3.498   4.730  13.377
  595MPD2    H1 8891   3.216   4.411  13.360
  595MPD2    H2 8892   3.295   4.597  13.724
  595MPD2    H3 8893   3.164   4.441  13.576
  595MPD2     N 8894   3.411   4.531  13.226
  595MPD2    H5 8895   3.443   4.609  13.169
  595MPD2    N1 8896   3.489   4.768  13.640
  595MPD2    H7 8897   3.581   0.007  13.607
  596MPD2     C 8898   0.227   4.522  11.985
  596MPD2    C1 8899   0.137   4.574  11.888
  596MPD2    C2 8900   0.113   4.500  11.777
  596MPD2    C3 8901   0.176   4.378  11.754
  596MPD2    C4 8902   0.266   4.335  11.849
  596MPD2    C5 8903   0.296   4.410  11.963
  596MPD2     H 8904   0.048   4.533  11.697
  596MPD2    H1 8905   0.326   4.246  11.832
  596MPD2    H2 8906   0.261   4.584  12.067
  596MPD2    H3 8907   0.378   4.377  12.027
  596MPD2     N 8908   0.155   4.299  11.635
  596MPD2    H5 8909   0.213   4.216  11.634
  596MPD2    N1 8910   0.064   4.691  11.909
  596MPD2    H7 8911   4.785   4.715  11.837
  597MPD2     C 8912   3.587   3.530   9.396
  597MPD2    C1 8913   3.450   3.529   9.359
  597MPD2    C2 8914   3.363   3.480   9.456
  597MPD2    C3 8915   3.416   3.420   9.571
  597MPD2    C4 8916   3.556   3.415   9.594
  597MPD2    C5 8917   3.636   3.473   9.508
  597MPD2     H 8918   3.256   3.495   9.454
  597MPD2    H1 8919   3.604   3.376   9.684
  597MPD2    H2 8920   3.657   3.574   9.325
  597MPD2    H3 8921   3.743   3.482   9.525
  597MPD2     N 8922   3.331   3.379   9.679
  597MPD2    H5 8923   3.375   3.305   9.732
  597MPD2    N1 8924   3.410   3.600   9.241
  597MPD2    H7 8925   3.489   3.637   9.188
  598MPD2     C 8926   3.505   3.951   8.289
  598MPD2    C1 8927   3.569   3.846   8.353
  598MPD2    C2 8928   3.527   3.810   8.485
  598MPD2    C3 8929   3.420   3.875   8.539
  598MPD2    C4 8930   3.347   3.968   8.460
  598MPD2    C5 8931   3.390   3.998   8.336
  598MPD2     H 8932   3.577   3.733   8.542
  598MPD2    H1 8933   3.246   4.005   8.476
  598MPD2    H2 8934   3.535   3.990   8.192
  598MPD2    H3 8935   3.326   4.066   8.281
  598MPD2     N 8936   3.371   3.870   8.672
  598MPD2    H5 8937   3.300   3.938   8.697
  598MPD2    N1 8938   3.680   3.791   8.289
  598MPD2    H7 8939   3.698   3.837   8.200
  599MPD2     C 8940   2.560   2.389  13.396
  599MPD2    C1 8941   2.645   2.466  13.466
  599MPD2    C2 8942   2.774   2.456  13.433
  599MPD2    C3 8943   2.822   2.377  13.328
  599MPD2    C4 8944   2.732   2.319  13.245
  599MPD2    C5 8945   2.600   2.324  13.286
  599MPD2     H 8946   2.851   2.501  13.495
  599MPD2    H1 8947   2.758   2.263  13.156
  599MPD2    H2 8948   2.458   2.369  13.427
  599MPD2    H3 8949   2.530   2.264  13.229
  599MPD2     N 8950   2.958   2.372  13.308
  599MPD2    H5 8951   3.015   2.432  13.367
  599MPD2    N1 8952   2.589   2.535  13.580
  599MPD2    H7 8953   2.492   2.511  13.596
  600MPD2     C 8954   4.763   0.315  14.448
  600MPD2    C1 8955   4.784   0.448  14.438
  600MPD2    C2 8956   0.109   0.486  14.364
  600MPD2    C3 8957   0.193   0.405  14.291
  600MPD2    C4 8958   0.157   0.273  14.286
  600MPD2    C5 8959   0.045   0.233  14.359
  600MPD2     H 8960   0.133   0.592  14.362
  600MPD2    H1 8961   0.200   0.199  14.219
  600MPD2    H2 8962   4.668   0.281  14.490
  600MPD2    H3 8963   0.016   0.131  14.339
  600MPD2     N 8964   0.310   0.452  14.231
  600MPD2    H5 8965   0.361   0.390  14.170
  600MPD2    N1 8966   4.688   0.536  14.479
  600MPD2    H7 8967   4.619   0.499  14.544
  601MPD2     C 8968   0.585   1.011   7.197
  601MPD2    C1 8969   0.572   1.141   7.248
  601MPD2    C2 8970   0.470   1.229   7.197
  601MPD2    C3 8971   0.383   1.184   7.099
  601MPD2    C4 8972   0.415   1.061   7.031
  601MPD2    C5 8973   0.512   0.976   7.081
  601MPD2     H 8974   0.462   1.333   7.226
  601MPD2    H1 8975   0.368   1.031   6.938
  601MPD2    H2 8976   0.657   0.945   7.245
  601MPD2    H3 8977   0.528   0.879   7.035
  601MPD2     N 8978   0.279   1.254   7.041
  601MPD2    H5 8979   0.233   1.227   6.955
  601MPD2    N1 8980   0.655   1.173   7.356
  601MPD2    H7 8981   0.728   1.110   7.389
  602MPD2     C 8982   0.533   0.717  11.111
  602MPD2    C1 8983   0.410   0.773  11.133
  602MPD2    C2 8984   0.326   0.721  11.231
  602MPD2    C3 8985   0.372   0.608  11.312
  602MPD2    C4 8986   0.504   0.558  11.294
  602MPD2    C5 8987   0.581   0.619  11.199
  602MPD2     H 8988   0.225   0.758  11.245
  602MPD2    H1 8989   0.562   0.488  11.353
  602MPD2    H2 8990   0.602   0.756  11.038
  602MPD2    H3 8991   0.686   0.591  11.193
  602MPD2     N 8992   0.302   0.563  11.427
  602MPD2    H5 8993   0.353   0.501  11.489
  602MPD2    N1 8994   0.373   0.888  11.053
  602MPD2    H7 8995   0.450   0.938  11.009
  603MPD2     C 8996   3.134   3.482  10.295
  603MPD2    C1 8997   3.185   3.538  10.409
  603MPD2    C2 8998   3.108   3.541  10.524
  603MPD2    C3 8999   2.988   3.471  10.524
  603MPD2    C4 9000   2.940   3.423  10.398
  603MPD2    C5 9001   3.011   3.437  10.291
  603MPD2     H 9002   3.139   3.601  10.609
  603MPD2    H1 9003   2.842   3.378  10.388
  603MPD2    H2 9004   3.196   3.497  10.207
  603MPD2    H3 9005   2.988   3.390  10.195
  603MPD2     N 9006   2.925   3.462  10.650
  603MPD2    H5 9007   2.971   3.514  10.724
  603MPD2    N1 9008   3.308   3.605  10.400
  603MPD2    H7 9009   3.320   3.680  10.468
  604MPD2     C 9010   4.018   3.281   9.710
  604MPD2    C1 9011   4.045   3.369   9.818
  604MPD2    C2 9012   3.940   3.403   9.896
  604MPD2    C3 9013   3.815   3.341   9.885
  604MPD2    C4 9014   3.800   3.247   9.791
  604MPD2    C5 9015   3.895   3.221   9.697
  604MPD2     H 9016   3.955   3.481   9.971
  604MPD2    H1 9017   3.713   3.182   9.791
  604MPD2    H2 9018   4.100   3.236   9.654
  604MPD2    H3 9019   3.875   3.152   9.616
  604MPD2     N 9020   3.717   3.363   9.988
  604MPD2    H5 9021   3.744   3.421  10.067
  604MPD2    N1 9022   4.169   3.434   9.843
  604MPD2    H7 9023   4.184   3.509   9.910
  605MPD2     C 9024   2.172   1.998   8.438
  605MPD2    C1 9025   2.050   2.010   8.504
  605MPD2    C2 9026   1.931   2.007   8.435
  605MPD2    C3 9027   1.929   1.980   8.302
  605MPD2    C4 9028   2.047   1.969   8.230
  605MPD2    C5 9029   2.166   1.986   8.300
  605MPD2     H 9030   1.844   2.013   8.501
  605MPD2    H1 9031   2.047   1.954   8.123
  605MPD2    H2 9032   2.269   2.004   8.486
  605MPD2    H3 9033   2.256   1.984   8.240
  605MPD2     N 9034   1.810   1.969   8.230
  605MPD2    H5 9035   1.816   1.946   8.131
  605MPD2    N1 9036   2.045   2.053   8.638
  605MPD2    H7 9037   1.951   2.074   8.673
  606MPD2     C 9038   3.053   2.435  14.452
  606MPD2    C1 9039   2.923   2.397  14.463
  606MPD2    C2 9040   2.836   2.447  14.368
  606MPD2    C3 9041   2.889   2.525  14.266
  606MPD2    C4 9042   3.026   2.529  14.247
  606MPD2    C5 9043   3.109   2.489  14.344
  606MPD2     H 9044   2.730   2.424  14.372
  606MPD2    H1 9045   3.073   2.576  14.162
  606MPD2    H2 9046   3.124   2.411  14.531
  606MPD2    H3 9047   3.213   2.509  14.320
  606MPD2     N 9048   2.806   2.590  14.169
  606MPD2    H5 9049   2.856   2.650  14.105
  606MPD2    N1 9050   2.875   2.325  14.575
  606MPD2    H7 9051   2.938   2.270  14.634
  607MPD2     C 9052   0.432   2.440   8.623
  607MPD2    C1 9053   0.507   2.369   8.531
  607MPD2    C2 9054   0.491   2.236   8.511
  607MPD2    C3 9055   0.396   2.164   8.590
  607MPD2    C4 9056   0.337   2.233   8.692
  607MPD2    C5 9057   0.347   2.366   8.703
  607MPD2     H 9058   0.546   2.180   8.436
  607MPD2    H1 9059   0.267   2.181   8.756
  607MPD2    H2 9060   0.433   2.547   8.645
  607MPD2    H3 9061   0.303   2.422   8.785
  607MPD2     N 9062   0.362   2.025   8.573
  607MPD2    H5 9063   0.299   1.982   8.639
  607MPD2    N1 9064   0.609   2.431   8.451
  607MPD2    H7 9065   0.670   2.370   8.398
  608MPD2     C 9066   0.117   1.433  11.499
  608MPD2    C1 9067   0.145   1.331  11.580
  608MPD2    C2 9068   0.244   1.242  11.539
  608MPD2    C3 9069   0.323   1.266  11.427
  608MPD2    C4 9070   0.302   1.379  11.359
  608MPD2    C5 9071   0.197   1.464  11.399
  608MPD2     H 9072   0.263   1.162  11.608
  608MPD2    H1 9073   0.352   1.402  11.266
  608MPD2    H2 9074   0.048   1.513  11.523
  608MPD2    H3 9075   0.179   1.552  11.337
  608MPD2     N 9076   0.431   1.186  11.379
  608MPD2    H5 9077   0.490   1.237  11.314
  608MPD2    N1 9078   0.052   1.303  11.678
  608MPD2    H7 9079   4.760   1.365  11.688
  609MPD2     C 9080   1.941   2.028  12.220
  609MPD2    C1 9081   1.863   2.071  12.112
  609MPD2    C2 9082   1.902   2.030  11.990
  609MPD2    C3 9083   2.016   1.955  11.969
  609MPD2    C4 9084   2.106   1.933  12.076
  609MPD2    C5 9085   2.057   1.955  12.203
  609MPD2     H 9086   1.840   2.070  11.910
  609MPD2    H1 9087   2.204   1.885  12.070
  609MPD2    H2 9088   1.930   2.053  12.325
  609MPD2    H3 9089   2.111   1.938  12.296
  609MPD2     N 9090   2.057   1.919  11.834
  609MPD2    H5 9091   1.986   1.941  11.765
  609MPD2    N1 9092   1.746   2.144  12.132
  609MPD2    H7 9093   1.683   2.159  12.054
  610MPD2     C 9094   3.674   0.950  11.096
  610MPD2    C1 9095   3.575   0.892  11.012
  610MPD2    C2 9096   3.555   0.942  10.886
  610MPD2    C3 9097   3.634   1.040  10.846
  610MPD2    C4 9098   3.727   1.098  10.927
  610MPD2    C5 9099   3.752   1.048  11.050
  610MPD2     H 9100   3.478   0.891  10.829
  610MPD2    H1 9101   3.800   1.166  10.884
  610MPD2    H2 9102   3.711   0.900  11.185
  610MPD2    H3 9103   3.838   1.075  11.110
  610MPD2     N 9104   3.630   1.092  10.718
  610MPD2    H5 9105   3.689   1.170  10.689
  610MPD2    N1 9106   3.507   0.775  11.045
  610MPD2    H7 9107   3.426   0.750  10.989
  611MPD2     C 9108   1.689   0.367  13.333
  611MPD2    C1 9109   1.768   0.295  13.247
  611MPD2    C2 9110   1.903   0.323  13.235
  611MPD2    C3 9111   1.955   0.426  13.316
  611MPD2    C4 9112   1.881   0.496  13.406
  611MPD2    C5 9113   1.745   0.467  13.409
  611MPD2     H 9114   1.961   0.249  13.183
  611MPD2    H1 9115   1.928   0.571  13.469
  611MPD2    H2 9116   1.586   0.333  13.342
  611MPD2    H3 9117   1.686   0.527  13.477
  611MPD2     N 9118   2.094   0.455  13.317
  611MPD2    H5 9119   2.121   0.493  13.408
  611MPD2    N1 9120   1.706   0.186  13.175
  611MPD2    H7 9121   1.621   0.148  13.216
  612MPD2     C 9122   2.369   4.173  11.581
  612MPD2    C1 9123   2.329   4.309  11.565
  612MPD2    C2 9124   2.195   4.333  11.564
  612MPD2    C3 9125   2.096   4.233  11.570
  612MPD2    C4 9126   2.147   4.099  11.593
  612MPD2    C5 9127   2.279   4.076  11.597
  612MPD2     H 9128   2.153   4.431  11.579
  612MPD2    H1 9129   2.079   4.017  11.609
  612MPD2    H2 9130   2.471   4.141  11.565
  612MPD2    H3 9131   2.318   3.975  11.602
  612MPD2     N 9132   1.955   4.265  11.561
  612MPD2    H5 9133   1.890   4.187  11.556
  612MPD2    N1 9134   2.428   4.403  11.535
  612MPD2    H7 9135   2.519   4.367  11.562
  613MPD2     C 9136   1.565   0.018  11.571
  613MPD2    C1 9137   1.671   0.085  11.632
  613MPD2    C2 9138   1.795   0.086  11.563
  613MPD2    C3 9139   1.816   0.026  11.438
  613MPD2    C4 9140   1.705   4.750  11.388
  613MPD2    C5 9141   1.584   4.747  11.453
  613MPD2     H 9142   1.879   0.137  11.608
  613MPD2    H1 9143   1.706   4.700  11.292
  613MPD2    H2 9144   1.468   0.011  11.619
  613MPD2    H3 9145   1.498   4.687  11.424
  613MPD2     N 9146   1.940   0.020  11.357
  613MPD2    H5 9147   1.933   4.746  11.276
  613MPD2    N1 9148   1.661   0.164  11.745
  613MPD2    H7 9149   1.740   0.222  11.774
  614MPD2     C 9150   1.651   2.000   7.520
  614MPD2    C1 9151   1.662   2.090   7.620
  614MPD2    C2 9152   1.747   2.195   7.596
  614MPD2    C3 9153   1.830   2.199   7.485
  614MPD2    C4 9154   1.825   2.095   7.391
  614MPD2    C5 9155   1.730   2.001   7.409
  614MPD2     H 9156   1.764   2.271   7.672
  614MPD2    H1 9157   1.896   2.092   7.309
  614MPD2    H2 9158   1.583   1.918   7.538
  614MPD2    H3 9159   1.716   1.929   7.329
  614MPD2     N 9160   1.927   2.296   7.464
  614MPD2    H5 9161   2.004   2.265   7.406
  614MPD2    N1 9162   1.608   2.083   7.749
  614MPD2    H7 9163   1.626   2.165   7.806
  615MPD2     C 9164   0.511   4.138   9.415
  615MPD2    C1 9165   0.391   4.195   9.443
  615MPD2    C2 9166   0.338   4.282   9.352
  615MPD2    C3 9167   0.376   4.258   9.217
  615MPD2    C4 9168   0.485   4.183   9.184
  615MPD2    C5 9169   0.557   4.128   9.286
  615MPD2     H 9170   0.256   4.348   9.379
  615MPD2    H1 9171   0.515   4.179   9.080
  615MPD2    H2 9172   0.566   4.082   9.489
  615MPD2    H3 9173   0.655   4.085   9.264
  615MPD2     N 9174   0.292   4.308   9.122
  615MPD2    H5 9175   0.230   4.378   9.161
  615MPD2    N1 9176   0.342   4.175   9.572
  615MPD2    H7 9177   0.418   4.145   9.632
  616MPD2     C 9178   4.600   4.500   9.127
  616MPD2    C1 9179   4.565   4.368   9.113
  616MPD2    C2 9180   4.453   4.343   9.040
  616MPD2    C3 9181   4.389   4.437   8.969
  616MPD2    C4 9182   4.433   4.569   8.978
  616MPD2    C5 9183   4.534   4.602   9.064
  616MPD2     H 9184   4.417   4.241   9.032
  616MPD2    H1 9185   4.385   4.647   8.920
  616MPD2    H2 9186   4.691   4.525   9.179
  616MPD2    H3 9187   4.569   4.705   9.068
  616MPD2     N 9188   4.280   4.397   8.882
  616MPD2    H5 9189   4.244   4.304   8.901
  616MPD2    N1 9190   4.622   4.258   9.186
  616MPD2    H7 9191   4.565   4.175   9.194
  617MPD2     C 9192   4.515   1.438  14.422
  617MPD2    C1 9193   4.559   1.317  14.366
  617MPD2    C2 9194   4.644   1.325  14.259
  617MPD2    C3 9195   4.690   1.448  14.212
  617MPD2    C4 9196   4.644   1.571  14.267
  617MPD2    C5 9197   4.555   1.557  14.368
  617MPD2     H 9198   4.675   1.233  14.211
  617MPD2    H1 9199   4.664   1.671  14.230
  617MPD2    H2 9200   4.453   1.446  14.511
  617MPD2    H3 9201   4.527   1.646  14.425
  617MPD2     N 9202   4.784   1.440  14.102
  617MPD2    H5 9203   0.031   1.348  14.076
  617MPD2    N1 9204   4.509   1.198  14.429
  617MPD2    H7 9205   4.465   1.209  14.520
  618MPD2     C 9206   2.023   2.902  13.954
  618MPD2    C1 9207   2.110   2.869  14.054
  618MPD2    C2 9208   2.080   2.900  14.191
  618MPD2    C3 9209   1.963   2.973  14.228
  618MPD2    C4 9210   1.881   3.002  14.123
  618MPD2    C5 9211   1.909   2.979  13.986
  618MPD2     H 9212   2.145   2.861  14.268
  618MPD2    H1 9213   1.789   3.057  14.141
  618MPD2    H2 9214   2.046   2.888  13.849
  618MPD2    H3 9215   1.836   3.004  13.910
  618MPD2     N 9216   1.940   3.017  14.359
  618MPD2    H5 9217   1.848   3.055  14.378
  618MPD2    N1 9218   2.218   2.780  14.032
  618MPD2    H7 9219   2.284   2.757  14.106
  619MPD2     C 9220   3.791   4.575  10.045
  619MPD2    C1 9221   3.922   4.577  10.100
  619MPD2    C2 9222   3.985   4.701  10.105
  619MPD2    C3 9223   3.932   0.020  10.049
  619MPD2    C4 9224   3.804   0.014   9.986
  619MPD2    C5 9225   3.738   4.683   9.986
  619MPD2     H 9226   4.087   4.704  10.141
  619MPD2    H1 9227   3.756   0.107   9.957
  619MPD2    H2 9228   3.731   4.487  10.063
  619MPD2    H3 9229   3.637   4.677   9.947
  619MPD2     N 9230   3.997   0.147  10.041
  619MPD2    H5 9231   3.950   0.221   9.988
  619MPD2    N1 9232   3.974   4.471  10.178
  619MPD2    H7 9233   4.045   4.496  10.246
  620MPD2     C 9234   1.294   2.197  14.806
  620MPD2    C1 9235   1.403   2.249  14.877
  620MPD2    C2 9236   1.373   2.331  14.983
  620MPD2    C3 9237   1.238   2.366  15.022
  620MPD2    C4 9238   1.137   2.310  14.944
  620MPD2    C5 9239   1.165   2.217  14.839
  620MPD2     H 9240   1.449   2.381  15.041
  620MPD2    H1 9241   1.037   2.340  14.977
  620MPD2    H2 9242   1.314   2.122  14.730
  620MPD2    H3 9243   1.092   2.163  14.780
  620MPD2     N 9244   1.204   2.442  15.126
  620MPD2    H5 9245   1.108   2.473  15.122
  620MPD2    N1 9246   1.534   2.216  14.851
  620MPD2    H7 9247   1.607   2.262  14.906
  621MPD2     C 9248   1.688   2.398  14.513
  621MPD2    C1 9249   1.551   2.401  14.530
  621MPD2    C2 9250   1.496   2.477  14.632
  621MPD2    C3 9251   1.574   2.553  14.716
  621MPD2    C4 9252   1.713   2.550  14.702
  621MPD2    C5 9253   1.758   2.481  14.598
  621MPD2     H 9254   1.391   2.485  14.659
  621MPD2    H1 9255   1.780   2.604  14.768
  621MPD2    H2 9256   1.734   2.351  14.427
  621MPD2    H3 9257   1.862   2.491  14.571
  621MPD2     N 9258   1.522   2.643  14.812
  621MPD2    H5 9259   1.583   2.677  14.885
  621MPD2    N1 9260   1.457   2.312  14.467
  621MPD2    H7 9261   1.358   2.317  14.490
  622MPD2     C 9262   1.349   0.811   9.447
  622MPD2    C1 9263   1.250   0.868   9.378
  622MPD2    C2 9264   1.122   0.805   9.387
  622MPD2    C3 9265   1.099   0.703   9.473
  622MPD2    C4 9266   1.202   0.639   9.542
  622MPD2    C5 9267   1.322   0.702   9.527
  622MPD2     H 9268   1.033   0.839   9.336
  622MPD2    H1 9269   1.181   0.550   9.601
  622MPD2    H2 9270   1.444   0.862   9.440
  622MPD2    H3 9271   1.404   0.650   9.576
  622MPD2     N 9272   0.970   0.651   9.466
  622MPD2    H5 9273   0.909   0.679   9.390
  622MPD2    N1 9274   1.274   0.973   9.290
  622MPD2    H7 9275   1.369   0.998   9.267
  623MPD2     C 9276   1.172   0.380   8.981
  623MPD2    C1 9277   1.066   0.465   9.004
  623MPD2    C2 9278   1.075   0.595   8.962
  623MPD2    C3 9279   1.191   0.647   8.906
  623MPD2    C4 9280   1.301   0.559   8.898
  623MPD2    C5 9281   1.282   0.425   8.925
  623MPD2     H 9282   0.991   0.659   8.990
  623MPD2    H1 9283   1.400   0.589   8.863
  623MPD2    H2 9284   1.166   0.276   9.013
  623MPD2    H3 9285   1.367   0.358   8.918
  623MPD2     N 9286   1.210   0.787   8.885
  623MPD2    H5 9287   1.306   0.814   8.866
  623MPD2    N1 9288   0.957   0.432   9.078
  623MPD2    H7 9289   0.893   0.509   9.093
  624MPD2     C 9290   3.237   3.869   6.885
  624MPD2    C1 9291   3.270   3.982   6.829
  624MPD2    C2 9292   3.402   4.024   6.833
  624MPD2    C3 9293   3.495   3.946   6.899
  624MPD2    C4 9294   3.463   3.827   6.959
  624MPD2    C5 9295   3.331   3.790   6.951
  624MPD2     H 9296   3.429   4.112   6.776
  624MPD2    H1 9297   3.529   3.769   7.022
  624MPD2    H2 9298   3.134   3.836   6.892
  624MPD2    H3 9299   3.302   3.707   7.015
  624MPD2     N 9300   3.631   3.999   6.904
  624MPD2    H5 9301   3.656   4.073   6.840
  624MPD2    N1 9302   3.165   4.051   6.757
  624MPD2    H7 9303   3.076   4.003   6.762
  625MPD2     C 9304   3.510   0.104   6.666
  625MPD2    C1 9305   3.474   0.024   6.768
  625MPD2    C2 9306   3.372   4.717   6.764
  625MPD2    C3 9307   3.307   4.693   6.648
  625MPD2    C4 9308   3.349   4.766   6.543
  625MPD2    C5 9309   3.440   0.083   6.554
  625MPD2     H 9310   3.342   4.658   6.850
  625MPD2    H1 9311   3.316   4.758   6.440
  625MPD2    H2 9312   3.590   0.178   6.666
  625MPD2    H3 9313   3.444   0.138   6.461
  625MPD2     N 9314   3.208   4.593   6.639
  625MPD2    H5 9315   3.206   4.535   6.722
  625MPD2    N1 9316   3.545   0.047   6.894
  625MPD2    H7 9317   3.630   0.100   6.877
  626MPD2     C 9318   2.920   4.232   7.737
  626MPD2    C1 9319   2.948   4.287   7.619
  626MPD2    C2 9320   2.956   4.214   7.507
  626MPD2    C3 9321   2.936   4.072   7.512
  626MPD2    C4 9322   2.917   4.016   7.632
  626MPD2    C5 9323   2.917   4.102   7.744
  626MPD2     H 9324   2.973   4.260   7.410
  626MPD2    H1 9325   2.927   3.908   7.639
  626MPD2    H2 9326   2.916   4.284   7.832
  626MPD2    H3 9327   2.926   4.056   7.841
  626MPD2     N 9328   2.940   3.988   7.397
  626MPD2    H5 9329   2.929   3.889   7.419
  626MPD2    N1 9330   3.004   4.415   7.608
  626MPD2    H7 9331   3.033   4.443   7.515
  627MPD2     C 9332   2.872   2.034   9.700
  627MPD2    C1 9333   2.831   2.147   9.628
  627MPD2    C2 9334   2.922   2.206   9.532
  627MPD2    C3 9335   3.043   2.130   9.506
  627MPD2    C4 9336   3.079   2.010   9.571
  627MPD2    C5 9337   2.993   1.967   9.667
  627MPD2     H 9338   2.902   2.305   9.492
  627MPD2    H1 9339   3.167   1.956   9.542
  627MPD2    H2 9340   2.810   1.995   9.780
  627MPD2    H3 9341   3.026   1.882   9.725
  627MPD2     N 9342   3.135   2.161   9.390
  627MPD2    H5 9343   3.213   2.097   9.376
  627MPD2    N1 9344   2.697   2.190   9.644
  627MPD2    H7 9345   2.648   2.149   9.723
  628MPD2     C 9346   3.221   1.758   8.761
  628MPD2    C1 9347   3.300   1.874   8.737
  628MPD2    C2 9348   3.394   1.882   8.634
  628MPD2    C3 9349   3.415   1.763   8.554
  628MPD2    C4 9350   3.341   1.650   8.586
  628MPD2    C5 9351   3.247   1.650   8.687
  628MPD2     H 9352   3.432   1.980   8.606
  628MPD2    H1 9353   3.349   1.553   8.540
  628MPD2    H2 9354   3.140   1.755   8.833
  628MPD2    H3 9355   3.186   1.562   8.703
  628MPD2     N 9356   3.526   1.765   8.468
  628MPD2    H5 9357   3.580   1.851   8.473
  628MPD2    N1 9358   3.297   1.992   8.813
  628MPD2    H7 9359   3.355   2.066   8.776
  629MPD2     C 9360   4.760   1.185  14.950
  629MPD2    C1 9361   4.758   1.050  14.935
  629MPD2    C2 9362   0.060   0.967  15.003
  629MPD2    C3 9363   0.170   1.025  15.066
  629MPD2    C4 9364   0.185   1.165  15.053
  629MPD2    C5 9365   0.084   1.239  15.006
  629MPD2     H 9366   0.047   0.860  15.000
  629MPD2    H1 9367   0.272   1.221  15.085
  629MPD2    H2 9368   4.686   1.256  14.914
  629MPD2    H3 9369   0.095   1.347  15.014
  629MPD2     N 9370   0.270   0.942  15.119
  629MPD2    H5 9371   0.266   0.844  15.094
  629MPD2    N1 9372   4.659   1.002  14.849
  629MPD2    H7 9373   4.589   1.069  14.819
  630MPD2     C 9374   4.228   2.119   8.348
  630MPD2    C1 9375   4.179   2.054   8.468
  630MPD2    C2 9376   4.187   2.110   8.587
  630MPD2    C3 9377   4.255   2.231   8.599
  630MPD2    C4 9378   4.326   2.291   8.488
  630MPD2    C5 9379   4.300   2.225   8.365
  630MPD2     H 9380   4.147   2.063   8.677
  630MPD2    H1 9381   4.393   2.375   8.494
  630MPD2    H2 9382   4.213   2.082   8.247
  630MPD2    H3 9383   4.344   2.268   8.276
  630MPD2     N 9384   4.289   2.274   8.729
  630MPD2    H5 9385   4.262   2.215   8.806
  630MPD2    N1 9386   4.110   1.932   8.439
  630MPD2    H7 9387   4.115   1.917   8.339
  631MPD2     C 9388   0.983   2.502  14.290
  631MPD2    C1 9389   0.961   2.594  14.387
  631MPD2    C2 9390   0.842   2.575  14.469
  631MPD2    C3 9391   0.781   2.456  14.478
  631MPD2    C4 9392   0.817   2.357  14.392
  631MPD2    C5 9393   0.915   2.380  14.297
  631MPD2     H 9394   0.823   2.657  14.537
  631MPD2    H1 9395   0.781   2.256  14.400
  631MPD2    H2 9396   1.064   2.523  14.220
  631MPD2    H3 9397   0.947   2.301  14.231
  631MPD2     N 9398   0.674   2.437  14.561
  631MPD2    H5 9399   0.623   2.349  14.556
  631MPD2    N1 9400   1.032   2.714  14.415
  631MPD2    H7 9401   0.994   2.774  14.488
  632MPD2     C 9402   4.474   2.463  14.673
  632MPD2    C1 9403   4.555   2.352  14.669
  632MPD2    C2 9404   4.690   2.362  14.700
  632MPD2    C3 9405   4.739   2.479  14.749
  632MPD2    C4 9406   4.659   2.599  14.747
  632MPD2    C5 9407   4.529   2.590  14.702
  632MPD2     H 9408   4.756   2.276  14.699
  632MPD2    H1 9409   4.708   2.695  14.761
  632MPD2    H2 9410   4.368   2.448  14.655
  632MPD2    H3 9411   4.465   2.677  14.692
  632MPD2     N 9412   0.089   2.476  14.774
  632MPD2    H5 9413   0.141   2.389  14.771
  632MPD2    N1 9414   4.502   2.231  14.622
  632MPD2    H7 9415   4.402   2.224  14.612
  633MPD2     C 9416   2.147   4.771  10.596
  633MPD2    C1 9417   2.164   4.738  10.460
  633MPD2    C2 9418   2.159   0.049  10.364
  633MPD2    C3 9419   2.119   0.178  10.394
  633MPD2    C4 9420   2.112   0.207  10.531
  633MPD2    C5 9421   2.116   0.110  10.633
  633MPD2     H 9422   2.184   0.024  10.261
  633MPD2    H1 9423   2.091   0.308  10.564
  633MPD2    H2 9424   2.148   4.699  10.677
  633MPD2    H3 9425   2.114   0.135  10.738
  633MPD2     N 9426   2.102   0.281  10.301
  633MPD2    H5 9427   2.099   0.374  10.342
  633MPD2    N1 9428   2.211   4.611  10.427
  633MPD2    H7 9429   2.251   4.551  10.498
  634MPD2     C 9430   3.768   4.387   8.332
  634MPD2    C1 9431   3.707   4.465   8.233
  634MPD2    C2 9432   3.658   4.386   8.124
  634MPD2    C3 9433   3.675   4.248   8.114
  634MPD2    C4 9434   3.745   4.179   8.210
  634MPD2    C5 9435   3.788   4.251   8.317
  634MPD2     H 9436   3.604   4.439   8.046
  634MPD2    H1 9437   3.780   4.076   8.212
  634MPD2    H2 9438   3.810   4.424   8.425
  634MPD2    H3 9439   3.838   4.205   8.401
  634MPD2     N 9440   3.641   4.187   7.992
  634MPD2    H5 9441   3.586   4.243   7.928
  634MPD2    N1 9442   3.682   4.600   8.242
  634MPD2    H7 9443   3.629   4.648   8.169
  635MPD2     C 9444   1.940   3.803  14.742
  635MPD2    C1 9445   1.875   3.881  14.650
  635MPD2    C2 9446   1.895   3.857  14.509
  635MPD2    C3 9447   1.990   3.764  14.469
  635MPD2    C4 9448   2.064   3.705  14.564
  635MPD2    C5 9449   2.028   3.714  14.695
  635MPD2     H 9450   1.833   3.908  14.436
  635MPD2    H1 9451   2.133   3.625  14.537
  635MPD2    H2 9452   1.922   3.809  14.849
  635MPD2    H3 9453   2.071   3.646  14.767
  635MPD2     N 9454   2.024   3.762  14.330
  635MPD2    H5 9455   1.960   3.802  14.263
  635MPD2    N1 9456   1.783   3.980  14.699
  635MPD2    H7 9457   1.803   4.009  14.794
  636MPD2     C 9458   1.260   0.565  10.061
  636MPD2    C1 9459   1.388   0.576  10.001
  636MPD2    C2 9460   1.405   0.517   9.876
  636MPD2    C3 9461   1.303   0.436   9.821
  636MPD2    C4 9462   1.179   0.422   9.888
  636MPD2    C5 9463   1.161   0.481  10.007
  636MPD2     H 9464   1.505   0.523   9.833
  636MPD2    H1 9465   1.097   0.364   9.846
  636MPD2    H2 9466   1.241   0.610  10.157
  636MPD2    H3 9467   1.071   0.465  10.064
  636MPD2     N 9468   1.328   0.337   9.715
  636MPD2    H5 9469   1.257   0.267   9.697
  636MPD2    N1 9470   1.503   0.632  10.052
  636MPD2    H7 9471   1.584   0.650   9.994
  637MPD2     C 9472   1.993   3.610  10.061
  637MPD2    C1 9473   1.938   3.694  10.161
  637MPD2    C2 9474   1.811   3.738  10.159
  637MPD2    C3 9475   1.730   3.721  10.052
  637MPD2    C4 9476   1.780   3.641   9.949
  637MPD2    C5 9477   1.913   3.599   9.953
  637MPD2     H 9478   1.789   3.801  10.244
  637MPD2    H1 9479   1.721   3.618   9.861
  637MPD2    H2 9480   2.091   3.563  10.056
  637MPD2    H3 9481   1.956   3.537   9.874
  637MPD2     N 9482   1.590   3.752  10.058
  637MPD2    H5 9483   1.528   3.700   9.996
  637MPD2    N1 9484   2.004   3.724  10.279
  637MPD2    H7 9485   1.954   3.771  10.353
  638MPD2     C 9486   1.153   0.011  10.365
  638MPD2    C1 9487   1.130   0.111  10.457
  638MPD2    C2 9488   1.041   0.088  10.560
  638MPD2    C3 9489   0.974   4.754  10.565
  638MPD2    C4 9490   1.006   4.655  10.476
  638MPD2    C5 9491   1.099   4.673  10.379
  638MPD2     H 9492   1.018   0.165  10.634
  638MPD2    H1 9493   0.962   4.556  10.477
  638MPD2    H2 9494   1.225   0.017  10.284
  638MPD2    H3 9495   1.139   4.588  10.325
  638MPD2     N 9496   0.891   4.705  10.668
  638MPD2    H5 9497   0.863   4.607  10.670
  638MPD2    N1 9498   1.192   0.234  10.450
  638MPD2    H7 9499   1.173   0.301  10.523
  639MPD2     C 9500   2.038   2.489  15.112
  639MPD2    C1 9501   2.046   2.483  14.977
  639MPD2    C2 9502   2.055   2.611  14.907
  639MPD2    C3 9503   2.044   2.734  14.969
  639MPD2    C4 9504   2.035   2.732  15.107
  639MPD2    C5 9505   2.041   2.611  15.177
  639MPD2     H 9506   2.069   2.608  14.799
  639MPD2    H1 9507   2.033   2.821  15.169
  639MPD2    H2 9508   2.056   2.409  15.183
  639MPD2    H3 9509   2.020   2.612  15.283
  639MPD2     N 9510   2.034   2.840  14.885
  639MPD2    H5 9511   2.022   2.818  14.787
  639MPD2    N1 9512   2.039   2.361  14.903
  639MPD2    H7 9513   2.058   2.376  14.805
  640MPD2     C 9514   4.502   2.779   8.073
  640MPD2    C1 9515   4.369   2.809   8.073
  640MPD2    C2 9516   4.288   2.768   8.177
  640MPD2    C3 9517   4.329   2.673   8.273
  640MPD2    C4 9518   4.461   2.643   8.269
  640MPD2    C5 9519   4.550   2.699   8.178
  640MPD2     H 9520   4.184   2.798   8.172
  640MPD2    H1 9521   4.509   2.575   8.339
  640MPD2    H2 9522   4.573   2.815   7.998
  640MPD2    H3 9523   4.655   2.675   8.180
  640MPD2     N 9524   4.243   2.625   8.378
  640MPD2    H5 9525   4.291   2.587   8.459
  640MPD2    N1 9526   4.308   2.897   7.980
  640MPD2    H7 9527   4.209   2.910   7.996
  641MPD2     C 9528   0.008   4.205   6.926
  641MPD2    C1 9529   0.110   4.137   6.992
  641MPD2    C2 9530   0.080   4.037   7.077
  641MPD2    C3 9531   4.731   4.011   7.109
  641MPD2    C4 9532   4.634   4.090   7.053
  641MPD2    C5 9533   4.665   4.182   6.960
  641MPD2     H 9534   0.162   3.987   7.126
  641MPD2    H1 9535   4.531   4.083   7.086
  641MPD2    H2 9536   0.032   4.283   6.855
  641MPD2    H3 9537   4.588   4.248   6.922
  641MPD2     N 9538   4.698   3.915   7.205
  641MPD2    H5 9539   4.604   3.905   7.243
  641MPD2    N1 9540   0.239   4.169   6.942
  641MPD2    H7 9541   0.254   4.240   6.871
  642MPD2     C 9542   4.089   1.492   7.285
  642MPD2    C1 9543   4.023   1.367   7.288
  642MPD2    C2 9544   4.086   1.262   7.224
  642MPD2    C3 9545   4.213   1.273   7.177
  642MPD2    C4 9546   4.280   1.392   7.191
  642MPD2    C5 9547   4.218   1.504   7.237
  642MPD2     H 9548   4.041   1.164   7.228
  642MPD2    H1 9549   4.370   1.411   7.134
  642MPD2    H2 9550   4.046   1.581   7.329
  642MPD2    H3 9551   4.266   1.600   7.231
  642MPD2     N 9552   4.290   1.165   7.124
  642MPD2    H5 9553   4.368   1.204   7.072
  642MPD2    N1 9554   3.897   1.332   7.345
  642MPD2    H7 9555   3.863   1.236   7.341
  643MPD2     C 9556   0.238   4.555   8.426
  643MPD2    C1 9557   0.183   4.684   8.447
  643MPD2    C2 9558   0.052   4.689   8.487
  643MPD2    C3 9559   4.756   4.582   8.480
  643MPD2    C4 9560   0.021   4.464   8.433
  643MPD2    C5 9561   0.151   4.452   8.409
  643MPD2     H 9562   0.025   0.002   8.518
  643MPD2    H1 9563   4.745   4.376   8.438
  643MPD2    H2 9564   0.340   4.529   8.397
  643MPD2    H3 9565   0.193   4.354   8.392
  643MPD2     N 9566   4.618   4.590   8.509
  643MPD2    H5 9567   4.561   4.507   8.494
  643MPD2    N1 9568   0.263   0.012   8.467
  643MPD2    H7 9569   0.218   0.102   8.472
  644MPD2     C 9570   1.001   4.434   9.570
  644MPD2    C1 9571   1.052   4.526   9.477
  644MPD2    C2 9572   1.024   4.520   9.343
  644MPD2    C3 9573   0.942   4.421   9.293
  644MPD2    C4 9574   0.904   4.320   9.381
  644MPD2    C5 9575   0.934   4.325   9.517
  644MPD2     H 9576   1.074   4.590   9.277
  644MPD2    H1 9577   0.852   4.231   9.348
  644MPD2    H2 9578   1.027   4.437   9.675
  644MPD2    H3 9579   0.896   4.253   9.589
  644MPD2     N 9580   0.923   4.402   9.154
  644MPD2    H5 9581   0.961   4.477   9.097
  644MPD2    N1 9582   1.138   4.623   9.536
  644MPD2    H7 9583   1.174   4.603   9.628
  645MPD2     C 9584   4.075   4.000   6.209
  645MPD2    C1 9585   4.180   4.057   6.289
  645MPD2    C2 9586   4.154   4.115   6.417
  645MPD2    C3 9587   4.021   4.113   6.455
  645MPD2    C4 9588   3.927   4.051   6.382
  645MPD2    C5 9589   3.951   4.001   6.257
  645MPD2     H 9590   4.229   4.152   6.486
  645MPD2    H1 9591   3.826   4.040   6.419
  645MPD2    H2 9592   4.094   3.952   6.113
  645MPD2    H3 9593   3.866   3.954   6.209
  645MPD2     N 9594   3.977   4.148   6.579
  645MPD2    H5 9595   3.881   4.128   6.602
  645MPD2    N1 9596   4.305   4.043   6.242
  645MPD2    H7 9597   4.320   3.976   6.167
  646MPD2     C 9598   2.219   1.635  15.393
  646MPD2    C1 9599   2.140   1.735  15.356
  646MPD2    C2 9600   2.198   1.845  15.294
  646MPD2    C3 9601   2.335   1.856  15.273
  646MPD2    C4 9602   2.408   1.746  15.303
  646MPD2    C5 9603   2.349   1.638  15.366
  646MPD2     H 9604   2.139   1.932  15.269
  646MPD2    H1 9605   2.506   1.729  15.260
  646MPD2    H2 9606   2.181   1.544  15.439
  646MPD2    H3 9607   2.413   1.552  15.382
  646MPD2     N 9608   2.385   1.971  15.216
  646MPD2    H5 9609   2.317   2.043  15.193
  646MPD2    N1 9610   2.000   1.733  15.371
  646MPD2    H7 9611   1.951   1.811  15.329
  647MPD2     C 9612   3.802   1.956  14.135
  647MPD2    C1 9613   3.788   1.972  14.268
  647MPD2    C2 9614   3.900   1.989  14.346
  647MPD2    C3 9615   4.027   1.956  14.296
  647MPD2    C4 9616   4.040   1.928  14.160
  647MPD2    C5 9617   3.930   1.930  14.079
  647MPD2     H 9618   3.892   2.020  14.450
  647MPD2    H1 9619   4.132   1.905  14.107
  647MPD2    H2 9620   3.706   1.952  14.085
  647MPD2    H3 9621   3.944   1.917  13.973
  647MPD2     N 9622   4.136   1.943  14.378
  647MPD2    H5 9623   4.224   1.942  14.326
  647MPD2    N1 9624   3.651   1.981  14.311
  647MPD2    H7 9625   3.588   1.987  14.232
  648MPD2     C 9626   1.100   2.962  11.218
  648MPD2    C1 9627   1.189   2.940  11.106
  648MPD2    C2 9628   1.288   3.031  11.079
  648MPD2    C3 9629   1.309   3.135  11.167
  648MPD2    C4 9630   1.216   3.163  11.266
  648MPD2    C5 9631   1.124   3.070  11.299
  648MPD2     H 9632   1.358   3.005  11.001
  648MPD2    H1 9633   1.226   3.251  11.328
  648MPD2    H2 9634   1.009   2.908  11.239
  648MPD2    H3 9635   1.051   3.091  11.377
  648MPD2     N 9636   1.423   3.226  11.155
  648MPD2    H5 9637   1.418   3.313  11.207
  648MPD2    N1 9638   1.172   2.829  11.022
  648MPD2    H7 9639   1.102   2.769  11.065
  649MPD2     C 9640   3.020   4.541   8.769
  649MPD2    C1 9641   2.916   4.584   8.849
  649MPD2    C2 9642   2.845   4.698   8.817
  649MPD2    C3 9643   2.884   4.776   8.705
  649MPD2    C4 9644   2.985   4.725   8.628
  649MPD2    C5 9645   3.052   4.611   8.659
  649MPD2     H 9646   2.761   4.718   8.883
  649MPD2    H1 9647   3.016   4.766   8.532
  649MPD2    H2 9648   3.079   4.452   8.787
  649MPD2    H3 9649   3.130   4.572   8.594
  649MPD2     N 9650   2.803   0.094   8.653
  649MPD2    H5 9651   2.803   0.090   8.551
  649MPD2    N1 9652   2.877   4.514   8.964
  649MPD2    H7 9653   2.808   4.562   9.021
  650MPD2     C 9654   3.673   2.845   8.116
  650MPD2    C1 9655   3.733   2.908   8.220
  650MPD2    C2 9656   3.763   3.043   8.206
  650MPD2    C3 9657   3.724   3.112   8.091
  650MPD2    C4 9658   3.657   3.043   7.990
  650MPD2    C5 9659   3.633   2.913   8.002
  650MPD2     H 9660   3.815   3.099   8.283
  650MPD2    H1 9661   3.621   3.082   7.896
  650MPD2    H2 9662   3.632   2.746   8.135
  650MPD2    H3 9663   3.582   2.861   7.922
  650MPD2     N 9664   3.747   3.249   8.089
  650MPD2    H5 9665   3.795   3.279   8.173
  650MPD2    N1 9666   3.775   2.836   8.330
  650MPD2    H7 9667   3.756   2.736   8.326
  651TMC3    C1 9668   0.671   2.861   9.858
  651TMC3    C2 9669   0.666   2.986   9.802
  651TMC3    C3 9670   0.712   3.088   9.874
  651TMC3    C4 9671   0.744   2.825   9.971
  651TMC3    C5 9672   0.805   2.932  10.033
  651TMC3    C6 9673   0.785   3.069   9.990
  651TMC3     C 9674   0.565   2.766   9.808
  651TMC3     O 9675   0.531   2.773   9.690
  651TMC3     H 9676   0.585   2.999   9.731
  651TMC3    H1 9677   0.777   2.723   9.988
  651TMC3    H2 9678   0.823   3.151  10.049
  651TMC3    C7 9679   0.915   2.895  10.117
  651TMC3    C8 9680   0.631   3.207   9.873
  651TMC3    O1 9681   0.904   2.794  10.182
  651TMC3    O2 9682   0.533   3.214   9.797
  652TMC3    C1 9683   1.189   3.808   6.838
  652TMC3    C2 9684   1.262   3.918   6.803
  652TMC3    C3 9685   1.312   3.931   6.675
  652TMC3    C4 9686   1.180   3.696   6.760
  652TMC3    C5 9687   1.245   3.704   6.635
  652TMC3    C6 9688   1.306   3.824   6.591
  652TMC3     C 9689   1.144   3.795   6.978
  652TMC3     O 9690   1.053   3.721   7.011
  652TMC3     H 9691   1.258   4.007   6.864
  652TMC3    H1 9692   1.116   3.616   6.796
  652TMC3    H2 9693   1.363   3.838   6.500
  652TMC3    C7 9694   1.243   3.599   6.533
  652TMC3    C8 9695   1.345   4.064   6.633
  652TMC3    O1 9696   1.264   3.642   6.423
  652TMC3    O2 9697   1.278   4.107   6.535
  653TMC3    C1 9698   1.843   2.565  12.399
  653TMC3    C2 9699   1.945   2.641  12.424
  653TMC3    C3 9700   1.955   2.695  12.549
  653TMC3    C4 9701   1.760   2.509  12.495
  653TMC3    C5 9702   1.777   2.553  12.621
  653TMC3    C6 9703   1.879   2.645  12.652
  653TMC3     C 9704   1.809   2.543  12.260
  653TMC3     O 9705   1.691   2.533  12.233
  653TMC3     H 9706   2.019   2.671  12.350
  653TMC3    H1 9707   1.683   2.434  12.476
  653TMC3    H2 9708   1.881   2.693  12.749
  653TMC3    C7 9709   1.739   2.453  12.719
  653TMC3    C8 9710   2.064   2.790  12.575
  653TMC3    O1 9711   1.643   2.381  12.693
  653TMC3    O2 9712   2.135   2.760  12.671
  654TMC3    C1 9713   4.696   1.017   7.840
  654TMC3    C2 9714   4.749   1.065   7.725
  654TMC3    C3 9715   4.693   1.174   7.671
  654TMC3    C4 9716   4.582   1.072   7.893
  654TMC3    C5 9717   4.537   1.189   7.841
  654TMC3    C6 9718   4.590   1.241   7.731
  654TMC3     C 9719   4.733   0.874   7.859
  654TMC3     O 9720   4.642   0.792   7.873
  654TMC3     H 9721   0.040   1.024   7.663
  654TMC3    H1 9722   4.539   1.017   7.977
  654TMC3    H2 9723   4.549   1.336   7.699
  654TMC3    C7 9724   4.450   1.272   7.926
  654TMC3    C8 9725   4.697   1.190   7.523
  654TMC3    O1 9726   4.509   1.374   7.961
  654TMC3    O2 9727   4.738   1.090   7.466
  655TMC3    C1 9728   4.059   2.395  10.137
  655TMC3    C2 9729   4.067   2.306  10.036
  655TMC3    C3 9730   4.063   2.177  10.069
  655TMC3    C4 9731   4.028   2.359  10.263
  655TMC3    C5 9732   4.034   2.226  10.296
  655TMC3    C6 9733   4.048   2.135  10.200
  655TMC3     C 9734   4.085   2.540  10.120
  655TMC3     O 9735   4.062   2.610  10.217
  655TMC3     H 9736   4.090   2.339   9.935
  655TMC3    H1 9737   4.027   2.430  10.344
  655TMC3    H2 9738   4.043   2.028  10.214
  655TMC3    C7 9739   4.009   2.187  10.434
  655TMC3    C8 9740   4.127   2.086   9.971
  655TMC3    O1 9741   3.955   2.277  10.500
  655TMC3    O2 9742   4.195   2.148   9.887
  656TMC3    C1 9743   2.736   3.800  14.193
  656TMC3    C2 9744   2.819   3.868  14.108
  656TMC3    C3 9745   2.948   3.829  14.091
  656TMC3    C4 9746   2.772   3.687  14.255
  656TMC3    C5 9747   2.900   3.641  14.230
  656TMC3    C6 9748   2.987   3.717  14.154
  656TMC3     C 9749   2.597   3.837  14.184
  656TMC3     O 9750   2.560   3.876  14.076
  656TMC3     H 9751   2.778   3.960  14.069
  656TMC3    H1 9752   2.699   3.622  14.303
  656TMC3    H2 9753   3.087   3.675  14.157
  656TMC3    C7 9754   2.899   3.511  14.168
  656TMC3    C8 9755   3.016   3.850  13.963
  656TMC3    O1 9756   2.956   3.512  14.059
  656TMC3    O2 9757   2.996   3.960  13.914
  657TMC3    C1 9758   4.627   2.751   8.585
  657TMC3    C2 9759   4.682   2.804   8.466
  657TMC3    C3 9760   4.634   2.920   8.411
  657TMC3    C4 9761   4.533   2.828   8.654
  657TMC3    C5 9762   4.493   2.948   8.600
  657TMC3    C6 9763   4.530   2.987   8.472
  657TMC3     C 9764   4.655   2.615   8.608
  657TMC3     O 9765   4.699   2.559   8.510
  657TMC3     H 9766   4.762   2.747   8.420
  657TMC3    H1 9767   4.511   2.797   8.756
  657TMC3    H2 9768   4.492   3.075   8.421
  657TMC3    C7 9769   4.496   3.062   8.687
  657TMC3    C8 9770   4.746   3.000   8.362
  657TMC3    O1 9771   4.575   3.057   8.782
  657TMC3    O2 9772   0.066   2.942   8.345
  658TMC3    C1 9773   1.325   2.405   8.467
  658TMC3    C2 9774   1.436   2.368   8.394
  658TMC3    C3 9775   1.497   2.472   8.324
  658TMC3    C4 9776   1.290   2.541   8.489
  658TMC3    C5 9777   1.371   2.639   8.428
  658TMC3    C6 9778   1.467   2.602   8.335
  658TMC3     C 9779   1.252   2.309   8.534
  658TMC3     O 9780   1.238   2.194   8.490
  658TMC3     H 9781   1.452   2.264   8.369
  658TMC3    H1 9782   1.205   2.562   8.552
  658TMC3    H2 9783   1.533   2.665   8.276
  658TMC3    C7 9784   1.357   2.776   8.458
  658TMC3    C8 9785   1.626   2.456   8.244
  658TMC3    O1 9786   1.421   2.842   8.373
  658TMC3    O2 9787   1.627   2.518   8.139
  659TMC3    C1 9788   2.413   2.811  12.043
  659TMC3    C2 9789   2.440   2.833  12.180
  659TMC3    C3 9790   2.436   2.963  12.217
  659TMC3    C4 9791   2.393   2.913  11.952
  659TMC3    C5 9792   2.390   3.038  12.004
  659TMC3    C6 9793   2.403   3.069  12.137
  659TMC3     C 9794   2.392   2.668  12.001
  659TMC3     O 9795   2.357   2.599  12.095
  659TMC3     H 9796   2.454   2.755  12.254
  659TMC3    H1 9797   2.375   2.886  11.849
  659TMC3    H2 9798   2.391   3.171  12.173
  659TMC3    C7 9799   2.338   3.145  11.918
  659TMC3    C8 9800   2.457   3.007  12.359
  659TMC3    O1 9801   2.240   3.117  11.852
  659TMC3    O2 9802   2.402   2.945  12.450
  660TMC3    C1 9803   4.400   4.031  14.720
  660TMC3    C2 9804   4.387   4.157  14.661
  660TMC3    C3 9805   4.479   4.198  14.578
  660TMC3    C4 9806   4.518   3.967  14.711
  660TMC3    C5 9807   4.630   4.031  14.655
  660TMC3    C6 9808   4.608   4.143  14.579
  660TMC3     C 9809   4.297   3.932  14.674
  660TMC3     O 9810   4.344   3.839  14.618
  660TMC3     H 9811   4.288   4.199  14.667
  660TMC3    H1 9812   4.529   3.884  14.779
  660TMC3    H2 9813   4.685   4.174  14.509
  660TMC3    C7 9814   4.750   3.960  14.644
  660TMC3    C8 9815   4.422   4.215  14.443
  660TMC3    O1 9816   4.742   3.837  14.647
  660TMC3    O2 9817   4.312   4.170  14.428
  661TMC3    C1 9818   0.388   2.603  11.964
  661TMC3    C2 9819   0.293   2.540  11.883
  661TMC3    C3 9820   0.318   2.414  11.851
  661TMC3    C4 9821   0.489   2.531  12.024
  661TMC3    C5 9822   0.508   2.404  11.989
  661TMC3    C6 9823   0.418   2.336  11.909
  661TMC3     C 9824   0.405   2.743  11.941
  661TMC3     O 9825   0.309   2.787  11.880
  661TMC3     H 9826   0.216   2.597  11.832
  661TMC3    H1 9827   0.570   2.582  12.075
  661TMC3    H2 9828   0.441   2.240  11.865
  661TMC3    C7 9829   0.645   2.367  11.997
  661TMC3    C8 9830   0.247   2.359  11.734
  661TMC3    O1 9831   0.718   2.412  12.085
  661TMC3    O2 9832   0.296   2.268  11.673
  662TMC3    C1 9833   4.692   2.374  10.743
  662TMC3    C2 9834   0.026   2.300  10.727
  662TMC3    C3 9835   0.047   2.202  10.818
  662TMC3    C4 9836   4.604   2.348  10.844
  662TMC3    C5 9837   4.628   2.247  10.929
  662TMC3    C6 9838   4.746   2.171  10.923
  662TMC3     C 9839   4.669   2.491  10.655
  662TMC3     O 9840   4.764   2.544  10.603
  662TMC3     H 9841   0.102   2.333  10.658
  662TMC3    H1 9842   4.516   2.406  10.869
  662TMC3    H2 9843   4.757   2.087  10.991
  662TMC3    C7 9844   4.575   2.285  11.060
  662TMC3    C8 9845   0.175   2.133  10.809
  662TMC3    O1 9846   4.513   2.209  11.125
  662TMC3    O2 9847   0.221   2.141  10.695
  663TMC3    C1 9848   1.592   1.445   7.988
  663TMC3    C2 9849   1.550   1.472   7.859
  663TMC3    C3 9850   1.460   1.579   7.852
  663TMC3    C4 9851   1.537   1.503   8.100
  663TMC3    C5 9852   1.445   1.599   8.085
  663TMC3    C6 9853   1.403   1.629   7.961
  663TMC3     C 9854   1.691   1.334   8.009
  663TMC3     O 9855   1.737   1.276   7.911
  663TMC3     H 9856   1.603   1.440   7.770
  663TMC3    H1 9857   1.552   1.470   8.202
  663TMC3    H2 9858   1.336   1.714   7.954
  663TMC3    C7 9859   1.352   1.620   8.193
  663TMC3    C8 9860   1.351   1.566   7.754
  663TMC3    O1 9861   1.242   1.669   8.164
  663TMC3    O2 9862   1.279   1.466   7.762
  664TMC3    C1 9863   1.473   3.758  11.423
  664TMC3    C2 9864   1.486   3.724  11.556
  664TMC3    C3 9865   1.597   3.770  11.629
  664TMC3    C4 9866   1.566   3.840  11.362
  664TMC3    C5 9867   1.666   3.886  11.438
  664TMC3    C6 9868   1.691   3.854  11.567
  664TMC3     C 9869   1.381   3.683  11.347
  664TMC3     O 9870   1.294   3.632  11.417
  664TMC3     H 9871   1.411   3.662  11.604
  664TMC3    H1 9872   1.541   3.892  11.270
  664TMC3    H2 9873   1.788   3.880  11.608
  664TMC3    C7 9874   1.754   3.987  11.373
  664TMC3    C8 9875   1.639   3.692  11.738
  664TMC3    O1 9876   1.810   4.049  11.456
  664TMC3    O2 9877   1.738   3.732  11.797
  665TMC3    C1 9878   2.844   2.531  10.331
  665TMC3    C2 9879   2.743   2.620  10.334
  665TMC3    C3 9880   2.614   2.587  10.363
  665TMC3    C4 9881   2.820   2.397  10.349
  665TMC3    C5 9882   2.694   2.369  10.384
  665TMC3    C6 9883   2.588   2.458  10.388
  665TMC3     C 9884   2.941   2.540  10.228
  665TMC3     O 9885   2.967   2.446  10.156
  665TMC3     H 9886   2.769   2.722  10.311
  665TMC3    H1 9887   2.905   2.334  10.373
  665TMC3    H2 9888   2.485   2.425  10.391
  665TMC3    C7 9889   2.649   2.229  10.406
  665TMC3    C8 9890   2.514   2.690  10.359
  665TMC3    O1 9891   2.545   2.216  10.470
  665TMC3    O2 9892   2.539   2.785  10.281
  666TMC3    C1 9893   1.489   1.992  13.848
  666TMC3    C2 9894   1.536   2.118  13.871
  666TMC3    C3 9895   1.479   2.217  13.800
  666TMC3    C4 9896   1.371   1.966  13.775
  666TMC3    C5 9897   1.315   2.078  13.722
  666TMC3    C6 9898   1.371   2.204  13.716
  666TMC3     C 9899   1.589   1.902  13.814
  666TMC3     O 9900   1.549   1.792  13.780
  666TMC3     H 9901   1.629   2.135  13.923
  666TMC3    H1 9902   1.336   1.869  13.741
  666TMC3    H2 9903   1.322   2.291  13.676
  666TMC3    C7 9904   1.187   2.073  13.668
  666TMC3    C8 9905   1.522   2.348  13.830
  666TMC3    O1 9906   1.145   2.161  13.591
  666TMC3    O2 9907   1.555   2.364  13.952
  667TMC3    C1 9908   1.040   2.590  10.461
  667TMC3    C2 9909   1.164   2.634  10.459
  667TMC3    C3 9910   1.239   2.611  10.348
  667TMC3    C4 9911   0.981   2.532  10.356
  667TMC3    C5 9912   1.062   2.508  10.243
  667TMC3    C6 9913   1.195   2.541  10.238
  667TMC3     C 9914   0.960   2.672  10.547
  667TMC3     O 9915   0.948   2.658  10.668
  667TMC3     H 9916   1.193   2.707  10.534
  667TMC3    H1 9917   0.874   2.515  10.354
  667TMC3    H2 9918   1.255   2.515  10.151
  667TMC3    C7 9919   0.995   2.504  10.116
  667TMC3    C8 9920   1.372   2.660  10.348
  667TMC3    O1 9921   1.059   2.568  10.029
  667TMC3    O2 9922   1.459   2.580  10.370
  668TMC3    C1 9923   2.682   4.480  11.161
  668TMC3    C2 9924   2.665   4.613  11.158
  668TMC3    C3 9925   2.671   4.679  11.280
  668TMC3    C4 9926   2.708   4.409  11.274
  668TMC3    C5 9927   2.727   4.481  11.390
  668TMC3    C6 9928   2.709   4.615  11.398
  668TMC3     C 9929   2.738   4.432  11.040
  668TMC3     O 9930   2.804   4.511  10.972
  668TMC3     H 9931   2.662   4.667  11.064
  668TMC3    H1 9932   2.710   4.301  11.268
  668TMC3    H2 9933   2.709   4.658  11.497
  668TMC3    C7 9934   2.763   4.405  11.509
  668TMC3    C8 9935   2.650   0.038  11.287
  668TMC3    O1 9936   2.704   4.300  11.524
  668TMC3    O2 9937   2.575   0.079  11.199
  669TMC3    C1 9938   1.560   3.737   8.691
  669TMC3    C2 9939   1.693   3.745   8.649
  669TMC3    C3 9940   1.720   3.855   8.571
  669TMC3    C4 9941   1.475   3.845   8.678
  669TMC3    C5 9942   1.517   3.956   8.607
  669TMC3    C6 9943   1.638   3.960   8.551
  669TMC3     C 9944   1.522   3.625   8.773
  669TMC3     O 9945   1.411   3.576   8.750
  669TMC3     H 9946   1.763   3.662   8.652
  669TMC3    H1 9947   1.376   3.831   8.720
  669TMC3    H2 9948   1.680   4.050   8.509
  669TMC3    C7 9949   1.432   4.075   8.605
  669TMC3    C8 9950   1.861   3.874   8.534
  669TMC3    O1 9951   1.447   4.152   8.511
  669TMC3    O2 9952   1.940   3.872   8.628
  670TMC3    C1 9953   0.768   1.525  14.796
  670TMC3    C2 9954   0.758   1.444  14.691
  670TMC3    C3 9955   0.866   1.364  14.669
  670TMC3    C4 9956   0.877   1.532  14.884
  670TMC3    C5 9957   0.980   1.449  14.862
  670TMC3    C6 9958   0.976   1.361  14.749
  670TMC3     C 9959   0.711   1.657  14.788
  670TMC3     O 9960   0.770   1.743  14.853
  670TMC3     H 9961   0.681   1.445  14.615
  670TMC3    H1 9962   0.863   1.587  14.976
  670TMC3    H2 9963   1.054   1.286  14.745
  670TMC3    C7 9964   1.101   1.488  14.922
  670TMC3    C8 9965   0.840   1.254  14.581
  670TMC3    O1 9966   1.092   1.532  15.039
  670TMC3    O2 9967   0.728   1.210  14.564
  671TMC3    C1 9968   2.648   1.632  10.661
  671TMC3    C2 9969   2.518   1.680  10.662
  671TMC3    C3 9970   2.496   1.810  10.684
  671TMC3    C4 9971   2.749   1.716  10.680
  671TMC3    C5 9972   2.720   1.850  10.695
  671TMC3    C6 9973   2.594   1.898  10.714
  671TMC3     C 9974   2.649   1.498  10.728
  671TMC3     O 9975   2.535   1.468  10.767
  671TMC3     H 9976   2.439   1.624  10.614
  671TMC3    H1 9977   2.851   1.694  10.652
  671TMC3    H2 9978   2.576   2.004  10.725
  671TMC3    C7 9979   2.837   1.939  10.677
  671TMC3    C8 9980   2.391   1.818  10.781
  671TMC3    O1 9981   2.948   1.897  10.694
  671TMC3    O2 9982   2.366   1.931  10.822
  672TMC3    C1 9983   2.578   1.286  10.408
  672TMC3    C2 9984   2.506   1.373  10.332
  672TMC3    C3 9985   2.379   1.401  10.377
  672TMC3    C4 9986   2.521   1.227  10.517
  672TMC3    C5 9987   2.386   1.241  10.539
  672TMC3    C6 9988   2.315   1.337  10.476
  672TMC3     C 9989   2.715   1.315  10.414
  672TMC3     O 9990   2.748   1.421  10.368
  672TMC3     H 9991   2.557   1.426  10.252
  672TMC3    H1 9992   2.586   1.173  10.584
  672TMC3    H2 9993   2.208   1.354  10.489
  672TMC3    C7 9994   2.298   1.135  10.585
  672TMC3    C8 9995   2.325   1.517  10.310
  672TMC3    O1 9996   2.182   1.129  10.546
  672TMC3    O2 9997   2.365   1.525  10.194
  673TMC3    C1 9998   1.861   0.747  13.932
  673TMC3    C2 9999   1.886   0.651  13.840
  673TMC3    C310000   1.897   0.524  13.878
  673TMC3    C410001   1.851   0.722  14.065
  673TMC3    C510002   1.864   0.594  14.105
  673TMC3    C610003   1.888   0.489  14.012
  673TMC3     C10004   1.852   0.892  13.891
  673TMC3     O10005   1.782   0.917  13.796
  673TMC3     H10006   1.879   0.680  13.736
  673TMC3    H110007   1.818   0.802  14.130
  673TMC3    H210008   1.892   0.383  14.034
  673TMC3    C710009   1.787   0.550  14.216
  673TMC3    C810010   1.876   0.420  13.783
  673TMC3    O110011   1.787   0.612  14.320
  673TMC3    O210012   1.978   0.370  13.737
  674TMC3    C110013   3.797   2.178   9.441
  674TMC3    C210014   3.761   2.310   9.450
  674TMC3    C310015   3.634   2.343   9.410
  674TMC3    C410016   3.706   2.079   9.419
  674TMC3    C510017   3.574   2.119   9.393
  674TMC3    C610018   3.541   2.254   9.389
  674TMC3     C10019   3.924   2.151   9.501
  674TMC3     O10020   3.958   2.238   9.579
  674TMC3     H10021   3.820   2.383   9.504
  674TMC3    H110022   3.728   1.974   9.431
  674TMC3    H210023   3.440   2.281   9.360
  674TMC3    C710024   3.489   2.015   9.346
  674TMC3    C810025   3.636   2.442   9.309
  674TMC3    O110026   3.371   2.029   9.377
  674TMC3    O210027   3.543   2.438   9.229
  675TMC3    C110028   4.066   0.723  14.742
  675TMC3    C210029   4.139   0.823  14.685
  675TMC3    C310030   4.073   0.942  14.663
  675TMC3    C410031   3.945   0.753  14.808
  675TMC3    C510032   3.888   0.872  14.792
  675TMC3    C610033   3.948   0.964  14.714
  675TMC3     C10034   4.120   0.598  14.796
  675TMC3     O10035   4.074   0.580  14.906
  675TMC3     H10036   4.237   0.807  14.641
  675TMC3    H110037   3.885   0.671  14.847
  675TMC3    H210038   3.886   1.052  14.698
  675TMC3    C710039   3.747   0.857  14.765
  675TMC3    C810040   4.141   1.044  14.600
  675TMC3    O110041   3.716   0.881  14.648
  675TMC3    O210042   4.232   1.015  14.524
  676TMC3    C110043   1.463   3.490  12.311
  676TMC3    C210044   1.527   3.612  12.281
  676TMC3    C310045   1.458   3.726  12.294
  676TMC3    C410046   1.329   3.480  12.337
  676TMC3    C510047   1.264   3.599  12.349
  676TMC3    C610048   1.323   3.719  12.333
  676TMC3     C10049   1.548   3.395  12.372
  676TMC3     O10050   1.503   3.278  12.364
  676TMC3     H10051   1.630   3.606  12.246
  676TMC3    H110052   1.279   3.392  12.376
  676TMC3    H210053   1.270   3.804  12.375
  676TMC3    C710054   1.160   3.598  12.452
  676TMC3    C810055   1.518   3.858  12.278
  676TMC3    O110056   1.190   3.671  12.547
  676TMC3    O210057   1.453   3.956  12.308
  677TMC3    C110058   2.241   2.888   7.439
  677TMC3    C210059   2.165   2.948   7.340
  677TMC3    C310060   2.028   2.949   7.345
  677TMC3    C410061   2.183   2.827   7.544
  677TMC3    C510062   2.041   2.831   7.550
  677TMC3    C610063   1.965   2.898   7.456
  677TMC3     C10064   2.380   2.903   7.440
  677TMC3     O10065   2.417   3.014   7.405
  677TMC3     H10066   2.222   2.988   7.257
  677TMC3    H110067   2.228   2.778   7.630
  677TMC3    H210068   1.857   2.882   7.461
  677TMC3    C710069   1.983   2.811   7.686
  677TMC3    C810070   1.974   3.062   7.270
  677TMC3    O110071   2.039   2.737   7.766
  677TMC3    O210072   2.053   3.129   7.205
  678TMC3    C110073   3.851   3.640  14.825
  678TMC3    C210074   3.956   3.606  14.742
  678TMC3    C310075   3.936   3.541  14.625
  678TMC3    C410076   3.726   3.599  14.790
  678TMC3    C510077   3.710   3.520  14.672
  678TMC3    C610078   3.814   3.500  14.582
  678TMC3     C10079   3.864   3.750  14.917
  678TMC3     O10080   3.765   3.818  14.944
  678TMC3     H10081   4.059   3.630  14.764
  678TMC3    H110082   3.640   3.622  14.852
  678TMC3    H210083   3.800   3.440  14.493
  678TMC3    C710084   3.581   3.542  14.609
  678TMC3    C810085   4.057   3.473  14.575
  678TMC3    O110086   3.547   3.462  14.525
  678TMC3    O210087   4.165   3.509  14.622
  679TMC3    C110088   4.651   2.547   7.643
  679TMC3    C210089   4.515   2.542   7.666
  679TMC3    C310090   4.477   2.511   7.791
  679TMC3    C410091   4.742   2.511   7.744
  679TMC3    C510092   4.696   2.474   7.868
  679TMC3    C610093   4.561   2.482   7.894
  679TMC3     C10094   4.686   2.556   7.504
  679TMC3     O10095   4.600   2.502   7.430
  679TMC3     H10096   4.447   2.557   7.583
  679TMC3    H110097   0.053   2.468   7.727
  679TMC3    H210098   4.526   2.478   7.996
  679TMC3    C710099   0.010   2.488   7.970
  679TMC3    C810100   4.345   2.444   7.791
  679TMC3    O110101   0.098   2.573   7.937
  679TMC3    O210102   4.277   2.438   7.687
  680TMC3    C110103   3.318   4.236  10.785
  680TMC3    C210104   3.385   4.116  10.802
  680TMC3    C310105   3.422   4.082  10.929
  680TMC3    C410106   3.292   4.316  10.892
  680TMC3    C510107   3.324   4.275  11.016
  680TMC3    C610108   3.394   4.160  11.039
  680TMC3     C10109   3.253   4.265  10.660
  680TMC3     O10110   3.234   4.177  10.577
  680TMC3     H10111   3.416   4.053  10.721
  680TMC3    H110112   3.219   4.395  10.883
  680TMC3    H210113   3.395   4.123  11.141
  680TMC3    C710114   3.206   4.297  11.101
  680TMC3    C810115   3.476   3.947  10.951
  680TMC3    O110116   3.101   4.265  11.046
  680TMC3    O210117   3.423   3.859  10.883
  681TMC3    C110118   0.020   2.450  14.159
  681TMC3    C210119   4.739   2.359  14.240
  681TMC3    C310120   4.637   2.403  14.314
  681TMC3    C410121   4.787   2.581  14.166
  681TMC3    C510122   4.697   2.623  14.257
  681TMC3    C610123   4.621   2.533  14.328
  681TMC3     C10124   0.060   2.383  14.039
  681TMC3     O10125   4.762   2.304  13.998
  681TMC3     H10126   4.765   2.255  14.227
  681TMC3    H110127   0.039   2.655  14.096
  681TMC3    H210128   4.562   2.571  14.411
  681TMC3    C710129   4.631   2.753  14.237
  681TMC3    C810130   4.519   2.332  14.279
  681TMC3    O110131   4.514   2.752  14.200
  681TMC3    O210132   4.522   2.211  14.280
  682TMC3    C110133   4.488   2.695  13.005
  682TMC3    C210134   4.595   2.611  12.997
  682TMC3    C310135   4.710   2.657  12.941
  682TMC3    C410136   4.503   2.826  12.966
  682TMC3    C510137   4.621   2.878  12.915
  682TMC3    C610138   4.728   2.789  12.910
  682TMC3     C10139   4.372   2.645  13.080
  682TMC3     O10140   4.381   2.534  13.133
  682TMC3     H10141   4.580   2.508  13.026
  682TMC3    H110142   4.407   2.875  12.953
  682TMC3    H210143   0.037   2.823  12.873
  682TMC3    C710144   4.604   2.975  12.800
  682TMC3    C810145   4.785   2.551  12.866
  682TMC3    O110146   4.488   2.986  12.760
  682TMC3    O210147   4.757   2.438  12.889
  683TMC3    C110148   1.362   4.178   9.562
  683TMC3    C210149   1.359   4.059   9.626
  683TMC3    C310150   1.287   4.048   9.741
  683TMC3    C410151   1.307   4.293   9.623
  683TMC3    C510152   1.261   4.281   9.748
  683TMC3    C610153   1.246   4.162   9.804
  683TMC3     C10154   1.353   4.177   9.421
  683TMC3     O10155   1.303   4.073   9.375
  683TMC3     H10156   1.397   3.975   9.570
  683TMC3    H110157   1.319   4.397   9.594
  683TMC3    H210158   1.193   4.151   9.897
  683TMC3    C710159   1.280   4.392   9.834
  683TMC3    C810160   1.352   3.961   9.831
  683TMC3    O110161   1.243   4.505   9.791
  683TMC3    O210162   1.468   3.986   9.828
  684TMC3    C110163   0.852   3.951   7.889
  684TMC3    C210164   0.874   3.941   8.021
  684TMC3    C310165   0.848   4.052   8.094
  684TMC3    C410166   0.824   4.068   7.824
  684TMC3    C510167   0.825   4.184   7.903
  684TMC3    C610168   0.838   4.181   8.038
  684TMC3     C10169   0.899   3.845   7.806
  684TMC3     O10170   0.981   3.769   7.858
  684TMC3     H10171   0.863   3.843   8.064
  684TMC3    H110172   0.835   4.081   7.717
  684TMC3    H210173   0.829   4.273   8.095
  684TMC3    C710174   0.815   4.309   7.829
  684TMC3    C810175   0.817   4.041   8.236
  684TMC3    O110176   0.702   4.349   7.809
  684TMC3    O210177   0.704   4.072   8.250
  685TMC3    C110178   1.478   3.161  13.257
  685TMC3    C210179   1.544   3.071  13.332
  685TMC3    C310180   1.590   3.116  13.453
  685TMC3    C410181   1.465   3.289  13.298
  685TMC3    C510182   1.509   3.335  13.418
  685TMC3    C610183   1.581   3.249  13.501
  685TMC3     C10184   1.397   3.118  13.143
  685TMC3     O10185   1.353   3.210  13.072
  685TMC3     H10186   1.561   2.968  13.301
  685TMC3    H110187   1.413   3.360  13.234
  685TMC3    H210188   1.604   3.275  13.604
  685TMC3    C710189   1.454   3.448  13.482
  685TMC3    C810190   1.648   3.017  13.541
  685TMC3    O110191   1.496   3.481  13.596
  685TMC3    O210192   1.752   3.057  13.598
  686TMC3    C110193   3.182   0.710   9.450
  686TMC3    C210194   3.074   0.625   9.434
  686TMC3    C310195   3.109   0.490   9.438
  686TMC3    C410196   3.304   0.656   9.460
  686TMC3    C510197   3.333   0.528   9.460
  686TMC3    C610198   3.234   0.434   9.446
  686TMC3     C10199   3.158   0.850   9.399
  686TMC3     O10200   3.060   0.905   9.438
  686TMC3     H10201   2.972   0.663   9.429
  686TMC3    H110202   3.385   0.727   9.449
  686TMC3    H210203   3.251   0.331   9.417
  686TMC3    C710204   3.458   0.511   9.395
  686TMC3    C810205   2.999   0.402   9.412
  686TMC3    O110206   3.464   0.540   9.277
  686TMC3    O210207   2.982   0.335   9.513
  687TMC3    C110208   3.190   2.194  12.663
  687TMC3    C210209   3.084   2.272  12.615
  687TMC3    C310210   3.020   2.227  12.500
  687TMC3    C410211   3.206   2.072  12.610
  687TMC3    C510212   3.126   2.023  12.508
  687TMC3    C610213   3.029   2.101  12.446
  687TMC3     C10214   3.277   2.239  12.765
  687TMC3     O10215   3.385   2.178  12.777
  687TMC3     H10216   3.067   2.373  12.649
  687TMC3    H110217   3.284   2.010  12.653
  687TMC3    H210218   2.996   2.069  12.348
  687TMC3    C710219   3.149   1.892  12.452
  687TMC3    C810220   2.962   2.330  12.417
  687TMC3    O110221   3.085   1.856  12.354
  687TMC3    O210222   2.929   2.429  12.485
  688TMC3    C110223   3.886   2.542  12.901
  688TMC3    C210224   3.891   2.450  12.798
  688TMC3    C310225   4.008   2.374  12.785
  688TMC3    C410226   3.980   2.548  13.005
  688TMC3    C510227   4.078   2.454  12.994
  688TMC3    C610228   4.112   2.395  12.873
  688TMC3     C10229   3.758   2.611  12.926
  688TMC3     O10230   3.758   2.723  12.974
  688TMC3     H10231   3.806   2.431  12.734
  688TMC3    H110232   3.956   2.601  13.097
  688TMC3    H210233   4.198   2.332  12.851
  688TMC3    C710234   4.082   2.364  13.110
  688TMC3    C810235   3.983   2.231  12.787
  688TMC3    O110236   3.988   2.369  13.189
  688TMC3    O210237   3.869   2.198  12.819
  689TMC3    C110238   2.830   3.833  10.655
  689TMC3    C210239   2.855   3.800  10.788
  689TMC3    C310240   2.982   3.789  10.825
  689TMC3    C410241   2.928   3.886  10.577
  689TMC3    C510242   3.050   3.886  10.626
  689TMC3    C610243   3.083   3.848  10.752
  689TMC3     C10244   2.719   3.776  10.586
  689TMC3     O10245   2.660   3.691  10.648
  689TMC3     H10246   2.773   3.768  10.851
  689TMC3    H110247   2.901   3.946  10.490
  689TMC3    H210248   3.186   3.849  10.786
  689TMC3    C710249   3.154   3.884  10.529
  689TMC3    C810250   3.008   3.683  10.919
  689TMC3    O110251   3.265   3.873  10.586
  689TMC3    O210252   2.913   3.619  10.965
  690TMC3    C110253   3.629   4.752  10.325
  690TMC3    C210254   3.622   0.075  10.243
  690TMC3    C310255   3.510   0.093  10.161
  690TMC3    C410256   3.527   4.661  10.335
  690TMC3    C510257   3.417   4.684  10.254
  690TMC3    C610258   3.405   0.006  10.171
  690TMC3     C10259   3.754   4.720  10.391
  690TMC3     O10260   3.840   0.018  10.398
  690TMC3     H10261   3.691   0.158  10.250
  690TMC3    H110262   3.534   4.575  10.401
  690TMC3    H210263   3.312   0.038  10.125
  690TMC3    C710264   3.384   4.559  10.187
  690TMC3    C810265   3.493   0.218  10.093
  690TMC3    O110266   3.404   4.459  10.255
  690TMC3    O210267   3.591   0.277  10.046
  691TMC3    C110268   0.587   1.625   8.027
  691TMC3    C210269   0.487   1.702   7.973
  691TMC3    C310270   0.488   1.740   7.840
  691TMC3    C410271   0.693   1.585   7.945
  691TMC3    C510272   0.695   1.633   7.814
  691TMC3    C610273   0.598   1.715   7.763
  691TMC3     C10274   0.636   1.651   8.166
  691TMC3     O10275   0.584   1.583   8.256
  691TMC3     H10276   0.419   1.734   8.051
  691TMC3    H110277   0.770   1.528   7.996
  691TMC3    H210278   0.584   1.740   7.658
  691TMC3    C710279   0.811   1.600   7.746
  691TMC3    C810280   0.444   1.873   7.812
  691TMC3    O110281   0.890   1.515   7.791
  691TMC3    O210282   0.527   1.940   7.761
  692TMC3    C110283   3.169   0.747  13.476
  692TMC3    C210284   3.076   0.771  13.577
  692TMC3    C310285   2.977   0.683  13.594
  692TMC3    C410286   3.148   0.654  13.373
  692TMC3    C510287   3.037   0.567  13.393
  692TMC3    C610288   2.958   0.575  13.509
  692TMC3     C10289   3.263   0.848  13.441
  692TMC3     O10290   3.266   0.871  13.317
  692TMC3     H10291   3.098   0.849  13.650
  692TMC3    H110292   3.216   0.660  13.289
  692TMC3    H210293   2.888   0.498  13.539
  692TMC3    C710294   3.009   0.457  13.304
  692TMC3    C810295   2.915   0.668  13.727
  692TMC3    O110296   2.928   0.374  13.341
  692TMC3    O210297   2.952   0.564  13.776
  693TMC3    C110298   0.561   0.605   6.552
  693TMC3    C210299   0.475   0.500   6.528
  693TMC3    C310300   0.531   0.374   6.501
  693TMC3    C410301   0.697   0.586   6.532
  693TMC3    C510302   0.749   0.464   6.501
  693TMC3    C610303   0.670   0.360   6.491
  693TMC3     C10304   0.512   0.740   6.568
  693TMC3     O10305   0.585   0.835   6.546
  693TMC3     H10306   0.367   0.500   6.540
  693TMC3    H110307   0.756   0.676   6.518
  693TMC3    H210308   0.720   0.264   6.487
  693TMC3    C710309   0.889   0.442   6.501
  693TMC3    C810310   0.441   0.262   6.518
  693TMC3    O110311   0.938   0.350   6.438
  693TMC3    O210312   0.324   0.280   6.513
  694TMC3    C110313   4.266   3.467   9.252
  694TMC3    C210314   4.315   3.543   9.146
  694TMC3    C310315   4.449   3.538   9.118
  694TMC3    C410316   4.348   3.403   9.339
  694TMC3    C510317   4.483   3.399   9.300
  694TMC3    C610318   4.539   3.471   9.200
  694TMC3     C10319   4.169   3.539   9.324
  694TMC3     O10320   4.091   3.480   9.395
  694TMC3     H10321   4.250   3.608   9.088
  694TMC3    H110322   4.311   3.348   9.425
  694TMC3    H210323   4.642   3.479   9.167
  694TMC3    C710324   4.566   3.312   9.375
  694TMC3    C810325   4.492   3.648   9.044
  694TMC3    O110326   4.510   3.232   9.451
  694TMC3    O210327   4.583   3.707   9.102
  695TMC3    C110328   4.640   4.766   8.064
  695TMC3    C210329   4.740   0.022   8.144
  695TMC3    C310330   0.039   0.111   8.080
  695TMC3    C410331   4.611   0.030   7.941
  695TMC3    C510332   4.683   0.134   7.894
  695TMC3    C610333   0.012   0.168   7.960
  695TMC3     C10334   4.528   4.690   8.123
  695TMC3     O10335   4.540   4.567   8.132
  695TMC3     H10336   4.761   4.786   8.248
  695TMC3    H110337   4.524   4.783   7.887
  695TMC3    H210338   0.073   0.252   7.929
  695TMC3    C710339   4.613   0.259   7.861
  695TMC3    C810340   0.155   0.159   8.155
  695TMC3    O110341   4.677   0.362   7.868
  695TMC3    O210342   0.147   0.194   8.271
  696TMC3    C110343   4.067   1.159  13.009
  696TMC3    C210344   3.979   1.095  12.926
  696TMC3    C310345   3.976   1.121  12.793
  696TMC3    C410346   4.140   1.264  12.964
  696TMC3    C510347   4.148   1.283  12.827
  696TMC3    C610348   4.065   1.209  12.746
  696TMC3     C10349   4.158   1.058  13.070
  696TMC3     O10350   4.112   0.959  13.115
  696TMC3     H10351   3.926   1.004  12.953
  696TMC3    H110352   4.200   1.321  13.035
  696TMC3    H210353   4.069   1.241  12.643
  696TMC3    C710354   4.285   1.298  12.782
  696TMC3    C810355   3.931   1.015  12.700
  696TMC3    O110356   4.331   1.230  12.692
  696TMC3    O210357   3.998   1.003  12.600
  697TMC3    C110358   3.939   3.752  12.366
  697TMC3    C210359   3.948   3.871  12.304
  697TMC3    C310360   3.853   3.890  12.203
  697TMC3    C410361   3.846   3.655  12.330
  697TMC3    C510362   3.761   3.681  12.225
  697TMC3    C610363   3.763   3.798  12.160
  697TMC3     C10364   3.999   3.751  12.493
  697TMC3     O10365   3.988   3.861  12.545
  697TMC3     H10366   4.017   3.953  12.320
  697TMC3    H110367   3.845   3.565  12.390
  697TMC3    H210368   3.721   3.808  12.060
  697TMC3    C710369   3.647   3.591  12.206
  697TMC3    C810370   3.849   4.022  12.143
  697TMC3    O110371   3.658   3.485  12.261
  697TMC3    O210372   3.848   4.019  12.022
  698TMC3    C110373   3.263   3.326  14.916
  698TMC3    C210374   3.158   3.360  14.840
  698TMC3    C310375   3.045   3.283  14.838
  698TMC3    C410376   3.250   3.226  15.007
  698TMC3    C510377   3.138   3.147  15.016
  698TMC3    C610378   3.039   3.175  14.922
  698TMC3     C10379   3.374   3.284  14.821
  698TMC3     O10380   3.336   3.262  14.707
  698TMC3     H10381   3.148   3.443  14.771
  698TMC3    H110382   3.332   3.198  15.073
  698TMC3    H210383   2.957   3.103  14.915
  698TMC3    C710384   3.131   3.037  15.111
  698TMC3    C810385   3.021   3.249  14.700
  698TMC3    O110386   3.232   3.019  15.181
  698TMC3    O210387   3.000   3.347  14.629
  699TMC3    C110388   4.456   0.656   7.626
  699TMC3    C210389   4.385   0.536   7.636
  699TMC3    C310390   4.447   0.419   7.592
  699TMC3    C410391   4.580   0.666   7.565
  699TMC3    C510392   4.627   0.546   7.514
  699TMC3    C610393   4.571   0.418   7.532
  699TMC3     C10394   4.395   0.781   7.668
  699TMC3     O10395   4.449   0.882   7.625
  699TMC3     H10396   4.288   0.520   7.681
  699TMC3    H110397   4.639   0.757   7.557
  699TMC3    H210398   4.614   0.330   7.484
  699TMC3    C710399   4.755   0.543   7.438
  699TMC3    C810400   4.363   0.315   7.548
  699TMC3    O110401   0.020   0.432   7.420
  699TMC3    O210402   4.240   0.326   7.568
  700TMC3    C110403   1.908   3.488  13.165
  700TMC3    C210404   2.046   3.498  13.198
  700TMC3    C310405   2.127   3.388  13.175
  700TMC3    C410406   1.862   3.371  13.108
  700TMC3    C510407   1.948   3.261  13.105
  700TMC3    C610408   2.077   3.273  13.130
  700TMC3     C10409   1.801   3.571  13.215
  700TMC3     O10410   1.688   3.536  13.174
  700TMC3     H10411   2.079   3.598  13.221
  700TMC3    H110412   1.756   3.355  13.091
  700TMC3    H210413   2.134   3.181  13.134
  700TMC3    C710414   1.888   3.133  13.089
  700TMC3    C810415   2.268   3.414  13.188
  700TMC3    O110416   1.807   3.125  13.001
  700TMC3    O210417   2.299   3.515  13.251
  701TMC3    C110418   3.404   4.139   7.177
  701TMC3    C210419   3.530   4.188   7.148
  701TMC3    C310420   3.546   4.298   7.072
  701TMC3    C410421   3.300   4.201   7.118
  701TMC3    C510422   3.321   4.312   7.043
  701TMC3    C610423   3.446   4.362   7.009
  701TMC3     C10424   3.370   4.017   7.251
  701TMC3     O10425   3.254   3.990   7.259
  701TMC3     H10426   3.610   4.140   7.203
  701TMC3    H110427   3.200   4.164   7.139
  701TMC3    H210428   3.464   4.454   6.955
  701TMC3    C710429   3.202   4.381   6.993
  701TMC3    C810430   3.669   4.325   6.995
  701TMC3    O110431   3.233   4.474   6.919
  701TMC3    O210432   3.658   4.302   6.877
  702TMC3    C110433   2.605   0.533  10.347
  702TMC3    C210434   2.694   0.537  10.245
  702TMC3    C310435   2.815   0.602  10.251
  702TMC3    C410436   2.637   0.608  10.458
  702TMC3    C510437   2.759   0.671  10.460
  702TMC3    C610438   2.850   0.673  10.361
  702TMC3     C10439   2.555   0.404  10.384
  702TMC3     O10440   2.574   0.361  10.495
  702TMC3     H10441   2.700   0.469  10.160
  702TMC3    H110442   2.573   0.604  10.545
  702TMC3    H210443   2.936   0.738  10.351
  702TMC3    C710444   2.804   0.689  10.589
  702TMC3    C810445   2.924   0.529  10.185
  702TMC3    O110446   2.729   0.705  10.683
  702TMC3    O210447   2.916   0.408  10.164
  703TMC3    C110448   1.685   0.128   8.683
  703TMC3    C210449   1.690   0.046   8.793
  703TMC3    C310450   1.749   4.707   8.791
  703TMC3    C410451   1.745   0.086   8.572
  703TMC3    C510452   1.817   4.755   8.572
  703TMC3    C610453   1.807   4.662   8.673
  703TMC3     C10454   1.601   0.247   8.678
  703TMC3     O10455   1.595   0.316   8.782
  703TMC3     H10456   1.640   0.084   8.882
  703TMC3    H110457   1.763   0.160   8.494
  703TMC3    H210458   1.851   4.563   8.662
  703TMC3    C710459   1.910   4.724   8.460
  703TMC3    C810460   1.731   4.616   8.905
  703TMC3    O110461   2.017   4.677   8.491
  703TMC3    O210462   1.709   4.675   9.011
  704TMC3    C110463   0.680   2.340   7.241
  704TMC3    C210464   0.819   2.340   7.236
  704TMC3    C310465   0.868   2.258   7.143
  704TMC3    C410466   0.605   2.254   7.158
  704TMC3    C510467   0.667   2.193   7.061
  704TMC3    C610468   0.802   2.193   7.047
  704TMC3     C10469   0.607   2.429   7.325
  704TMC3     O10470   0.507   2.396   7.388
  704TMC3     H10471   0.878   2.399   7.305
  704TMC3    H110472   0.497   2.243   7.167
  704TMC3    H210473   0.851   2.138   6.968
  704TMC3    C710474   0.588   2.172   6.943
  704TMC3    C810475   1.015   2.254   7.143
  704TMC3    O110476   0.490   2.244   6.933
  704TMC3    O210477   1.062   2.210   7.037
  705TMC3    C110478   3.774   4.655  15.191
  705TMC3    C210479   3.645   4.607  15.179
  705TMC3    C310480   3.633   4.473  15.177
  705TMC3    C410481   3.881   4.563  15.205
  705TMC3    C510482   3.858   4.430  15.188
  705TMC3    C610483   3.736   4.380  15.171
  705TMC3     C10484   3.804   0.012  15.159
  705TMC3     O10485   3.914   0.055  15.184
  705TMC3     H10486   3.562   4.675  15.191
  705TMC3    H110487   3.981   4.601  15.220
  705TMC3    H210488   3.707   4.276  15.159
  705TMC3    C710489   3.972   4.343  15.182
  705TMC3    C810490   3.511   4.422  15.116
  705TMC3    O110491   4.076   4.396  15.199
  705TMC3    O210492   3.513   4.327  15.039
  706TMC3    C110493   1.216   1.396  10.161
  706TMC3    C210494   1.229   1.371  10.023
  706TMC3    C310495   1.326   1.435   9.963
  706TMC3    C410496   1.308   1.471  10.236
  706TMC3    C510497   1.404   1.534  10.163
  706TMC3    C610498   1.419   1.509  10.029
  706TMC3     C10499   1.137   1.294  10.243
  706TMC3     O10500   1.022   1.278  10.209
  706TMC3     H10501   1.150   1.319   9.970
  706TMC3    H110502   1.299   1.501  10.339
  706TMC3    H210503   1.513   1.542   9.987
  706TMC3    C710504   1.407   1.678  10.173
  706TMC3    C810505   1.315   1.445   9.818
  706TMC3    O110506   1.298   1.728  10.185
  706TMC3    O210507   1.220   1.400   9.751
  707TMC3    C110508   2.337   2.641   9.196
  707TMC3    C210509   2.386   2.689   9.075
  707TMC3    C310510   2.444   2.813   9.072
  707TMC3    C410511   2.344   2.724   9.306
  707TMC3    C510512   2.400   2.852   9.293
  707TMC3    C610513   2.460   2.895   9.176
  707TMC3     C10514   2.245   2.528   9.199
  707TMC3     O10515   2.237   2.467   9.094
  707TMC3     H10516   2.352   2.649   8.980
  707TMC3    H110517   2.295   2.701   9.399
  707TMC3    H210518   2.512   2.989   9.162
  707TMC3    C710519   2.390   2.933   9.407
  707TMC3    C810520   2.529   2.839   8.956
  707TMC3    O110521   2.384   2.870   9.515
  707TMC3    O210522   2.564   2.952   8.937
  708TMC3    C110523   0.723   1.529  14.308
  708TMC3    C210524   0.767   1.410  14.263
  708TMC3    C310525   0.678   1.300  14.250
  708TMC3    C410526   0.594   1.549  14.343
  708TMC3    C510527   0.508   1.447  14.326
  708TMC3    C610528   0.545   1.325  14.280
  708TMC3     C10529   0.827   1.627  14.334
  708TMC3     O10530   0.922   1.574  14.388
  708TMC3     H10531   0.865   1.421  14.218
  708TMC3    H110532   0.568   1.646  14.385
  708TMC3    H210533   0.475   1.243  14.269
  708TMC3    C710534   0.369   1.478  14.360
  708TMC3    C810535   0.706   1.214  14.128
  708TMC3    O110536   0.342   1.595  14.372
  708TMC3    O210537   0.802   1.250  14.063
  709TMC3    C110538   1.769   1.200   8.986
  709TMC3    C210539   1.821   1.085   9.035
  709TMC3    C310540   1.857   0.995   8.940
  709TMC3    C410541   1.765   1.238   8.852
  709TMC3    C510542   1.819   1.150   8.762
  709TMC3    C610543   1.866   1.026   8.804
  709TMC3     C10544   1.675   1.271   9.069
  709TMC3     O10545   1.689   1.295   9.188
  709TMC3     H10546   1.794   1.049   9.134
  709TMC3    H110547   1.731   1.334   8.816
  709TMC3    H210548   1.895   0.953   8.729
  709TMC3    C710549   1.815   1.188   8.624
  709TMC3    C810550   1.897   0.868   8.987
  709TMC3    O110551   1.738   1.278   8.596
  709TMC3    O210552   1.932   0.869   9.106
  710TMC3    C110553   2.892   0.018  12.231
  710TMC3    C210554   2.808   4.714  12.293
  710TMC3    C310555   2.684   4.755  12.329
  710TMC3    C410556   2.862   0.149  12.215
  710TMC3    C510557   2.739   0.191  12.255
  710TMC3    C610558   2.649   0.102  12.310
  710TMC3     C10559   3.035   4.768  12.207
  710TMC3     O10560   3.093   0.041  12.117
  710TMC3     H10561   2.840   4.611  12.294
  710TMC3    H110562   2.924   0.218  12.159
  710TMC3    H210563   2.550   0.138  12.334
  710TMC3    C710564   2.695   0.326  12.256
  710TMC3    C810565   2.606   4.655  12.406
  710TMC3    O110566   2.581   0.346  12.287
  710TMC3    O210567   2.651   4.541  12.417
  711TMC3    C110568   2.261   1.852   7.443
  711TMC3    C210569   2.394   1.811   7.414
  711TMC3    C310570   2.469   1.887   7.335
  711TMC3    C410571   2.199   1.962   7.389
  711TMC3    C510572   2.281   2.040   7.314
  711TMC3    C610573   2.414   2.004   7.279
  711TMC3     C10574   2.172   1.747   7.490
  711TMC3     O10575   2.066   1.736   7.427
  711TMC3     H10576   2.433   1.722   7.463
  711TMC3    H110577   2.092   1.978   7.395
  711TMC3    H210578   2.474   2.084   7.236
  711TMC3    C710579   2.221   2.155   7.248
  711TMC3    C810580   2.558   1.815   7.255
  711TMC3    O110581   2.110   2.194   7.275
  711TMC3    O210582   2.638   1.876   7.187
  712TMC3    C110583   0.615   2.353   7.831
  712TMC3    C210584   0.626   2.288   7.711
  712TMC3    C310585   0.756   2.270   7.664
  712TMC3    C410586   0.722   2.412   7.897
  712TMC3    C510587   0.845   2.412   7.834
  712TMC3    C610588   0.866   2.329   7.724
  712TMC3     C10589   0.498   2.435   7.842
  712TMC3     O10590   0.518   2.550   7.807
  712TMC3     H10591   0.540   2.254   7.654
  712TMC3    H110592   0.693   2.478   7.978
  712TMC3    H210593   0.961   2.326   7.671
  712TMC3    C710594   0.963   2.500   7.865
  712TMC3    C810595   0.778   2.180   7.549
  712TMC3    O110596   1.052   2.506   7.784
  712TMC3    O210597   0.881   2.186   7.486
  713TMC3    C110598   3.123   2.941  11.783
  713TMC3    C210599   3.072   3.035  11.697
  713TMC3    C310600   3.138   3.144  11.657
  713TMC3    C410601   3.237   2.971  11.854
  713TMC3    C510602   3.302   3.087  11.821
  713TMC3    C610603   3.256   3.170  11.722
  713TMC3     C10604   3.091   2.807  11.755
  713TMC3     O10605   2.988   2.764  11.700
  713TMC3     H10606   2.978   3.003  11.653
  713TMC3    H110607   3.274   2.914  11.939
  713TMC3    H210608   3.311   3.254  11.682
  713TMC3    C710609   3.448   3.077  11.851
  713TMC3    C810610   3.072   3.249  11.592
  713TMC3    O110611   3.495   2.967  11.882
  713TMC3    O210612   3.096   3.359  11.634
  714TMC3    C110613   0.099   4.753   9.886
  714TMC3    C210614   0.007   4.657   9.839
  714TMC3    C310615   4.675   4.668   9.896
  714TMC3    C410616   0.072   0.068   9.975
  714TMC3    C510617   4.725   0.077  10.020
  714TMC3    C610618   4.636   4.769   9.985
  714TMC3     C10619   0.213   4.780   9.799
  714TMC3     O10620   0.269   0.100   9.803
  714TMC3     H10621   0.028   4.599   9.749
  714TMC3    H110622   0.141   0.148   9.997
  714TMC3    H210623   4.532   4.776  10.014
  714TMC3    C710624   4.653   0.205   9.998
  714TMC3    C810625   4.584   4.560   9.870
  714TMC3    O110626   4.567   0.197   9.910
  714TMC3    O210627   4.497   4.544   9.954
  715TMC3    C110628   4.070   0.432  12.465
  715TMC3    C210629   4.040   0.363  12.580
  715TMC3    C310630   3.992   0.239  12.570
  715TMC3    C410631   4.007   0.395  12.343
  715TMC3    C510632   3.948   0.271  12.339
  715TMC3    C610633   3.952   0.193  12.450
  715TMC3     C10634   4.206   0.488  12.463
  715TMC3     O10635   4.272   0.468  12.565
  715TMC3     H10636   4.088   0.382  12.676
  715TMC3    H110637   4.038   0.444  12.252
  715TMC3    H210638   3.903   0.096  12.451
  715TMC3    C710639   3.963   0.207  12.213
  715TMC3    C810640   4.024   0.141  12.672
  715TMC3    O110641   3.960   0.280  12.116
  715TMC3    O210642   4.038   0.024  12.632
  716TMC3    C110643   0.394   3.482  11.805
  716TMC3    C210644   0.277   3.468  11.876
  716TMC3    C310645   0.190   3.580  11.864
  716TMC3    C410646   0.425   3.593  11.731
  716TMC3    C510647   0.336   3.696  11.724
  716TMC3    C610648   0.208   3.690  11.782
  716TMC3     C10649   0.505   3.393  11.819
  716TMC3     O10650   0.613   3.449  11.802
  716TMC3     H10651   0.260   3.380  11.936
  716TMC3    H110652   0.518   3.602  11.676
  716TMC3    H210653   0.145   3.778  11.774
  716TMC3    C710654   0.377   3.832  11.704
  716TMC3    C810655   0.072   3.582  11.949
  716TMC3    O110656   0.287   3.913  11.680
  716TMC3    O210657   0.008   3.476  11.949
  717TMC3    C110658   0.117   4.382  10.449
  717TMC3    C210659   0.011   4.376  10.540
  717TMC3    C310660   4.743   4.257  10.573
  717TMC3    C410661   0.174   4.264  10.416
  717TMC3    C510662   0.116   4.142  10.450
  717TMC3    C610663   0.002   4.136  10.523
  717TMC3     C10664   0.182   4.513  10.424
  717TMC3     O10665   0.178   4.593  10.518
  717TMC3     H10666   4.757   4.467  10.581
  717TMC3    H110667   0.256   4.257  10.345
  717TMC3    H210668   4.738   4.044  10.550
  717TMC3    C710669   0.200   4.026  10.434
  717TMC3    C810670   4.624   4.265  10.659
  717TMC3    O110671   0.310   4.048  10.389
  717TMC3    O210672   4.513   4.230  10.618
  718TMC3    C110673   1.163   0.102   7.068
  718TMC3    C210674   1.235   0.101   6.948
  718TMC3    C310675   1.226   0.203   6.864
  718TMC3    C410676   1.082   0.202   7.108
  718TMC3    C510677   1.065   0.296   7.012
  718TMC3    C610678   1.137   0.310   6.894
  718TMC3     C10679   1.173   4.768   7.146
  718TMC3     O10680   1.134   4.773   7.261
  718TMC3     H10681   1.318   0.032   6.934
  718TMC3    H110682   1.020   0.193   7.197
  718TMC3    H210683   1.117   0.386   6.819
  718TMC3    C710684   0.991   0.411   7.057
  718TMC3    C810685   1.338   0.231   6.778
  718TMC3    O110686   0.970   0.433   7.173
  718TMC3    O210687   1.399   0.145   6.723
  719TMC3    C110688   1.039   0.470  12.713
  719TMC3    C210689   1.164   0.430  12.672
  719TMC3    C310690   1.176   0.346  12.559
  719TMC3    C410691   0.939   0.449  12.630
  719TMC3    C510692   0.957   0.400  12.507
  719TMC3    C610693   1.076   0.335  12.471
  719TMC3     C10694   1.023   0.589  12.788
  719TMC3     O10695   1.004   0.686  12.716
  719TMC3     H10696   1.237   0.443  12.752
  719TMC3    H110697   0.845   0.501  12.648
  719TMC3    H210698   1.092   0.297  12.371
  719TMC3    C710699   0.903   0.499  12.414
  719TMC3    C810700   1.313   0.323  12.517
  719TMC3    O110701   0.805   0.563  12.448
  719TMC3    O210702   1.402   0.399  12.556
  720TMC3    C110703   4.461   0.175   9.281
  720TMC3    C210704   4.398   0.263   9.201
  720TMC3    C310705   4.465   0.307   9.090
  720TMC3    C410706   4.591   0.130   9.251
  720TMC3    C510707   4.659   0.181   9.145
  720TMC3    C610708   4.588   0.258   9.056
  720TMC3     C10709   4.388   0.093   9.368
  720TMC3     O10710   4.432   4.769   9.395
  720TMC3     H10711   4.296   0.289   9.226
  720TMC3    H110712   4.639   0.057   9.316
  720TMC3    H210713   4.629   0.292   8.961
  720TMC3    C710714   4.775   0.107   9.103
  720TMC3    C810715   4.387   0.378   8.993
  720TMC3    O110716   4.774   4.783   9.144
  720TMC3    O210717   4.282   0.430   9.032
  721TMC3    C110718   4.324   2.900  12.177
  721TMC3    C210719   4.204   2.971  12.164
  721TMC3    C310720   4.140   2.969  12.049
  721TMC3    C410721   4.365   2.816  12.081
  721TMC3    C510722   4.294   2.812  11.966
  721TMC3    C610723   4.183   2.888  11.951
  721TMC3     C10724   4.397   2.943  12.296
  721TMC3     O10725   4.340   3.009  12.383
  721TMC3     H10726   4.172   3.042  12.239
  721TMC3    H110727   4.455   2.757  12.098
  721TMC3    H210728   4.142   2.899  11.851
  721TMC3    C710729   4.367   2.768  11.850
  721TMC3    C810730   4.083   3.100  12.018
  721TMC3    O110731   4.313   2.712  11.755
  721TMC3    O210732   4.117   3.196  12.084
  722TMC3    C110733   4.172   4.226  12.468
  722TMC3    C210734   4.079   4.214  12.563
  722TMC3    C310735   4.040   4.328  12.628
  722TMC3    C410736   4.233   4.342  12.435
  722TMC3    C510737   4.185   4.453  12.503
  722TMC3    C610738   4.091   4.455  12.600
  722TMC3     C10739   4.232   4.111  12.407
  722TMC3     O10740   4.271   4.128  12.290
  722TMC3     H10741   4.032   4.116  12.575
  722TMC3    H110742   4.310   4.346  12.358
  722TMC3    H210743   4.075   4.546  12.658
  722TMC3    C710744   4.259   4.572  12.467
  722TMC3    C810745   3.971   4.316  12.754
  722TMC3    O110746   4.329   4.561  12.369
  722TMC3    O210747   3.991   4.213  12.823
  723TMC3    C110748   3.058   1.533  13.613
  723TMC3    C210749   3.000   1.465  13.510
  723TMC3    C310750   3.011   1.331  13.496
  723TMC3    C410751   3.110   1.453  13.713
  723TMC3    C510752   3.094   1.316  13.698
  723TMC3    C610753   3.065   1.252  13.589
  723TMC3     C10754   3.114   1.664  13.582
  723TMC3     O10755   3.068   1.723  13.486
  723TMC3     H10756   2.955   1.528  13.434
  723TMC3    H110757   3.157   1.494  13.801
  723TMC3    H210758   3.047   1.145  13.595
  723TMC3    C710759   3.088   1.239  13.820
  723TMC3    C810760   2.965   1.287  13.364
  723TMC3    O110761   3.125   1.122  13.812
  723TMC3    O210762   2.917   1.366  13.280
  724TMC3    C110763   1.029   2.843   9.487
  724TMC3    C210764   1.014   2.713   9.439
  724TMC3    C310765   0.889   2.655   9.460
  724TMC3    C410766   0.918   2.910   9.530
  724TMC3    C510767   0.791   2.861   9.517
  724TMC3    C610768   0.779   2.726   9.490
  724TMC3     C10769   1.165   2.899   9.503
  724TMC3     O10770   1.181   2.966   9.606
  724TMC3     H10771   1.095   2.655   9.396
  724TMC3    H110772   0.919   3.007   9.578
  724TMC3    H210773   0.683   2.689   9.456
  724TMC3    C710774   0.698   2.954   9.457
  724TMC3    C810775   0.859   2.536   9.383
  724TMC3    O110776   0.742   3.066   9.440
  724TMC3    O210777   0.782   2.455   9.435
  725TMC3    C110778   0.875   0.521   8.448
  725TMC3    C210779   0.791   0.619   8.396
  725TMC3    C310780   0.718   0.695   8.485
  725TMC3    C410781   0.893   0.515   8.588
  725TMC3    C510782   0.829   0.602   8.671
  725TMC3    C610783   0.743   0.693   8.622
  725TMC3     C10784   0.891   0.393   8.375
  725TMC3     O10785   0.863   0.407   8.254
  725TMC3     H10786   0.763   0.609   8.292
  725TMC3    H110787   0.965   0.452   8.639
  725TMC3    H210788   0.684   0.754   8.690
  725TMC3    C710789   0.780   0.554   8.801
  725TMC3    C810790   0.591   0.754   8.447
  725TMC3    O110791   0.753   0.433   8.796
  725TMC3    O210792   0.516   0.773   8.537
  726TMC3    C110793   2.729   1.093   7.590
  726TMC3    C210794   2.772   1.224   7.591
  726TMC3    C310795   2.900   1.247   7.619
  726TMC3    C410796   2.810   0.988   7.626
  726TMC3    C510797   2.940   1.017   7.656
  726TMC3    C610798   2.988   1.143   7.666
  726TMC3     C10799   2.635   1.065   7.479
  726TMC3     O10800   2.573   1.159   7.433
  726TMC3     H10801   2.703   1.302   7.561
  726TMC3    H110802   2.767   0.891   7.647
  726TMC3    H210803   3.091   1.161   7.694
  726TMC3    C710804   3.031   0.900   7.680
  726TMC3    C810805   2.971   1.354   7.553
  726TMC3    O110806   3.150   0.933   7.694
  726TMC3    O210807   3.091   1.344   7.544
  727TMC3    C110808   1.882   3.228   8.127
  727TMC3    C210809   1.949   3.111   8.110
  727TMC3    C310810   1.981   3.037   8.223
  727TMC3    C410811   1.863   3.282   8.249
  727TMC3    C510812   1.920   3.214   8.354
  727TMC3    C610813   1.981   3.098   8.342
  727TMC3     C10814   1.899   3.328   8.016
  727TMC3     O10815   1.931   3.281   7.909
  727TMC3     H10816   1.952   3.077   8.008
  727TMC3    H110817   1.785   3.356   8.265
  727TMC3    H210818   2.007   3.044   8.433
  727TMC3    C710819   1.845   3.233   8.478
  727TMC3    C810820   2.080   2.931   8.201
  727TMC3    O110821   1.731   3.282   8.467
  727TMC3    O210822   2.159   2.953   8.107
  728TMC3    C110823   1.736   0.921   7.254
  728TMC3    C210824   1.685   0.917   7.125
  728TMC3    C310825   1.747   0.841   7.026
  728TMC3    C410826   1.838   0.841   7.295
  728TMC3    C510827   1.883   0.754   7.199
  728TMC3    C610828   1.844   0.753   7.069
  728TMC3     C10829   1.660   1.004   7.350
  728TMC3     O10830   1.616   1.110   7.321
  728TMC3     H10831   1.585   0.959   7.117
  728TMC3    H110832   1.880   0.838   7.395
  728TMC3    H210833   1.901   0.695   6.998
  728TMC3    C710834   1.941   0.625   7.246
  728TMC3    C810835   1.652   0.796   6.925
  728TMC3    O110836   1.977   0.617   7.363
  728TMC3    O210837   1.533   0.799   6.959
  729TMC3    C110838   0.791   3.449   7.723
  729TMC3    C210839   0.849   3.350   7.654
  729TMC3    C310840   0.969   3.308   7.708
  729TMC3    C410841   0.838   3.490   7.847
  729TMC3    C510842   0.950   3.427   7.896
  729TMC3    C610843   1.022   3.336   7.830
  729TMC3     C10844   0.649   3.442   7.701
  729TMC3     O10845   0.585   3.545   7.723
  729TMC3     H10846   0.820   3.319   7.555
  729TMC3    H110847   0.789   3.572   7.900
  729TMC3    H210848   1.116   3.298   7.868
  729TMC3    C710849   1.031   3.466   8.009
  729TMC3    C810850   1.054   3.224   7.629
  729TMC3    O110851   1.152   3.460   8.002
  729TMC3    O210852   1.131   3.151   7.686
  730TMC3    C110853   1.872   3.663   7.437
  730TMC3    C210854   1.998   3.662   7.393
  730TMC3    C310855   2.026   3.662   7.259
  730TMC3    C410856   1.769   3.670   7.345
  730TMC3    C510857   1.798   3.683   7.210
  730TMC3    C610858   1.924   3.676   7.166
  730TMC3     C10859   1.847   3.656   7.577
  730TMC3     O10860   1.747   3.603   7.620
  730TMC3     H10861   2.081   3.649   7.462
  730TMC3    H110862   1.665   3.667   7.378
  730TMC3    H210863   1.956   3.675   7.063
  730TMC3    C710864   1.715   3.587   7.140
  730TMC3    C810865   2.162   3.629   7.221
  730TMC3    O110866   1.593   3.605   7.138
  730TMC3    O210867   2.210   3.671   7.114
  731TMC3    C110868   1.151   0.837  11.189
  731TMC3    C210869   1.091   0.716  11.230
  731TMC3    C310870   1.174   0.628  11.289
  731TMC3    C410871   1.283   0.866  11.217
  731TMC3    C510872   1.368   0.770  11.272
  731TMC3    C610873   1.308   0.658  11.308
  731TMC3     C10874   1.082   0.919  11.088
  731TMC3     O10875   1.107   1.034  11.082
  731TMC3     H10876   0.985   0.693  11.221
  731TMC3    H110877   1.331   0.960  11.193
  731TMC3    H210878   1.366   0.576  11.349
  731TMC3    C710879   1.514   0.796  11.270
  731TMC3    C810880   1.127   0.497  11.299
  731TMC3    O110881   1.544   0.905  11.310
  731TMC3    O210882   1.027   0.470  11.229
  732TMC3    C110883   1.321   0.930  13.391
  732TMC3    C210884   1.441   0.906  13.441
  732TMC3    C310885   1.474   0.776  13.460
  732TMC3    C410886   1.224   0.830  13.366
  732TMC3    C510887   1.260   0.700  13.392
  732TMC3    C610888   1.387   0.675  13.432
  732TMC3     C10889   1.299   1.062  13.336
  732TMC3     O10890   1.404   1.126  13.310
  732TMC3     H10891   1.506   0.988  13.470
  732TMC3    H110892   1.129   0.864  13.328
  732TMC3    H210893   1.430   0.579  13.456
  732TMC3    C710894   1.163   0.600  13.421
  732TMC3    C810895   1.579   0.749  13.556
  732TMC3    O110896   1.205   0.487  13.439
  732TMC3    O210897   1.551   0.669  13.645
  733TMC3    C110898   4.105   2.414  13.817
  733TMC3    C210899   4.199   2.315  13.808
  733TMC3    C310900   4.149   2.181  13.798
  733TMC3    C410901   3.969   2.393  13.825
  733TMC3    C510902   3.930   2.261  13.811
  733TMC3    C610903   4.014   2.157  13.803
  733TMC3     C10904   4.142   2.551  13.785
  733TMC3     O10905   4.052   2.631  13.768
  733TMC3     H10906   4.302   2.333  13.780
  733TMC3    H110907   3.905   2.481  13.835
  733TMC3    H210908   3.986   2.053  13.790
  733TMC3    C710909   3.782   2.223  13.823
  733TMC3    C810910   4.234   2.072  13.768
  733TMC3    O110911   3.760   2.102  13.837
  733TMC3    O210912   4.186   1.967  13.729
  734TMC3    C110913   3.329   1.519  13.189
  734TMC3    C210914   3.332   1.431  13.083
  734TMC3    C310915   3.216   1.413  13.013
  734TMC3    C410916   3.218   1.602  13.210
  734TMC3    C510917   3.110   1.586  13.131
  734TMC3    C610918   3.104   1.494  13.029
  734TMC3     C10919   3.367   1.463  13.319
  734TMC3     O10920   3.366   1.544  13.409
  734TMC3     H10921   3.415   1.362  13.078
  734TMC3    H110922   3.210   1.665  13.298
  734TMC3    H210923   3.008   1.463  12.991
  734TMC3    C710924   3.012   1.690  13.155
  734TMC3    C810925   3.207   1.289  12.952
  734TMC3    O110926   3.055   1.807  13.150
  734TMC3    O210927   3.283   1.203  13.002
  735TMC3    C110928   1.288   3.775  13.971
  735TMC3    C210929   1.159   3.780  14.010
  735TMC3    C310930   1.108   3.666  14.067
  735TMC3    C410931   1.369   3.671  13.992
  735TMC3    C510932   1.328   3.564  14.072
  735TMC3    C610933   1.190   3.557  14.091
  735TMC3     C10934   1.344   3.889  13.910
  735TMC3     O10935   1.443   3.868  13.845
  735TMC3     H10936   1.094   3.865  13.991
  735TMC3    H110937   1.474   3.680  13.967
  735TMC3    H210938   1.153   3.478  14.154
  735TMC3    C710939   1.411   3.531  14.185
  735TMC3    C810940   1.004   3.682  14.172
  735TMC3    O110941   1.351   3.513  14.288
  735TMC3    O210942   1.034   3.629  14.279
  736TMC3    C110943   4.557   2.497   9.971
  736TMC3    C210944   4.486   2.440  10.071
  736TMC3    C310945   4.448   2.307  10.058
  736TMC3    C410946   4.587   2.428   9.851
  736TMC3    C510947   4.549   2.290   9.846
  736TMC3    C610948   4.472   2.232   9.946
  736TMC3     C10949   4.638   2.610  10.011
  736TMC3     O10950   4.625   2.653  10.123
  736TMC3     H10951   4.499   2.472  10.173
  736TMC3    H110952   4.628   2.470   9.760
  736TMC3    H210953   4.437   2.130   9.943
  736TMC3    C710954   4.521   2.235   9.712
  736TMC3    C810955   4.429   2.230  10.186
  736TMC3    O110956   4.605   2.247   9.624
  736TMC3    O210957   4.442   2.104  10.180
  737TMC3    C110958   4.369   3.678  11.182
  737TMC3    C210959   4.258   3.745  11.142
  737TMC3    C310960   4.214   3.731  11.017
  737TMC3    C410961   4.413   3.570  11.102
  737TMC3    C510962   4.372   3.557  10.979
  737TMC3    C610963   4.277   3.638  10.932
  737TMC3     C10964   4.386   3.672  11.330
  737TMC3     O10965   4.414   3.780  11.378
  737TMC3     H10966   4.206   3.805  11.216
  737TMC3    H110967   4.503   3.518  11.134
  737TMC3    H210968   4.261   3.632  10.825
  737TMC3    C710969   4.406   3.439  10.902
  737TMC3    C810970   4.093   3.792  10.970
  737TMC3    O110971   4.420   3.460  10.782
  737TMC3    O210972   4.053   3.898  11.012
  738TMC3    C110973   2.659   0.754   6.591
  738TMC3    C210974   2.699   0.814   6.705
  738TMC3    C310975   2.831   0.824   6.717
  738TMC3    C410976   2.744   0.718   6.494
  738TMC3    C510977   2.874   0.743   6.503
  738TMC3    C610978   2.927   0.791   6.624
  738TMC3     C10979   2.521   0.717   6.572
  738TMC3     O10980   2.479   0.684   6.465
  738TMC3     H10981   2.637   0.835   6.791
  738TMC3    H110982   2.708   0.671   6.403
  738TMC3    H210983   3.024   0.831   6.651
  738TMC3    C710984   2.949   0.663   6.409
  738TMC3    C810985   2.883   0.835   6.856
  738TMC3    O110986   2.898   0.619   6.308
  738TMC3    O210987   2.978   0.765   6.886
  739TMC3    C110988   2.452   1.062  12.675
  739TMC3    C210989   2.550   1.060  12.769
  739TMC3    C310990   2.632   1.174  12.762
  739TMC3    C410991   2.442   1.150  12.568
  739TMC3    C510992   2.523   1.261  12.584
  739TMC3    C610993   2.622   1.280  12.677
  739TMC3     C10994   2.359   0.948  12.677
  739TMC3     O10995   2.396   0.849  12.743
  739TMC3     H10996   2.562   0.981  12.843
  739TMC3    H110997   2.355   1.149  12.503
  739TMC3    H210998   2.687   1.366  12.681
  739TMC3    C710999   2.498   1.365  12.488
  739TMC3    C811000   2.719   1.197  12.874
  739TMC3    O111001   2.432   1.326  12.394
  739TMC3    O211002   2.722   1.306  12.924
  740TMC3    C111003   1.642   1.102  11.078
  740TMC3    C211004   1.525   1.059  11.019
  740TMC3    C311005   1.536   0.962  10.930
  740TMC3    C411006   1.768   1.045  11.063
  740TMC3    C511007   1.767   0.938  10.970
  740TMC3    C611008   1.648   0.897  10.916
  740TMC3     C11009   1.621   1.224  11.155
  740TMC3     O11010   1.517   1.288  11.137
  740TMC3     H11011   1.430   1.106  11.041
  740TMC3    H111012   1.854   1.106  11.086
  740TMC3    H211013   1.646   0.806  10.857
  740TMC3    C711014   1.884   0.919  10.888
  740TMC3    C811015   1.425   0.893  10.884
  740TMC3    O111016   1.860   0.903  10.772
  740TMC3    O211017   1.427   0.774  10.901
  741TMC3    C111018   4.254   4.441  11.155
  741TMC3    C211019   4.268   4.375  11.270
  741TMC3    C311020   4.256   4.234  11.258
  741TMC3    C411021   4.224   4.383  11.037
  741TMC3    C511022   4.219   4.248  11.030
  741TMC3    C611023   4.226   4.167  11.143
  741TMC3     C11024   4.227   4.584  11.156
  741TMC3     O11025   4.261   4.655  11.065
  741TMC3     H11026   4.287   4.434  11.359
  741TMC3    H111027   4.228   4.441  10.946
  741TMC3    H211028   4.217   4.059  11.134
  741TMC3    C711029   4.160   4.193  10.909
  741TMC3    C811030   4.272   4.155  11.375
  741TMC3    O111031   4.056   4.255  10.873
  741TMC3    O211032   4.207   4.049  11.373
  742TMC3    C111033   4.657   2.507   6.841
  742TMC3    C211034   4.769   2.496   6.764
  742TMC3    C311035   4.782   2.389   6.693
  742TMC3    C411036   4.564   2.402   6.848
  742TMC3    C511037   4.595   2.285   6.775
  742TMC3    C611038   4.705   2.275   6.690
  742TMC3     C11039   4.664   2.579   6.969
  742TMC3     O11040   4.571   2.556   7.049
  742TMC3     H11041   0.061   2.569   6.752
  742TMC3    H111042   4.481   2.411   6.917
  742TMC3    H211043   4.732   2.188   6.631
  742TMC3    C711044   4.550   2.159   6.826
  742TMC3    C811045   0.097   2.384   6.597
  742TMC3    O111046   4.569   2.059   6.761
  742TMC3    O211047   0.075   2.334   6.487
  743TMC3    C111048   0.804   1.717   8.580
  743TMC3    C211049   0.775   1.689   8.711
  743TMC3    C311050   0.702   1.771   8.788
  743TMC3    C411051   0.772   1.836   8.529
  743TMC3    C511052   0.708   1.928   8.610
  743TMC3    C611053   0.671   1.893   8.737
  743TMC3     C11054   0.922   1.669   8.517
  743TMC3     O11055   0.924   1.669   8.393
  743TMC3     H11056   0.819   1.599   8.754
  743TMC3    H111057   0.801   1.857   8.427
  743TMC3    H211058   0.612   1.963   8.795
  743TMC3    C711059   0.789   2.046   8.609
  743TMC3    C811060   0.730   1.789   8.927
  743TMC3    O111061   0.814   2.109   8.509
  743TMC3    O211062   0.750   1.903   8.968
  744TMC3    C111063   0.230   2.901  14.011
  744TMC3    C211064   0.119   2.881  13.933
  744TMC3    C311065   0.050   3.000  13.905
  744TMC3    C411066   0.279   3.022  14.048
  744TMC3    C511067   0.203   3.129  14.019
  744TMC3    C611068   0.095   3.125  13.940
  744TMC3     C11069   0.316   2.786  14.029
  744TMC3     O11070   0.272   2.684  14.082
  744TMC3     H11071   0.087   2.780  13.912
  744TMC3    H111072   0.374   3.024  14.101
  744TMC3    H211073   0.044   3.217  13.912
  744TMC3    C711074   0.217   3.244  14.112
  744TMC3    C811075   4.709   3.005  13.835
  744TMC3    O111076   0.330   3.288  14.129
  744TMC3    O211077   4.668   3.111  13.789
  745TMC3    C111078   3.584   1.789   9.893
  745TMC3    C211079   3.548   1.757  10.020
  745TMC3    C311080   3.486   1.853  10.096
  745TMC3    C411081   3.584   1.919   9.857
  745TMC3    C511082   3.525   2.018   9.933
  745TMC3    C611083   3.464   1.977  10.051
  745TMC3     C11084   3.519   1.704   9.795
  745TMC3     O11085   3.416   1.640   9.832
  745TMC3     H11086   3.550   1.653  10.050
  745TMC3    H111087   3.595   1.938   9.751
  745TMC3    H211088   3.399   2.043  10.107
  745TMC3    C711089   3.463   2.132   9.860
  745TMC3    C811090   3.358   1.799  10.145
  745TMC3    O111091   3.542   2.200   9.795
  745TMC3    O211092   3.297   1.862  10.229
  746TMC3    C111093   0.409   2.891  10.365
  746TMC3    C211094   0.424   2.762  10.395
  746TMC3    C311095   0.438   2.716  10.522
  746TMC3    C411096   0.383   2.985  10.464
  746TMC3    C511097   0.409   2.936  10.590
  746TMC3    C611098   0.439   2.810  10.622
  746TMC3     C11099   0.366   2.918  10.233
  746TMC3     O11100   0.413   3.019  10.185
  746TMC3     H11101   0.432   2.684  10.320
  746TMC3    H111102   0.353   3.085  10.437
  746TMC3    H211103   0.460   2.785  10.726
  746TMC3    C711104   0.422   3.041  10.697
  746TMC3    C811105   0.519   2.600  10.550
  746TMC3    O111106   0.534   3.049  10.745
  746TMC3    O211107   0.603   2.586  10.462
  747TMC3    C111108   1.896   0.110   9.314
  747TMC3    C211109   1.905   0.218   9.397
  747TMC3    C311110   1.791   0.285   9.427
  747TMC3    C411111   1.779   0.058   9.272
  747TMC3    C511112   1.665   0.126   9.310
  747TMC3    C611113   1.674   0.247   9.372
  747TMC3     C11114   2.017   0.029   9.303
  747TMC3     O11115   2.060   4.757   9.206
  747TMC3     H11116   2.002   0.256   9.427
  747TMC3    H111117   1.780   4.761   9.205
  747TMC3    H211118   1.583   0.301   9.395
  747TMC3    C711119   1.546   0.092   9.241
  747TMC3    C811120   1.814   0.430   9.450
  747TMC3    O111121   1.496   0.188   9.182
  747TMC3    O211122   1.753   0.513   9.380
  748TMC3    C111123   3.042   0.440  14.750
  748TMC3    C211124   3.168   0.457  14.799
  748TMC3    C311125   3.178   0.482  14.931
  748TMC3    C411126   2.927   0.441  14.825
  748TMC3    C511127   2.951   0.459  14.956
  748TMC3    C611128   3.071   0.482  15.019
  748TMC3     C11129   3.016   0.457  14.613
  748TMC3     O11130   2.903   0.488  14.576
  748TMC3     H11131   3.254   0.488  14.740
  748TMC3    H111132   2.831   0.431  14.774
  748TMC3    H211133   3.087   0.506  15.123
  748TMC3    C711134   2.847   0.410  15.049
  748TMC3    C811135   3.310   0.490  14.980
  748TMC3    O111136   2.889   0.348  15.147
  748TMC3    O211137   3.323   0.538  15.090
  749TMC3    C111138   2.763   4.119  13.186
  749TMC3    C211139   2.809   4.097  13.058
  749TMC3    C311140   2.873   3.977  13.030
  749TMC3    C411141   2.765   4.011  13.269
  749TMC3    C511142   2.825   3.892  13.240
  749TMC3    C611143   2.883   3.868  13.118
  749TMC3     C11144   2.648   4.211  13.201
  749TMC3     O11145   2.567   4.184  13.294
  749TMC3     H11146   2.794   4.176  12.985
  749TMC3    H111147   2.725   4.030  13.368
  749TMC3    H211148   2.958   3.791  13.104
  749TMC3    C711149   2.824   3.782  13.335
  749TMC3    C811150   2.942   3.961  12.900
  749TMC3    O111151   2.894   3.679  13.314
  749TMC3    O211152   3.004   3.857  12.895
  750TMC3    C111153   1.222   0.921  11.623
  750TMC3    C211154   1.287   0.804  11.625
  750TMC3    C311155   1.427   0.796  11.623
  750TMC3    C411156   1.289   1.041  11.616
  750TMC3    C511157   1.427   1.033  11.598
  750TMC3    C611158   1.496   0.911  11.607
  750TMC3     C11159   1.084   0.915  11.659
  750TMC3     O11160   1.050   0.810  11.712
  750TMC3     H11161   1.232   0.710  11.624
  750TMC3    H111162   1.240   1.136  11.637
  750TMC3    H211163   1.603   0.918  11.593
  750TMC3    C711164   1.503   1.155  11.610
  750TMC3    C811165   1.487   0.661  11.603
  750TMC3    O111166   1.614   1.150  11.668
  750TMC3    O211167   1.412   0.567  11.585
  751TMC3    C111168   2.277   1.316  13.671
  751TMC3    C211169   2.158   1.360  13.618
  751TMC3    C311170   2.144   1.482  13.553
  751TMC3    C411171   2.387   1.399  13.661
  751TMC3    C511172   2.370   1.521  13.600
  751TMC3    C611173   2.247   1.570  13.560
  751TMC3     C11174   2.313   1.176  13.639
  751TMC3     O11175   2.264   1.128  13.538
  751TMC3     H11176   2.083   1.283  13.602
  751TMC3    H111177   2.487   1.362  13.681
  751TMC3    H211178   2.245   1.664  13.507
  751TMC3    C711179   2.480   1.557  13.515
  751TMC3    C811180   2.120   1.470  13.413
  751TMC3    O111181   2.551   1.461  13.495
  751TMC3    O211182   2.071   1.566  13.351
  752TMC3    C111183   3.766   1.554   8.830
  752TMC3    C211184   3.872   1.645   8.848
  752TMC3    C311185   3.938   1.645   8.970
  752TMC3    C411186   3.745   1.460   8.926
  752TMC3    C511187   3.807   1.471   9.052
  752TMC3    C611188   3.898   1.568   9.081
  752TMC3     C11189   3.651   1.646   8.829
  752TMC3     O11190   3.684   1.762   8.812
  752TMC3     H11191   3.900   1.716   8.772
  752TMC3    H111192   3.685   1.371   8.909
  752TMC3    H211193   3.947   1.566   9.178
  752TMC3    C711194   3.717   1.436   9.155
  752TMC3    C811195   4.051   1.736   8.994
  752TMC3    O111196   3.653   1.331   9.150
  752TMC3    O211197   4.087   1.759   9.109
  753TMC3    C111198   2.166   4.687   7.722
  753TMC3    C211199   2.193   4.677   7.591
  753TMC3    C311200   2.259   4.560   7.546
  753TMC3    C411201   2.204   4.587   7.813
  753TMC3    C511202   2.258   4.470   7.766
  753TMC3    C611203   2.297   4.459   7.633
  753TMC3     C11204   2.144   0.027   7.793
  753TMC3     O11205   2.054   0.037   7.871
  753TMC3     H11206   2.144   4.744   7.522
  753TMC3    H111207   2.186   4.593   7.920
  753TMC3    H211208   2.360   4.379   7.598
  753TMC3    C711209   2.316   4.375   7.866
  753TMC3    C811210   2.274   4.545   7.403
  753TMC3    O111211   2.314   4.408   7.982
  753TMC3    O211212   2.240   4.645   7.340
  754TMC3    C111213   3.796   0.210  11.684
  754TMC3    C211214   3.709   0.299  11.625
  754TMC3    C311215   3.578   0.297  11.666
  754TMC3    C411216   3.768   0.139  11.795
  754TMC3    C511217   3.639   0.143  11.840
  754TMC3    C611218   3.541   0.225  11.779
  754TMC3     C11219   3.936   0.215  11.647
  754TMC3     O11220   4.001   0.115  11.671
  754TMC3     H11221   3.735   0.357  11.537
  754TMC3    H111222   3.843   0.093  11.858
  754TMC3    H211223   3.443   0.238  11.823
  754TMC3    C711224   3.629   0.129  11.986
  754TMC3    C811225   3.504   0.417  11.629
  754TMC3    O111226   3.634   0.022  12.048
  754TMC3    O211227   3.568   0.510  11.586
  755TMC3    C111228   3.569   3.150   9.377
  755TMC3    C211229   3.448   3.198   9.339
  755TMC3    C311230   3.429   3.245   9.214
  755TMC3    C411231   3.682   3.169   9.302
  755TMC3    C511232   3.660   3.218   9.176
  755TMC3    C611233   3.536   3.251   9.130
  755TMC3     C11234   3.580   3.082   9.503
  755TMC3     O11235   3.481   3.092   9.571
  755TMC3     H11236   3.371   3.182   9.414
  755TMC3    H111237   3.778   3.139   9.341
  755TMC3    H211238   3.525   3.301   9.034
  755TMC3    C711239   3.777   3.256   9.089
  755TMC3    C811240   3.291   3.260   9.170
  755TMC3    O111241   3.756   3.336   8.997
  755TMC3    O211242   3.213   3.207   9.249
  756TMC3    C111243   1.267   2.982  12.243
  756TMC3    C211244   1.370   3.004  12.327
  756TMC3    C311245   1.477   2.927  12.304
  756TMC3    C411246   1.268   2.887  12.143
  756TMC3    C511247   1.375   2.812  12.133
  756TMC3    C611248   1.482   2.830  12.208
  756TMC3     C11249   1.155   3.073  12.237
  756TMC3     O11250   1.109   3.105  12.128
  756TMC3     H11251   1.376   3.086  12.399
  756TMC3    H111252   1.184   2.862  12.079
  756TMC3    H211253   1.579   2.781  12.198
  756TMC3    C711254   1.383   2.710  12.029
  756TMC3    C811255   1.602   2.961  12.358
  756TMC3    O111256   1.467   2.718  11.943
  756TMC3    O211257   1.615   2.972  12.480
  757TMC3    C111258   4.169   3.602  11.836
  757TMC3    C211259   4.247   3.695  11.888
  757TMC3    C311260   4.374   3.665  11.923
  757TMC3    C411261   4.208   3.468  11.821
  757TMC3    C511262   4.333   3.437  11.873
  757TMC3    C611263   4.420   3.534  11.925
  757TMC3     C11264   4.073   3.657  11.741
  757TMC3     O11265   4.091   3.776  11.713
  757TMC3     H11266   4.208   3.797  11.891
  757TMC3    H111267   4.147   3.389  11.778
  757TMC3    H211268   4.525   3.513  11.943
  757TMC3    C711269   4.380   3.297  11.852
  757TMC3    C811270   4.470   3.760  11.873
  757TMC3    O111271   4.300   3.225  11.794
  757TMC3    O211272   4.580   3.753  11.920
  758TMC3    C111273   1.973   4.640  12.664
  758TMC3    C211274   2.058   4.625  12.564
  758TMC3    C311275   2.069   4.718  12.462
  758TMC3    C411276   1.897   4.753  12.680
  758TMC3    C511277   1.907   0.054  12.579
  758TMC3    C611278   1.994   0.044  12.477
  758TMC3     C11279   1.972   4.543  12.769
  758TMC3     O11280   1.957   4.578  12.885
  758TMC3     H11281   2.127   4.541  12.559
  758TMC3    H111282   1.831   4.759  12.765
  758TMC3    H211283   1.993   0.109  12.391
  758TMC3    C711284   1.840   0.185  12.580
  758TMC3    C811285   2.086   4.660  12.331
  758TMC3    O111286   1.906   0.275  12.531
  758TMC3    O211287   2.134   4.548  12.331
  759TMC3    C111288   2.922   3.087  12.774
  759TMC3    C211289   2.828   3.030  12.693
  759TMC3    C311290   2.867   2.980  12.571
  759TMC3    C411291   3.057   3.076  12.751
  759TMC3    C511292   3.095   3.002  12.646
  759TMC3    C611293   3.002   2.963  12.542
  759TMC3     C11294   2.887   3.175  12.880
  759TMC3     O11295   2.973   3.243  12.922
  759TMC3     H11296   2.724   3.051  12.713
  759TMC3    H111297   3.128   3.111  12.825
  759TMC3    H211298   3.029   2.912  12.450
  759TMC3    C711299   3.228   2.946  12.644
  759TMC3    C811300   2.784   2.878  12.514
  759TMC3    O111301   3.306   2.999  12.725
  759TMC3    O211302   2.825   2.835  12.407
  760TMC3    C111303   2.564   4.592   8.205
  760TMC3    C211304   2.536   4.612   8.065
  760TMC3    C311305   2.563   4.730   8.012
  760TMC3    C411306   2.618   4.686   8.282
  760TMC3    C511307   2.640   0.020   8.220
  760TMC3    C611308   2.602   0.048   8.089
  760TMC3     C11309   2.493   4.495   8.287
  760TMC3     O11310   2.570   4.425   8.354
  760TMC3     H11311   2.495   4.541   7.993
  760TMC3    H111312   2.655   4.659   8.380
  760TMC3    H211313   2.639   0.138   8.040
  760TMC3    C711314   2.754   0.093   8.273
  760TMC3    C811315   2.586   4.744   7.868
  760TMC3    O111316   2.810   0.047   8.371
  760TMC3    O211317   2.503   4.704   7.786
  761TMC3    C111318   4.759   4.628  13.580
  761TMC3    C211319   4.727   4.563  13.698
  761TMC3    C311320   4.763   4.434  13.720
  761TMC3    C411321   0.039   4.564  13.485
  761TMC3    C511322   0.077   4.432  13.511
  761TMC3    C611323   0.047   4.369  13.623
  761TMC3     C11324   4.719   4.768  13.563
  761TMC3     O11325   4.615   0.011  13.617
  761TMC3     H11326   4.674   4.617  13.776
  761TMC3    H111327   0.051   4.609  13.387
  761TMC3    H211328   0.058   4.262  13.641
  761TMC3    C711329   0.154   4.351  13.415
  761TMC3    C811330   4.657   4.342  13.774
  761TMC3    O111331   0.147   4.227  13.428
  761TMC3    O211332   4.601   4.269  13.688
  762TMC3    C111333   2.132   3.385  10.408
  762TMC3    C211334   1.997   3.379  10.431
  762TMC3    C311335   1.914   3.337  10.332
  762TMC3    C411336   2.182   3.353  10.285
  762TMC3    C511337   2.101   3.289  10.199
  762TMC3    C611338   1.965   3.282  10.217
  762TMC3     C11339   2.206   3.307  10.504
  762TMC3     O11340   2.318   3.345  10.539
  762TMC3     H11341   1.955   3.417  10.523
  762TMC3    H111342   2.290   3.348  10.282
  762TMC3    H211343   1.901   3.235  10.144
  762TMC3    C711344   2.152   3.186  10.111
  762TMC3    C811345   1.815   3.249  10.385
  762TMC3    O111346   2.068   3.108  10.066
  762TMC3    O211347   1.831   3.130  10.369
  763TMC3    C111348   3.339   1.386  15.111
  763TMC3    C211349   3.217   1.334  15.152
  763TMC3    C311350   3.159   1.241  15.074
  763TMC3    C411351   3.405   1.334  15.000
  763TMC3    C511352   3.344   1.232  14.926
  763TMC3    C611353   3.220   1.194  14.962
  763TMC3     C11354   3.310   1.531  15.090
  763TMC3     O11355   3.217   1.582  15.153
  763TMC3     H11356   3.173   1.374  15.243
  763TMC3    H111357   3.509   1.351  14.978
  763TMC3    H211358   3.151   1.155  14.889
  763TMC3    C711359   3.359   1.272  14.789
  763TMC3    C811360   3.022   1.277  15.051
  763TMC3    O111361   3.247   1.285  14.734
  763TMC3    O211362   2.979   1.287  14.938
  764TMC3    C111363   0.261   3.750   9.014
  764TMC3    C211364   0.160   3.658   8.972
  764TMC3    C311365   0.148   3.636   8.841
  764TMC3    C411366   0.347   3.821   8.936
  764TMC3    C511367   0.335   3.787   8.805
  764TMC3    C611368   0.239   3.690   8.758
  764TMC3     C11369   0.247   3.792   9.155
  764TMC3     O11370   0.129   3.799   9.194
  764TMC3     H11371   0.085   3.615   9.037
  764TMC3    H111372   0.423   3.889   8.971
  764TMC3    H211373   0.219   3.680   8.651
  764TMC3    C711374   0.386   3.873   8.697
  764TMC3    C811375   0.020   3.634   8.784
  764TMC3    O111376   0.402   3.823   8.583
  764TMC3    O211377   4.775   3.736   8.717
  765TMC3    C111378   3.247   3.479  12.674
  765TMC3    C211379   3.314   3.568  12.587
  765TMC3    C311380   3.237   3.629  12.489
  765TMC3    C411381   3.111   3.454  12.670
  765TMC3    C511382   3.048   3.511  12.558
  765TMC3    C611383   3.113   3.578  12.459
  765TMC3     C11384   3.327   3.386  12.754
  765TMC3     O11385   3.307   3.380  12.875
  765TMC3     H11386   3.414   3.598  12.613
  765TMC3    H111387   3.061   3.398  12.748
  765TMC3    H211388   3.044   3.626  12.390
  765TMC3    C711389   2.931   3.433  12.516
  765TMC3    C811390   3.227   3.765  12.518
  765TMC3    O111391   2.954   3.358  12.421
  765TMC3    O211392   3.273   3.800  12.628
  766TMC3    C111393   0.667   3.769  12.975
  766TMC3    C211394   0.597   3.879  13.013
  766TMC3    C311395   0.612   3.922  13.142
  766TMC3    C411396   0.748   3.698  13.058
  766TMC3    C511397   0.772   3.740  13.184
  766TMC3    C611398   0.709   3.858  13.225
  766TMC3     C11399   0.656   3.727  12.839
  766TMC3     O11400   0.545   3.760  12.793
  766TMC3     H11401   0.536   3.931  12.939
  766TMC3    H111402   0.779   3.601  13.020
  766TMC3    H211403   0.716   3.892  13.328
  766TMC3    C711404   0.890   3.692  13.244
  766TMC3    C811405   0.544   4.041  13.192
  766TMC3    O111406   0.939   3.601  13.183
  766TMC3    O211407   0.510   4.066  13.303
  767TMC3    C111408   4.467   2.941   9.326
  767TMC3    C211409   4.548   2.872   9.241
  767TMC3    C311410   4.642   2.793   9.294
  767TMC3    C411411   4.464   2.913   9.460
  767TMC3    C511412   4.564   2.833   9.522
  767TMC3    C611413   4.650   2.767   9.433
  767TMC3     C11414   4.349   2.999   9.265
  767TMC3     O11415   4.250   2.976   9.334
  767TMC3     H11416   4.526   2.888   9.136
  767TMC3    H111417   4.391   2.969   9.516
  767TMC3    H211418   4.711   2.686   9.472
  767TMC3    C711419   4.528   2.770   9.654
  767TMC3    C811420   4.751   2.739   9.206
  767TMC3    O111421   4.539   2.650   9.657
  767TMC3    O211422   0.021   2.634   9.239
  768TMC3    C111423   2.503   0.391   7.274
  768TMC3    C211424   2.448   0.312   7.180
  768TMC3    C311425   2.353   0.365   7.098
  768TMC3    C411426   2.465   0.527   7.283
  768TMC3    C511427   2.361   0.571   7.204
  768TMC3    C611428   2.303   0.487   7.110
  768TMC3     C11429   2.624   0.354   7.338
  768TMC3     O11430   2.716   0.443   7.340
  768TMC3     H11431   2.495   0.217   7.155
  768TMC3    H111432   2.514   0.593   7.354
  768TMC3    H211433   2.215   0.525   7.059
  768TMC3    C711434   2.286   0.690   7.236
  768TMC3    C811435   2.285   0.274   7.011
  768TMC3    O111436   2.206   0.729   7.150
  768TMC3    O211437   2.310   0.155   7.038
  769TMC3    C111438   2.527   1.626  13.944
  769TMC3    C211439   2.413   1.561  13.987
  769TMC3    C311440   2.427   1.428  14.016
  769TMC3    C411441   2.643   1.555  13.918
  769TMC3    C511442   2.642   1.422  13.944
  769TMC3    C611443   2.542   1.356  14.004
  769TMC3     C11444   2.513   1.767  13.909
  769TMC3     O11445   2.401   1.815  13.935
  769TMC3     H11446   2.321   1.617  14.002
  769TMC3    H111447   2.737   1.601  13.892
  769TMC3    H211448   2.546   1.250  14.024
  769TMC3    C711449   2.707   1.351  13.840
  769TMC3    C811450   2.311   1.343  14.029
  769TMC3    O111451   2.725   1.409  13.732
  769TMC3    O211452   2.334   1.223  14.039
  770TMC3    C111453   3.025   0.014  15.017
  770TMC3    C211454   2.912   4.783  15.094
  770TMC3    C311455   2.795   4.776  15.028
  770TMC3    C411456   3.021   0.038  14.880
  770TMC3    C511457   2.899   0.035  14.819
  770TMC3    C611458   2.790   4.786  14.891
  770TMC3     C11459   3.149   0.064  15.078
  770TMC3     O11460   3.258   0.048  15.019
  770TMC3     H11461   2.922   4.767  15.201
  770TMC3    H111462   3.112   0.067  14.829
  770TMC3    H211463   2.696   4.771  14.838
  770TMC3    C711464   2.882   0.071  14.681
  770TMC3    C811465   2.707   4.674  15.075
  770TMC3    O111466   2.773   0.105  14.638
  770TMC3    O211467   2.654   4.608  14.986
  771TMC3    C111468   0.288   3.577  12.793
  771TMC3    C211469   0.256   3.691  12.729
  771TMC3    C311470   0.237   3.681  12.594
  771TMC3    C411471   0.314   3.452  12.728
  771TMC3    C511472   0.280   3.451  12.594
  771TMC3    C611473   0.259   3.571  12.521
  771TMC3     C11474   0.287   3.595  12.940
  771TMC3     O11475   0.295   3.708  12.983
  771TMC3     H11476   0.237   3.784  12.780
  771TMC3    H111477   0.339   3.363  12.785
  771TMC3    H211478   0.224   3.572  12.418
  771TMC3    C711479   0.313   3.330  12.520
  771TMC3    C811480   0.165   3.787  12.523
  771TMC3    O111481   0.402   3.258  12.559
  771TMC3    O211482   0.198   3.811  12.409
  772TMC3    C111483   0.809   2.018  10.186
  772TMC3    C211484   0.718   2.050  10.088
  772TMC3    C311485   0.583   2.055  10.112
  772TMC3    C411486   0.764   1.967  10.305
  772TMC3    C511487   0.632   1.965  10.321
  772TMC3    C611488   0.539   2.008  10.234
  772TMC3     C11489   0.949   2.038  10.171
  772TMC3     O11490   1.016   2.029  10.277
  772TMC3     H11491   0.753   2.077   9.989
  772TMC3    H111492   0.831   1.921  10.376
  772TMC3    H211493   0.431   2.007  10.244
  772TMC3    C711494   0.595   1.875  10.427
  772TMC3    C811495   0.479   2.097  10.019
  772TMC3    O111496   0.678   1.818  10.501
  772TMC3    O211497   0.367   2.046  10.032
  773TMC3    C111498   4.474   0.802   8.277
  773TMC3    C211499   4.593   0.822   8.227
  773TMC3    C311500   4.692   0.867   8.310
  773TMC3    C411501   4.442   0.826   8.410
  773TMC3    C511502   4.545   0.862   8.496
  773TMC3    C611503   4.670   0.886   8.445
  773TMC3     C11504   4.374   0.726   8.201
  773TMC3     O11505   4.260   0.714   8.245
  773TMC3     H11506   4.614   0.820   8.121
  773TMC3    H111507   4.348   0.794   8.455
  773TMC3    H211508   4.740   0.932   8.513
  773TMC3    C711509   4.508   0.902   8.627
  773TMC3    C811510   0.013   0.933   8.244
  773TMC3    O111511   4.388   0.918   8.648
  773TMC3    O211512   4.776   1.005   8.147
  774TMC3    C111513   1.368   0.682  14.459
  774TMC3    C211514   1.473   0.730  14.389
  774TMC3    C311515   1.575   0.788  14.449
  774TMC3    C411516   1.375   0.674  14.590
  774TMC3    C511517   1.481   0.729  14.655
  774TMC3    C611518   1.583   0.782  14.585
  774TMC3     C11519   1.264   0.614  14.379
  774TMC3     O11520   1.281   0.590  14.256
  774TMC3     H11521   1.475   0.722  14.281
  774TMC3    H111522   1.292   0.629  14.643
  774TMC3    H211523   1.661   0.831  14.644
  774TMC3    C711524   1.457   0.767  14.793
  774TMC3    C811525   1.636   0.905  14.379
  774TMC3    O111526   1.546   0.838  14.841
  774TMC3    O211527   1.561   0.981  14.328
  775TMC3    C111528   2.315   1.724  12.776
  775TMC3    C211529   2.222   1.677  12.693
  775TMC3    C311530   2.173   1.769  12.594
  775TMC3    C411531   2.380   1.846  12.765
  775TMC3    C511532   2.345   1.916  12.656
  775TMC3    C611533   2.237   1.891  12.575
  775TMC3     C11534   2.388   1.622  12.849
  775TMC3     O11535   2.484   1.566  12.800
  775TMC3     H11536   2.185   1.575  12.692
  775TMC3    H111537   2.460   1.876  12.831
  775TMC3    H211538   2.208   1.960  12.497
  775TMC3    C711539   2.442   2.007  12.604
  775TMC3    C811540   2.030   1.766  12.556
  775TMC3    O111541   2.437   2.123  12.648
  775TMC3    O211542   1.978   1.879  12.543
  776TMC3    C111543   2.671   0.161  10.895
  776TMC3    C211544   2.567   0.246  10.868
  776TMC3    C311545   2.600   0.379  10.839
  776TMC3    C411546   2.795   0.214  10.933
  776TMC3    C511547   2.823   0.339  10.900
  776TMC3    C611548   2.729   0.424  10.853
  776TMC3     C11549   2.674   0.029  10.827
  776TMC3     O11550   2.774   0.001  10.762
  776TMC3     H11551   2.467   0.208  10.855
  776TMC3    H111552   2.877   0.143  10.926
  776TMC3    H211553   2.754   0.524  10.819
  776TMC3    C711554   2.954   0.343  10.844
  776TMC3    C811555   2.485   0.472  10.838
  776TMC3    O111556   2.961   0.347  10.722
  776TMC3    O211557   2.379   0.422  10.876
  777TMC3    C111558   0.873   3.308   7.047
  777TMC3    C211559   0.822   3.431   7.045
  777TMC3    C311560   0.743   3.468   7.152
  777TMC3    C411561   0.807   3.210   7.126
  777TMC3    C511562   0.716   3.250   7.221
  777TMC3    C611563   0.688   3.385   7.237
  777TMC3     C11564   0.992   3.281   6.972
  777TMC3     O11565   1.000   3.323   6.859
  777TMC3     H11566   0.860   3.503   6.973
  777TMC3    H111567   0.832   3.105   7.131
  777TMC3    H211568   0.627   3.421   7.318
  777TMC3    C711569   0.652   3.153   7.311
  777TMC3    C811570   0.699   3.606   7.144
  777TMC3    O111571   0.637   3.196   7.426
  777TMC3    O211572   0.643   3.638   7.038
  778TMC3    C111573   2.910   4.105   8.570
  778TMC3    C211574   2.882   4.096   8.438
  778TMC3    C311575   2.753   4.091   8.388
  778TMC3    C411576   2.810   4.134   8.654
  778TMC3    C511577   2.683   4.154   8.599
  778TMC3    C611578   2.650   4.122   8.470
  778TMC3     C11579   3.048   4.137   8.613
  778TMC3     O11580   3.094   4.093   8.712
  778TMC3     H11581   2.967   4.059   8.382
  778TMC3    H111582   2.823   4.141   8.761
  778TMC3    H211583   2.544   4.129   8.450
  778TMC3    C711584   2.582   4.195   8.689
  778TMC3    C811585   2.719   4.034   8.259
  778TMC3    O111586   2.596   4.148   8.805
  778TMC3    O211587   2.814   3.973   8.208
  779TMC3    C111588   1.815   1.653  11.935
  779TMC3    C211589   1.706   1.741  11.957
  779TMC3    C311590   1.620   1.713  12.060
  779TMC3    C411591   1.853   1.565  12.034
  779TMC3    C511592   1.762   1.548  12.134
  779TMC3    C611593   1.640   1.607  12.139
  779TMC3     C11594   1.788   1.567  11.819
  779TMC3     O11595   1.804   1.451  11.836
  779TMC3     H11596   1.700   1.818  11.880
  779TMC3    H111597   1.942   1.504  12.027
  779TMC3    H211598   1.584   1.590  12.230
  779TMC3    C711599   1.770   1.407  12.176
  779TMC3    C811600   1.483   1.757  12.048
  779TMC3    O111601   1.872   1.343  12.148
  779TMC3    O211602   1.395   1.709  12.121
  780TMC3    C111603   3.354   1.011   9.706
  780TMC3    C211604   3.279   0.901   9.721
  780TMC3    C311605   3.158   0.919   9.784
  780TMC3    C411606   3.302   1.136   9.735
  780TMC3    C511607   3.186   1.147   9.806
  780TMC3    C611608   3.112   1.038   9.826
  780TMC3     C11609   3.463   1.001   9.619
  780TMC3     O11610   3.450   1.084   9.527
  780TMC3     H11611   3.315   0.805   9.685
  780TMC3    H111612   3.367   1.219   9.712
  780TMC3    H211613   3.018   1.048   9.878
  780TMC3    C711614   3.154   1.279   9.850
  780TMC3    C811615   3.079   0.800   9.784
  780TMC3    O111616   3.213   1.368   9.791
  780TMC3    O211617   3.129   0.697   9.739
  781TMC3    C111618   1.111   4.685  13.901
  781TMC3    C211619   1.182   0.015  13.911
  781TMC3    C311620   1.166   0.096  14.022
  781TMC3    C411621   1.024   4.639  13.995
  781TMC3    C511622   1.011   4.722  14.109
  781TMC3    C611623   1.080   0.057  14.127
  781TMC3     C11624   1.170   4.592  13.806
  781TMC3     O11625   1.240   4.645  13.718
  781TMC3     H11626   1.265   0.040  13.846
  781TMC3    H111627   0.959   4.553  13.982
  781TMC3    H211628   1.058   0.126  14.208
  781TMC3    C711629   1.045   4.633  14.222
  781TMC3    C811630   1.266   0.198  14.047
  781TMC3    O111631   1.086   4.520  14.205
  781TMC3    O211632   1.331   0.233  13.954
  782TMC3    C111633   0.572   2.865   9.002
  782TMC3    C211634   0.495   2.978   8.992
  782TMC3    C311635   0.563   3.096   8.998
  782TMC3    C411636   0.709   2.868   9.003
  782TMC3    C511637   0.775   2.982   9.001
  782TMC3    C611638   0.702   3.094   8.992
  782TMC3     C11639   0.496   2.743   9.026
  782TMC3     O11640   0.471   2.723   9.144
  782TMC3     H11641   0.387   2.979   8.995
  782TMC3    H111642   0.760   2.780   9.042
  782TMC3    H211643   0.766   3.182   8.994
  782TMC3    C711644   0.897   2.986   9.070
  782TMC3    C811645   0.485   3.216   9.040
  782TMC3    O111646   0.913   3.083   9.147
  782TMC3    O211647   0.514   3.327   8.999
  783TMC3    C111648   1.954   2.095   9.660
  783TMC3    C211649   1.854   2.023   9.596
  783TMC3    C311650   1.886   1.896   9.574
  783TMC3    C411651   2.075   2.046   9.698
  783TMC3    C511652   2.096   1.909   9.675
  783TMC3    C611653   2.010   1.840   9.594
  783TMC3     C11654   1.907   2.211   9.741
  783TMC3     O11655   1.787   2.226   9.752
  783TMC3     H11656   1.758   2.065   9.570
  783TMC3    H111657   2.155   2.095   9.753
  783TMC3    H211658   2.039   1.742   9.560
  783TMC3    C711659   2.100   1.854   9.808
  783TMC3    C811660   1.780   1.801   9.579
  783TMC3    O111661   2.087   1.926   9.909
  783TMC3    O211662   1.811   1.690   9.615
  784TMC3    C111663   1.656   4.150  12.681
  784TMC3    C211664   1.658   4.259  12.605
  784TMC3    C311665   1.542   4.339  12.598
  784TMC3    C411666   1.549   4.127  12.768
  784TMC3    C511667   1.439   4.204  12.759
  784TMC3    C611668   1.431   4.310  12.673
  784TMC3     C11669   1.743   4.040  12.647
  784TMC3     O11670   1.714   3.933  12.702
  784TMC3     H11671   1.746   4.280  12.545
  784TMC3    H111672   1.547   4.049  12.844
  784TMC3    H211673   1.338   4.365  12.668
  784TMC3    C711674   1.364   4.226  12.884
  784TMC3    C811675   1.575   4.484  12.599
  784TMC3    O111676   1.325   4.343  12.895
  784TMC3    O211677   1.676   4.519  12.540
  785TMC3    C111678   2.195   2.358  13.246
  785TMC3    C211679   2.236   2.253  13.167
  785TMC3    C311680   2.290   2.148  13.238
  785TMC3    C411681   2.171   2.350  13.380
  785TMC3    C511682   2.213   2.235  13.443
  785TMC3    C611683   2.280   2.138  13.373
  785TMC3     C11684   2.206   2.483  13.186
  785TMC3     O11685   2.252   2.479  13.073
  785TMC3     H11686   2.243   2.260  13.060
  785TMC3    H111687   2.110   2.427  13.425
  785TMC3    H211688   2.325   2.058  13.430
  785TMC3    C711689   2.113   2.180  13.521
  785TMC3    C811690   2.236   2.025  13.186
  785TMC3    O111691   2.047   2.247  13.602
  785TMC3    O211692   2.245   1.930  13.264
  786TMC3    C111693   3.039   3.310   7.760
  786TMC3    C211694   2.932   3.242   7.703
  786TMC3    C311695   2.922   3.231   7.568
  786TMC3    C411696   3.140   3.366   7.685
  786TMC3    C511697   3.119   3.356   7.551
  786TMC3    C611698   3.019   3.283   7.482
  786TMC3     C11699   3.064   3.255   7.897
  786TMC3     O11700   2.964   3.213   7.952
  786TMC3     H11701   2.854   3.193   7.761
  786TMC3    H111702   3.214   3.429   7.733
  786TMC3    H211703   3.027   3.243   7.382
  786TMC3    C711704   3.223   3.403   7.459
  786TMC3    C811705   2.845   3.122   7.516
  786TMC3    O111706   3.265   3.320   7.376
  786TMC3    O211707   2.787   3.128   7.411
  787TMC3    C111708   2.908   4.759  13.418
  787TMC3    C211709   2.884   4.726  13.545
  787TMC3    C311710   2.965   4.773  13.644
  787TMC3    C411711   3.016   0.051  13.380
  787TMC3    C511712   3.090   0.103  13.479
  787TMC3    C611713   3.070   0.066  13.611
  787TMC3     C11714   2.824   4.734  13.308
  787TMC3     O11715   2.876   4.712  13.200
  787TMC3     H11716   2.813   4.649  13.573
  787TMC3    H111717   3.027   0.080  13.276
  787TMC3    H211718   3.135   0.094  13.693
  787TMC3    C711719   3.197   0.200  13.445
  787TMC3    C811720   2.947   4.722  13.777
  787TMC3    O111721   3.226   0.211  13.326
  787TMC3    O211722   3.044   4.676  13.840
  788TMC3    C111723   1.626   1.886  11.157
  788TMC3    C211724   1.548   1.914  11.050
  788TMC3    C311725   1.438   1.979  11.074
  788TMC3    C411726   1.578   1.901  11.282
  788TMC3    C511727   1.451   1.947  11.300
  788TMC3    C611728   1.378   1.997  11.196
  788TMC3     C11729   1.715   1.769  11.131
  788TMC3     O11730   1.690   1.706  11.033
  788TMC3     H11731   1.595   1.906  10.953
  788TMC3    H111732   1.616   1.856  11.373
  788TMC3    H211733   1.275   2.030  11.198
  788TMC3    C711734   1.431   1.977  11.440
  788TMC3    C811735   1.357   2.022  10.959
  788TMC3    O111736   1.534   2.016  11.497
  788TMC3    O211737   1.237   2.020  10.978
  789TMC3    C111738   3.697   1.487  11.377
  789TMC3    C211739   3.786   1.414  11.304
  789TMC3    C311740   3.866   1.333  11.377
  789TMC3    C411741   3.678   1.478  11.515
  789TMC3    C511742   3.758   1.392  11.581
  789TMC3    C611743   3.850   1.316  11.515
  789TMC3     C11744   3.616   1.571  11.292
  789TMC3     O11745   3.550   1.497  11.218
  789TMC3     H11746   3.784   1.413  11.196
  789TMC3    H111747   3.607   1.535  11.574
  789TMC3    H211748   3.909   1.250  11.577
  789TMC3    C711749   3.786   1.408  11.720
  789TMC3    C811750   3.960   1.248  11.312
  789TMC3    O111751   3.803   1.305  11.789
  789TMC3    O211752   3.983   1.145  11.371
  790TMC3    C111753   0.858   2.699   6.677
  790TMC3    C211754   0.870   2.657   6.811
  790TMC3    C311755   0.945   2.730   6.898
  790TMC3    C411756   0.930   2.808   6.633
  790TMC3    C511757   1.004   2.877   6.732
  790TMC3    C611758   1.025   2.838   6.864
  790TMC3     C11759   0.767   2.634   6.583
  790TMC3     O11760   0.790   2.646   6.463
  790TMC3     H11761   0.826   2.562   6.839
  790TMC3    H111762   0.906   2.840   6.532
  790TMC3    H211763   1.091   2.881   6.939
  790TMC3    C711764   1.088   2.995   6.696
  790TMC3    C811765   0.958   2.682   7.031
  790TMC3    O111766   1.156   3.050   6.780
  790TMC3    O211767   0.933   2.566   7.052
  791TMC3    C111768   2.299   3.883   7.408
  791TMC3    C211769   2.341   3.964   7.309
  791TMC3    C311770   2.472   3.967   7.270
  791TMC3    C411771   2.390   3.805   7.478
  791TMC3    C511772   2.520   3.814   7.442
  791TMC3    C611773   2.560   3.892   7.342
  791TMC3     C11774   2.208   3.944   7.505
  791TMC3     O11775   2.176   3.870   7.596
  791TMC3     H11776   2.269   3.995   7.235
  791TMC3    H111777   2.344   3.726   7.535
  791TMC3    H211778   2.664   3.880   7.314
  791TMC3    C711779   2.618   3.750   7.529
  791TMC3    C811780   2.516   3.975   7.133
  791TMC3    O111781   2.737   3.780   7.511
  791TMC3    O211782   2.592   3.888   7.101
  792TMC3    C111783   1.555   2.751  11.592
  792TMC3    C211784   1.527   2.857  11.674
  792TMC3    C311785   1.435   2.947  11.638
  792TMC3    C411786   1.476   2.724  11.489
  792TMC3    C511787   1.382   2.814  11.447
  792TMC3    C611788   1.364   2.932  11.524
  792TMC3     C11789   1.655   2.648  11.624
  792TMC3     O11790   1.701   2.586  11.531
  792TMC3     H11791   1.603   2.878  11.749
  792TMC3    H111792   1.493   2.626  11.448
  792TMC3    H211793   1.314   3.021  11.485
  792TMC3    C711794   1.259   2.740  11.419
  792TMC3    C811795   1.424   3.070  11.709
  792TMC3    O111796   1.258   2.647  11.335
  792TMC3    O211797   1.356   3.154  11.653
  793TMC3    C111798   3.645   3.330  13.100
  793TMC3    C211799   3.703   3.205  13.082
  793TMC3    C311800   3.746   3.142  13.200
  793TMC3    C411801   3.611   3.374  13.230
  793TMC3    C511802   3.630   3.296  13.343
  793TMC3    C611803   3.711   3.185  13.328
  793TMC3     C11804   3.671   3.413  12.984
  793TMC3     O11805   3.741   3.361  12.896
  793TMC3     H11806   3.728   3.164  12.985
  793TMC3    H111807   3.568   3.473  13.240
  793TMC3    H211808   3.753   3.130  13.412
  793TMC3    C711809   3.659   3.387  13.456
  793TMC3    C811810   3.855   3.041  13.177
  793TMC3    O111811   3.708   3.494  13.427
  793TMC3    O211812   3.911   3.039  13.066
  794TMC3    C111813   4.162   1.992   7.724
  794TMC3    C211814   4.219   1.961   7.848
  794TMC3    C311815   4.353   1.934   7.855
  794TMC3    C411816   4.229   1.968   7.607
  794TMC3    C511817   4.362   1.952   7.616
  794TMC3    C611818   4.427   1.927   7.740
  794TMC3     C11819   4.020   2.026   7.721
  794TMC3     O11820   3.962   2.009   7.613
  794TMC3     H11821   4.151   1.955   7.932
  794TMC3    H111822   4.179   1.978   7.512
  794TMC3    H211823   4.535   1.922   7.745
  794TMC3    C711824   4.425   1.899   7.493
  794TMC3    C811825   4.411   1.964   7.985
  794TMC3    O111826   4.497   1.801   7.496
  794TMC3    O211827   4.339   1.940   8.077
  795TMC3    C111828   4.244   2.993  11.435
  795TMC3    C211829   4.267   2.922  11.314
  795TMC3    C311830   4.381   2.926  11.243
  795TMC3    C411831   4.353   3.053  11.501
  795TMC3    C511832   4.470   3.055  11.429
  795TMC3    C611833   4.487   2.984  11.311
  795TMC3     C11834   4.116   2.983  11.495
  795TMC3     O11835   4.105   2.973  11.614
  795TMC3     H11836   4.191   2.861  11.266
  795TMC3    H111837   4.324   3.091  11.598
  795TMC3    H211838   4.581   2.993  11.258
  795TMC3    C711839   4.600   3.055  11.508
  795TMC3    C811840   4.388   2.832  11.125
  795TMC3    O111841   4.651   2.947  11.508
  795TMC3    O211842   4.319   2.730  11.131
  796TMC3    C111843   0.978   1.222  12.380
  796TMC3    C211844   1.089   1.250  12.456
  796TMC3    C311845   1.083   1.362  12.535
  796TMC3    C411846   0.881   1.312  12.357
  796TMC3    C511847   0.884   1.429  12.422
  796TMC3    C611848   0.980   1.452  12.517
  796TMC3     C11849   0.993   1.130  12.276
  796TMC3     O11850   0.976   1.177  12.164
  796TMC3     H11851   1.181   1.195  12.467
  796TMC3    H111852   0.805   1.281  12.287
  796TMC3    H211853   0.974   1.537  12.583
  796TMC3    C711854   0.793   1.529  12.396
  796TMC3    C811855   1.203   1.428  12.584
  796TMC3    O111856   0.818   1.633  12.460
  796TMC3    O211857   1.292   1.363  12.642
  797TMC3    C111858   3.045   2.280  11.344
  797TMC3    C211859   2.963   2.342  11.428
  797TMC3    C311860   2.860   2.272  11.480
  797TMC3    C411861   3.039   2.150  11.311
  797TMC3    C511862   2.937   2.077  11.368
  797TMC3    C611863   2.854   2.132  11.471
  797TMC3     C11864   3.079   2.368  11.243
  797TMC3     O11865   3.000   2.453  11.200
  797TMC3     H11866   2.978   2.449  11.436
  797TMC3    H111867   3.116   2.102  11.251
  797TMC3    H211868   2.763   2.075  11.488
  797TMC3    C711869   2.878   1.992  11.260
  797TMC3    C811870   2.764   2.349  11.552
  797TMC3    O111871   2.920   2.000  11.142
  797TMC3    O211872   2.764   2.470  11.528
  798TMC3    C111873   2.491   1.543   9.898
  798TMC3    C211874   2.577   1.615   9.976
  798TMC3    C311875   2.673   1.543  10.052
  798TMC3    C411876   2.495   1.407   9.886
  798TMC3    C511877   2.596   1.337   9.953
  798TMC3    C611878   2.681   1.405  10.035
  798TMC3     C11879   2.440   1.607   9.787
  798TMC3     O11880   2.332   1.567   9.746
  798TMC3     H11881   2.584   1.723   9.980
  798TMC3    H111882   2.424   1.359   9.820
  798TMC3    H211883   2.756   1.346  10.087
  798TMC3    C711884   2.671   1.234   9.870
  798TMC3    C811885   2.799   1.605  10.044
  798TMC3    O111886   2.787   1.219   9.900
  798TMC3    O211887   2.872   1.566   9.959
  799TMC3    C111888   3.974   1.040   9.437
  799TMC3    C211889   3.959   1.150   9.358
  799TMC3    C311890   4.060   1.185   9.275
  799TMC3    C411891   4.089   0.964   9.426
  799TMC3    C511892   4.189   0.998   9.338
  799TMC3    C611893   4.160   1.097   9.248
  799TMC3     C11894   3.914   1.042   9.569
  799TMC3     O11895   3.968   0.975   9.655
  799TMC3     H11896   3.872   1.213   9.370
  799TMC3    H111897   4.108   0.890   9.503
  799TMC3    H211898   4.227   1.127   9.169
  799TMC3    C711899   4.316   1.002   9.406
  799TMC3    C811900   4.080   1.324   9.258
  799TMC3    O111901   4.332   0.936   9.506
  799TMC3    O211902   4.024   1.390   9.342
  800TMC3    C111903   2.264   2.914  11.509
  800TMC3    C211904   2.169   2.995  11.564
  800TMC3    C311905   2.047   2.936  11.570
  800TMC3    C411906   2.234   2.784  11.461
  800TMC3    C511907   2.104   2.747  11.458
  800TMC3    C611908   2.007   2.814  11.521
  800TMC3     C11909   2.400   2.944  11.547
  800TMC3     O11910   2.463   2.847  11.578
  800TMC3     H11911   2.194   3.092  11.607
  800TMC3    H111912   2.308   2.731  11.403
  800TMC3    H211913   1.904   2.782  11.532
  800TMC3    C711914   2.078   2.613  11.414
  800TMC3    C811915   1.935   3.008  11.632
  800TMC3    O111916   2.177   2.542  11.400
  800TMC3    O211917   1.822   2.973  11.608
  801TMC3    C111918   1.835   4.585  13.398
  801TMC3    C211919   1.929   4.644  13.316
  801TMC3    C311920   2.006   4.571  13.233
  801TMC3    C411921   1.827   4.447  13.412
  801TMC3    C511922   1.908   4.376  13.318
  801TMC3    C611923   1.999   4.432  13.237
  801TMC3     C11924   1.741   4.665  13.470
  801TMC3     O11925   1.638   4.608  13.494
  801TMC3     H11926   1.937   4.752  13.303
  801TMC3    H111927   1.764   4.413  13.493
  801TMC3    H211928   2.053   4.365  13.172
  801TMC3    C711929   1.890   4.229  13.302
  801TMC3    C811930   2.141   4.619  13.209
  801TMC3    O111931   1.993   4.166  13.275
  801TMC3    O211932   2.152   4.739  13.188
  802TMC3    C111933   3.812   2.903  10.787
  802TMC3    C211934   3.943   2.874  10.740
  802TMC3    C311935   3.947   2.781  10.642
  802TMC3    C411936   3.700   2.851  10.729
  802TMC3    C511937   3.718   2.761  10.631
  802TMC3    C611938   3.840   2.721  10.585
  802TMC3     C11939   3.799   2.973  10.916
  802TMC3     O11940   3.901   2.977  10.986
  802TMC3     H11941   4.032   2.917  10.784
  802TMC3    H111942   3.609   2.851  10.787
  802TMC3    H211943   3.853   2.647  10.508
  802TMC3    C711944   3.599   2.700  10.574
  802TMC3    C811945   4.074   2.728  10.616
  802TMC3    O111946   3.609   2.590  10.513
  802TMC3    O211947   4.087   2.608  10.585
  803TMC3    C111948   0.195   1.092  12.794
  803TMC3    C211949   0.305   1.034  12.856
  803TMC3    C311950   0.356   0.921  12.804
  803TMC3    C411951   0.130   1.024  12.690
  803TMC3    C511952   0.179   0.899  12.660
  803TMC3    C611953   0.293   0.854  12.703
  803TMC3     C11954   0.144   1.209  12.850
  803TMC3     O11955   0.225   1.290  12.902
  803TMC3     H11956   0.363   1.087  12.930
  803TMC3    H111957   0.037   1.058  12.646
  803TMC3    H211958   0.321   0.751  12.681
  803TMC3    C711959   0.067   0.806  12.632
  803TMC3    C811960   0.429   0.842  12.903
  803TMC3    O111961   0.066   0.698  12.688
  803TMC3    O211962   0.383   0.848  13.014
  804TMC3    C111963   2.071   1.086   7.092
  804TMC3    C211964   2.014   1.033   6.979
  804TMC3    C311965   2.096   1.006   6.875
  804TMC3    C411966   2.201   1.138   7.091
  804TMC3    C511967   2.272   1.114   6.977
  804TMC3    C611968   2.228   1.040   6.869
  804TMC3     C11969   1.977   1.142   7.183
  804TMC3     O11970   1.870   1.185   7.141
  804TMC3     H11971   1.911   0.999   6.987
  804TMC3    H111972   2.245   1.178   7.181
  804TMC3    H211973   2.291   1.015   6.784
  804TMC3    C711974   2.411   1.162   6.972
  804TMC3    C811975   2.035   0.939   6.763
  804TMC3    O111976   2.490   1.123   6.886
  804TMC3    O211977   1.932   0.879   6.797
  805TMC3    C111978   0.267   2.421  11.136
  805TMC3    C211979   0.170   2.336  11.183
  805TMC3    C311980   0.193   2.242  11.277
  805TMC3    C411981   0.393   2.420  11.194
  805TMC3    C511982   0.419   2.309  11.267
  805TMC3    C611983   0.326   2.216  11.309
  805TMC3     C11984   0.220   2.532  11.070
  805TMC3     O11985   0.118   2.516  11.006
  805TMC3     H11986   0.070   2.338  11.142
  805TMC3    H111987   0.479   2.483  11.176
  805TMC3    H211988   0.351   2.135  11.377
  805TMC3    C711989   0.558   2.297  11.315
  805TMC3    C811990   0.098   2.134  11.273
  805TMC3    O111991   0.611   2.407  11.328
  805TMC3    O211992   0.115   2.066  11.171
  806TMC3    C111993   2.017   0.458  14.924
  806TMC3    C211994   2.034   0.595  14.919
  806TMC3    C311995   1.922   0.676  14.913
  806TMC3    C411996   1.894   0.401  14.920
  806TMC3    C511997   1.782   0.483  14.913
  806TMC3    C611998   1.796   0.618  14.909
  806TMC3     C11999   2.118   0.374  14.993
  806TMC3     O12000   2.077   0.274  15.055
  806TMC3     H12001   2.132   0.635  14.939
  806TMC3    H112002   1.882   0.293  14.923
  806TMC3    H212003   1.713   0.688  14.902
  806TMC3    C712004   1.650   0.419  14.903
  806TMC3    C812005   1.947   0.814  14.884
  806TMC3    O112006   1.562   0.486  14.956
  806TMC3    O212007   2.068   0.841  14.893
  807TMC3    C112008   0.505   3.506  14.451
  807TMC3    C212009   0.514   3.472  14.581
  807TMC3    C312010   0.551   3.346  14.606
  807TMC3    C412011   0.525   3.419  14.345
  807TMC3    C512012   0.568   3.295  14.374
  807TMC3    C612013   0.581   3.257  14.506
  807TMC3     C12014   0.463   3.643  14.429
  807TMC3     O12015   0.471   3.688  14.314
  807TMC3     H12016   0.508   3.548  14.658
  807TMC3    H112017   0.519   3.453  14.242
  807TMC3    H212018   0.631   3.163  14.525
  807TMC3    C712019   0.656   3.234  14.270
  807TMC3    C812020   0.591   3.317  14.749
  807TMC3    O112021   0.705   3.306  14.181
  807TMC3    O212022   0.537   3.388  14.832
  808TMC3    C112023   4.276   1.357   9.929
  808TMC3    C212024   4.141   1.335   9.954
  808TMC3    C312025   4.095   1.409  10.061
  808TMC3    C412026   4.367   1.424  10.004
  808TMC3    C512027   4.305   1.498  10.106
  808TMC3    C612028   4.171   1.495  10.135
  808TMC3     C12029   4.313   1.302   9.799
  808TMC3     O12030   4.217   1.292   9.720
  808TMC3     H12031   4.073   1.276   9.893
  808TMC3    H112032   4.469   1.446   9.975
  808TMC3    H212033   4.136   1.531  10.231
  808TMC3    C712034   4.393   1.569  10.194
  808TMC3    C812035   3.945   1.414  10.058
  808TMC3    O112036   4.354   1.655  10.274
  808TMC3    O212037   3.901   1.527  10.041
  809TMC3    C112038   0.595   3.233  11.081
  809TMC3    C212039   0.556   3.334  11.162
  809TMC3    C312040   0.652   3.406  11.228
  809TMC3    C412041   0.730   3.204  11.051
  809TMC3    C512042   0.820   3.282  11.114
  809TMC3    C612043   0.784   3.372  11.214
  809TMC3     C12044   0.513   3.114  11.097
  809TMC3     O12045   0.587   3.016  11.102
  809TMC3     H12046   0.453   3.357  11.187
  809TMC3    H112047   0.759   3.118  10.992
  809TMC3    H212048   0.857   3.434  11.266
  809TMC3    C712049   0.943   3.299  11.051
  809TMC3    C812050   0.626   3.531  11.299
  809TMC3    O112051   0.953   3.251  10.941
  809TMC3    O212052   0.712   3.616  11.298
  810TMC3    C112053   2.306   4.151  15.097
  810TMC3    C212054   2.356   4.072  14.991
  810TMC3    C312055   2.270   4.021  14.900
  810TMC3    C412056   2.174   4.169  15.114
  810TMC3    C512057   2.087   4.121  15.018
  810TMC3    C612058   2.133   4.039  14.912
  810TMC3     C12059   2.401   4.241  15.149
  810TMC3     O12060   2.504   4.251  15.087
  810TMC3     H12061   2.461   4.058  14.968
  810TMC3    H112062   2.138   4.217  15.204
  810TMC3    H212063   2.071   4.002  14.831
  810TMC3    C712064   1.942   4.120  15.028
  810TMC3    C812065   2.332   3.975  14.772
  810TMC3    O112066   1.885   4.056  14.944
  810TMC3    O212067   2.447   3.933  14.784
  811TMC3    C112068   1.537   1.908  13.109
  811TMC3    C212069   1.641   1.839  13.160
  811TMC3    C312070   1.638   1.705  13.148
  811TMC3    C412071   1.417   1.847  13.079
  811TMC3    C512072   1.413   1.716  13.092
  811TMC3    C612073   1.522   1.641  13.129
  811TMC3     C12074   1.566   2.038  13.050
  811TMC3     O12075   1.526   2.053  12.933
  811TMC3     H12076   1.737   1.884  13.179
  811TMC3    H112077   1.329   1.908  13.060
  811TMC3    H212078   1.524   1.532  13.123
  811TMC3    C712079   1.284   1.652  13.090
  811TMC3    C812080   1.749   1.626  13.212
  811TMC3    O112081   1.191   1.714  13.039
  811TMC3    O212082   1.713   1.544  13.293
  812TMC3    C112083   3.078   0.857   8.149
  812TMC3    C212084   3.172   0.762   8.114
  812TMC3    C312085   3.136   0.660   8.033
  812TMC3    C412086   2.958   0.874   8.086
  812TMC3    C512087   2.929   0.775   7.998
  812TMC3    C612088   3.011   0.671   7.971
  812TMC3     C12089   3.126   0.975   8.223
  812TMC3     O12090   3.061   1.077   8.211
  812TMC3     H12091   3.276   0.767   8.146
  812TMC3    H112092   2.881   0.939   8.125
  812TMC3    H212093   2.987   0.589   7.904
  812TMC3    C712094   2.797   0.758   7.944
  812TMC3    C812095   3.230   0.556   7.992
  812TMC3    O112096   2.784   0.657   7.872
  812TMC3    O212097   3.189   0.437   7.985
  813TMC3    C112098   2.300   0.142   8.591
  813TMC3    C212099   2.373   0.213   8.498
  813TMC3    C312100   2.301   0.288   8.415
  813TMC3    C412101   2.162   0.156   8.605
  813TMC3    C512102   2.106   0.259   8.535
  813TMC3    C612103   2.168   0.319   8.429
  813TMC3     C12104   2.366   0.018   8.619
  813TMC3     O12105   2.437   4.766   8.531
  813TMC3     H12106   2.473   0.186   8.467
  813TMC3    H112107   2.112   0.091   8.675
  813TMC3    H212108   2.121   0.395   8.366
  813TMC3    C712109   2.028   0.353   8.610
  813TMC3    C812110   2.363   0.335   8.297
  813TMC3    O112111   1.979   0.442   8.545
  813TMC3    O212112   2.487   0.336   8.293
  814TMC3    C112113   1.179   2.089   9.635
  814TMC3    C212114   1.099   1.987   9.588
  814TMC3    C312115   1.003   2.016   9.492
  814TMC3    C412116   1.157   2.215   9.590
  814TMC3    C512117   1.059   2.245   9.496
  814TMC3    C612118   0.980   2.145   9.447
  814TMC3     C12119   1.315   2.062   9.673
  814TMC3     O12120   1.397   2.086   9.583
  814TMC3     H12121   1.119   1.883   9.613
  814TMC3    H112122   1.238   2.286   9.606
  814TMC3    H212123   0.920   2.176   9.363
  814TMC3    C712124   1.121   2.319   9.391
  814TMC3    C812125   1.000   1.924   9.380
  814TMC3    O112126   1.155   2.433   9.418
  814TMC3    O212127   0.995   1.976   9.265
  815TMC3    C112128   0.777   3.240  12.920
  815TMC3    C212129   0.644   3.213  12.929
  815TMC3    C312130   0.593   3.223  13.061
  815TMC3    C412131   0.854   3.287  13.030
  815TMC3    C512132   0.787   3.318  13.149
  815TMC3    C612133   0.660   3.278  13.167
  815TMC3     C12134   0.856   3.223  12.797
  815TMC3     O12135   0.978   3.246  12.790
  815TMC3     H12136   0.604   3.136  12.864
  815TMC3    H112137   0.954   3.323  13.013
  815TMC3    H212138   0.622   3.303  13.265
  815TMC3    C712139   0.863   3.324  13.274
  815TMC3    C812140   0.477   3.144  13.097
  815TMC3    O112141   0.806   3.351  13.380
  815TMC3    O212142   0.408   3.104  13.008
  816TMC3    C112143   0.266   2.517  13.074
  816TMC3    C212144   0.343   2.467  12.968
  816TMC3    C312145   0.353   2.334  12.951
  816TMC3    C412146   0.222   2.433  13.169
  816TMC3    C512147   0.241   2.298  13.150
  816TMC3    C612148   0.295   2.241  13.037
  816TMC3     C12149   0.286   2.659  13.110
  816TMC3     O12150   0.271   2.738  13.016
  816TMC3     H12151   0.368   2.537  12.889
  816TMC3    H112152   0.163   2.465  13.255
  816TMC3    H212153   0.273   2.138  13.010
  816TMC3    C712154   0.195   2.199  13.249
  816TMC3    C812155   0.436   2.283  12.839
  816TMC3    O112156   0.095   2.225  13.316
  816TMC3    O212157   0.444   2.162  12.830
  817TMC3    C112158   1.480   2.616  12.896
  817TMC3    C212159   1.433   2.498  12.955
  817TMC3    C312160   1.356   2.415  12.877
  817TMC3    C412161   1.430   2.661  12.776
  817TMC3    C512162   1.331   2.592  12.712
  817TMC3    C612163   1.309   2.463  12.757
  817TMC3     C12164   1.580   2.706  12.955
  817TMC3     O12165   1.627   2.797  12.886
  817TMC3     H12166   1.483   2.457  13.042
  817TMC3    H112167   1.467   2.753  12.731
  817TMC3    H212168   1.240   2.401  12.701
  817TMC3    C712169   1.299   2.632  12.574
  817TMC3    C812170   1.293   2.309  12.946
  817TMC3    O112171   1.366   2.722  12.523
  817TMC3    O212172   1.273   2.331  13.065
  818TMC3    C112173   1.632   3.694   9.287
  818TMC3    C212174   1.565   3.624   9.391
  818TMC3    C312175   1.433   3.663   9.402
  818TMC3    C412176   1.581   3.768   9.189
  818TMC3    C512177   1.447   3.800   9.214
  818TMC3    C612178   1.371   3.750   9.319
  818TMC3     C12179   1.772   3.708   9.308
  818TMC3     O12180   1.829   3.636   9.391
  818TMC3     H12181   1.622   3.572   9.467
  818TMC3    H112182   1.634   3.796   9.099
  818TMC3    H212183   1.265   3.772   9.315
  818TMC3    C712184   1.379   3.850   9.093
  818TMC3    C812185   1.386   3.652   9.539
  818TMC3    O112186   1.442   3.855   8.988
  818TMC3    O212187   1.315   3.745   9.572
  819TMC3    C112188   0.287   1.261   9.326
  819TMC3    C212189   0.240   1.322   9.441
  819TMC3    C312190   0.333   1.404   9.502
  819TMC3    C412191   0.409   1.278   9.266
  819TMC3    C512192   0.489   1.373   9.321
  819TMC3    C612193   0.455   1.431   9.444
  819TMC3     C12194   0.174   1.248   9.235
  819TMC3     O12195   0.063   1.228   9.282
  819TMC3     H12196   0.142   1.315   9.487
  819TMC3    H112197   0.422   1.223   9.174
  819TMC3    H212198   0.513   1.514   9.485
  819TMC3    C712199   0.501   1.471   9.212
  819TMC3    C812200   0.280   1.528   9.566
  819TMC3    O112201   0.459   1.426   9.108
  819TMC3    O212202   0.313   1.632   9.508
  820TMC3    C112203   2.832   4.248   9.851
  820TMC3    C212204   2.911   4.187   9.761
  820TMC3    C312205   3.048   4.165   9.789
  820TMC3    C412206   2.884   4.298   9.971
  820TMC3    C512207   3.010   4.261  10.001
  820TMC3    C612208   3.100   4.217   9.906
  820TMC3     C12209   2.691   4.266   9.814
  820TMC3     O12210   2.658   4.245   9.697
  820TMC3     H12211   2.862   4.137   9.679
  820TMC3    H112212   2.823   4.333  10.054
  820TMC3    H212213   3.205   4.201   9.929
  820TMC3    C712214   3.062   4.288  10.137
  820TMC3    C812215   3.121   4.053   9.741
  820TMC3    O112216   3.150   4.214  10.172
  820TMC3    O212217   3.067   3.941   9.749
  821TMC3    C112218   4.395   1.304  10.496
  821TMC3    C212219   4.300   1.276  10.406
  821TMC3    C312220   4.323   1.174  10.316
  821TMC3    C412221   4.500   1.218  10.519
  821TMC3    C512222   4.507   1.103  10.444
  821TMC3    C612223   4.422   1.080  10.342
  821TMC3     C12224   4.358   1.377  10.615
  821TMC3     O12225   4.235   1.366  10.636
  821TMC3     H12226   4.216   1.344  10.408
  821TMC3    H112227   4.575   1.229  10.597
  821TMC3    H212228   4.435   0.995  10.277
  821TMC3    C712229   4.644   1.083  10.416
  821TMC3    C812230   4.201   1.134  10.263
  821TMC3    O112231   4.689   1.163  10.333
  821TMC3    O212232   4.103   1.158  10.328
  822TMC3    C112233   1.137   0.545   8.050
  822TMC3    C212234   1.193   0.638   7.963
  822TMC3    C312235   1.219   0.595   7.835
  822TMC3    C412236   1.122   0.414   8.010
  822TMC3    C512237   1.162   0.372   7.884
  822TMC3    C612238   1.203   0.462   7.796
  822TMC3     C12239   1.161   0.575   8.191
  822TMC3     O12240   1.143   0.687   8.231
  822TMC3     H12241   1.226   0.734   8.001
  822TMC3    H112242   1.078   0.338   8.072
  822TMC3    H212243   1.222   0.436   7.693
  822TMC3    C712244   1.202   0.231   7.879
  822TMC3    C812245   1.301   0.673   7.747
  822TMC3    O112246   1.115   0.150   7.898
  822TMC3    O212247   1.368   0.607   7.670
  823TMC3    C112248   0.450   4.651  11.395
  823TMC3    C212249   0.519   4.739  11.473
  823TMC3    C312250   0.550   4.697  11.600
  823TMC3    C412251   0.411   4.526  11.430
  823TMC3    C512252   0.446   4.488  11.556
  823TMC3    C612253   0.516   4.574  11.643
  823TMC3     C12254   0.477   4.658  11.251
  823TMC3     O12255   0.592   4.635  11.221
  823TMC3     H12256   0.568   0.041  11.436
  823TMC3    H112257   0.370   4.453  11.361
  823TMC3    H212258   0.544   4.541  11.743
  823TMC3    C712259   0.474   4.348  11.564
  823TMC3    C812260   0.642   4.780  11.664
  823TMC3    O112261   0.400   4.263  11.520
  823TMC3    O212262   0.640   0.111  11.642
  824TMC3    C112263   4.038   1.024   7.603
  824TMC3    C212264   4.094   0.941   7.494
  824TMC3    C312265   4.063   0.810   7.492
  824TMC3    C412266   3.942   0.967   7.679
  824TMC3    C512267   3.912   0.833   7.664
  824TMC3    C612268   3.974   0.751   7.576
  824TMC3     C12269   4.067   1.165   7.604
  824TMC3     O12270   4.162   1.202   7.532
  824TMC3     H12271   4.151   0.986   7.413
  824TMC3    H112272   3.876   1.034   7.734
  824TMC3    H212273   3.952   0.646   7.560
  824TMC3    C712274   3.814   0.786   7.753
  824TMC3    C812275   4.143   0.723   7.398
  824TMC3    O112276   3.775   0.852   7.846
  824TMC3    O212277   4.265   0.728   7.398
  825TMC3    C112278   1.764   4.587   7.411
  825TMC3    C212279   1.726   4.600   7.281
  825TMC3    C312280   1.605   4.558   7.239
  825TMC3    C412281   1.673   4.539   7.499
  825TMC3    C512282   1.549   4.505   7.459
  825TMC3    C612283   1.508   4.520   7.325
  825TMC3     C12284   1.885   4.511   7.426
  825TMC3     O12285   1.944   4.481   7.325
  825TMC3     H12286   1.802   4.626   7.208
  825TMC3    H112287   1.675   4.548   7.607
  825TMC3    H212288   1.415   4.478   7.288
  825TMC3    C712289   1.495   4.401   7.543
  825TMC3    C812290   1.580   4.575   7.100
  825TMC3    O112291   1.578   4.330   7.592
  825TMC3    O212292   1.635   4.662   7.035
  826TMC3    C112293   1.559   4.475   8.027
  826TMC3    C212294   1.667   4.461   8.107
  826TMC3    C312295   1.662   4.372   8.204
  826TMC3    C412296   1.457   4.376   8.025
  826TMC3    C512297   1.455   4.303   8.131
  826TMC3    C612298   1.557   4.285   8.221
  826TMC3     C12299   1.566   4.570   7.918
  826TMC3     O12300   1.682   4.589   7.873
  826TMC3     H12301   1.739   4.541   8.116
  826TMC3    H112302   1.382   4.371   7.948
  826TMC3    H212303   1.550   4.217   8.305
  826TMC3    C712304   1.330   4.232   8.166
  826TMC3    C812305   1.778   4.345   8.292
  826TMC3    O112306   1.227   4.303   8.143
  826TMC3    O212307   1.755   4.303   8.408
  827TMC3    C112308   4.134   4.109   7.728
  827TMC3    C212309   4.190   4.039   7.836
  827TMC3    C312310   4.144   4.073   7.958
  827TMC3    C412311   4.041   4.204   7.750
  827TMC3    C512312   4.000   4.234   7.878
  827TMC3    C612313   4.048   4.168   7.983
  827TMC3     C12314   4.220   4.146   7.613
  827TMC3     O12315   4.172   4.214   7.522
  827TMC3     H12316   4.264   3.961   7.820
  827TMC3    H112317   4.014   4.272   7.670
  827TMC3    H212318   3.989   4.180   8.073
  827TMC3    C712319   3.995   4.379   7.894
  827TMC3    C812320   4.189   3.978   8.060
  827TMC3    O112321   3.905   4.437   7.832
  827TMC3    O212322   4.234   3.868   8.027
  828TMC3    C112323   0.499   0.434  12.861
  828TMC3    C212324   0.527   0.471  12.732
  828TMC3    C312325   0.447   0.462  12.626
  828TMC3    C412326   0.367   0.406  12.890
  828TMC3    C512327   0.283   0.385  12.786
  828TMC3    C612328   0.321   0.417  12.652
  828TMC3     C12329   0.598   0.352  12.926
  828TMC3     O12330   0.574   0.309  13.036
  828TMC3     H12331   0.627   0.508  12.714
  828TMC3    H112332   0.354   0.350  12.982
  828TMC3    H212333   0.256   0.384  12.572
  828TMC3    C712334   0.267   0.246  12.791
  828TMC3    C812335   0.525   0.412  12.513
  828TMC3    O112336   0.220   0.193  12.892
  828TMC3    O212337   0.599   0.322  12.540
  829TMC3    C112338   3.005   1.946  12.064
  829TMC3    C212339   2.904   1.970  11.972
  829TMC3    C312340   2.862   1.865  11.890
  829TMC3    C412341   3.072   1.825  12.047
  829TMC3    C512342   3.043   1.728  11.953
  829TMC3    C612343   2.930   1.750  11.874
  829TMC3     C12344   3.096   2.057  12.048
  829TMC3     O12345   3.117   2.125  12.142
  829TMC3     H12346   2.851   2.065  11.968
  829TMC3    H112347   3.152   1.818  12.121
  829TMC3    H212348   2.906   1.692  11.785
  829TMC3    C712349   3.105   1.597  11.981
  829TMC3    C812350   2.783   1.914  11.786
  829TMC3    O112351   3.196   1.584  12.066
  829TMC3    O212352   2.807   2.031  11.748
  830TMC3    C112353   4.434   3.068   6.120
  830TMC3    C212354   4.432   2.987   6.235
  830TMC3    C312355   4.340   2.886   6.230
  830TMC3    C412356   4.355   3.060   6.014
  830TMC3    C512357   4.263   2.963   6.023
  830TMC3    C612358   4.254   2.874   6.124
  830TMC3     C12359   4.509   3.188   6.129
  830TMC3     O12360   4.463   3.288   6.075
  830TMC3     H12361   4.499   2.999   6.320
  830TMC3    H112362   4.368   3.121   5.925
  830TMC3    H212363   4.160   2.820   6.128
  830TMC3    C712364   4.179   2.929   5.907
  830TMC3    C812365   4.328   2.805   6.347
  830TMC3    O112366   4.155   3.019   5.828
  830TMC3    O212367   4.365   2.852   6.454
  831TMC3    C112368   0.437   4.030  10.723
  831TMC3    C212369   0.488   4.139  10.663
  831TMC3    C312370   0.616   4.123  10.618
  831TMC3    C412371   0.512   3.926  10.754
  831TMC3    C512372   0.651   3.930  10.729
  831TMC3    C612373   0.696   4.014  10.635
  831TMC3     C12374   0.317   4.054  10.798
  831TMC3     O12375   0.247   3.957  10.820
  831TMC3     H12376   0.427   4.226  10.646
  831TMC3    H112377   0.477   3.847  10.820
  831TMC3    H212378   0.797   4.017  10.596
  831TMC3    C712379   0.732   3.948  10.850
  831TMC3    C812380   0.678   4.226  10.531
  831TMC3    O112381   0.831   4.021  10.841
  831TMC3    O212382   0.760   4.190  10.449
  832TMC3    C112383   2.525   1.035  12.160
  832TMC3    C212384   2.611   1.014  12.257
  832TMC3    C312385   2.701   1.108  12.294
  832TMC3    C412386   2.520   1.153  12.103
  832TMC3    C512387   2.612   1.248  12.134
  832TMC3    C612388   2.712   1.225  12.227
  832TMC3     C12389   2.462   0.929  12.086
  832TMC3     O12390   2.359   0.960  12.029
  832TMC3     H12391   2.594   0.926  12.318
  832TMC3    H112392   2.451   1.167  12.020
  832TMC3    H212393   2.787   1.301  12.247
  832TMC3    C712394   2.640   1.304  12.002
  832TMC3    C812395   2.800   1.059  12.398
  832TMC3    O112396   2.634   1.231  11.903
  832TMC3    O212397   2.792   0.939  12.418
  833TMC3    C112398   2.315   3.979  12.040
  833TMC3    C212399   2.220   4.052  11.974
  833TMC3    C312400   2.252   4.175  11.913
  833TMC3    C412401   2.440   4.023  12.036
  833TMC3    C512402   2.469   4.136  11.972
  833TMC3    C612403   2.381   4.211  11.906
  833TMC3     C12404   2.271   3.894  12.152
  833TMC3     O12405   2.334   3.790  12.174
  833TMC3     H12406   2.117   4.036  12.004
  833TMC3    H112407   2.522   3.979  12.091
  833TMC3    H212408   2.408   4.308  11.867
  833TMC3    C712409   2.606   4.166  11.929
  833TMC3    C812410   2.171   4.282  11.974
  833TMC3    O112411   2.650   4.105  11.832
  833TMC3    O212412   2.147   4.269  12.097
  834TMC3    C112413   4.020   1.049  14.179
  834TMC3    C212414   4.097   1.162  14.169
  834TMC3    C312415   4.235   1.141  14.134
  834TMC3    C412416   4.074   0.922  14.168
  834TMC3    C512417   4.209   0.902  14.149
  834TMC3    C612418   4.285   1.012  14.123
  834TMC3     C12419   3.874   1.057  14.177
  834TMC3     O12420   3.819   0.956  14.223
  834TMC3     H12421   4.063   1.262  14.194
  834TMC3    H112422   4.004   0.840  14.182
  834TMC3    H212423   4.389   1.002  14.093
  834TMC3    C712424   4.268   0.772  14.177
  834TMC3    C812425   4.297   1.248  14.066
  834TMC3    O112426   4.373   0.740  14.124
  834TMC3    O212427   4.236   1.353  14.061
  835TMC3    C112428   0.777   1.334  13.518
  835TMC3    C212429   0.661   1.380  13.472
  835TMC3    C312430   0.650   1.514  13.435
  835TMC3    C412431   0.885   1.413  13.529
  835TMC3    C512432   0.875   1.541  13.483
  835TMC3    C612433   0.761   1.599  13.429
  835TMC3     C12434   0.779   1.228  13.618
  835TMC3     O12435   0.867   1.229  13.704
  835TMC3     H12436   0.572   1.319  13.479
  835TMC3    H112437   0.966   1.359  13.578
  835TMC3    H212438   0.750   1.707  13.425
  835TMC3    C712439   0.995   1.623  13.469
  835TMC3    C812440   0.518   1.568  13.455
  835TMC3    O112441   0.980   1.724  13.402
  835TMC3    O212442   0.431   1.511  13.518
  836TMC3    C112443   4.294   2.624   7.204
  836TMC3    C212444   4.238   2.509   7.254
  836TMC3    C312445   4.178   2.426   7.165
  836TMC3    C412446   4.291   2.657   7.069
  836TMC3    C512447   4.242   2.563   6.982
  836TMC3    C612448   4.178   2.451   7.030
  836TMC3     C12449   4.358   2.717   7.301
  836TMC3     O12450   4.330   2.706   7.417
  836TMC3     H12451   4.239   2.491   7.361
  836TMC3    H112452   4.343   2.745   7.031
  836TMC3    H212453   4.115   2.382   6.975
  836TMC3    C712454   4.250   2.588   6.842
  836TMC3    C812455   4.133   2.295   7.216
  836TMC3    O112456   4.308   2.694   6.814
  836TMC3    O212457   4.118   2.297   7.335
  837TMC3    C112458   3.699   4.111   8.954
  837TMC3    C212459   3.824   4.060   8.928
  837TMC3    C312460   3.874   4.111   8.809
  837TMC3    C412461   3.640   4.222   8.898
  837TMC3    C512462   3.705   4.274   8.791
  837TMC3    C612463   3.812   4.211   8.734
  837TMC3     C12464   3.631   4.054   9.072
  837TMC3     O12465   3.702   4.000   9.155
  837TMC3     H12466   3.874   3.986   8.988
  837TMC3    H112467   3.552   4.267   8.944
  837TMC3    H212468   3.832   4.233   8.629
  837TMC3    C712469   3.632   4.358   8.698
  837TMC3    C812470   3.955   4.010   8.742
  837TMC3    O112471   3.695   4.441   8.634
  837TMC3    O212472   3.958   3.901   8.799
  838TMC3    C112473   1.039   4.015  14.797
  838TMC3    C212474   1.120   4.119  14.836
  838TMC3    C312475   1.223   4.085  14.918
  838TMC3    C412476   1.050   3.886  14.843
  838TMC3    C512477   1.144   3.868  14.943
  838TMC3    C612478   1.228   3.961  14.988
  838TMC3     C12479   0.964   4.047  14.675
  838TMC3     O12480   0.950   4.165  14.649
  838TMC3     H12481   1.114   4.218  14.793
  838TMC3    H112482   0.967   3.819  14.822
  838TMC3    H212483   1.300   3.941  15.067
  838TMC3    C712484   1.155   3.740  14.996
  838TMC3    C812485   1.298   4.198  14.964
  838TMC3    O112486   1.195   3.736  15.118
  838TMC3    O212487   1.264   4.311  14.934
  839TMC3    C112488   1.995   3.278   9.323
  839TMC3    C212489   2.094   3.200   9.256
  839TMC3    C312490   2.088   3.064   9.257
  839TMC3    C412491   1.935   3.219   9.426
  839TMC3    C512492   1.948   3.085   9.440
  839TMC3    C612493   2.020   3.002   9.363
  839TMC3     C12494   1.917   3.368   9.241
  839TMC3     O12495   1.970   3.423   9.147
  839TMC3     H12496   2.162   3.241   9.182
  839TMC3    H112497   1.870   3.279   9.488
  839TMC3    H212498   2.023   2.895   9.377
  839TMC3    C712499   1.830   3.030   9.497
  839TMC3    C812500   2.014   3.013   9.146
  839TMC3    O112501   1.769   3.098   9.580
  839TMC3    O212502   1.922   2.935   9.175
  840TMC3    C112503   3.900   2.568  11.604
  840TMC3    C212504   3.940   2.573  11.739
  840TMC3    C312505   3.892   2.482  11.823
  840TMC3    C412506   3.845   2.451  11.560
  840TMC3    C512507   3.774   2.380  11.657
  840TMC3    C612508   3.797   2.392  11.792
  840TMC3     C12509   3.796   2.662  11.575
  840TMC3     O12510   3.730   2.703  11.672
  840TMC3     H12511   4.011   2.652  11.759
  840TMC3    H112512   3.826   2.452  11.454
  840TMC3    H212513   3.769   2.306  11.852
  840TMC3    C712514   3.633   2.361  11.628
  840TMC3    C812515   3.951   2.477  11.956
  840TMC3    O112516   3.598   2.315  11.517
  840TMC3    O212517   3.891   2.457  12.058
  841TMC3    C112518   3.605   0.217  13.085
  841TMC3    C212519   3.600   0.314  13.179
  841TMC3    C312520   3.524   0.425  13.151
  841TMC3    C412521   3.558   0.228  12.957
  841TMC3    C512522   3.502   0.347  12.928
  841TMC3    C612523   3.472   0.444  13.027
  841TMC3     C12524   3.667   0.089  13.124
  841TMC3     O12525   3.679   0.071  13.243
  841TMC3     H12526   3.659   0.302  13.269
  841TMC3    H112527   3.568   0.150  12.883
  841TMC3    H212528   3.411   0.531  13.005
  841TMC3    C712529   3.546   0.402  12.801
  841TMC3    C812530   3.596   0.549  13.208
  841TMC3    O112531   3.585   0.329  12.714
  841TMC3    O212532   3.663   0.605  13.123
  842TMC3    C112533   2.786   3.107  13.661
  842TMC3    C212534   2.652   3.065  13.651
  842TMC3    C312535   2.607   3.062  13.525
  842TMC3    C412536   2.859   3.157  13.551
  842TMC3    C512537   2.800   3.159  13.425
  842TMC3    C612538   2.671   3.113  13.416
  842TMC3     C12539   2.828   3.159  13.790
  842TMC3     O12540   2.898   3.260  13.788
  842TMC3     H12541   2.587   3.041  13.735
  842TMC3    H112542   2.963   3.186  13.550
  842TMC3    H212543   2.630   3.116  13.316
  842TMC3    C712544   2.890   3.096  13.331
  842TMC3    C812545   2.495   2.980  13.494
  842TMC3    O112546   2.845   2.997  13.270
  842TMC3    O212547   2.470   2.891  13.574
  843TMC3    C112548   0.238   1.806  12.296
  843TMC3    C212549   0.236   1.941  12.277
  843TMC3    C312550   0.278   2.024  12.379
  843TMC3    C412551   0.296   1.747  12.407
  843TMC3    C512552   0.330   1.837  12.509
  843TMC3    C612553   0.313   1.971  12.503
  843TMC3     C12554   0.139   1.732  12.219
  843TMC3     O12555   0.174   1.623  12.180
  843TMC3     H12556   0.198   1.984  12.185
  843TMC3    H112557   0.294   1.640  12.421
  843TMC3    H212558   0.360   2.026  12.583
  843TMC3    C712559   0.360   1.778  12.635
  843TMC3    C812560   0.244   2.167  12.369
  843TMC3    O112561   0.412   1.667  12.635
  843TMC3    O212562   0.205   2.213  12.264
  844TMC3    C112563   2.798   0.409   6.998
  844TMC3    C212564   2.739   0.292   6.982
  844TMC3    C312565   2.796   0.180   7.042
  844TMC3    C412566   2.903   0.421   7.078
  844TMC3    C512567   2.959   0.306   7.136
  844TMC3    C612568   2.901   0.182   7.125
  844TMC3     C12569   2.722   0.529   6.984
  844TMC3     O12570   2.653   0.549   6.885
  844TMC3     H12571   2.646   0.288   6.925
  844TMC3    H112572   2.955   0.516   7.080
  844TMC3    H212573   2.947   0.100   7.178
  844TMC3    C712574   3.049   0.321   7.247
  844TMC3    C812575   2.754   0.062   6.981
  844TMC3    O112576   3.150   0.247   7.263
  844TMC3    O212577   2.631   0.044   6.975
  845TMC3    C112578   1.565   1.762  14.452
  845TMC3    C212579   1.660   1.820  14.526
  845TMC3    C312580   1.784   1.767  14.532
  845TMC3    C412581   1.592   1.649  14.391
  845TMC3    C512582   1.715   1.591  14.398
  845TMC3    C612583   1.814   1.658  14.464
  845TMC3     C12584   1.427   1.770  14.494
  845TMC3     O12585   1.336   1.744  14.416
  845TMC3     H12586   1.643   1.895  14.603
  845TMC3    H112587   1.508   1.585  14.366
  845TMC3    H212588   1.909   1.605  14.473
  845TMC3    C712589   1.711   1.444  14.404
  845TMC3    C812590   1.852   1.776  14.661
  845TMC3    O112591   1.612   1.387  14.448
  845TMC3    O212592   1.781   1.788  14.762
  846TMC3    C112593   1.950   0.462  12.252
  846TMC3    C212594   2.036   0.502  12.155
  846TMC3    C312595   2.070   0.640  12.156
  846TMC3    C412596   1.905   0.553  12.348
  846TMC3    C512597   1.908   0.685  12.327
  846TMC3    C612598   1.994   0.729  12.227
  846TMC3     C12599   1.880   0.346  12.218
  846TMC3     O12600   1.916   0.271  12.128
  846TMC3     H12601   2.086   0.437  12.084
  846TMC3    H112602   1.844   0.513  12.428
  846TMC3    H212603   2.029   0.831  12.227
  846TMC3    C712604   1.780   0.759  12.336
  846TMC3    C812605   2.176   0.683  12.067
  846TMC3    O112606   1.682   0.694  12.369
  846TMC3    O212607   2.283   0.627  12.102
  847TMC3    C112608   2.623   3.199   8.384
  847TMC3    C212609   2.542   3.311   8.388
  847TMC3    C312610   2.584   3.429   8.331
  847TMC3    C412611   2.754   3.219   8.336
  847TMC3    C512612   2.787   3.334   8.268
  847TMC3    C612613   2.697   3.437   8.265
  847TMC3     C12614   2.595   3.095   8.482
  847TMC3     O12615   2.511   3.106   8.569
  847TMC3     H12616   2.448   3.312   8.441
  847TMC3    H112617   2.824   3.139   8.358
  847TMC3    H212618   2.723   3.536   8.228
  847TMC3    C712619   2.923   3.371   8.264
  847TMC3    C812620   2.553   3.548   8.409
  847TMC3    O112621   2.954   3.462   8.184
  847TMC3    O212622   2.432   3.582   8.419
  848TMC3    C112623   1.021   1.771  10.666
  848TMC3    C212624   1.030   1.887  10.590
  848TMC3    C312625   0.976   2.002  10.645
  848TMC3    C412626   0.976   1.768  10.796
  848TMC3    C512627   0.917   1.878  10.841
  848TMC3    C612628   0.903   1.988  10.765
  848TMC3     C12629   1.001   1.650  10.597
  848TMC3     O12630   1.094   1.602  10.529
  848TMC3     H12631   1.059   1.886  10.485
  848TMC3    H112632   0.988   1.684  10.863
  848TMC3    H212633   0.883   2.086  10.806
  848TMC3    C712634   0.902   1.890  10.984
  848TMC3    C812635   0.973   2.130  10.578
  848TMC3    O112636   0.851   1.797  11.048
  848TMC3    O212637   0.858   2.151  10.544
  849TMC3    C112638   4.512   0.011  13.214
  849TMC3    C212639   4.459   4.779  13.337
  849TMC3    C312640   4.353   0.069  13.360
  849TMC3    C412641   4.474   0.106  13.119
  849TMC3    C512642   4.390   0.202  13.167
  849TMC3    C612643   4.318   0.178  13.285
  849TMC3     C12644   4.590   4.682  13.167
  849TMC3     O12645   4.607   4.592  13.246
  849TMC3     H12646   4.484   4.691  13.395
  849TMC3    H112647   4.528   0.136  13.030
  849TMC3    H212648   4.238   0.237  13.327
  849TMC3    C712649   4.346   0.300  13.080
  849TMC3    C812650   4.266   0.024  13.460
  849TMC3    O112651   4.383   0.296  12.966
  849TMC3    O212652   4.153   0.061  13.458
  850TMC3    C112653   2.804   1.039  11.373
  850TMC3    C212654   2.761   1.170  11.355
  850TMC3    C312655   2.633   1.188  11.302
  850TMC3    C412656   2.723   0.936  11.360
  850TMC3    C512657   2.597   0.955  11.308
  850TMC3    C612658   2.560   1.080  11.267
  850TMC3     C12659   2.947   1.022  11.354
  850TMC3     O12660   2.989   0.915  11.386
  850TMC3     H12661   2.825   1.254  11.381
  850TMC3    H112662   2.764   0.837  11.375
  850TMC3    H212663   2.461   1.094  11.225
  850TMC3    C712664   2.526   0.843  11.256
  850TMC3    C812665   2.592   1.311  11.255
  850TMC3    O112666   2.511   0.823  11.138
  850TMC3    O212667   2.510   1.305  11.166
  851TMC3    C112668   2.358   3.647  12.597
  851TMC3    C212669   2.293   3.547  12.665
  851TMC3    C312670   2.202   3.583  12.757
  851TMC3    C412671   2.327   3.779  12.627
  851TMC3    C512672   2.233   3.804  12.716
  851TMC3    C612673   2.168   3.712  12.788
  851TMC3     C12674   2.434   3.603  12.484
  851TMC3     O12675   2.414   3.495  12.432
  851TMC3     H12676   2.308   3.444  12.635
  851TMC3    H112677   2.369   3.864  12.575
  851TMC3    H212678   2.100   3.733  12.870
  851TMC3    C712679   2.197   3.944  12.725
  851TMC3    C812680   2.116   3.481  12.810
  851TMC3    O112681   2.275   4.034  12.682
  851TMC3    O212682   2.168   3.370  12.814
  852TMC3    C112683   4.234   1.583  13.424
  852TMC3    C212684   4.150   1.664  13.494
  852TMC3    C312685   4.055   1.734  13.428
  852TMC3    C412686   4.226   1.572  13.288
  852TMC3    C512687   4.131   1.648  13.223
  852TMC3    C612688   4.048   1.725  13.297
  852TMC3     C12689   4.360   1.544  13.489
  852TMC3     O12690   4.452   1.522  13.410
  852TMC3     H12691   4.164   1.685  13.599
  852TMC3    H112692   4.307   1.529  13.230
  852TMC3    H212693   3.961   1.767  13.247
  852TMC3    C712694   4.143   1.657  13.085
  852TMC3    C812695   3.995   1.852  13.495
  852TMC3    O112696   4.208   1.573  13.026
  852TMC3    O212697   3.918   1.826  13.583
  853TMC3    C112698   3.373   2.256   7.975
  853TMC3    C212699   3.422   2.255   8.098
  853TMC3    C312700   3.491   2.364   8.141
  853TMC3    C412701   3.376   2.376   7.905
  853TMC3    C512702   3.435   2.487   7.951
  853TMC3    C612703   3.501   2.480   8.071
  853TMC3     C12704   3.322   2.131   7.926
  853TMC3     O12705   3.271   2.054   8.010
  853TMC3     H12706   3.429   2.162   8.153
  853TMC3    H112707   3.348   2.369   7.801
  853TMC3    H212708   3.572   2.561   8.089
  853TMC3    C712709   3.490   2.583   7.855
  853TMC3    C812710   3.493   2.376   8.287
  853TMC3    O112711   3.607   2.619   7.866
  853TMC3    O212712   3.467   2.272   8.351
  854TMC3    C112713   3.349   0.785  12.363
  854TMC3    C212714   3.413   0.818  12.473
  854TMC3    C312715   3.405   0.946  12.526
  854TMC3    C412716   3.284   0.888  12.296
  854TMC3    C512717   3.277   1.019  12.349
  854TMC3    C612718   3.336   1.050  12.467
  854TMC3     C12719   3.399   0.671  12.290
  854TMC3     O12720   3.430   0.692  12.175
  854TMC3     H12721   3.477   0.745  12.521
  854TMC3    H112722   3.249   0.863  12.197
  854TMC3    H212723   3.340   1.152  12.503
  854TMC3    C712724   3.222   1.132  12.276
  854TMC3    C812725   3.433   0.947  12.670
  854TMC3    O112726   3.207   1.245  12.323
  854TMC3    O212727   3.390   0.855  12.736
  855TMC3    C112728   4.025   3.807  13.844
  855TMC3    C212729   4.018   3.799  13.976
  855TMC3    C312730   4.131   3.754  14.043
  855TMC3    C412731   4.141   3.791  13.771
  855TMC3    C512732   4.255   3.768  13.843
  855TMC3    C612733   4.248   3.754  13.979
  855TMC3     C12734   3.898   3.826  13.772
  855TMC3     O12735   3.792   3.784  13.825
  855TMC3     H12736   3.927   3.824  14.029
  855TMC3    H112737   4.146   3.798  13.663
  855TMC3    H212738   4.344   3.740  14.027
  855TMC3    C712739   4.382   3.738  13.783
  855TMC3    C812740   4.139   3.778  14.186
  855TMC3    O112741   4.485   3.752  13.846
  855TMC3    O212742   4.246   3.794  14.235
  856TMC3    C112743   3.052   2.623   8.553
  856TMC3    C212744   3.060   2.687   8.674
  856TMC3    C312745   3.085   2.824   8.673
  856TMC3    C412746   3.067   2.685   8.435
  856TMC3    C512747   3.068   2.818   8.443
  856TMC3    C612748   3.088   2.888   8.555
  856TMC3     C12749   3.031   2.478   8.557
  856TMC3     O12750   3.072   2.405   8.472
  856TMC3     H12751   3.086   2.630   8.762
  856TMC3    H112752   3.056   2.621   8.348
  856TMC3    H212753   3.069   2.995   8.558
  856TMC3    C712754   3.090   2.892   8.323
  856TMC3    C812755   3.041   2.902   8.788
  856TMC3    O112756   3.049   2.852   8.219
  856TMC3    O212757   3.010   3.021   8.774
  857TMC3    C112758   0.787   1.192   6.757
  857TMC3    C212759   0.783   1.114   6.647
  857TMC3    C312760   0.891   1.038   6.622
  857TMC3    C412761   0.907   1.214   6.820
  857TMC3    C512762   1.019   1.146   6.779
  857TMC3    C612763   1.012   1.049   6.682
  857TMC3     C12764   0.695   1.306   6.753
  857TMC3     O12765   0.666   1.351   6.863
  857TMC3     H12766   0.689   1.087   6.600
  857TMC3    H112767   0.919   1.300   6.884
  857TMC3    H212768   1.092   0.978   6.669
  857TMC3    C712769   1.142   1.182   6.842
  857TMC3    C812770   0.877   0.943   6.514
  857TMC3    O112771   1.143   1.281   6.913
  857TMC3    O212772   0.907   0.829   6.542
  858TMC3    C112773   3.224   2.913   9.485
  858TMC3    C212774   3.278   2.821   9.575
  858TMC3    C312775   3.363   2.726   9.525
  858TMC3    C412776   3.248   2.908   9.342
  858TMC3    C512777   3.349   2.827   9.303
  858TMC3    C612778   3.410   2.737   9.395
  858TMC3     C12779   3.099   2.966   9.537
  858TMC3     O12780   3.056   2.918   9.641
  858TMC3     H12781   3.245   2.810   9.677
  858TMC3    H112782   3.183   2.972   9.284
  858TMC3    H212783   3.494   2.677   9.361
  858TMC3    C712784   3.429   2.857   9.182
  858TMC3    C812785   3.369   2.599   9.589
  858TMC3    O112786   3.553   2.835   9.181
  858TMC3    O212787   3.456   2.520   9.560
  859TMC3    C112788   2.882   2.806   7.191
  859TMC3    C212789   3.000   2.817   7.253
  859TMC3    C312790   3.090   2.910   7.206
  859TMC3    C412791   2.837   2.909   7.108
  859TMC3    C512792   2.923   3.008   7.073
  859TMC3    C612793   3.052   3.009   7.115
  859TMC3     C12794   2.796   2.704   7.241
  859TMC3     O12795   2.677   2.722   7.226
  859TMC3     H12796   3.030   2.729   7.309
  859TMC3    H112797   2.739   2.891   7.065
  859TMC3    H212798   3.124   3.081   7.079
  859TMC3    C712799   2.892   3.099   6.963
  859TMC3    C812800   3.227   2.904   7.253
  859TMC3    O112801   2.987   3.125   6.894
  859TMC3    O212802   3.316   2.970   7.198
  860TMC3    C112803   1.366   4.295  12.190
  860TMC3    C212804   1.317   4.195  12.111
  860TMC3    C312805   1.245   4.218  11.995
  860TMC3    C412806   1.364   4.420  12.138
  860TMC3    C512807   1.289   4.447  12.028
  860TMC3    C612808   1.228   4.348  11.956
  860TMC3     C12809   1.301   4.294  12.322
  860TMC3     O12810   1.254   4.398  12.358
  860TMC3     H12811   1.305   4.097  12.156
  860TMC3    H112812   1.396   4.499  12.205
  860TMC3    H212813   1.173   4.357  11.863
  860TMC3    C712814   1.240   4.580  12.020
  860TMC3    C812815   1.117   4.148  11.999
  860TMC3    O112816   1.299   4.674  12.076
  860TMC3    O212817   1.026   4.222  11.992
  861TMC3    C112818   0.601   1.123  12.469
  861TMC3    C212819   0.662   1.124  12.591
  861TMC3    C312820   0.594   1.198  12.684
  861TMC3    C412821   0.490   1.195  12.429
  861TMC3    C512822   0.421   1.254  12.530
  861TMC3    C612823   0.472   1.255  12.660
  861TMC3     C12824   0.641   1.008  12.392
  861TMC3     O12825   0.737   0.943  12.431
  861TMC3     H12826   0.744   1.060  12.619
  861TMC3    H112827   0.452   1.179  12.329
  861TMC3    H212828   0.418   1.302  12.741
  861TMC3    C712829   0.297   1.311  12.497
  861TMC3    C812830   0.647   1.184  12.822
  861TMC3    O112831   0.252   1.282  12.387
  861TMC3    O212832   0.579   1.194  12.922
  862TMC3    C112833   3.776   3.935  10.290
  862TMC3    C212834   3.802   3.816  10.222
  862TMC3    C312835   3.923   3.758  10.231
  862TMC3    C412836   3.870   3.988  10.375
  862TMC3    C512837   3.989   3.923  10.382
  862TMC3    C612838   4.018   3.803  10.311
  862TMC3     C12839   3.638   3.980  10.303
  862TMC3     O12840   3.608   4.035  10.402
  862TMC3     H12841   3.726   3.760  10.169
  862TMC3    H112842   3.857   4.083  10.425
  862TMC3    H212843   4.119   3.764  10.326
  862TMC3    C712844   4.111   3.987  10.425
  862TMC3    C812845   3.925   3.619  10.181
  862TMC3    O112846   4.201   3.921  10.472
  862TMC3    O212847   3.826   3.569  10.134
  863TMC3    C112848   0.171   1.057  10.137
  863TMC3    C212849   0.091   1.081  10.029
  863TMC3    C312850   0.049   1.215  10.012
  863TMC3    C412851   0.222   1.156  10.217
  863TMC3    C512852   0.193   1.287  10.183
  863TMC3    C612853   0.109   1.318  10.080
  863TMC3     C12854   0.166   0.933  10.202
  863TMC3     O12855   0.268   0.899  10.265
  863TMC3     H12856   0.065   1.000   9.963
  863TMC3    H112857   0.284   1.129  10.302
  863TMC3    H212858   0.090   1.422  10.057
  863TMC3    C712859   0.268   1.386  10.265
  863TMC3    C812860   4.686   1.218  10.001
  863TMC3    O112861   0.369   1.344  10.306
  863TMC3    O212862   4.624   1.302  10.064
  864TMC3    C112863   0.466   0.462   7.487
  864TMC3    C212864   0.343   0.435   7.536
  864TMC3    C312865   0.333   0.319   7.611
  864TMC3    C412866   0.562   0.365   7.483
  864TMC3    C512867   0.542   0.243   7.542
  864TMC3    C612868   0.422   0.214   7.601
  864TMC3     C12869   0.526   0.590   7.501
  864TMC3     O12870   0.643   0.597   7.530
  864TMC3     H12871   0.269   0.515   7.535
  864TMC3    H112872   0.659   0.392   7.443
  864TMC3    H212873   0.402   0.111   7.629
  864TMC3    C712874   0.605   0.129   7.469
  864TMC3    C812875   0.209   0.287   7.681
  864TMC3    O112876   0.593   0.015   7.515
  864TMC3    O212877   0.174   0.168   7.675
  865TMC3    C112878   4.019   1.113  12.082
  865TMC3    C212879   4.136   1.065  12.135
  865TMC3    C312880   4.179   1.085  12.267
  865TMC3    C412881   3.944   1.189  12.163
  865TMC3    C512882   3.988   1.216  12.285
  865TMC3    C612883   4.098   1.159  12.345
  865TMC3     C12884   3.938   1.011  12.029
  865TMC3     O12885   3.971   0.894  12.037
  865TMC3     H12886   4.180   0.990  12.071
  865TMC3    H112887   3.844   1.216  12.131
  865TMC3    H212888   4.125   1.186  12.447
  865TMC3    C712889   3.914   1.294  12.372
  865TMC3    C812890   4.301   1.025  12.320
  865TMC3    O112891   3.971   1.379  12.436
  865TMC3    O212892   4.394   1.003  12.243
  866TMC3    C112893   3.824   2.779  14.227
  866TMC3    C212894   3.865   2.841  14.342
  866TMC3    C312895   3.835   2.974  14.360
  866TMC3    C412896   3.753   2.850  14.128
  866TMC3    C512897   3.721   2.981  14.153
  866TMC3    C612898   3.763   3.050  14.270
  866TMC3     C12899   3.862   2.648  14.195
  866TMC3     O12900   3.787   2.587  14.125
  866TMC3     H12901   3.916   2.785  14.419
  866TMC3    H112902   3.712   2.799  14.042
  866TMC3    H212903   3.741   3.156  14.279
  866TMC3    C712904   3.711   3.067  14.042
  866TMC3    C812905   3.870   3.033  14.492
  866TMC3    O112906   3.803   3.149  14.027
  866TMC3    O212907   3.954   2.974  14.561
  867TMC3    C112908   2.961   2.911  11.167
  867TMC3    C212909   3.033   2.797  11.188
  867TMC3    C312910   3.157   2.808  11.253
  867TMC3    C412911   3.019   3.037  11.191
  867TMC3    C512912   3.134   3.040  11.262
  867TMC3    C612913   3.202   2.927  11.292
  867TMC3     C12914   2.852   2.909  11.071
  867TMC3     O12915   2.835   3.018  11.016
  867TMC3     H12916   3.000   2.700  11.153
  867TMC3    H112917   2.971   3.131  11.164
  867TMC3    H212918   3.294   2.939  11.349
  867TMC3    C712919   3.212   3.163  11.270
  867TMC3    C812920   3.178   2.710  11.354
  867TMC3    O112921   3.300   3.166  11.354
  867TMC3    O212922   3.081   2.673  11.410
  868TMC3    C112923   1.425   0.983  12.781
  868TMC3    C212924   1.495   1.078  12.710
  868TMC3    C312925   1.627   1.087  12.729
  868TMC3    C412926   1.482   0.903  12.874
  868TMC3    C512927   1.616   0.919  12.889
  868TMC3    C612928   1.693   1.007  12.815
  868TMC3     C12929   1.276   1.005  12.782
  868TMC3     O12930   1.234   1.078  12.692
  868TMC3     H12931   1.434   1.144  12.650
  868TMC3    H112932   1.435   0.820  12.925
  868TMC3    H212933   1.802   1.005  12.815
  868TMC3    C712934   1.672   0.869  13.013
  868TMC3    C812935   1.701   1.208  12.701
  868TMC3    O112936   1.625   0.762  13.050
  868TMC3    O212937   1.816   1.208  12.731
  869TMC3    C112938   4.403   1.590  11.614
  869TMC3    C212939   4.285   1.599  11.549
  869TMC3    C312940   4.217   1.718  11.565
  869TMC3    C412941   4.464   1.695  11.674
  869TMC3    C512942   4.406   1.815  11.662
  869TMC3    C612943   4.277   1.828  11.622
  869TMC3     C12944   4.484   1.470  11.609
  869TMC3     O12945   4.596   1.475  11.653
  869TMC3     H12946   4.236   1.524  11.488
  869TMC3    H112947   4.564   1.693  11.716
  869TMC3    H212948   4.221   1.917  11.646
  869TMC3    C712949   4.461   1.918  11.745
  869TMC3    C812950   4.071   1.714  11.529
  869TMC3    O112951   4.389   1.975  11.826
  869TMC3    O212952   4.030   1.621  11.461
  870TMC3    C112953   4.223   4.180  13.100
  870TMC3    C212954   4.327   4.106  13.042
  870TMC3    C312955   4.394   4.171  12.938
  870TMC3    C412956   4.179   4.305  13.058
  870TMC3    C512957   4.262   4.368  12.970
  870TMC3    C612958   4.354   4.295  12.898
  870TMC3     C12959   4.120   4.087  13.128
  870TMC3     O12960   4.019   4.130  13.186
  870TMC3     H12961   4.358   4.007  13.075
  870TMC3    H112962   4.101   4.363  13.106
  870TMC3    H212963   4.420   4.351  12.832
  870TMC3    C712964   4.250   4.513  12.940
  870TMC3    C812965   4.481   4.080  12.854
  870TMC3    O112966   4.274   4.547  12.826
  870TMC3    O212967   4.486   3.959  12.881
  871TMC3    C112968   3.482   0.826  14.070
  871TMC3    C212969   3.522   0.732  14.160
  871TMC3    C312970   3.633   0.660  14.128
  871TMC3    C412971   3.542   0.852  13.953
  871TMC3    C512972   3.647   0.780  13.926
  871TMC3    C612973   3.698   0.682  14.007
  871TMC3     C12974   3.359   0.903  14.107
  871TMC3     O12975   3.261   0.824  14.111
  871TMC3     H12976   3.475   0.738  14.257
  871TMC3    H112977   3.517   0.942  13.898
  871TMC3    H212978   3.785   0.623  13.981
  871TMC3    C712979   3.753   0.865  13.868
  871TMC3    C812980   3.707   0.589  14.227
  871TMC3    O112981   3.726   0.982  13.847
  871TMC3    O212982   3.801   0.518  14.187
  872TMC3    C112983   0.552   4.407  12.368
  872TMC3    C212984   0.642   4.414  12.469
  872TMC3    C312985   0.712   4.300  12.511
  872TMC3    C412986   0.531   4.289  12.309
  872TMC3    C512987   0.603   4.173  12.345
  872TMC3    C612988   0.692   4.174  12.451
  872TMC3     C12989   0.507   4.528  12.293
  872TMC3     O12990   0.528   4.522  12.172
  872TMC3     H12991   0.663   4.510  12.514
  872TMC3    H112992   0.464   4.270  12.226
  872TMC3    H212993   0.754   4.088  12.475
  872TMC3    C712994   0.642   4.087  12.234
  872TMC3    C812995   0.841   4.329  12.564
  872TMC3    O112996   0.652   4.137  12.120
  872TMC3    O212997   0.895   4.428  12.522
  873TMC3    C112998   0.294   2.938  11.565
  873TMC3    C212999   0.428   2.889  11.568
  873TMC3    C313000   0.437   2.757  11.538
  873TMC3    C413001   0.178   2.865  11.557
  873TMC3    C513002   0.202   2.736  11.517
  873TMC3    C613003   0.328   2.681  11.495
  873TMC3     C13004   0.276   3.078  11.607
  873TMC3     O13005   0.175   3.109  11.671
  873TMC3     H13006   0.508   2.946  11.615
  873TMC3    H113007   0.080   2.906  11.579
  873TMC3    H213008   0.352   2.578  11.474
  873TMC3    C713009   0.102   2.666  11.433
  873TMC3    C813010   0.557   2.683  11.569
  873TMC3    O113011   0.150   2.564  11.384
  873TMC3    O213012   0.534   2.573  11.621
  874TMC3    C113013   1.719   2.345   6.980
  874TMC3    C213014   1.844   2.296   6.976
  874TMC3    C313015   1.900   2.274   6.852
  874TMC3    C413016   1.647   2.380   6.868
  874TMC3    C513017   1.709   2.364   6.748
  874TMC3    C613018   1.838   2.312   6.741
  874TMC3     C13019   1.651   2.361   7.106
  874TMC3     O13020   1.723   2.389   7.199
  874TMC3     H13021   1.893   2.279   7.071
  874TMC3    H113022   1.546   2.417   6.877
  874TMC3    H213023   1.877   2.265   6.652
  874TMC3    C713024   1.619   2.274   6.674
  874TMC3    C813025   2.013   2.186   6.846
  874TMC3    O113026   1.555   2.192   6.743
  874TMC3    O213027   2.095   2.201   6.757
  875TMC3    C113028   2.365   3.925   9.615
  875TMC3    C213029   2.467   3.990   9.549
  875TMC3    C313030   2.526   3.925   9.440
  875TMC3    C413031   2.335   3.794   9.588
  875TMC3    C513032   2.391   3.733   9.476
  875TMC3    C613033   2.488   3.803   9.399
  875TMC3     C13034   2.250   4.010   9.599
  875TMC3     O13035   2.277   4.129   9.591
  875TMC3     H13036   2.498   4.087   9.587
  875TMC3    H113037   2.278   3.734   9.658
  875TMC3    H213038   2.532   3.748   9.316
  875TMC3    C713039   2.407   3.591   9.469
  875TMC3    C813040   2.550   4.033   9.341
  875TMC3    O113041   2.491   3.542   9.396
  875TMC3    O213042   2.620   4.010   9.242
  876TMC3    C113043   0.957   2.465  13.352
  876TMC3    C213044   0.939   2.539  13.244
  876TMC3    C313045   0.906   2.487  13.123
  876TMC3    C413046   0.943   2.325  13.341
  876TMC3    C513047   0.904   2.278  13.217
  876TMC3    C613048   0.879   2.354  13.107
  876TMC3     C13049   1.040   2.532  13.449
  876TMC3     O13050   1.102   2.630  13.411
  876TMC3     H13051   0.950   2.645  13.260
  876TMC3    H113052   0.965   2.263  13.427
  876TMC3    H213053   0.863   2.326  13.003
  876TMC3    C713054   0.838   2.150  13.224
  876TMC3    C813055   0.957   2.563  13.008
  876TMC3    O113056   0.791   2.118  13.331
  876TMC3    O213057   0.913   2.554  12.894
  877TMC3    C113058   1.943   2.825   6.991
  877TMC3    C213059   1.945   2.953   6.936
  877TMC3    C313060   1.831   3.006   6.887
  877TMC3    C413061   1.829   2.749   6.993
  877TMC3    C513062   1.723   2.802   6.926
  877TMC3    C613063   1.714   2.932   6.881
  877TMC3     C13064   2.063   2.747   6.957
  877TMC3     O13065   2.146   2.804   6.887
  877TMC3     H13066   2.040   3.006   6.939
  877TMC3    H113067   1.817   2.649   7.033
  877TMC3    H213068   1.621   2.982   6.858
  877TMC3    C713069   1.592   2.755   6.956
  877TMC3    C813070   1.834   3.141   6.826
  877TMC3    O113071   1.581   2.689   7.057
  877TMC3    O213072   1.944   3.197   6.832
  878TMC3    C113073   0.528   1.729  11.417
  878TMC3    C213074   0.499   1.780  11.542
  878TMC3    C313075   0.503   1.701  11.654
  878TMC3    C413076   0.564   1.599  11.404
  878TMC3    C513077   0.589   1.534  11.517
  878TMC3    C613078   0.545   1.572  11.642
  878TMC3     C13079   0.492   1.811  11.298
  878TMC3     O13080   0.452   1.926  11.324
  878TMC3     H13081   0.480   1.886  11.551
  878TMC3    H113082   0.594   1.556  11.309
  878TMC3    H213083   0.575   1.525  11.735
  878TMC3    C713084   0.667   1.408  11.514
  878TMC3    C813085   0.468   1.764  11.785
  878TMC3    O113086   0.734   1.383  11.414
  878TMC3    O213087   0.442   1.882  11.801
  879TMC3    C113088   4.729   4.525  12.373
  879TMC3    C213089   0.029   4.432  12.347
  879TMC3    C313090   0.018   4.368  12.224
  879TMC3    C413091   4.624   4.561  12.286
  879TMC3    C513092   4.608   4.494  12.167
  879TMC3    C613093   4.701   4.392  12.134
  879TMC3     C13094   4.714   4.574  12.508
  879TMC3     O13095   4.668   4.684  12.530
  879TMC3     H13096   0.122   4.426  12.401
  879TMC3    H113097   4.556   4.642  12.310
  879TMC3    H213098   4.703   4.352  12.033
  879TMC3    C713099   4.510   4.542  12.063
  879TMC3    C813100   0.125   4.273  12.201
  879TMC3    O113101   4.531   4.542  11.941
  879TMC3    O213102   0.230   4.285  12.263
  880TMC3    C113103   3.418   0.362   8.881
  880TMC3    C213104   3.546   0.417   8.877
  880TMC3    C313105   3.630   0.387   8.975
  880TMC3    C413106   3.375   0.292   8.987
  880TMC3    C513107   3.458   0.270   9.089
  880TMC3    C613108   3.588   0.310   9.083
  880TMC3     C13109   3.313   0.454   8.846
  880TMC3     O13110   3.341   0.571   8.849
  880TMC3     H13111   3.588   0.466   8.790
  880TMC3    H113112   3.277   0.245   8.995
  880TMC3    H213113   3.652   0.318   9.170
  880TMC3    C713114   3.415   0.190   9.204
  880TMC3    C813115   3.719   0.494   9.000
  880TMC3    O113116   3.308   0.128   9.190
  880TMC3    O213117   3.838   0.479   9.022
  881TMC3    C113118   1.541   2.787  10.057
  881TMC3    C213119   1.451   2.700   9.999
  881TMC3    C313120   1.361   2.754   9.913
  881TMC3    C413121   1.530   2.922  10.036
  881TMC3    C513122   1.424   2.969   9.965
  881TMC3    C613123   1.341   2.886   9.899
  881TMC3     C13124   1.679   2.748  10.073
  881TMC3     O13125   1.758   2.836  10.109
  881TMC3     H13126   1.471   2.594   9.995
  881TMC3    H113127   1.590   2.997  10.086
  881TMC3    H213128   1.280   2.921   9.816
  881TMC3    C713129   1.453   3.088   9.886
  881TMC3    C813130   1.365   2.701   9.779
  881TMC3    O113131   1.460   3.061   9.768
  881TMC3    O213132   1.341   2.584   9.757
  882TMC3    C113133   0.827   0.295   7.692
  882TMC3    C213134   0.860   0.370   7.583
  882TMC3    C313135   0.938   0.317   7.476
  882TMC3    C413136   0.862   0.163   7.686
  882TMC3    C513137   0.930   0.108   7.575
  882TMC3    C613138   0.964   0.188   7.469
  882TMC3     C13139   0.769   0.352   7.812
  882TMC3     O13140   0.780   0.473   7.828
  882TMC3     H13141   0.826   0.472   7.599
  882TMC3    H113142   0.846   0.103   7.774
  882TMC3    H213143   1.036   0.154   7.396
  882TMC3    C713144   1.035   0.009   7.608
  882TMC3    C813145   1.055   0.401   7.447
  882TMC3    O113146   1.018   4.702   7.683
  882TMC3    O213147   1.163   0.350   7.415
  883TMC3    C113148   3.447   4.398  13.037
  883TMC3    C213149   3.415   4.493  12.951
  883TMC3    C313150   3.439   4.460  12.818
  883TMC3    C413151   3.510   4.282  13.002
  883TMC3    C513152   3.544   4.255  12.875
  883TMC3    C613153   3.494   4.340  12.775
  883TMC3     C13154   3.407   4.406  13.175
  883TMC3     O13155   3.395   4.296  13.229
  883TMC3     H13156   3.352   4.576  12.982
  883TMC3    H113157   3.540   4.217  13.084
  883TMC3    H213158   3.499   4.307  12.672
  883TMC3    C713159   3.620   4.138  12.839
  883TMC3    C813160   3.392   4.556  12.715
  883TMC3    O113161   3.681   4.156  12.734
  883TMC3    O213162   3.289   4.622  12.747
  884TMC3    C113163   4.769   0.094  12.018
  884TMC3    C213164   4.708   0.134  12.141
  884TMC3    C313165   4.607   0.224  12.127
  884TMC3    C413166   4.724   0.138  11.894
  884TMC3    C513167   4.620   0.226  11.895
  884TMC3    C613168   4.569   0.277  12.010
  884TMC3     C13169   0.061   4.759  12.026
  884TMC3     O13170   0.091   4.718  12.136
  884TMC3     H13171   4.706   0.065  12.224
  884TMC3    H113172   4.770   0.107  11.801
  884TMC3    H213173   4.485   0.345  12.016
  884TMC3    C713174   4.549   0.235  11.769
  884TMC3    C813175   4.502   0.207  12.222
  884TMC3    O113176   4.602   0.200  11.666
  884TMC3    O213177   4.385   0.194  12.180
  885TMC3    C113178   3.676   4.114  11.457
  885TMC3    C213179   3.806   4.119  11.491
  885TMC3    C313180   3.875   4.229  11.425
  885TMC3    C413181   3.613   4.191  11.370
  885TMC3    C513182   3.686   4.282  11.300
  885TMC3    C613183   3.813   4.306  11.336
  885TMC3     C13184   3.607   3.985  11.480
  885TMC3     O13185   3.524   3.949  11.398
  885TMC3     H13186   3.847   4.052  11.566
  885TMC3    H113187   3.509   4.179  11.342
  885TMC3    H213188   3.858   4.399  11.304
  885TMC3    C713189   3.615   4.383  11.228
  885TMC3    C813190   3.973   4.292  11.511
  885TMC3    O113191   3.496   4.403  11.259
  885TMC3    O213192   4.017   4.401  11.467
  886TMC3    C113193   0.159   4.031  11.330
  886TMC3    C213194   0.163   4.126  11.434
  886TMC3    C313195   0.064   4.220  11.436
  886TMC3    C413196   0.055   4.015  11.242
  886TMC3    C513197   4.750   4.110  11.257
  886TMC3    C613198   4.752   4.210  11.345
  886TMC3     C13199   0.282   3.967  11.298
  886TMC3     O13200   0.282   3.868  11.227
  886TMC3     H13201   0.246   4.118  11.503
  886TMC3    H113202   0.061   3.933  11.171
  886TMC3    H213203   4.675   4.287  11.350
  886TMC3    C713204   4.646   4.119  11.154
  886TMC3    C813205   0.071   4.330  11.527
  886TMC3    O113206   4.573   4.215  11.150
  886TMC3    O213207   4.783   4.425  11.512
  887TMC3    C113208   3.262   3.704   9.090
  887TMC3    C213209   3.360   3.714   8.989
  887TMC3    C313210   3.323   3.782   8.876
  887TMC3    C413211   3.134   3.753   9.073
  887TMC3    C513212   3.106   3.812   8.955
  887TMC3    C613213   3.197   3.830   8.850
  887TMC3     C13214   3.275   3.616   9.215
  887TMC3     O13215   3.172   3.594   9.282
  887TMC3     H13216   3.458   3.668   8.991
  887TMC3    H113217   3.060   3.728   9.149
  887TMC3    H213218   3.162   3.869   8.755
  887TMC3    C713219   2.969   3.842   8.924
  887TMC3    C813220   3.414   3.782   8.768
  887TMC3    O113221   2.898   3.908   9.002
  887TMC3    O213222   3.507   3.705   8.763
  888TMC3    C113223   3.309   2.493  13.242
  888TMC3    C213224   3.188   2.458  13.208
  888TMC3    C313225   3.154   2.327  13.207
  888TMC3    C413226   3.414   2.403  13.259
  888TMC3    C513227   3.378   2.270  13.256
  888TMC3    C613228   3.247   2.233  13.233
  888TMC3     C13229   3.351   2.635  13.238
  888TMC3     O13230   3.471   2.661  13.256
  888TMC3     H13231   3.106   2.527  13.196
  888TMC3    H113232   3.509   2.446  13.288
  888TMC3    H213233   3.218   2.131  13.209
  888TMC3    C713234   3.440   2.195  13.372
  888TMC3    C813235   3.020   2.281  13.227
  888TMC3    O113236   3.514   2.263  13.445
  888TMC3    O213237   2.987   2.175  13.177
  889TMC3    C113238   0.563   0.603  13.936
  889TMC3    C213239   0.668   0.687  13.967
  889TMC3    C313240   0.664   0.726  14.102
  889TMC3    C413241   0.466   0.557  14.024
  889TMC3    C513242   0.483   0.593  14.157
  889TMC3    C613243   0.582   0.676  14.201
  889TMC3     C13244   0.572   0.535  13.808
  889TMC3     O13245   0.526   0.423  13.807
  889TMC3     H13246   0.760   0.697  13.911
  889TMC3    H113247   0.388   0.485  14.002
  889TMC3    H213248   0.598   0.696  14.306
  889TMC3    C713249   0.373   0.580  14.246
  889TMC3    C813250   0.800   0.765  14.149
  889TMC3    O113251   0.338   0.682  14.303
  889TMC3    O213252   0.899   0.736  14.084
  890TMC3    C113253   0.218   1.357   7.453
  890TMC3    C213254   0.239   1.488   7.495
  890TMC3    C313255   0.268   1.572   7.393
  890TMC3    C413256   0.205   1.314   7.323
  890TMC3    C513257   0.235   1.408   7.232
  890TMC3    C613258   0.264   1.532   7.260
  890TMC3     C13259   0.246   1.259   7.556
  890TMC3     O13260   0.253   1.295   7.672
  890TMC3     H13261   0.255   1.522   7.597
  890TMC3    H113262   0.182   1.214   7.291
  890TMC3    H213263   0.275   1.605   7.181
  890TMC3    C713264   0.233   1.374   7.089
  890TMC3    C813265   0.355   1.684   7.427
  890TMC3    O113266   0.174   1.463   7.030
  890TMC3    O213267   0.352   1.745   7.533
  891TMC3    C113268   2.142   1.074  11.337
  891TMC3    C213269   2.122   1.211  11.330
  891TMC3    C313270   2.194   1.299  11.413
  891TMC3    C413271   2.239   1.021  11.412
  891TMC3    C513272   2.315   1.114  11.484
  891TMC3    C613273   2.304   1.252  11.479
  891TMC3     C13274   2.017   0.995  11.325
  891TMC3     O13275   1.915   1.061  11.327
  891TMC3     H13276   2.051   1.253  11.259
  891TMC3    H113277   2.250   0.915  11.430
  891TMC3    H213278   2.360   1.314  11.547
  891TMC3    C713279   2.420   1.073  11.581
  891TMC3    C813280   2.215   1.433  11.373
  891TMC3    O113281   2.520   1.145  11.590
  891TMC3    O213282   2.204   1.518  11.464
  892TMC3    C113283   0.259   1.088  11.011
  892TMC3    C213284   0.165   1.175  11.061
  892TMC3    C313285   0.190   1.311  11.038
  892TMC3    C413286   0.363   1.122  10.938
  892TMC3    C513287   0.382   1.260  10.929
  892TMC3    C613288   0.304   1.351  10.981
  892TMC3     C13289   0.252   0.955  11.058
  892TMC3     O13290   0.149   0.911  11.102
  892TMC3     H13291   0.074   1.142  11.109
  892TMC3    H113292   0.437   1.053  10.899
  892TMC3    H213293   0.307   1.457  10.957
  892TMC3    C713294   0.494   1.325  10.874
  892TMC3    C813295   0.080   1.394  11.000
  892TMC3    O113296   0.515   1.437  10.914
  892TMC3    O213297   0.104   1.467  10.907
  893TMC3    C113298   3.550   3.311  10.129
  893TMC3    C213299   3.552   3.214  10.222
  893TMC3    C313300   3.511   3.248  10.345
  893TMC3    C413301   3.489   3.430  10.150
  893TMC3    C513302   3.432   3.454  10.273
  893TMC3    C613303   3.451   3.369  10.372
  893TMC3     C13304   3.614   3.281  10.008
  893TMC3     O13305   3.550   3.212   9.930
  893TMC3     H13306   3.621   3.132  10.206
  893TMC3    H113307   3.482   3.509  10.077
  893TMC3    H213308   3.427   3.402  10.472
  893TMC3    C713309   3.413   3.589  10.312
  893TMC3    C813310   3.542   3.168  10.460
  893TMC3    O113311   3.521   3.643  10.321
  893TMC3    O213312   3.640   3.095  10.469
  894TMC3    C113313   3.055   4.395  14.584
  894TMC3    C213314   3.106   4.276  14.569
  894TMC3    C313315   3.112   4.220  14.448
  894TMC3    C413316   3.013   4.462  14.475
  894TMC3    C513317   3.029   4.412  14.350
  894TMC3    C613318   3.091   4.292  14.329
  894TMC3     C13319   3.021   4.437  14.718
  894TMC3     O13320   2.919   4.500  14.735
  894TMC3     H13321   3.118   4.209  14.653
  894TMC3    H113322   2.969   4.561  14.473
  894TMC3    H213323   3.079   4.243  14.233
  894TMC3    C713324   2.965   4.469  14.230
  894TMC3    C813325   3.117   4.079  14.436
  894TMC3    O113326   3.009   4.430  14.117
  894TMC3    O213327   3.047   4.031  14.346
  895TMC3    C113328   3.240   3.296  13.796
  895TMC3    C213329   3.201   3.185  13.867
  895TMC3    C313330   3.246   3.178  13.997
  895TMC3    C413331   3.333   3.396  13.831
  895TMC3    C513332   3.359   3.391  13.967
  895TMC3    C613333   3.318   3.278  14.046
  895TMC3     C13334   3.195   3.290  13.661
  895TMC3     O13335   3.183   3.181  13.606
  895TMC3     H13336   3.135   3.119  13.811
  895TMC3    H113337   3.366   3.478  13.767
  895TMC3    H213338   3.333   3.279  14.154
  895TMC3    C713339   3.376   3.508  14.046
  895TMC3    C813340   3.160   3.089  14.069
  895TMC3    O113341   3.336   3.501  14.160
  895TMC3    O213342   3.106   2.995  14.009
  896TMC3    C113343   2.108   2.195   8.810
  896TMC3    C213344   2.033   2.135   8.909
  896TMC3    C313345   1.951   2.215   8.992
  896TMC3    C413346   2.082   2.327   8.783
  896TMC3    C513347   1.985   2.397   8.852
  896TMC3    C613348   1.918   2.342   8.958
  896TMC3     C13349   2.154   2.117   8.698
  896TMC3     O13350   2.265   2.149   8.649
  896TMC3     H13351   2.032   2.027   8.916
  896TMC3    H113352   2.125   2.358   8.689
  896TMC3    H213353   1.851   2.401   9.020
  896TMC3    C713354   1.912   2.496   8.777
  896TMC3    C813355   1.865   2.141   9.072
  896TMC3    O113356   1.797   2.524   8.813
  896TMC3    O213357   1.810   2.040   9.020
  897TMC3    C113358   2.660   2.026  14.794
  897TMC3    C213359   2.630   2.151  14.751
  897TMC3    C313360   2.736   2.235  14.739
  897TMC3    C413361   2.782   2.001  14.858
  897TMC3    C513362   2.880   2.093  14.859
  897TMC3    C613363   2.862   2.206  14.789
  897TMC3     C13364   2.553   1.931  14.840
  897TMC3     O13365   2.581   1.857  14.932
  897TMC3     H13366   2.536   2.169  14.701
  897TMC3    H113367   2.805   1.904  14.899
  897TMC3    H213368   2.926   2.290  14.815
  897TMC3    C713369   3.004   2.036  14.806
  897TMC3    C813370   2.747   2.312  14.619
  897TMC3    O113371   3.042   2.091  14.704
  897TMC3    O213372   2.644   2.357  14.578
  898TMC3    C113373   2.826   0.110   9.733
  898TMC3    C213374   2.957   0.120   9.744
  898TMC3    C313375   3.027   0.014   9.797
  898TMC3    C413376   2.760   4.781   9.766
  898TMC3    C513377   2.827   4.698   9.851
  898TMC3    C613378   2.963   4.700   9.872
  898TMC3     C13379   2.749   0.231   9.760
  898TMC3     O13380   2.646   0.217   9.828
  898TMC3     H13381   3.020   0.202   9.710
  898TMC3    H113382   2.652   4.782   9.769
  898TMC3    H213383   3.015   4.629   9.935
  898TMC3    C713384   2.755   4.661   9.970
  898TMC3    C813385   3.167   0.028   9.794
  898TMC3    O113386   2.799   4.574  10.040
  898TMC3    O213387   3.226   4.762   9.883
  899TMC3    C113388   0.897   2.794   8.428
  899TMC3    C213389   0.796   2.719   8.374
  899TMC3    C313390   0.778   2.586   8.414
  899TMC3    C413391   0.977   2.746   8.527
  899TMC3    C513392   0.951   2.622   8.577
  899TMC3    C613393   0.862   2.535   8.509
  899TMC3     C13394   0.911   2.927   8.370
  899TMC3     O13395   0.846   3.010   8.431
  899TMC3     H13396   0.725   2.764   8.306
  899TMC3    H113397   1.040   2.811   8.586
  899TMC3    H213398   0.835   2.438   8.549
  899TMC3    C713399   0.953   2.621   8.724
  899TMC3    C813400   0.636   2.561   8.446
  899TMC3    O113401   0.993   2.715   8.789
  899TMC3    O213402   0.572   2.663   8.489
  900TMC3    C113403   3.462   1.383  12.017
  900TMC3    C213404   3.479   1.508  11.963
  900TMC3    C313405   3.467   1.512  11.824
  900TMC3    C413406   3.442   1.267  11.947
  900TMC3    C513407   3.414   1.289  11.815
  900TMC3    C613408   3.429   1.407  11.750
  900TMC3     C13409   3.456   1.382  12.160
  900TMC3     O13410   3.505   1.289  12.218
  900TMC3     H13411   3.509   1.596  12.018
  900TMC3    H113412   3.415   1.173  11.993
  900TMC3    H213413   3.419   1.429  11.644
  900TMC3    C713414   3.361   1.184  11.735
  900TMC3    C813415   3.433   1.647  11.775
  900TMC3    O113416   3.294   1.224  11.641
  900TMC3    O213417   3.325   1.660  11.716
  901TMC3    C113418   0.367   0.969  11.470
  901TMC3    C213419   0.228   0.972  11.447
  901TMC3    C313420   0.152   0.907  11.538
  901TMC3    C413421   0.416   0.910  11.582
  901TMC3    C513422   0.331   0.853  11.677
  901TMC3    C613423   0.198   0.856  11.657
  901TMC3     C13424   0.462   1.064  11.416
  901TMC3     O13425   0.576   1.015  11.405
  901TMC3     H13426   0.189   1.034  11.367
  901TMC3    H113427   0.523   0.914  11.594
  901TMC3    H213428   0.135   0.811  11.732
  901TMC3    C713429   0.365   0.861  11.823
  901TMC3    C813430   0.003   0.914  11.534
  901TMC3    O113431   0.279   0.907  11.897
  901TMC3    O213432   4.723   0.825  11.587
  902TMC3    C113433   3.737   0.107  13.951
  902TMC3    C213434   3.677   0.172  14.053
  902TMC3    C313435   3.546   0.209  14.044
  902TMC3    C413436   3.672   0.080  13.826
  902TMC3    C513437   3.537   0.127  13.821
  902TMC3    C613438   3.477   0.190  13.928
  902TMC3     C13439   3.866   0.046  13.981
  902TMC3     O13440   3.899   0.016  14.094
  902TMC3     H13441   3.729   0.178  14.148
  902TMC3    H113442   3.724   0.033  13.743
  902TMC3    H213443   3.374   0.224  13.924
  902TMC3    C713444   3.440   0.038  13.756
  902TMC3    C813445   3.487   0.284  14.157
  902TMC3    O113446   3.322   0.026  13.797
  902TMC3    O213447   3.541   0.267  14.266
  903TMC3    C113448   1.565   2.246  12.256
  903TMC3    C213449   1.491   2.243  12.138
  903TMC3    C313450   1.354   2.225  12.146
  903TMC3    C413451   1.506   2.252  12.371
  903TMC3    C513452   1.372   2.221  12.371
  903TMC3    C613453   1.291   2.206  12.264
  903TMC3     C13454   1.704   2.196  12.255
  903TMC3     O13455   1.773   2.222  12.351
  903TMC3     H13456   1.542   2.243  12.042
  903TMC3    H113457   1.567   2.250  12.461
  903TMC3    H213458   1.183   2.198  12.272
  903TMC3    C713459   1.325   2.139  12.482
  903TMC3    C813460   1.277   2.196  12.022
  903TMC3    O113461   1.335   2.198  12.587
  903TMC3    O213462   1.345   2.204  11.921
  904TMC3    C113463   2.813   3.203  12.089
  904TMC3    C213464   2.936   3.220  12.146
  904TMC3    C313465   3.001   3.101  12.175
  904TMC3    C413466   2.754   3.083  12.076
  904TMC3    C513467   2.820   2.970  12.112
  904TMC3    C613468   2.946   2.976  12.154
  904TMC3     C13469   2.721   3.317  12.110
  904TMC3     O13470   2.610   3.284  12.149
  904TMC3     H13471   2.981   3.316  12.167
  904TMC3    H113472   2.656   3.080  12.032
  904TMC3    H213473   2.996   2.887  12.188
  904TMC3    C713474   2.779   2.840  12.066
  904TMC3    C813475   3.134   3.089  12.207
  904TMC3    O113476   2.698   2.837  11.976
  904TMC3    O213477   3.196   3.005  12.144
  905TMC3    C113478   2.224   0.516   7.644
  905TMC3    C213479   2.114   0.501   7.716
  905TMC3    C313480   2.023   0.406   7.685
  905TMC3    C413481   2.259   0.432   7.537
  905TMC3    C513482   2.166   0.337   7.506
  905TMC3    C613483   2.041   0.331   7.574
  905TMC3     C13484   2.329   0.601   7.694
  905TMC3     O13485   2.442   0.581   7.647
  905TMC3     H13486   2.098   0.568   7.800
  905TMC3    H113487   2.359   0.425   7.496
  905TMC3    H213488   1.977   0.245   7.560
  905TMC3    C713489   2.216   0.211   7.450
  905TMC3    C813490   1.923   0.386   7.786
  905TMC3    O113491   2.324   0.174   7.489
  905TMC3    O213492   1.947   0.435   7.892
  906TMC3    C113493   2.842   3.073  10.513
  906TMC3    C213494   2.718   3.065  10.455
  906TMC3    C313495   2.629   3.171  10.480
  906TMC3    C413496   2.888   3.173  10.590
  906TMC3    C513497   2.796   3.271  10.611
  906TMC3    C613498   2.663   3.268  10.573
  906TMC3     C13499   2.918   2.951  10.495
  906TMC3     O13500   2.843   2.852  10.492
  906TMC3     H13501   2.701   2.985  10.384
  906TMC3    H113502   2.989   3.177  10.629
  906TMC3    H213503   2.596   3.345  10.609
  906TMC3    C713504   2.824   3.382  10.696
  906TMC3    C813505   2.614   3.246  10.349
  906TMC3    O113506   2.787   3.380  10.814
  906TMC3    O213507   2.684   3.202  10.258
  907TMC3    C113508   3.296   0.538  11.346
  907TMC3    C213509   3.352   0.623  11.260
  907TMC3    C313510   3.444   0.591  11.169
  907TMC3    C413511   3.347   0.410  11.352
  907TMC3    C513512   3.436   0.376  11.257
  907TMC3    C613513   3.493   0.465  11.169
  907TMC3     C13514   3.156   0.558  11.322
  907TMC3     O13515   3.120   0.641  11.243
  907TMC3     H13516   3.318   0.726  11.268
  907TMC3    H113517   3.316   0.332  11.421
  907TMC3    H213518   3.587   0.450  11.116
  907TMC3    C713519   3.464   0.237  11.260
  907TMC3    C813520   3.540   0.691  11.139
  907TMC3    O113521   3.527   0.206  11.359
  907TMC3    O213522   3.644   0.674  11.205
  908TMC3    C113523   3.128   3.350   9.806
  908TMC3    C213524   3.200   3.285   9.908
  908TMC3    C313525   3.126   3.230  10.007
  908TMC3    C413526   2.993   3.375   9.817
  908TMC3    C513527   2.924   3.283   9.901
  908TMC3    C613528   2.993   3.220  10.001
  908TMC3     C13529   3.201   3.415   9.694
  908TMC3     O13530   3.131   3.499   9.640
  908TMC3     H13531   3.308   3.277   9.912
  908TMC3    H113532   2.940   3.441   9.749
  908TMC3    H213533   2.935   3.160  10.070
  908TMC3    C713534   2.776   3.266   9.894
  908TMC3    C813535   3.178   3.127  10.090
  908TMC3    O113536   2.713   3.365   9.860
  908TMC3    O213537   3.147   3.119  10.209
  909TMC3    C113538   1.919   0.377  12.870
  909TMC3    C213539   2.041   0.317  12.851
  909TMC3    C313540   2.061   0.187  12.889
  909TMC3    C413541   1.815   0.299  12.925
  909TMC3    C513542   1.838   0.176  12.967
  909TMC3    C613543   1.963   0.117  12.950
  909TMC3     C13544   1.889   0.500  12.791
  909TMC3     O13545   1.778   0.510  12.751
  909TMC3     H13546   2.116   0.369  12.793
  909TMC3    H113547   1.721   0.353  12.929
  909TMC3    H213548   1.972   0.012  12.973
  909TMC3    C713549   1.760   0.107  13.074
  909TMC3    C813550   2.189   0.130  12.842
  909TMC3    O113551   1.725   4.782  13.039
  909TMC3    O213552   2.269   0.210  12.782
  910TMC3    C113553   2.325   4.595  11.431
  910TMC3    C213554   2.296   4.514  11.327
  910TMC3    C313555   2.210   4.564  11.227
  910TMC3    C413556   2.266   4.712  11.451
  910TMC3    C513557   2.173   4.756  11.360
  910TMC3    C613558   2.154   4.684  11.246
  910TMC3     C13559   2.408   4.541  11.535
  910TMC3     O13560   2.489   4.619  11.584
  910TMC3     H13561   2.347   4.419  11.315
  910TMC3    H113562   2.289   4.765  11.543
  910TMC3    H213563   2.091   4.706  11.160
  910TMC3    C713564   2.063   0.046  11.418
  910TMC3    C813565   2.146   4.463  11.140
  910TMC3    O113566   2.086   0.103  11.524
  910TMC3    O213567   2.110   4.488  11.027
  911TMC3    C113568   2.052   2.452   7.588
  911TMC3    C213569   2.062   2.467   7.718
  911TMC3    C313570   2.191   2.449   7.780
  911TMC3    C413571   2.159   2.424   7.510
  911TMC3    C513572   2.279   2.408   7.571
  911TMC3    C613573   2.302   2.419   7.707
  911TMC3     C13574   1.918   2.414   7.536
  911TMC3     O13575   1.825   2.475   7.584
  911TMC3     H13576   1.971   2.492   7.770
  911TMC3    H113577   2.151   2.423   7.402
  911TMC3    H213578   2.403   2.417   7.748
  911TMC3    C713579   2.394   2.445   7.495
  911TMC3    C813580   2.197   2.444   7.922
  911TMC3    O113581   2.383   2.547   7.429
  911TMC3    O213582   2.306   2.429   7.978
  912TMC3    C113583   4.742   4.165   9.358
  912TMC3    C213584   0.073   4.144   9.423
  912TMC3    C313585   0.089   4.139   9.556
  912TMC3    C413586   4.628   4.165   9.434
  912TMC3    C513587   4.643   4.134   9.569
  912TMC3    C613588   4.764   4.135   9.632
  912TMC3     C13589   4.742   4.262   9.251
  912TMC3     O13590   0.034   4.353   9.266
  912TMC3     H13591   0.156   4.133   9.355
  912TMC3    H113592   4.530   4.198   9.401
  912TMC3    H213593   4.768   4.102   9.735
  912TMC3    C713594   4.529   4.077   9.642
  912TMC3    C813595   0.210   4.176   9.627
  912TMC3    O113596   4.536   4.041   9.761
  912TMC3    O213597   0.189   4.191   9.745
  913TMC3    C113598   3.950   2.753  12.636
  913TMC3    C213599   4.065   2.679  12.619
  913TMC3    C313600   4.189   2.746  12.614
  913TMC3    C413601   3.959   2.890  12.644
  913TMC3    C513602   4.083   2.955  12.629
  913TMC3    C613603   4.192   2.886  12.600
  913TMC3     C13604   3.838   2.698  12.571
  913TMC3     O13605   3.863   2.592  12.510
  913TMC3     H13606   4.074   2.571  12.617
  913TMC3    H113607   3.869   2.949  12.660
  913TMC3    H213608   4.289   2.933  12.600
  913TMC3    C713609   4.081   3.097  12.630
  913TMC3    C813610   4.263   2.687  12.507
  913TMC3    O113611   3.993   3.155  12.698
  913TMC3    O213612   4.382   2.679  12.526
  914TMC3    C113613   0.361   1.576  13.877
  914TMC3    C213614   0.373   1.455  13.818
  914TMC3    C313615   0.262   1.377  13.819
  914TMC3    C413616   0.242   1.616  13.933
  914TMC3    C513617   0.135   1.527  13.937
  914TMC3    C613618   0.142   1.404  13.882
  914TMC3     C13619   0.482   1.631  13.931
  914TMC3     O13620   0.571   1.548  13.949
  914TMC3     H13621   0.469   1.416  13.787
  914TMC3    H113622   0.224   1.713  13.978
  914TMC3    H213623   0.060   1.334  13.875
  914TMC3    C713624   0.042   1.554  14.045
  914TMC3    C813625   0.253   1.254  13.743
  914TMC3    O113626   0.025   1.675  14.067
  914TMC3    O213627   0.181   1.171  13.793
  915TMC3    C113628   1.891   1.583  10.637
  915TMC3    C213629   1.884   1.609  10.502
  915TMC3    C313630   1.769   1.581  10.429
  915TMC3    C413631   1.780   1.533  10.699
  915TMC3    C513632   1.664   1.506  10.629
  915TMC3    C613633   1.656   1.532  10.493
  915TMC3     C13634   2.014   1.509  10.671
  915TMC3     O13635   2.116   1.541  10.612
  915TMC3     H13636   1.968   1.654  10.450
  915TMC3    H113637   1.787   1.513  10.805
  915TMC3    H213638   1.566   1.517  10.434
  915TMC3    C713639   1.590   1.396  10.682
  915TMC3    C813640   1.792   1.541  10.295
  915TMC3    O113641   1.653   1.324  10.759
  915TMC3    O213642   1.726   1.450  10.247
  916TMC3    C113643   2.404   2.667  13.915
  916TMC3    C213644   2.469   2.657  13.798
  916TMC3    C313645   2.598   2.630  13.800
  916TMC3    C413646   2.468   2.645  14.034
  916TMC3    C513647   2.606   2.627  14.035
  916TMC3    C613648   2.670   2.619  13.918
  916TMC3     C13649   2.267   2.731  13.912
  916TMC3     O13650   2.223   2.748  13.800
  916TMC3     H13651   2.415   2.696  13.713
  916TMC3    H113652   2.423   2.655  14.132
  916TMC3    H213653   2.778   2.606  13.911
  916TMC3    C713654   2.664   2.575  14.157
  916TMC3    C813655   2.668   2.599  13.677
  916TMC3    O113656   2.586   2.515  14.227
  916TMC3    O213657   2.788   2.609  13.676
  917TMC3    C113658   2.743   3.680  11.617
  917TMC3    C213659   2.827   3.663  11.725
  917TMC3    C313660   2.961   3.671  11.720
  917TMC3    C413661   2.805   3.708  11.504
  917TMC3    C513662   2.942   3.710  11.494
  917TMC3    C613663   3.027   3.703  11.603
  917TMC3     C13664   2.661   3.563  11.590
  917TMC3     O13665   2.586   3.561  11.489
  917TMC3     H13666   2.776   3.652  11.820
  917TMC3    H113667   2.734   3.712  11.422
  917TMC3    H213668   3.134   3.690  11.597
  917TMC3    C713669   2.998   3.716  11.356
  917TMC3    C813670   3.028   3.585  11.818
  917TMC3    O113671   3.104   3.779  11.346
  917TMC3    O213672   2.966   3.514  11.892
  918TMC3    C113673   4.177   0.289  10.034
  918TMC3    C213674   4.282   0.352  10.093
  918TMC3    C313675   4.326   0.473  10.041
  918TMC3    C413676   4.118   0.337   9.917
  918TMC3    C513677   4.158   0.455   9.875
  918TMC3    C613678   4.266   0.520   9.926
  918TMC3     C13679   4.121   0.171  10.098
  918TMC3     O13680   4.181   0.116  10.189
  918TMC3     H13681   4.328   0.297  10.174
  918TMC3    H113682   4.052   0.284   9.849
  918TMC3    H213683   4.300   0.609   9.874
  918TMC3    C713684   4.108   0.510   9.744
  918TMC3    C813685   4.457   0.541  10.074
  918TMC3    O113686   4.186   0.566   9.673
  918TMC3    O213687   4.490   0.615   9.983
  919TMC3    C113688   1.134   2.749  15.059
  919TMC3    C213689   1.207   2.761  14.948
  919TMC3    C313690   1.337   2.721  14.942
  919TMC3    C413691   1.182   2.690  15.172
  919TMC3    C513692   1.310   2.636  15.165
  919TMC3    C613693   1.389   2.650  15.052
  919TMC3     C13694   1.019   2.842  15.090
  919TMC3     O13695   0.956   2.813  15.191
  919TMC3     H13696   1.163   2.791  14.853
  919TMC3    H113697   1.113   2.667  15.253
  919TMC3    H213698   1.493   2.622  15.063
  919TMC3    C713699   1.302   2.501  15.208
  919TMC3    C813700   1.390   2.687  14.812
  919TMC3    O113701   1.412   2.453  15.243
  919TMC3    O213702   1.306   2.678  14.721
  920TMC3    C113703   1.117   1.824   6.471
  920TMC3    C213704   1.088   1.692   6.434
  920TMC3    C313705   1.011   1.623   6.520
  920TMC3    C413706   1.081   1.875   6.589
  920TMC3    C513707   1.010   1.798   6.676
  920TMC3    C613708   0.966   1.669   6.641
  920TMC3     C13709   1.192   1.896   6.370
  920TMC3     O13710   1.169   1.881   6.246
  920TMC3     H13711   1.115   1.652   6.337
  920TMC3    H113712   1.112   1.975   6.618
  920TMC3    H213713   0.898   1.606   6.698
  920TMC3    C713714   1.063   1.809   6.809
  920TMC3    C813715   0.967   1.483   6.486
  920TMC3    O113716   1.132   1.905   6.831
  920TMC3    O213717   0.952   1.404   6.573
  921TMC3    C113718   1.217   1.099   9.104
  921TMC3    C213719   1.136   1.202   9.075
  921TMC3    C313720   1.079   1.224   8.957
  921TMC3    C413721   1.244   1.018   9.002
  921TMC3    C513722   1.162   1.018   8.890
  921TMC3    C613723   1.081   1.122   8.866
  921TMC3     C13724   1.174   1.031   9.224
  921TMC3     O13725   1.052   1.032   9.244
  921TMC3     H13726   1.132   1.277   9.154
  921TMC3    H113727   1.299   0.928   9.026
  921TMC3    H213728   1.016   1.128   8.779
  921TMC3    C713729   1.109   0.882   8.871
  921TMC3    C813730   1.047   1.364   8.916
  921TMC3    O113731   0.986   0.866   8.861
  921TMC3    O213732   0.942   1.380   8.853
  922TMC3    C113733   4.510   1.775  10.922
  922TMC3    C213734   4.587   1.794  10.810
  922TMC3    C313735   4.723   1.785  10.822
  922TMC3    C413736   4.575   1.761  11.046
  922TMC3    C513737   4.712   1.757  11.048
  922TMC3    C613738   4.787   1.771  10.943
  922TMC3     C13739   4.374   1.828  10.926
  922TMC3     O13740   4.325   1.845  11.039
  922TMC3     H13741   4.553   1.799  10.707
  922TMC3    H113742   4.509   1.738  11.129
  922TMC3    H213743   0.107   1.775  10.949
  922TMC3    C713744   4.780   1.750  11.177
  922TMC3    C813745   0.012   1.794  10.702
  922TMC3    O113746   0.096   1.691  11.172
  922TMC3    O213747   4.758   1.881  10.620
  923TMC3    C113748   2.341   0.774   9.092
  923TMC3    C213749   2.219   0.818   9.130
  923TMC3    C313750   2.211   0.949   9.185
  923TMC3    C413751   2.443   0.869   9.068
  923TMC3    C513752   2.428   0.995   9.112
  923TMC3    C613753   2.312   1.042   9.175
  923TMC3     C13754   2.379   0.634   9.108
  923TMC3     O13755   2.295   0.545   9.107
  923TMC3     H13756   2.141   0.744   9.142
  923TMC3    H113757   2.539   0.849   9.022
  923TMC3    H213758   2.302   1.146   9.205
  923TMC3    C713759   2.549   1.041   9.179
  923TMC3    C813760   2.165   0.951   9.321
  923TMC3    O113761   2.657   1.016   9.123
  923TMC3    O213762   2.221   1.014   9.402
  924TMC3    C113763   2.991   4.266   6.411
  924TMC3    C213764   2.983   4.398   6.433
  924TMC3    C313765   3.038   4.446   6.546
  924TMC3    C413766   3.028   4.185   6.514
  924TMC3    C513767   3.063   4.234   6.636
  924TMC3    C613768   3.063   4.369   6.655
  924TMC3     C13769   2.989   4.227   6.267
  924TMC3     O13770   2.963   4.319   6.185
  924TMC3     H13771   2.983   4.466   6.348
  924TMC3    H113772   3.027   4.078   6.498
  924TMC3    H213773   3.103   4.419   6.743
  924TMC3    C713774   3.179   4.175   6.693
  924TMC3    C813775   3.115   4.576   6.538
  924TMC3    O113776   3.277   4.253   6.684
  924TMC3    O213777   3.111   4.636   6.433
  925TMC3    C113778   0.142   2.308   9.505
  925TMC3    C213779   0.104   2.347   9.378
  925TMC3    C313780   0.009   2.264   9.326
  925TMC3    C413781   0.102   2.187   9.566
  925TMC3    C513782   0.023   2.103   9.493
  925TMC3    C613783   4.758   2.145   9.383
  925TMC3     C13784   0.195   2.418   9.584
  925TMC3     O13785   0.226   2.518   9.522
  925TMC3     H13786   0.123   2.445   9.334
  925TMC3    H113787   0.160   2.154   9.651
  925TMC3    H213788   4.676   2.087   9.341
  925TMC3    C713789   0.002   1.962   9.527
  925TMC3    C813790   0.026   2.239   9.187
  925TMC3    O113791   4.767   1.879   9.437
  925TMC3    O213792   0.024   2.120   9.152
  926TMC3    C113793   2.899   3.692   7.135
  926TMC3    C213794   2.944   3.789   7.214
  926TMC3    C313795   2.947   3.920   7.171
  926TMC3    C413796   2.870   3.716   7.008
  926TMC3    C513797   2.886   3.844   6.960
  926TMC3    C613798   2.922   3.954   7.043
  926TMC3     C13799   2.832   3.582   7.200
  926TMC3     O13800   2.900   3.509   7.274
  926TMC3     H13801   2.978   3.773   7.316
  926TMC3    H113802   2.833   3.638   6.943
  926TMC3    H213803   2.926   4.057   7.010
  926TMC3    C713804   2.871   3.869   6.824
  926TMC3    C813805   2.957   4.024   7.268
  926TMC3    O113806   2.886   3.982   6.795
  926TMC3    O213807   2.959   4.132   7.216
  927TMC3    C113808   2.196   1.838  11.659
  927TMC3    C213809   2.317   1.889  11.610
  927TMC3    C313810   2.307   1.947  11.490
  927TMC3    C413811   2.082   1.833  11.586
  927TMC3    C513812   2.082   1.888  11.462
  927TMC3    C613813   2.196   1.947  11.413
  927TMC3     C13814   2.184   1.866  11.804
  927TMC3     O13815   2.288   1.850  11.864
  927TMC3     H13816   2.411   1.879  11.665
  927TMC3    H113817   1.985   1.816  11.632
  927TMC3    H213818   2.184   1.990  11.314
  927TMC3    C713819   1.970   1.973  11.444
  927TMC3    C813820   2.434   1.992  11.434
  927TMC3    O113821   1.858   1.913  11.451
  927TMC3    O213822   2.528   1.993  11.512
  928TMC3    C113823   4.516   3.320  12.813
  928TMC3    C213824   4.557   3.302  12.940
  928TMC3    C313825   4.462   3.317  13.038
  928TMC3    C413826   4.385   3.354  12.778
  928TMC3    C513827   4.293   3.368  12.881
  928TMC3    C613828   4.329   3.343  13.018
  928TMC3     C13829   4.620   3.352  12.715
  928TMC3     O13830   4.730   3.386  12.757
  928TMC3     H13831   4.663   3.317  12.957
  928TMC3    H113832   4.354   3.374  12.676
  928TMC3    H213833   4.256   3.341  13.098
  928TMC3    C713834   4.211   3.485  12.864
  928TMC3    C813835   4.523   3.367  13.162
  928TMC3    O113836   4.272   3.575  12.811
  928TMC3    O213837   4.638   3.327  13.170
  929TMC3    C113838   4.657   1.642   8.827
  929TMC3    C213839   4.756   1.716   8.881
  929TMC3    C313840   0.029   1.808   8.805
  929TMC3    C413841   4.614   1.668   8.702
  929TMC3    C513842   4.671   1.773   8.635
  929TMC3    C613843   4.781   1.840   8.683
  929TMC3     C13844   4.567   1.572   8.917
  929TMC3     O13845   4.505   1.485   8.858
  929TMC3     H13846   4.781   1.688   8.982
  929TMC3    H113847   4.520   1.623   8.669
  929TMC3    H213848   0.033   1.917   8.618
  929TMC3    C713849   4.592   1.850   8.541
  929TMC3    C813850   0.142   1.881   8.860
  929TMC3    O113851   4.648   1.910   8.448
  929TMC3    O213852   0.177   1.986   8.810
  930TMC3    C113853   0.723   0.270   9.448
  930TMC3    C213854   0.775   0.242   9.317
  930TMC3    C313855   0.845   0.344   9.262
  930TMC3    C413856   0.748   0.382   9.517
  930TMC3    C513857   0.824   0.476   9.460
  930TMC3    C613858   0.872   0.459   9.331
  930TMC3     C13859   0.611   0.184   9.494
  930TMC3     O13860   0.523   0.236   9.558
  930TMC3     H13861   0.741   0.156   9.261
  930TMC3    H113862   0.707   0.398   9.616
  930TMC3    H213863   0.945   0.530   9.292
  930TMC3    C713864   0.919   0.543   9.536
  930TMC3    C813865   0.926   0.315   9.142
  930TMC3    O113866   0.934   0.507   9.650
  930TMC3    O213867   0.974   0.203   9.130
  931TMC3    C113868   2.616   2.471   9.267
  931TMC3    C213869   2.583   2.368   9.187
  931TMC3    C313870   2.618   2.244   9.233
  931TMC3    C413871   2.649   2.452   9.400
  931TMC3    C513872   2.653   2.324   9.442
  931TMC3    C613873   2.641   2.215   9.364
  931TMC3     C13874   2.700   2.561   9.197
  931TMC3     O13875   2.711   2.535   9.078
  931TMC3     H13876   2.535   2.389   9.092
  931TMC3    H113877   2.662   2.537   9.466
  931TMC3    H213878   2.683   2.118   9.385
  931TMC3    C713879   2.648   2.308   9.584
  931TMC3    C813880   2.696   2.177   9.135
  931TMC3    O113881   2.546   2.358   9.622
  931TMC3    O213882   2.708   2.058   9.154
  932TMC3    C113883   3.216   2.260   9.192
  932TMC3    C213884   3.222   2.378   9.115
  932TMC3    C313885   3.217   2.373   8.981
  932TMC3    C413886   3.212   2.141   9.124
  932TMC3    C513887   3.218   2.136   8.991
  932TMC3    C613888   3.217   2.256   8.916
  932TMC3     C13889   3.122   2.266   9.302
  932TMC3     O13890   3.033   2.351   9.291
  932TMC3     H13891   3.236   2.473   9.165
  932TMC3    H113892   3.239   2.046   9.169
  932TMC3    H213893   3.200   2.242   8.809
  932TMC3    C713894   3.222   2.008   8.927
  932TMC3    C813895   3.262   2.489   8.909
  932TMC3    O113896   3.159   1.926   8.985
  932TMC3    O213897   3.223   2.600   8.948
  933TMC3    C113898   3.562   1.110  10.494
  933TMC3    C213899   3.552   1.042  10.374
  933TMC3    C313900   3.517   1.116  10.266
  933TMC3    C413901   3.551   1.244  10.500
  933TMC3    C513902   3.524   1.313  10.383
  933TMC3    C613903   3.504   1.249  10.266
  933TMC3     C13904   3.559   1.033  10.620
  933TMC3     O13905   3.484   0.935  10.621
  933TMC3     H13906   3.547   0.934  10.373
  933TMC3    H113907   3.548   1.307  10.589
  933TMC3    H213908   3.476   1.310  10.180
  933TMC3    C713909   3.548   1.459  10.384
  933TMC3    C813910   3.507   1.057  10.134
  933TMC3    O113911   3.510   1.514  10.282
  933TMC3    O213912   3.425   1.101  10.054
  934TMC3    C113913   3.861   2.471  10.942
  934TMC3    C213914   3.893   2.506  11.068
  934TMC3    C313915   4.023   2.533  11.101
  934TMC3    C413916   3.965   2.458  10.851
  934TMC3    C513917   4.094   2.475  10.895
  934TMC3    C613918   4.127   2.517  11.018
  934TMC3     C13919   3.727   2.471  10.899
  934TMC3     O13920   3.705   2.513  10.790
  934TMC3     H13921   3.826   2.533  11.149
  934TMC3    H113922   3.955   2.410  10.754
  934TMC3    H213923   4.232   2.515  11.047
  934TMC3    C713924   4.180   2.365  10.852
  934TMC3    C813925   4.050   2.512  11.236
  934TMC3    O113926   4.247   2.313  10.938
  934TMC3    O213927   4.010   2.590  11.323
  935TMC3    C113928   3.320   1.823  10.722
  935TMC3    C213929   3.232   1.730  10.671
  935TMC3    C313930   3.256   1.598  10.703
  935TMC3    C413931   3.412   1.789  10.819
  935TMC3    C513932   3.434   1.655  10.848
  935TMC3    C613933   3.366   1.563  10.777
  935TMC3     C13934   3.321   1.960  10.667
  935TMC3     O13935   3.416   2.026  10.711
  935TMC3     H13936   3.150   1.759  10.605
  935TMC3    H113937   3.477   1.866  10.859
  935TMC3    H213938   3.383   1.456  10.789
  935TMC3    C713939   3.568   1.626  10.884
  935TMC3    C813940   3.158   1.505  10.655
  935TMC3    O113941   3.616   1.515  10.854
  935TMC3    O213942   3.048   1.548  10.628
  936TMC3    C113943   3.392   4.694  11.721
  936TMC3    C213944   3.296   4.771  11.654
  936TMC3    C313945   3.302   0.002  11.517
  936TMC3    C413946   3.508   4.650  11.652
  936TMC3    C513947   3.520   4.686  11.519
  936TMC3    C613948   3.419   4.754  11.455
  936TMC3     C13949   3.333   4.610  11.824
  936TMC3     O13950   3.222   4.643  11.862
  936TMC3     H13951   3.203   0.019  11.698
  936TMC3    H113952   3.587   4.591  11.698
  936TMC3    H213953   3.424   4.746  11.347
  936TMC3    C713954   3.650   4.673  11.454
  936TMC3    C813955   3.210   0.098  11.455
  936TMC3    O113956   3.699   4.562  11.472
  936TMC3    O213957   3.188   0.188  11.535
  937TMC3    C113958   4.552   0.870  14.685
  937TMC3    C213959   4.554   0.744  14.628
  937TMC3    C313960   4.550   0.736  14.489
  937TMC3    C413961   4.534   0.977  14.606
  937TMC3    C513962   4.499   0.963  14.473
  937TMC3    C613963   4.508   0.840  14.417
  937TMC3     C13964   4.657   0.873  14.792
  937TMC3     O13965   4.734   0.779  14.797
  937TMC3     H13966   4.582   0.658  14.687
  937TMC3    H113967   4.542   1.079  14.644
  937TMC3    H213968   4.502   0.822  14.310
  937TMC3    C713969   4.527   1.069  14.378
  937TMC3    C813970   4.666   0.668  14.430
  937TMC3    O113971   4.550   1.039  14.260
  937TMC3    O213972   4.735   0.722  14.347
  938TMC3    C113973   3.894   4.284  10.049
  938TMC3    C213974   3.990   4.273   9.954
  938TMC3    C313975   3.974   4.187   9.846
  938TMC3    C413976   3.786   4.207  10.043
  938TMC3    C513977   3.762   4.134   9.923
  938TMC3    C613978   3.862   4.117   9.833
  938TMC3     C13979   3.933   4.334  10.180
  938TMC3     O13980   3.946   4.253  10.267
  938TMC3     H13981   4.077   4.336   9.970
  938TMC3    H113982   3.727   4.193  10.133
  938TMC3    H213983   3.833   4.061   9.745
  938TMC3    C713984   3.648   4.055   9.921
  938TMC3    C813985   4.075   4.179   9.742
  938TMC3    O113986   3.674   3.940   9.938
  938TMC3    O213987   4.056   4.123   9.643
  939TMC3    C113988   1.588   1.972   8.164
  939TMC3    C213989   1.628   1.973   8.029
  939TMC3    C313990   1.526   1.987   7.937
  939TMC3    C413991   1.460   1.977   8.199
  939TMC3    C513992   1.362   1.988   8.098
  939TMC3    C613993   1.396   1.980   7.968
  939TMC3     C13994   1.684   1.998   8.271
  939TMC3     O13995   1.646   2.031   8.380
  939TMC3     H13996   1.727   1.958   7.987
  939TMC3    H113997   1.419   1.982   8.300
  939TMC3    H213998   1.320   1.965   7.891
  939TMC3    C713999   1.223   1.965   8.148
  939TMC3    C814000   1.551   1.969   7.802
  939TMC3    O114001   1.204   1.934   8.266
  939TMC3    O214002   1.543   1.856   7.750
  940TMC3    C114003   3.902   1.673   8.223
  940TMC3    C214004   3.776   1.629   8.257
  940TMC3    C314005   3.719   1.685   8.366
  940TMC3    C414006   3.979   1.753   8.299
  940TMC3    C514007   3.922   1.791   8.416
  940TMC3    C614008   3.796   1.757   8.451
  940TMC3     C14009   3.920   1.695   8.081
  940TMC3     O14010   3.977   1.800   8.051
  940TMC3     H14011   3.715   1.563   8.196
  940TMC3    H114012   4.083   1.767   8.274
  940TMC3    H214013   3.759   1.783   8.550
  940TMC3    C714014   3.992   1.895   8.497
  940TMC3    C814015   3.586   1.659   8.395
  940TMC3    O114016   3.937   1.943   8.595
  940TMC3    O214017   3.546   1.548   8.372
  941TMC3    C114018   0.299   2.535  14.835
  941TMC3    C214019   0.300   2.406  14.890
  941TMC3    C314020   0.395   2.312  14.855
  941TMC3    C414021   0.408   2.577  14.770
  941TMC3    C514022   0.501   2.483  14.727
  941TMC3    C614023   0.493   2.350  14.764
  941TMC3     C14024   0.170   2.580  14.803
  941TMC3     O14025   0.146   2.697  14.791
  941TMC3     H14026   0.220   2.387  14.961
  941TMC3    H114027   0.410   2.674  14.721
  941TMC3    H214028   0.563   2.282  14.716
  941TMC3    C714029   0.616   2.531  14.646
  941TMC3    C814030   0.333   2.183  14.835
  941TMC3    O114031   0.641   2.650  14.669
  941TMC3    O214032   0.210   2.175  14.841
  942TMC3    C114033   1.432   3.520   8.142
  942TMC3    C214034   1.353   3.458   8.237
  942TMC3    C314035   1.321   3.327   8.228
  942TMC3    C414036   1.496   3.440   8.047
  942TMC3    C514037   1.456   3.309   8.042
  942TMC3    C614038   1.359   3.247   8.123
  942TMC3     C14039   1.515   3.622   8.199
  942TMC3     O14040   1.511   3.645   8.317
  942TMC3     H14041   1.317   3.513   8.323
  942TMC3    H114042   1.585   3.466   7.991
  942TMC3    H214043   1.338   3.141   8.123
  942TMC3    C714044   1.535   3.215   7.962
  942TMC3    C814045   1.246   3.264   8.333
  942TMC3    O114046   1.560   3.242   7.848
  942TMC3    O214047   1.165   3.181   8.298
  943TMC3    C114048   4.751   3.072  13.489
  943TMC3    C214049   0.002   2.935  13.494
  943TMC3    C314050   4.700   2.847  13.438
  943TMC3    C414051   4.636   3.115  13.431
  943TMC3    C514052   4.557   3.021  13.386
  943TMC3    C614053   4.577   2.885  13.395
  943TMC3     C14054   0.070   3.168  13.488
  943TMC3     O14055   0.151   3.157  13.576
  943TMC3     H14056   0.096   2.904  13.539
  943TMC3    H114057   4.613   3.220  13.414
  943TMC3    H214058   4.499   2.830  13.344
  943TMC3    C714059   4.428   3.067  13.339
  943TMC3    C814060   4.720   2.702  13.463
  943TMC3    O114061   4.381   3.015  13.238
  943TMC3    O214062   0.033   2.662  13.527
  944TMC3    C114063   2.286   4.451  10.274
  944TMC3    C214064   2.401   4.453  10.349
  944TMC3    C314065   2.480   4.340  10.337
  944TMC3    C414066   2.254   4.351  10.189
  944TMC3    C514067   2.345   4.255  10.158
  944TMC3    C614068   2.462   4.243  10.237
  944TMC3     C14069   2.196   4.564  10.293
  944TMC3     O14070   2.113   4.590  10.210
  944TMC3     H14071   2.430   4.531  10.418
  944TMC3    H114072   2.164   4.358  10.129
  944TMC3    H214073   2.530   4.159  10.238
  944TMC3    C714074   2.313   4.140  10.082
  944TMC3    C814075   2.612   4.341  10.402
  944TMC3    O114076   2.194   4.126  10.050
  944TMC3    O214077   2.700   4.296  10.329
    1TMC1    C114078   1.637   4.126  10.836
    1TMC1    C214079   1.715   4.136  10.725
    1TMC1    C314080   1.739   4.014  10.655
    1TMC1    C414081   1.602   4.009  10.892
    1TMC1    C514082   1.650   3.890  10.837
    1TMC1    C614083   1.699   3.890  10.711
    1TMC1     C14084   1.534   4.221  10.847
    1TMC1     O14085   1.424   4.182  10.877
    1TMC1     H14086   1.742   4.233  10.686
    1TMC1    H114087   1.544   4.015  10.983
    1TMC1    H214088   1.739   3.799  10.669
    1TMC1    C714089   1.666   3.781  10.927
    1TMC1    C814090   1.824   3.998  10.536
    1TMC1    O114091   1.613   3.779  11.040
    1TMC1    O214092   1.832   3.897  10.471
    1TMC1    O314093   1.747   3.682  10.876
    1TMC1    H314094   1.808   3.714  10.806
    1TMC1    O514095   1.866   4.120  10.506
    1TMC1    H514096   1.923   4.122  10.426
    2TMC2    C114097   1.696   0.166  10.671
    2TMC2    C214098   1.770   0.250  10.748
    2TMC2    C314099   1.811   0.364  10.682
    2TMC2    C414100   1.654   0.195  10.540
    2TMC2    C514101   1.709   0.302  10.480
    2TMC2    C614102   1.791   0.393  10.549
    2TMC2     C14103   1.648   0.054  10.738
    2TMC2     O14104   1.718   0.010  10.833
    2TMC2     H14105   1.792   0.241  10.854
    2TMC2    H114106   1.596   0.130  10.475
    2TMC2    H214107   1.840   0.475  10.497
    2TMC2    C714108   1.717   0.297  10.339
    2TMC2    C814109   1.896   0.453  10.749
    2TMC2    O114110   1.670   0.198  10.284
    2TMC2    O214111   1.976   0.423  10.831
    2TMC2    O514112   1.867   0.580  10.720
    2TMC2    H514113   1.781   0.587  10.673
    3TMC2    C114114   2.027   0.909  10.183
    3TMC2    C214115   2.144   0.943  10.251
    3TMC2    C314116   2.249   0.862  10.220
    3TMC2    C414117   2.016   0.807  10.101
    3TMC2    C514118   2.118   0.716  10.089
    3TMC2    C614119   2.242   0.751  10.142
    3TMC2     C14120   1.940   1.025  10.142
    3TMC2     O14121   2.000   1.129  10.129
    3TMC2     H14122   2.154   1.026  10.320
    3TMC2    H114123   1.916   0.794  10.060
    3TMC2    H214124   2.318   0.674  10.149
    3TMC2    C714125   2.131   0.640   9.970
    3TMC2    C814126   2.390   0.905  10.255
    3TMC2    O114127   2.238   0.645   9.911
    3TMC2    O214128   2.480   0.831  10.294
    3TMC2    O514129   2.395   1.042  10.259
    3TMC2    H514130   2.310   1.085  10.234
    4MPD1     C14131   0.881   1.603  10.242
    4MPD1    C114132   0.912   1.674  10.123
    4MPD1    C214133   0.811   1.712  10.042
    4MPD1    C314134   0.676   1.699  10.078
    4MPD1    C414135   0.644   1.630  10.195
    4MPD1    C514136   0.746   1.584  10.272
    4MPD1     H14137   0.833   1.761   9.947
    4MPD1    H114138   0.539   1.622  10.219
    4MPD1    H214139   0.959   1.559  10.303
    4MPD1    H314140   0.723   1.530  10.362
    4MPD1     N14141   0.562   1.745  10.003
    4MPD1    H514142   0.469   1.737  10.042
    4MPD1    N114143   1.043   1.678  10.074
    4MPD1    H614144   1.054   1.764  10.020
    4MPD1    H714145   1.116   1.684  10.145
    5MPD2     C14146   0.822   1.078   9.516
    5MPD2    C114147   0.921   1.084   9.610
    5MPD2    C214148   0.965   1.203   9.663
    5MPD2    C314149   0.904   1.323   9.614
    5MPD2    C414150   0.807   1.315   9.518
    5MPD2    C514151   0.759   1.195   9.476
    5MPD2     H14152   1.043   1.216   9.736
    5MPD2    H114153   0.755   1.408   9.496
    5MPD2    H214154   0.785   0.979   9.491
    5MPD2    H314155   0.665   1.185   9.422
    5MPD2     N14156   0.946   1.446   9.674
    5MPD2    H514157   1.037   1.444   9.719
    5MPD2    N114158   0.973   0.961   9.652
    5MPD2    H714159   0.910   0.882   9.652
    6MPD2     C14160   0.427   1.064   9.890
    6MPD2    C114161   0.559   1.114   9.918
    6MPD2    C214162   0.658   1.029   9.965
    6MPD2    C314163   0.630   0.892   9.968
    6MPD2    C414164   0.505   0.839   9.950
    6MPD2    C514165   0.409   0.931   9.914
    6MPD2     H14166   0.755   1.076   9.974
    6MPD2    H114167   0.486   0.734   9.967
    6MPD2    H214168   0.340   1.120   9.858
    6MPD2    H314169   0.307   0.895   9.902
    6MPD2     N14170   0.745   0.808   9.985
    6MPD2    H514171   0.748   0.709   9.961
    6MPD2    N114172   0.583   1.254   9.902
    6MPD2    H714173   0.676   1.285   9.930
    7MPD2     C14174   1.518   1.186   9.920
    7MPD2    C114175   1.490   1.085  10.000
    7MPD2    C214176   1.587   1.024  10.076
    7MPD2    C314177   1.713   1.072  10.076
    7MPD2    C414178   1.738   1.188  10.007
    7MPD2    C514179   1.639   1.247   9.929
    7MPD2     H14180   1.568   0.933  10.132
    7MPD2    H114181   1.837   1.234  10.004
    7MPD2    H214182   1.451   1.213   9.839
    7MPD2    H314183   1.667   1.324   9.857
    7MPD2     N14184   1.806   0.992  10.140
    7MPD2    H514185   1.783   0.900  10.175
    7MPD2    N114186   1.360   1.026   9.985
    7MPD2    H714187   1.304   1.050   9.904
    8MPD2     C14188   1.719   0.348  10.050
    8MPD2    C114189   1.801   0.405  10.143
    8MPD2    C214190   1.893   0.497  10.095
    8MPD2    C314191   1.906   0.526   9.962
    8MPD2    C414192   1.821   0.471   9.869
    8MPD2    C514193   1.730   0.379   9.914
    8MPD2     H14194   1.951   0.551  10.169
    8MPD2    H114195   1.826   0.495   9.763
    8MPD2    H214196   1.632   0.291  10.080
    8MPD2    H314197   1.660   0.340   9.841
    8MPD2     N14198   2.013   0.600   9.908
    8MPD2    H514199   2.019   0.599   9.807
    8MPD2    N114200   1.785   0.401  10.281
    8MPD2    H714201   1.841   0.466  10.335
    9MPD2     C14202   1.336   4.674  10.684
    9MPD2    C114203   1.467   4.685  10.710
    9MPD2    C214204   1.544   4.575  10.751
    9MPD2    C314205   1.486   4.451  10.773
    9MPD2    C414206   1.349   4.442  10.749
    9MPD2    C514207   1.273   4.554  10.704
    9MPD2     H14208   1.652   4.566  10.757
    9MPD2    H114209   1.304   4.345  10.768
    9MPD2    H214210   1.277   4.763  10.664
    9MPD2    H314211   1.165   4.541  10.696
    9MPD2     N14212   1.571   4.349  10.818
    9MPD2    H514213   1.671   4.360  10.809
    9MPD2    N114214   1.518   0.025  10.697
    9MPD2    H714215   1.462   0.099  10.657
   10TMC3    C114216   0.980   0.801   9.994
   10TMC3    C214217   1.087   0.840  10.065
   10TMC3    C314218   1.208   0.858  10.009
   10TMC3    C414219   0.993   0.801   9.861
   10TMC3    C514220   1.112   0.835   9.804
   10TMC3    C614221   1.222   0.849   9.874
   10TMC3     C14222   0.862   0.855  10.040
   10TMC3     O14223   0.869   0.934  10.131
   10TMC3     H14224   1.081   0.850  10.173
   10TMC3    H114225   0.905   0.783   9.801
   10TMC3    H214226   1.320   0.849   9.828
   10TMC3    C714227   1.099   0.943   9.710
   10TMC3    C814228   1.306   0.939  10.076
   10TMC3    O114229   1.189   1.024   9.709
   10TMC3    O214230   1.348   0.910  10.186
   11TMC3    C114231   0.557   1.702   9.778
   11TMC3    C214232   0.678   1.683   9.711
   11TMC3    C314233   0.745   1.566   9.705
   11TMC3    C414234   0.499   1.593   9.833
   11TMC3    C514235   0.569   1.475   9.835
   11TMC3    C614236   0.693   1.464   9.782
   11TMC3     C14237   0.579   1.803   9.878
   11TMC3     O14238   0.663   1.889   9.840
   11TMC3     H14239   0.722   1.765   9.657
   11TMC3    H114240   0.399   1.603   9.874
   11TMC3    H214241   0.751   1.373   9.796
   11TMC3    C714242   0.493   1.354   9.862
   11TMC3    C814243   0.886   1.567   9.673
   11TMC3    O114244   0.371   1.356   9.831
   11TMC3    O214245   0.933   1.684   9.672
    1MPD1     C14246   3.607   1.714  13.093
    1MPD1    C114247   3.634   1.730  13.229
    1MPD1    C214248   3.693   1.613  13.291
    1MPD1    C314249   3.702   1.491  13.227
    1MPD1    C414250   3.661   1.485  13.100
    1MPD1    C514251   3.624   1.594  13.034
    1MPD1     H14252   3.717   1.614  13.397
    1MPD1    H114253   3.662   1.392  13.044
    1MPD1    H214254   3.583   1.799  13.031
    1MPD1    H314255   3.611   1.592  12.926
    1MPD1     N14256   3.768   1.384  13.292
    1MPD1    H514257   3.797   1.396  13.388
    1MPD1    N114258   3.623   1.851  13.295
    1MPD1    H614259   3.542   1.903  13.261
    1MPD1    H714260   3.621   1.838  13.396
    2MPD1     C14261   4.691   1.146  13.421
    2MPD1    C114262   4.649   1.050  13.511
    2MPD1    C214263   4.510   1.031  13.517
    2MPD1    C314264   4.430   1.114  13.437
    2MPD1    C414265   4.477   1.213  13.345
    2MPD1    C514266   4.610   1.214  13.328
    2MPD1     H14267   4.469   0.950  13.577
    2MPD1    H114268   4.419   1.260  13.266
    2MPD1    H214269   0.008   1.171  13.414
    2MPD1    H314270   4.646   1.293  13.262
    2MPD1     N14271   4.290   1.085  13.443
    2MPD1    H514272   4.258   0.996  13.479
    2MPD1    N114273   4.736   0.969  13.579
    2MPD1    H614274   4.706   0.934  13.670
    2MPD1    H714275   0.039   1.014  13.592
    3MPD1     C14276   3.985   0.333  13.535
    3MPD1    C114277   3.862   0.401  13.530
    3MPD1    C214278   3.862   0.539  13.524
    3MPD1    C314279   3.977   0.612  13.514
    3MPD1    C414280   4.100   0.544  13.519
    3MPD1    C514281   4.098   0.407  13.528
    3MPD1     H14282   3.764   0.586  13.521
    3MPD1    H114283   4.195   0.595  13.507
    3MPD1    H214284   3.995   0.225  13.536
    3MPD1    H314285   4.193   0.355  13.519
    3MPD1     N14286   3.979   0.747  13.497
    3MPD1    H514287   4.067   0.797  13.487
    3MPD1    N114288   3.752   0.321  13.539
    3MPD1    H614289   3.672   0.376  13.509
    3MPD1    H714290   3.751   0.226  13.504
    4TMC3    C114291   4.055   1.140  13.457
    4TMC3    C214292   3.964   1.224  13.392
    4TMC3    C314293   3.853   1.174  13.335
    4TMC3    C414294   4.030   1.005  13.479
    4TMC3    C514295   3.905   0.967  13.429
    4TMC3    C614296   3.822   1.045  13.355
    4TMC3     C14297   4.196   1.176  13.415
    4TMC3     O14298   4.207   1.283  13.361
    4TMC3     H14299   3.988   1.325  13.361
    4TMC3    H114300   4.096   0.946  13.541
    4TMC3    H214301   3.727   1.004  13.323
    4TMC3    C714302   3.866   0.830  13.470
    4TMC3    C814303   3.763   1.252  13.251
    4TMC3    O114304   3.753   0.795  13.446
    4TMC3    O214305   3.691   1.203  13.167
    1TMC1    C114306   0.500   1.117   8.654
    1TMC1    C214307   0.447   1.187   8.547
    1TMC1    C314308   0.318   1.167   8.501
    1TMC1    C414309   0.426   1.025   8.722
    1TMC1    C514310   0.298   1.008   8.673
    1TMC1    C614311   0.240   1.074   8.565
    1TMC1     C14312   0.642   1.087   8.653
    1TMC1     O14313   0.686   1.033   8.756
    1TMC1     H14314   0.505   1.264   8.498
    1TMC1    H114315   0.455   0.989   8.820
    1TMC1    H214316   0.140   1.049   8.531
    1TMC1    C714317   0.227   0.888   8.709
    1TMC1    C814318   0.263   1.258   8.405
    1TMC1    O114319   0.109   0.868   8.673
    1TMC1    O214320   0.326   1.343   8.342
    1TMC1    O314321   0.320   0.787   8.715
    1TMC1    H314322   0.408   0.813   8.680
    1TMC1    O514323   0.129   1.236   8.397
    1TMC1    H514324   0.091   1.258   8.309
    2MPD1     C14325   1.085   0.979   8.396
    2MPD1    C114326   1.006   1.064   8.316
    2MPD1    C214327   0.880   1.086   8.367
    2MPD1    C314328   0.839   1.059   8.494
    2MPD1    C414329   0.927   0.992   8.577
    2MPD1    C514330   1.049   0.954   8.529
    2MPD1     H14331   0.810   1.137   8.302
    2MPD1    H114332   0.888   0.949   8.669
    2MPD1    H214333   1.180   0.945   8.357
    2MPD1    H314334   1.112   0.898   8.598
    2MPD1     N14335   0.707   1.107   8.533
    2MPD1    H514336   0.654   1.139   8.452
    2MPD1    N114337   1.031   1.073   8.178
    2MPD1    H614338   0.973   1.149   8.144
    2MPD1    H714339   1.130   1.092   8.165
    1TMC1    C114340   3.872   2.333  14.889
    1TMC1    C214341   3.773   2.367  14.802
    1TMC1    C314342   3.803   2.360  14.673
    1TMC1    C414343   3.993   2.281  14.848
    1TMC1    C514344   4.016   2.266  14.715
    1TMC1    C614345   3.922   2.311  14.632
    1TMC1     C14346   3.850   2.347  15.030
    1TMC1     O14347   3.944   2.343  15.106
    1TMC1     H14348   3.671   2.388  14.830
    1TMC1    H114349   4.075   2.268  14.918
    1TMC1    H214350   3.935   2.302  14.525
    1TMC1    C714351   4.154   2.268  14.685
    1TMC1    C814352   3.688   2.353  14.587
    1TMC1    O114353   4.222   2.186  14.742
    1TMC1    O214354   3.579   2.404  14.607
    1TMC1    O314355   4.169   2.306  14.555
    1TMC1    H314356   4.106   2.381  14.551
    1TMC1    O514357   3.719   2.252  14.501
    1TMC1    H514358   3.651   2.249  14.430
    2MPD1     C14359   3.527   2.398  15.418
    2MPD1    C114360   3.460   2.327  15.320
    2MPD1    C214361   3.526   2.312  15.196
    2MPD1    C314362   3.650   2.357  15.180
    2MPD1    C414363   3.723   2.424  15.278
    2MPD1    C514364   3.656   2.441  15.394
    2MPD1     H14365   3.478   2.270  15.108
    2MPD1    H114366   3.813   2.482  15.262
    2MPD1    H214367   3.469   2.424  15.506
    2MPD1    H314368   3.707   2.512  15.458
    2MPD1     N14369   3.715   2.332  15.055
    2MPD1    H514370   3.657   2.287  14.986
    2MPD1    N114371   3.318   2.309  15.323
    2MPD1    H614372   3.288   2.244  15.251
    2MPD1    H714373   3.292   2.281  15.418
    1MPD1     C14374   1.503   1.101   9.606
    1MPD1    C114375   1.452   1.206   9.541
    1MPD1    C214376   1.540   1.299   9.482
    1MPD1    C314377   1.675   1.291   9.512
    1MPD1    C414378   1.723   1.175   9.569
    1MPD1    C514379   1.638   1.080   9.609
    1MPD1     H14380   1.500   1.384   9.428
    1MPD1    H114381   1.830   1.162   9.567
    1MPD1    H214382   1.448   1.017   9.646
    1MPD1    H314383   1.683   0.986   9.636
    1MPD1     N14384   1.765   1.394   9.465
    1MPD1    H514385   1.727   1.477   9.421
    1MPD1    N114386   1.312   1.215   9.519
    1MPD1    H614387   1.273   1.309   9.518
    1MPD1    H714388   1.254   1.161   9.583
    2MPD1     C14389   1.654   1.747   8.845
    2MPD1    C114390   1.622   1.800   8.718
    2MPD1    C214391   1.682   1.744   8.605
    2MPD1    C314392   1.778   1.636   8.625
    2MPD1    C414393   1.806   1.599   8.753
    2MPD1    C514394   1.747   1.649   8.861
    2MPD1     H14395   1.665   1.787   8.507
    2MPD1    H114396   1.887   1.528   8.757
    2MPD1    H214397   1.601   1.789   8.930
    2MPD1    H314398   1.775   1.625   8.963
    2MPD1     N14399   1.854   1.573   8.524
    2MPD1    H514400   1.939   1.521   8.549
    2MPD1    N114401   1.545   1.912   8.698
    2MPD1    H614402   1.470   1.915   8.766
    2MPD1    H714403   1.495   1.921   8.611
    3MPD1     C14404   2.187   2.097   7.768
    3MPD1    C114405   2.263   2.063   7.875
    3MPD1    C214406   2.239   1.943   7.935
    3MPD1    C314407   2.123   1.869   7.902
    3MPD1    C414408   2.041   1.908   7.801
    3MPD1    C514409   2.071   2.028   7.739
    3MPD1     H14410   2.315   1.910   8.004
    3MPD1    H114411   1.947   1.858   7.778
    3MPD1    H214412   2.216   2.180   7.706
    3MPD1    H314413   1.998   2.065   7.668
    3MPD1     N14414   2.107   1.742   7.962
    3MPD1    H514415   2.184   1.709   8.018
    3MPD1    N114416   2.379   2.142   7.909
    3MPD1    H614417   2.355   2.241   7.919
    3MPD1    H714418   2.410   2.118   8.003
    4MPD2     C14419   2.171   2.003   9.181
    4MPD2    C114420   2.203   1.880   9.123
    4MPD2    C214421   2.324   1.865   9.053
    4MPD2    C314422   2.396   1.975   9.021
    4MPD2    C414423   2.371   2.092   9.085
    4MPD2    C514424   2.264   2.099   9.172
    4MPD2     H14425   2.339   1.768   9.007
    4MPD2    H114426   2.428   2.183   9.071
    4MPD2    H214427   2.084   2.015   9.245
    4MPD2    H314428   2.246   2.192   9.224
    4MPD2     N14429   2.499   1.972   8.921
    4MPD2    H514430   2.572   2.042   8.926
    4MPD2    N114431   2.115   1.764   9.128
    4MPD2    H714432   2.159   1.685   9.083
    5MPD2     C14433   2.739   1.519   9.288
    5MPD2    C114434   2.678   1.524   9.163
    5MPD2    C214435   2.541   1.484   9.155
    5MPD2    C314436   2.476   1.437   9.263
    5MPD2    C414437   2.543   1.432   9.384
    5MPD2    C514438   2.667   1.477   9.397
    5MPD2     H14439   2.501   1.458   9.058
    5MPD2    H114440   2.494   1.412   9.478
    5MPD2    H214441   2.841   1.553   9.296
    5MPD2    H314442   2.710   1.451   9.494
    5MPD2     N14443   2.335   1.408   9.274
    5MPD2    H514444   2.300   1.366   9.359
    5MPD2    N114445   2.741   1.594   9.058
    5MPD2    H714446   2.811   1.662   9.086
    6MPD2     C14447   2.572   1.251   8.598
    6MPD2    C114448   2.560   1.374   8.536
    6MPD2    C214449   2.468   1.390   8.433
    6MPD2    C314450   2.370   1.300   8.427
    6MPD2    C414451   2.365   1.180   8.501
    6MPD2    C514452   2.475   1.160   8.582
    6MPD2     H14453   2.460   1.490   8.391
    6MPD2    H114454   2.279   1.116   8.484
    6MPD2    H214455   2.642   1.235   8.680
    6MPD2    H314456   2.461   1.077   8.651
    6MPD2     N14457   2.246   1.318   8.352
    6MPD2    H514458   2.170   1.256   8.378
    6MPD2    N114459   2.638   1.482   8.580
    6MPD2    H714460   2.685   1.468   8.669
    7TMC3    C114461   1.942   1.610   9.190
    7TMC3    C214462   2.027   1.527   9.120
    7TMC3    C314463   2.110   1.445   9.194
    7TMC3    C414464   1.894   1.573   9.310
    7TMC3    C514465   1.962   1.481   9.383
    7TMC3    C614466   2.071   1.416   9.324
    7TMC3     C14467   1.996   1.746   9.195
    7TMC3     O14468   1.925   1.833   9.247
    7TMC3     H14469   2.053   1.560   9.020
    7TMC3    H114470   1.837   1.647   9.364
    7TMC3    H214471   2.121   1.334   9.375
    7TMC3    C714472   1.901   1.402   9.489
    7TMC3    C814473   2.252   1.460   9.174
    7TMC3    O114474   1.980   1.331   9.549
    7TMC3    O214475   2.277   1.522   9.071
    8TMC3    C114476   1.896   1.525   8.295
    8TMC3    C214477   1.874   1.574   8.166
    8TMC3    C314478   1.977   1.573   8.076
    8TMC3    C414479   2.011   1.453   8.322
    8TMC3    C514480   2.101   1.447   8.224
    8TMC3    C614481   2.094   1.506   8.104
    8TMC3     C14482   1.809   1.565   8.401
    8TMC3     O14483   1.694   1.584   8.363
    8TMC3     H14484   1.796   1.649   8.161
    8TMC3    H114485   2.036   1.420   8.422
    8TMC3    H214486   2.176   1.508   8.033
    8TMC3    C714487   2.234   1.422   8.269
    8TMC3    C814488   1.977   1.691   7.986
    8TMC3    O114489   2.324   1.462   8.195
    8TMC3    O214490   1.868   1.743   7.964
    9TMC3    C114491   2.778   1.676   8.835
    9TMC3    C214492   2.787   1.632   8.711
    9TMC3    C314493   2.718   1.698   8.612
    9TMC3    C414494   2.719   1.799   8.865
    9TMC3    C514495   2.646   1.858   8.772
    9TMC3    C614496   2.643   1.808   8.644
    9TMC3     C14497   2.728   1.572   8.923
    9TMC3     O14498   2.672   1.479   8.870
    9TMC3     H14499   2.851   1.550   8.681
    9TMC3    H114500   2.673   1.805   8.963
    9TMC3    H214501   2.566   1.842   8.576
    9TMC3    C714502   2.511   1.883   8.818
    9TMC3    C814503   2.653   1.606   8.522
    9TMC3    O114504   2.431   1.798   8.783
    9TMC3    O214505   2.611   1.657   8.418
    1TMC2    C114506   2.326   0.371  12.503
    1TMC2    C214507   2.294   0.502  12.469
    1TMC2    C314508   2.368   0.595  12.529
    1TMC2    C414509   2.434   0.339  12.583
    1TMC2    C514510   2.512   0.445  12.639
    1TMC2    C614511   2.473   0.576  12.614
    1TMC2     C14512   2.291   0.266  12.408
    1TMC2     O14513   2.285   0.152  12.454
    1TMC2     H14514   2.223   0.538  12.395
    1TMC2    H114515   2.462   0.235  12.590
    1TMC2    H214516   2.527   0.657  12.661
    1TMC2    C714517   2.644   0.440  12.596
    1TMC2    C814518   2.380   0.728  12.453
    1TMC2    O114519   2.688   0.545  12.539
    1TMC2    O214520   2.294   0.781  12.379
    1TMC2    O514521   2.513   0.729  12.425
    1TMC2    H514522   2.559   0.657  12.472
    2MPD1     C14523   2.350   0.089  11.927
    2MPD1    C114524   2.347   0.228  11.920
    2MPD1    C214525   2.313   0.290  12.039
    2MPD1    C314526   2.298   0.234  12.163
    2MPD1    C414527   2.337   0.104  12.166
    2MPD1    C514528   2.355   0.030  12.053
    2MPD1     H14529   2.309   0.398  12.031
    2MPD1    H114530   2.357   0.050  12.258
    2MPD1    H214531   2.364   0.025  11.840
    2MPD1    H314532   2.365   4.710  12.055
    2MPD1     N14533   2.288   0.313  12.277
    2MPD1    H514534   2.306   0.413  12.270
    2MPD1    N114535   2.346   0.299  11.802
    2MPD1    H614536   2.406   0.254  11.732
    2MPD1    H714537   2.376   0.396  11.814
    3MPD1     C14538   3.069   0.183  12.478
    3MPD1    C114539   3.030   0.313  12.451
    3MPD1    C214540   2.904   0.359  12.489
    3MPD1    C314541   2.825   0.273  12.576
    3MPD1    C414542   2.871   0.147  12.611
    3MPD1    C514543   2.987   0.100  12.552
    3MPD1     H14544   2.873   0.458  12.458
    3MPD1    H114545   2.824   0.089  12.689
    3MPD1    H214546   3.163   0.143  12.442
    3MPD1    H314547   3.029   0.001  12.568
    3MPD1     N14548   2.706   0.323  12.635
    3MPD1    H514549   2.653   0.264  12.698
    3MPD1    N114550   3.104   0.391  12.363
    3MPD1    H614551   3.080   0.489  12.378
    3MPD1    H714552   3.201   0.364  12.375
    1TMC1    C114553   0.403   4.023   9.949
    1TMC1    C214554   0.326   4.107  10.022
    1TMC1    C314555   0.195   4.068  10.038
    1TMC1    C414556   0.361   3.924   9.876
    1TMC1    C514557   0.225   3.900   9.876
    1TMC1    C614558   0.143   3.973   9.959
    1TMC1     C14559   0.519   4.080   9.903
    1TMC1     O14560   0.524   4.134   9.793
    1TMC1     H14561   0.369   4.190  10.076
    1TMC1    H114562   0.426   3.887   9.797
    1TMC1    H214563   0.036   3.952   9.958
    1TMC1    C714564   0.170   3.776   9.835
    1TMC1    C814565   0.107   4.168  10.084
    1TMC1    O114566   0.049   3.755   9.834
    1TMC1    O214567   0.150   4.285  10.095
    1TMC1    O314568   0.263   3.685   9.859
    1TMC1    H314569   0.352   3.725   9.873
    1TMC1    O514570   4.782   4.107  10.123
    1TMC1    H514571   4.780   4.009  10.128
    2TMC1    C114572   1.126   4.193  10.443
    2TMC1    C214573   1.227   4.113  10.484
    2TMC1    C314574   1.218   4.082  10.621
    2TMC1    C414575   1.039   4.255  10.521
    2TMC1    C514576   1.048   4.233  10.656
    2TMC1    C614577   1.127   4.135  10.707
    2TMC1     C14578   1.105   4.189  10.305
    2TMC1     O14579   1.199   4.185  10.229
    2TMC1     H14580   1.288   4.060  10.412
    2TMC1    H114581   0.973   4.334  10.484
    2TMC1    H214582   1.138   4.104  10.811
    2TMC1    C714583   0.956   4.309  10.743
    2TMC1    C814584   1.289   3.967  10.676
    2TMC1    O114585   0.937   4.424  10.708
    2TMC1    O214586   1.231   3.887  10.752
    2TMC1    O314587   0.964   4.263  10.867
    2TMC1    H314588   0.940   4.168  10.861
    2TMC1    O514589   1.400   3.958  10.605
    2TMC1    H514590   1.417   4.046  10.565
    3MPD2     C14591   0.784   4.222   9.905
    3MPD2    C114592   0.720   4.161  10.016
    3MPD2    C214593   0.787   4.153  10.138
    3MPD2    C314594   0.916   4.191  10.153
    3MPD2    C414595   0.975   4.273  10.056
    3MPD2    C514596   0.911   4.271   9.929
    3MPD2     H14597   0.739   4.112  10.226
    3MPD2    H114598   1.066   4.329  10.071
    3MPD2    H214599   0.738   4.221   9.807
    3MPD2    H314600   0.963   4.330   9.854
    3MPD2     N14601   0.971   4.185  10.281
    3MPD2    H514602   0.908   4.161  10.356
    3MPD2    N114603   0.595   4.100  10.013
    3MPD2    H714604   0.552   4.043  10.085
    1TMC1    C114605   4.619   0.694  10.767
    1TMC1    C214606   4.585   0.759  10.883
    1TMC1    C314607   4.670   0.745  10.984
    1TMC1    C414608   4.736   0.624  10.757
    1TMC1    C514609   0.032   0.614  10.874
    1TMC1    C614610   4.781   0.675  10.987
    1TMC1     C14611   4.549   0.706  10.641
    1TMC1     O14612   4.611   0.760  10.552
    1TMC1     H14613   4.499   0.824  10.892
    1TMC1    H114614   4.764   0.592  10.657
    1TMC1    H214615   0.046   0.663  11.081
    1TMC1    C714616   0.171   0.578  10.850
    1TMC1    C814617   4.611   0.806  11.102
    1TMC1    O114618   0.216   0.620  10.747
    1TMC1    O214619   4.492   0.810  11.116
    1TMC1    O314620   0.247   0.557  10.961
    1TMC1    H314621   0.194   0.516  11.032
    1TMC1    O514622   4.701   0.877  11.174
    1TMC1    H514623   0.006   0.874  11.142
    2TMC2    C114624   4.457   0.159  10.863
    2TMC2    C214625   4.470   0.091  10.976
    2TMC2    C314626   4.496   0.162  11.088
    2TMC2    C414627   4.475   0.293  10.859
    2TMC2    C514628   4.485   0.365  10.973
    2TMC2    C614629   4.497   0.299  11.088
    2TMC2     C14630   4.343   0.131  10.786
    2TMC2     O14631   4.319   0.205  10.688
    2TMC2     H14632   4.457   4.772  10.989
    2TMC2    H114633   4.473   0.342  10.763
    2TMC2    H214634   4.525   0.351  11.179
    2TMC2    C714635   4.384   0.478  10.974
    2TMC2    C814636   4.543   0.096  11.213
    2TMC2    O114637   4.327   0.503  10.865
    2TMC2    O214638   4.537   0.144  11.327
    2TMC2    O514639   4.624   4.783  11.173
    2TMC2    H514640   4.634   4.771  11.076
    3MPD2     C14641   4.329   0.730  10.431
    3MPD2    C114642   4.313   0.701  10.567
    3MPD2    C214643   4.187   0.673  10.610
    3MPD2    C314644   4.080   0.677  10.522
    3MPD2    C414645   4.097   0.694  10.385
    3MPD2    C514646   4.222   0.734  10.342
    3MPD2     H14647   4.178   0.657  10.716
    3MPD2    H114648   4.009   0.687  10.324
    3MPD2    H214649   4.429   0.731  10.390
    3MPD2    H314650   4.241   0.742  10.236
    3MPD2     N14651   3.960   0.640  10.586
    3MPD2    H514652   3.967   0.619  10.685
    3MPD2    N114653   4.415   0.681  10.661
    3MPD2    H714654   4.391   0.637  10.749
    4MPD2     C14655   4.016   0.744  11.222
    4MPD2    C114656   4.009   0.665  11.105
    4MPD2    C214657   4.127   0.607  11.057
    4MPD2    C314658   4.240   0.610  11.134
    4MPD2    C414659   4.240   0.682  11.252
    4MPD2    C514660   4.124   0.746  11.298
    4MPD2     H14661   4.130   0.540  10.972
    4MPD2    H114662   4.324   0.687  11.321
    4MPD2    H214663   3.932   0.807  11.250
    4MPD2    H314664   4.129   0.803  11.389
    4MPD2     N14665   4.358   0.536  11.097
    4MPD2    H514666   4.426   0.524  11.172
    4MPD2    N114667   3.886   0.641  11.040
    4MPD2    H714668   3.804   0.683  11.084
    5MPD2     C14669   4.055   4.711  10.835
    5MPD2    C114670   4.119   0.037  10.805
    5MPD2    C214671   4.050   0.149  10.759
    5MPD2    C314672   3.915   0.140  10.739
    5MPD2    C414673   3.853   0.013  10.757
    5MPD2    C514674   3.924   4.697  10.806
    5MPD2     H14675   4.100   0.243  10.741
    5MPD2    H114676   3.747   4.785  10.741
    5MPD2    H214677   4.111   4.631  10.881
    5MPD2    H314678   3.877   4.600  10.818
    5MPD2     N14679   3.851   0.268  10.729
    5MPD2    H514680   3.898   0.355  10.750
    5MPD2    N114681   4.252   0.042  10.837
    5MPD2    H714682   4.286   4.758  10.901
    6TMC3    C114683   3.748   0.581  10.867
    6TMC3    C214684   3.696   0.449  10.849
    6TMC3    C314685   3.676   0.406  10.723
    6TMC3    C414686   3.777   0.658  10.763
    6TMC3    C514687   3.737   0.615  10.636
    6TMC3    C614688   3.686   0.491  10.619
    6TMC3     C14689   3.874   0.574  10.926
    6TMC3     O14690   3.949   0.524  10.845
    6TMC3     H14691   3.708   0.371  10.923
    6TMC3    H114692   3.844   0.741  10.781
    6TMC3    H214693   3.689   0.448  10.520
    6TMC3    C714694   3.836   0.643  10.531
    6TMC3    C814695   3.719   0.273  10.696
    6TMC3    O114696   3.802   0.644  10.410
    6TMC3    O214697   3.641   0.196  10.633
  958TMC0    C114698   2.936   1.754  15.325
  958TMC0    C214699   2.811   1.727  15.372
  958TMC0    C314700   2.810   1.634  15.478
  958TMC0    C414701   3.054   1.712  15.379
  958TMC0    C514702   3.048   1.638  15.495
  958TMC0    C614703   2.926   1.592  15.546
  958TMC0     C14704   2.953   1.879  15.255
  958TMC0     O14705   3.054   1.941  15.269
  958TMC0     H14706   2.724   1.772  15.326
  958TMC0    H114707   3.144   1.733  15.321
  958TMC0    H214708   2.919   1.510  15.616
  958TMC0    C714709   3.171   1.579  15.533
  958TMC0    C814710   2.683   1.613  15.544
  958TMC0    O114711   3.190   1.467  15.581
  958TMC0    O214712   2.641   1.507  15.582
  958TMC0    O314713   3.253   1.690  15.557
  958TMC0    H314714   3.208   1.776  15.544
  958TMC0    O414715   2.896   1.862  15.133
  958TMC0    H414716   2.817   1.803  15.129
  958TMC0    O514717   2.641   1.729  15.603
  958TMC0    H514718   2.694   1.806  15.575
  959TMC0    C114719   3.490   0.816   6.405
  959TMC0    C214720   3.563   0.821   6.291
  959TMC0    C314721   3.497   0.879   6.180
  959TMC0    C414722   3.357   0.860   6.415
  959TMC0    C514723   3.297   0.908   6.296
  959TMC0    C614724   3.365   0.932   6.183
  959TMC0     C14725   3.579   0.814   6.523
  959TMC0     O14726   3.700   0.807   6.508
  959TMC0     H14727   3.666   0.790   6.284
  959TMC0    H114728   3.312   0.874   6.512
  959TMC0    H214729   3.319   0.990   6.105
  959TMC0    C714730   3.166   0.969   6.304
  959TMC0    C814731   3.576   0.896   6.059
  959TMC0    O114732   3.081   0.965   6.218
  959TMC0    O214733   3.690   0.935   6.076
  959TMC0    O314734   3.166   1.046   6.416
  959TMC0    H314735   3.257   1.057   6.451
  959TMC0    O414736   3.525   0.740   6.623
  959TMC0    H414737   3.428   0.741   6.643
  959TMC0    O514738   3.500   0.922   5.951
  959TMC0    H514739   3.415   0.872   5.952
  960TMC0    C114740   3.611   4.670   9.132
  960TMC0    C214741   3.633   4.700   9.003
  960TMC0    C314742   3.537   4.691   8.907
  960TMC0    C414743   3.488   4.642   9.177
  960TMC0    C514744   3.389   4.643   9.079
  960TMC0    C614745   3.415   4.658   8.944
  960TMC0     C14746   3.728   4.642   9.210
  960TMC0     O14747   3.830   4.664   9.158
  960TMC0     H14748   3.729   4.745   8.978
  960TMC0    H114749   3.462   4.644   9.282
  960TMC0    H214750   3.332   4.659   8.875
  960TMC0    C714751   3.264   4.593   9.119
  960TMC0    C814752   3.550   4.758   8.777
  960TMC0    O114753   3.241   4.477   9.109
  960TMC0    O214754   3.452   0.004   8.716
  960TMC0    O314755   3.211   4.676   9.209
  960TMC0    H314756   3.253   4.765   9.212
  960TMC0    O414757   3.696   4.540   9.288
  960TMC0    H414758   3.600   4.518   9.285
  960TMC0    O514759   3.669   0.023   8.779
  960TMC0    H514760   3.738   4.742   8.789
  961SOL     OW14761   0.839   1.477   3.702
  961SOL    HW114762   0.927   1.495   3.669
  961SOL    HW214763   0.834   1.526   3.784
  962SOL     OW14764   4.145   2.608  20.452
  962SOL    HW114765   4.222   2.551  20.453
  962SOL    HW214766   4.103   2.590  20.368
  963SOL     OW14767   2.678   2.223   4.323
  963SOL    HW114768   2.747   2.157   4.326
  963SOL    HW214769   2.698   2.282   4.395
  964SOL     OW14770   3.055   3.936   4.411
  964SOL    HW114771   3.059   4.029   4.389
  964SOL    HW214772   3.136   3.920   4.459
  965SOL     OW14773   1.722   3.148  17.312
  965SOL    HW114774   1.742   3.174  17.222
  965SOL    HW214775   1.630   3.172  17.323
  966SOL     OW14776   0.395   1.386  15.261
  966SOL    HW114777   0.392   1.441  15.339
  966SOL    HW214778   0.325   1.321  15.274
  967SOL     OW14779   1.103   0.308   3.095
  967SOL    HW114780   1.101   0.376   3.027
  967SOL    HW214781   1.100   0.225   3.046
  968SOL     OW14782   2.669   3.866  12.654
  968SOL    HW114783   2.761   3.875  12.630
  968SOL    HW214784   2.651   3.943  12.709
  969SOL     OW14785   2.295   3.778   6.487
  969SOL    HW114786   2.327   3.688   6.494
  969SOL    HW214787   2.374   3.832   6.492
  970SOL     OW14788   1.487   1.222  13.645
  970SOL    HW114789   1.440   1.174  13.577
  970SOL    HW214790   1.467   1.176  13.726
  971SOL     OW14791   2.913   2.047  19.984
  971SOL    HW114792   2.901   2.093  20.068
  971SOL    HW214793   2.878   1.959  19.999
  972SOL     OW14794   3.105   2.535   7.124
  972SOL    HW114795   3.198   2.550   7.104
  972SOL    HW214796   3.084   2.454   7.078
  973SOL     OW14797   4.474   2.457   2.403
  973SOL    HW114798   4.532   2.489   2.334
  973SOL    HW214799   4.500   2.366   2.416
  974SOL     OW14800   0.998   4.545   6.511
  974SOL    HW114801   1.041   4.459   6.504
  974SOL    HW214802   1.065   4.608   6.485
  975SOL     OW14803   2.055   3.792   4.448
  975SOL    HW114804   2.048   3.842   4.529
  975SOL    HW214805   2.128   3.832   4.402
  976SOL     OW14806   1.116   1.065   3.787
  976SOL    HW114807   1.121   1.143   3.843
  976SOL    HW214808   1.022   1.050   3.776
  977SOL     OW14809   2.554   0.681   3.359
  977SOL    HW114810   2.510   0.621   3.420
  977SOL    HW214811   2.571   0.629   3.281
  978SOL     OW14812   1.800   3.929  15.698
  978SOL    HW114813   1.765   3.990  15.633
  978SOL    HW214814   1.876   3.973  15.734
  979SOL     OW14815   2.944   4.637   2.413
  979SOL    HW114816   2.891   4.635   2.493
  979SOL    HW214817   2.901   4.703   2.358
  980SOL     OW14818   4.646   0.088  15.843
  980SOL    HW114819   4.622   0.137  15.764
  980SOL    HW214820   4.653   4.785  15.813
  981SOL     OW14821   3.890   3.533  17.104
  981SOL    HW114822   3.936   3.560  17.183
  981SOL    HW214823   3.824   3.600  17.090
  982SOL     OW14824   3.413   4.034  18.534
  982SOL    HW114825   3.398   3.956  18.482
  982SOL    HW214826   3.489   4.076  18.493
  983SOL     OW14827   2.057   1.860  21.006
  983SOL    HW114828   1.962   1.851  21.006
  983SOL    HW214829   2.087   1.807  20.933
  984SOL     OW14830   0.656   0.250  20.128
  984SOL    HW114831   0.698   0.319  20.181
  984SOL    HW214832   0.682   0.168  20.170
  985SOL     OW14833   2.675   1.913   2.091
  985SOL    HW114834   2.593   1.895   2.045
  985SOL    HW214835   2.651   1.916   2.183
  986SOL     OW14836   0.782   4.335  20.838
  986SOL    HW114837   0.727   4.389  20.781
  986SOL    HW214838   0.762   4.245  20.813
  987SOL     OW14839   3.084   3.619  17.678
  987SOL    HW114840   3.040   3.578  17.604
  987SOL    HW214841   3.112   3.704  17.646
  988SOL     OW14842   1.845   3.160  17.563
  988SOL    HW114843   1.851   3.162  17.468
  988SOL    HW214844   1.931   3.186  17.594
  989SOL     OW14845   4.537   3.006  15.288
  989SOL    HW114846   4.497   2.923  15.315
  989SOL    HW214847   4.560   3.049  15.371
  990SOL     OW14848   4.615   4.176  20.244
  990SOL    HW114849   4.591   4.084  20.247
  990SOL    HW214850   4.538   4.221  20.209
  991SOL     OW14851   3.460   1.095   3.008
  991SOL    HW114852   3.410   1.039   3.066
  991SOL    HW214853   3.452   1.183   3.047
  992SOL     OW14854   4.765   3.152  19.093
  992SOL    HW114855   0.001   3.092  19.164
  992SOL    HW214856   4.767   3.239  19.134
  993SOL     OW14857   0.880   3.284  21.178
  993SOL    HW114858   0.898   3.218  21.112
  993SOL    HW214859   0.926   3.362  21.148
  994SOL     OW14860   1.282   2.402  20.287
  994SOL    HW114861   1.266   2.468  20.355
  994SOL    HW214862   1.196   2.389  20.247
  995SOL     OW14863   2.240   4.268   2.050
  995SOL    HW114864   2.324   4.250   2.008
  995SOL    HW214865   2.254   4.242   2.141
  996SOL     OW14866   2.013   1.553  15.844
  996SOL    HW114867   2.066   1.611  15.789
  996SOL    HW214868   2.074   1.485  15.873
  997SOL     OW14869   2.198   4.653  19.242
  997SOL    HW114870   2.108   4.667  19.271
  997SOL    HW214871   2.196   4.568  19.198
  998SOL     OW14872   2.387   1.735  19.118
  998SOL    HW114873   2.361   1.794  19.189
  998SOL    HW214874   2.452   1.677  19.158
  999SOL     OW14875   1.778   3.015  15.609
  999SOL    HW114876   1.692   3.049  15.633
  999SOL    HW214877   1.820   2.994  15.693
 1000SOL     OW14878   0.465   4.462  19.288
 1000SOL    HW114879   0.533   4.446  19.223
 1000SOL    HW214880   0.385   4.428  19.247
 1001SOL     OW14881   4.054   2.059  15.720
 1001SOL    HW114882   4.104   2.024  15.647
 1001SOL    HW214883   4.033   1.983  15.774
 1002SOL     OW14884   3.785   1.724  16.555
 1002SOL    HW114885   3.759   1.666  16.627
 1002SOL    HW214886   3.830   1.797  16.598
 1003SOL     OW14887   1.791   4.567  17.625
 1003SOL    HW114888   1.790   4.616  17.542
 1003SOL    HW214889   1.797   4.635  17.692
 1004SOL     OW14890   4.478   0.425  19.096
 1004SOL    HW114891   4.415   0.465  19.036
 1004SOL    HW214892   4.562   0.462  19.070
 1005SOL     OW14893   0.333   0.336   3.367
 1005SOL    HW114894   0.265   0.292   3.418
 1005SOL    HW214895   0.340   0.423   3.407
 1006SOL     OW14896   3.320   1.040  20.530
 1006SOL    HW114897   3.239   1.081  20.501
 1006SOL    HW214898   3.335   1.074  20.618
 1007SOL     OW14899   0.546   2.246  19.465
 1007SOL    HW114900   0.490   2.310  19.419
 1007SOL    HW214901   0.635   2.277  19.449
 1008SOL     OW14902   3.190   2.297   3.329
 1008SOL    HW114903   3.117   2.292   3.268
 1008SOL    HW214904   3.216   2.389   3.329
 1009SOL     OW14905   2.680   3.061  20.449
 1009SOL    HW114906   2.707   3.021  20.531
 1009SOL    HW214907   2.618   2.998  20.411
 1010SOL     OW14908   1.787   2.653   1.117
 1010SOL    HW114909   1.824   2.740   1.104
 1010SOL    HW214910   1.694   2.668   1.133
 1011SOL     OW14911   0.043   1.495   3.161
 1011SOL    HW114912   0.105   1.431   3.196
 1011SOL    HW214913   0.094   1.549   3.101
 1012SOL     OW14914   2.329   3.738   5.824
 1012SOL    HW114915   2.296   3.814   5.871
 1012SOL    HW214916   2.365   3.774   5.742
 1013SOL     OW14917   2.539   0.564   0.601
 1013SOL    HW114918   2.553   0.655   0.627
 1013SOL    HW214919   2.587   0.513   0.666
 1014SOL     OW14920   3.688   1.776   1.664
 1014SOL    HW114921   3.713   1.853   1.613
 1014SOL    HW214922   3.613   1.740   1.616
 1015SOL     OW14923   1.233   4.453   0.648
 1015SOL    HW114924   1.271   4.424   0.731
 1015SOL    HW214925   1.264   4.543   0.637
 1016SOL     OW14926   1.054   0.386   3.954
 1016SOL    HW114927   0.980   0.336   3.988
 1016SOL    HW214928   1.053   0.367   3.860
 1017SOL     OW14929   2.832   3.463  16.024
 1017SOL    HW114930   2.858   3.555  16.020
 1017SOL    HW214931   2.778   3.456  16.102
 1018SOL     OW14932   4.289   2.855  19.141
 1018SOL    HW114933   4.278   2.925  19.076
 1018SOL    HW214934   4.256   2.892  19.222
 1019SOL     OW14935   1.518   4.623  17.844
 1019SOL    HW114936   1.484   4.545  17.887
 1019SOL    HW214937   1.613   4.611  17.844
 1020SOL     OW14938   3.269   0.090   5.847
 1020SOL    HW114939   3.184   0.134   5.841
 1020SOL    HW214940   3.248   4.785   5.861
 1021SOL     OW14941   0.644   2.786  20.847
 1021SOL    HW114942   0.562   2.738  20.836
 1021SOL    HW214943   0.666   2.776  20.940
 1022SOL     OW14944   1.880   3.042   4.337
 1022SOL    HW114945   1.896   3.123   4.289
 1022SOL    HW214946   1.819   2.993   4.282
 1023SOL     OW14947   1.889   1.110  19.086
 1023SOL    HW114948   1.814   1.050  19.083
 1023SOL    HW214949   1.940   1.080  19.161
 1024SOL     OW14950   1.723   0.711  17.355
 1024SOL    HW114951   1.678   0.787  17.318
 1024SOL    HW214952   1.766   0.669  17.280
 1025SOL     OW14953   3.797   0.636  21.227
 1025SOL    HW114954   3.883   0.676  21.235
 1025SOL    HW214955   3.768   0.625   0.070
 1026SOL     OW14956   3.902   4.045  19.607
 1026SOL    HW114957   3.966   4.053  19.537
 1026SOL    HW214958   3.854   3.965  19.587
 1027SOL     OW14959   2.425   2.143   6.302
 1027SOL    HW114960   2.477   2.067   6.331
 1027SOL    HW214961   2.382   2.174   6.382
 1028SOL     OW14962   1.041   3.943   3.651
 1028SOL    HW114963   1.130   3.958   3.685
 1028SOL    HW214964   1.037   3.997   3.572
 1029SOL     OW14965   4.272   4.759   3.664
 1029SOL    HW114966   4.238   4.742   3.751
 1029SOL    HW214967   4.289   0.066   3.662
 1030SOL     OW14968   1.936   3.837  20.149
 1030SOL    HW114969   1.912   3.810  20.060
 1030SOL    HW214970   1.853   3.862  20.190
 1031SOL     OW14971   2.006   3.072  18.504
 1031SOL    HW114972   2.080   3.049  18.560
 1031SOL    HW214973   2.037   3.055  18.415
 1032SOL     OW14974   0.630   4.713  17.131
 1032SOL    HW114975   0.577   0.006  17.132
 1032SOL    HW214976   0.680   4.719  17.050
 1033SOL     OW14977   4.502   1.336   0.247
 1033SOL    HW114978   4.522   1.381   0.329
 1033SOL    HW214979   4.486   1.406   0.184
 1034SOL     OW14980   3.093   0.695   4.092
 1034SOL    HW114981   2.999   0.703   4.107
 1034SOL    HW214982   3.131   0.687   4.179
 1035SOL     OW14983   1.729   4.223   1.982
 1035SOL    HW114984   1.689   4.226   1.895
 1035SOL    HW214985   1.659   4.195   2.040
 1036SOL     OW14986   4.157   1.378   4.519
 1036SOL    HW114987   4.165   1.442   4.590
 1036SOL    HW214988   4.149   1.293   4.564
 1037SOL     OW14989   4.062   4.543   8.396
 1037SOL    HW114990   4.084   4.620   8.344
 1037SOL    HW214991   3.969   4.551   8.415
 1038SOL     OW14992   3.693   0.403  20.880
 1038SOL    HW114993   3.690   0.308  20.885
 1038SOL    HW214994   3.786   0.424  20.873
 1039SOL     OW14995   4.598   3.361  18.572
 1039SOL    HW114996   4.626   3.382  18.483
 1039SOL    HW214997   4.599   3.265  18.576
 1040SOL     OW14998   4.007   1.654  18.499
 1040SOL    HW114999   3.963   1.696  18.574
 1040SOL    HW215000   3.990   1.712  18.425
 1041SOL     OW15001   4.767   1.845   7.416
 1041SOL    HW115002   4.677   1.817   7.432
 1041SOL    HW215003   0.026   1.823   7.496
 1042SOL     OW15004   1.716   4.297  18.335
 1042SOL    HW115005   1.764   4.227  18.379
 1042SOL    HW215006   1.782   4.363  18.315
 1043SOL     OW15007   4.446   2.938  16.722
 1043SOL    HW115008   4.489   3.017  16.753
 1043SOL    HW215009   4.388   2.913  16.794
 1044SOL     OW15010   1.526   2.140  16.521
 1044SOL    HW115011   1.541   2.179  16.435
 1044SOL    HW215012   1.482   2.209  16.571
 1045SOL     OW15013   4.473   2.002  15.981
 1045SOL    HW115014   4.412   2.071  16.008
 1045SOL    HW215015   4.455   1.929  16.040
 1046SOL     OW15016   2.686   4.423   0.678
 1046SOL    HW115017   2.619   4.491   0.692
 1046SOL    HW215018   2.764   4.471   0.651
 1047SOL     OW15019   4.246   4.012  18.957
 1047SOL    HW115020   4.308   3.943  18.980
 1047SOL    HW215021   4.219   3.991  18.868
 1048SOL     OW15022   2.250   0.816  19.654
 1048SOL    HW115023   2.170   0.831  19.705
 1048SOL    HW215024   2.306   0.763  19.711
 1049SOL     OW15025   2.643   3.110  16.221
 1049SOL    HW115026   2.713   3.113  16.156
 1049SOL    HW215027   2.576   3.170  16.188
 1050SOL     OW15028   0.583   2.497   4.386
 1050SOL    HW115029   0.659   2.498   4.328
 1050SOL    HW215030   0.528   2.569   4.355
 1051SOL     OW15031   4.124   1.407   0.634
 1051SOL    HW115032   4.091   1.397   0.545
 1051SOL    HW215033   4.046   1.418   0.688
 1052SOL     OW15034   4.242   3.863  16.466
 1052SOL    HW115035   4.308   3.933  16.467
 1052SOL    HW215036   4.186   3.883  16.391
 1053SOL     OW15037   4.089   4.433  17.682
 1053SOL    HW115038   4.111   4.526  17.680
 1053SOL    HW215039   4.002   4.428  17.644
 1054SOL     OW15040   2.793   3.151   0.787
 1054SOL    HW115041   2.713   3.190   0.750
 1054SOL    HW215042   2.769   3.126   0.876
 1055SOL     OW15043   4.237   0.165  16.219
 1055SOL    HW115044   4.254   0.089  16.165
 1055SOL    HW215045   4.248   0.240  16.160
 1056SOL     OW15046   2.358   1.234   0.576
 1056SOL    HW115047   2.297   1.192   0.637
 1056SOL    HW215048   2.369   1.323   0.611
 1057SOL     OW15049   2.202   0.158   6.198
 1057SOL    HW115050   2.155   0.169   6.115
 1057SOL    HW215051   2.171   0.230   6.253
 1058SOL     OW15052   1.402   2.094   6.935
 1058SOL    HW115053   1.477   2.132   6.889
 1058SOL    HW215054   1.326   2.128   6.888
 1059SOL     OW15055   0.401   0.996  16.396
 1059SOL    HW115056   0.310   0.969  16.383
 1059SOL    HW215057   0.400   1.047  16.477
 1060SOL     OW15058   3.078   3.862  20.858
 1060SOL    HW115059   3.134   3.795  20.898
 1060SOL    HW215060   2.989   3.829  20.871
 1061SOL     OW15061   4.091   3.993  15.767
 1061SOL    HW115062   4.034   3.928  15.808
 1061SOL    HW215063   4.151   3.942  15.713
 1062SOL     OW15064   0.703   3.447   3.559
 1062SOL    HW115065   0.610   3.460   3.580
 1062SOL    HW215066   0.711   3.353   3.545
 1063SOL     OW15067   3.597   3.593  16.278
 1063SOL    HW115068   3.577   3.687  16.278
 1063SOL    HW215069   3.693   3.589  16.282
 1064SOL     OW15070   2.904   2.680   5.983
 1064SOL    HW115071   2.854   2.642   6.055
 1064SOL    HW215072   2.915   2.772   6.007
 1065SOL     OW15073   1.018   3.961  18.873
 1065SOL    HW115074   1.108   3.932  18.883
 1065SOL    HW215075   0.980   3.955  18.961
 1066SOL     OW15076   4.240   4.105   0.759
 1066SOL    HW115077   4.248   4.010   0.764
 1066SOL    HW215078   4.162   4.120   0.706
 1067SOL     OW15079   0.725   1.538  15.603
 1067SOL    HW115080   0.677   1.549  15.685
 1067SOL    HW215081   0.774   1.457  15.615
 1068SOL     OW15082   4.718   2.557  15.478
 1068SOL    HW115083   4.740   2.588  15.566
 1068SOL    HW215084   4.738   2.632  15.421
 1069SOL     OW15085   1.865   2.573   0.860
 1069SOL    HW115086   1.791   2.585   0.920
 1069SOL    HW215087   1.868   2.478   0.845
 1070SOL     OW15088   1.113   1.896  18.697
 1070SOL    HW115089   1.140   1.980  18.659
 1070SOL    HW215090   1.176   1.833  18.662
 1071SOL     OW15091   1.200   2.491  16.938
 1071SOL    HW115092   1.153   2.431  16.880
 1071SOL    HW215093   1.159   2.478  17.024
 1072SOL     OW15094   4.120   3.955   2.308
 1072SOL    HW115095   4.026   3.970   2.322
 1072SOL    HW215096   4.154   4.039   2.278
 1073SOL     OW15097   1.778   4.320   2.691
 1073SOL    HW115098   1.779   4.251   2.625
 1073SOL    HW215099   1.691   4.359   2.683
 1074SOL     OW15100   0.380   1.138   3.711
 1074SOL    HW115101   0.444   1.112   3.645
 1074SOL    HW215102   0.304   1.082   3.695
 1075SOL     OW15103   2.574   2.050  20.686
 1075SOL    HW115104   2.562   2.140  20.719
 1075SOL    HW215105   2.545   1.995  20.758
 1076SOL     OW15106   1.127   1.242  20.569
 1076SOL    HW115107   1.207   1.199  20.539
 1076SOL    HW215108   1.145   1.336  20.559
 1077SOL     OW15109   0.658   4.723   7.853
 1077SOL    HW115110   0.736   4.734   7.909
 1077SOL    HW215111   0.586   4.710   7.915
 1078SOL     OW15112   4.279   4.740   2.530
 1078SOL    HW115113   4.246   4.749   2.619
 1078SOL    HW215114   4.374   4.753   2.538
 1079SOL     OW15115   2.404   0.935  14.583
 1079SOL    HW115116   2.325   0.880  14.577
 1079SOL    HW215117   2.388   1.006  14.520
 1080SOL     OW15118   4.415   4.673  17.231
 1080SOL    HW115119   4.395   4.678  17.137
 1080SOL    HW215120   4.461   4.590  17.242
 1081SOL     OW15121   1.489   2.889   3.059
 1081SOL    HW115122   1.495   2.794   3.053
 1081SOL    HW215123   1.454   2.916   2.974
 1082SOL     OW15124   3.475   3.726  19.165
 1082SOL    HW115125   3.534   3.740  19.090
 1082SOL    HW215126   3.391   3.761  19.137
 1083SOL     OW15127   0.143   2.605   3.092
 1083SOL    HW115128   0.216   2.634   3.147
 1083SOL    HW215129   0.124   2.516   3.122
 1084SOL     OW15130   3.919   4.778   4.423
 1084SOL    HW115131   3.874   4.694   4.417
 1084SOL    HW215132   3.971   4.771   4.503
 1085SOL     OW15133   3.905   3.063  12.306
 1085SOL    HW115134   3.811   3.051  12.295
 1085SOL    HW215135   3.930   3.123  12.236
 1086SOL     OW15136   2.447   4.502   5.197
 1086SOL    HW115137   2.499   4.528   5.122
 1086SOL    HW215138   2.358   4.491   5.163
 1087SOL     OW15139   1.583   0.298  20.747
 1087SOL    HW115140   1.588   0.346  20.830
 1087SOL    HW215141   1.555   0.364  20.683
 1088SOL     OW15142   2.559   1.054  18.330
 1088SOL    HW115143   2.639   1.011  18.300
 1088SOL    HW215144   2.580   1.087  18.417
 1089SOL     OW15145   4.537   2.081   0.777
 1089SOL    HW115146   4.550   2.153   0.839
 1089SOL    HW215147   4.596   2.012   0.809
 1090SOL     OW15148   4.384   0.572  16.024
 1090SOL    HW115149   4.460   0.583  16.081
 1090SOL    HW215150   4.325   0.642  16.050
 1091SOL     OW15151   0.706   4.020  17.922
 1091SOL    HW115152   0.689   3.927  17.938
 1091SOL    HW215153   0.620   4.060  17.919
 1092SOL     OW15154   0.795   1.679   3.040
 1092SOL    HW115155   0.712   1.696   3.084
 1092SOL    HW215156   0.774   1.688   2.947
 1093SOL     OW15157   4.533   4.473  20.225
 1093SOL    HW115158   4.625   4.487  20.203
 1093SOL    HW215159   4.492   4.448  20.143
 1094SOL     OW15160   1.121   3.933   2.356
 1094SOL    HW115161   1.109   4.001   2.290
 1094SOL    HW215162   1.095   3.852   2.313
 1095SOL     OW15163   1.311   4.270  18.129
 1095SOL    HW115164   1.335   4.302  18.042
 1095SOL    HW215165   1.391   4.231  18.163
 1096SOL     OW15166   0.482   1.591   0.525
 1096SOL    HW115167   0.456   1.505   0.494
 1096SOL    HW215168   0.575   1.598   0.504
 1097SOL     OW15169   1.207   0.128   4.477
 1097SOL    HW115170   1.275   0.157   4.538
 1097SOL    HW215171   1.255   0.085   4.407
 1098SOL     OW15172   4.500   3.554   5.441
 1098SOL    HW115173   4.512   3.467   5.479
 1098SOL    HW215174   4.491   3.612   5.517
 1099SOL     OW15175   4.594   3.256   5.088
 1099SOL    HW115176   4.643   3.229   5.010
 1099SOL    HW215177   4.538   3.181   5.108
 1100SOL     OW15178   0.645   3.400  16.906
 1100SOL    HW115179   0.692   3.358  16.978
 1100SOL    HW215180   0.567   3.345  16.894
 1101SOL     OW15181   2.582   2.110   7.022
 1101SOL    HW115182   2.663   2.066   7.046
 1101SOL    HW215183   2.535   2.046   6.969
 1102SOL     OW15184   3.488   3.512  18.334
 1102SOL    HW115185   3.523   3.425  18.311
 1102SOL    HW215186   3.395   3.496  18.350
 1103SOL     OW15187   4.571   4.231   4.940
 1103SOL    HW115188   4.527   4.292   4.998
 1103SOL    HW215189   4.654   4.212   4.983
 1104SOL     OW15190   3.306   2.012   5.337
 1104SOL    HW115191   3.386   1.975   5.375
 1104SOL    HW215192   3.246   1.938   5.332
 1105SOL     OW15193   0.284   0.231  15.130
 1105SOL    HW115194   0.310   0.307  15.183
 1105SOL    HW215195   0.277   0.266  15.041
 1106SOL     OW15196   2.304   3.824  18.439
 1106SOL    HW115197   2.293   3.807  18.345
 1106SOL    HW215198   2.379   3.884  18.443
 1107SOL     OW15199   4.419   4.486   4.712
 1107SOL    HW115200   4.334   4.443   4.728
 1107SOL    HW215201   4.421   4.558   4.775
 1108SOL     OW15202   0.565   3.841   2.320
 1108SOL    HW115203   0.589   3.928   2.287
 1108SOL    HW215204   0.545   3.791   2.241
 1109SOL     OW15205   4.560   0.907  16.403
 1109SOL    HW115206   4.634   0.927  16.461
 1109SOL    HW215207   4.483   0.926  16.456
 1110SOL     OW15208   3.707   0.261  19.707
 1110SOL    HW115209   3.766   0.296  19.640
 1110SOL    HW215210   3.634   0.323  19.710
 1111SOL     OW15211   2.166   1.336  19.967
 1111SOL    HW115212   2.101   1.325  20.037
 1111SOL    HW215213   2.249   1.348  20.014
 1112SOL     OW15214   4.780   0.364  18.060
 1112SOL    HW115215   4.766   0.427  17.989
 1112SOL    HW215216   0.027   0.417  18.132
 1113SOL     OW15217   3.347   4.768  15.630
 1113SOL    HW115218   3.417   0.037  15.663
 1113SOL    HW215219   3.347   4.693  15.690
 1114SOL     OW15220   1.889   3.718  20.943
 1114SOL    HW115221   1.817   3.656  20.954
 1114SOL    HW215222   1.858   3.779  20.876
 1115SOL     OW15223   3.656   0.481   1.497
 1115SOL    HW115224   3.612   0.562   1.521
 1115SOL    HW215225   3.697   0.500   1.413
 1116SOL     OW15226   0.447   1.279   4.922
 1116SOL    HW115227   0.406   1.194   4.940
 1116SOL    HW215228   0.480   1.270   4.833
 1117SOL     OW15229   2.901   0.976  16.201
 1117SOL    HW115230   2.918   0.926  16.121
 1117SOL    HW215231   2.837   1.041  16.175
 1118SOL     OW15232   1.718   0.915  20.656
 1118SOL    HW115233   1.787   0.964  20.700
 1118SOL    HW215234   1.732   0.824  20.683
 1119SOL     OW15235   1.233   4.156   3.079
 1119SOL    HW115236   1.214   4.230   3.137
 1119SOL    HW215237   1.174   4.167   3.005
 1120SOL     OW15238   3.338   3.464   2.799
 1120SOL    HW115239   3.432   3.465   2.783
 1120SOL    HW215240   3.329   3.424   2.886
 1121SOL     OW15241   0.954   2.313   3.723
 1121SOL    HW115242   1.021   2.292   3.658
 1121SOL    HW215243   1.003   2.346   3.798
 1122SOL     OW15244   0.480   1.401   1.394
 1122SOL    HW115245   0.390   1.428   1.379
 1122SOL    HW215246   0.532   1.480   1.378
 1123SOL     OW15247   4.783   2.865  17.969
 1123SOL    HW115248   0.066   2.907  18.019
 1123SOL    HW215249   4.759   2.930  17.903
 1124SOL     OW15250   1.204   2.167   4.958
 1124SOL    HW115251   1.117   2.150   4.922
 1124SOL    HW215252   1.242   2.080   4.971
 1125SOL     OW15253   0.461   1.066   4.105
 1125SOL    HW115254   0.367   1.054   4.092
 1125SOL    HW215255   0.471   1.159   4.123
 1126SOL     OW15256   1.291   1.626   2.042
 1126SOL    HW115257   1.252   1.584   1.966
 1126SOL    HW215258   1.238   1.704   2.056
 1127SOL     OW15259   1.145   3.670  16.613
 1127SOL    HW115260   1.164   3.608  16.684
 1127SOL    HW215261   1.186   3.631  16.535
 1128SOL     OW15262   2.934   3.475  17.456
 1128SOL    HW115263   2.917   3.531  17.380
 1128SOL    HW215264   2.998   3.411  17.425
 1129SOL     OW15265   3.870   1.978   8.899
 1129SOL    HW115266   3.797   1.916   8.905
 1129SOL    HW215267   3.927   1.941   8.832
 1130SOL     OW15268   3.327   0.934   4.040
 1130SOL    HW115269   3.359   0.971   3.958
 1130SOL    HW215270   3.376   0.853   4.052
 1131SOL     OW15271   2.799   4.619   0.471
 1131SOL    HW115272   2.743   4.653   0.402
 1131SOL    HW215273   2.852   4.551   0.428
 1132SOL     OW15274   1.006   1.877   2.844
 1132SOL    HW115275   1.029   1.786   2.827
 1132SOL    HW215276   0.987   1.881   2.937
 1133SOL     OW15277   4.741   0.115   7.512
 1133SOL    HW115278   4.746   0.025   7.543
 1133SOL    HW215279   0.032   0.157   7.547
 1134SOL     OW15280   3.792   4.080  12.508
 1134SOL    HW115281   3.796   3.987  12.528
 1134SOL    HW215282   3.758   4.120  12.588
 1135SOL     OW15283   1.642   3.710   1.299
 1135SOL    HW115284   1.718   3.769   1.303
 1135SOL    HW215285   1.679   3.624   1.319
 1136SOL     OW15286   2.318   1.518   1.522
 1136SOL    HW115287   2.247   1.550   1.466
 1136SOL    HW215288   2.283   1.528   1.611
 1137SOL     OW15289   0.995   2.170   2.188
 1137SOL    HW115290   1.041   2.121   2.256
 1137SOL    HW215291   0.976   2.104   2.121
 1138SOL     OW15292   2.862   1.416  17.727
 1138SOL    HW115293   2.771   1.395  17.705
 1138SOL    HW215294   2.912   1.344  17.690
 1139SOL     OW15295   2.625   3.319   6.228
 1139SOL    HW115296   2.650   3.227   6.239
 1139SOL    HW215297   2.696   3.357   6.177
 1140SOL     OW15298   3.612   1.290   3.560
 1140SOL    HW115299   3.584   1.336   3.639
 1140SOL    HW215300   3.663   1.216   3.592
 1141SOL     OW15301   0.150   1.059   4.976
 1141SOL    HW115302   0.195   1.052   5.060
 1141SOL    HW215303   0.060   1.081   4.999
 1142SOL     OW15304   1.681   2.880  18.914
 1142SOL    HW115305   1.594   2.846  18.936
 1142SOL    HW215306   1.734   2.802  18.896
 1143SOL     OW15307   0.815   2.426   5.763
 1143SOL    HW115308   0.847   2.496   5.706
 1143SOL    HW215309   0.848   2.450   5.850
 1144SOL     OW15310   2.494   4.104   5.738
 1144SOL    HW115311   2.433   4.163   5.781
 1144SOL    HW215312   2.581   4.140   5.758
 1145SOL     OW15313   1.508   0.460  18.272
 1145SOL    HW115314   1.484   0.434  18.360
 1145SOL    HW215315   1.542   0.549  18.281
 1146SOL     OW15316   3.252   2.269  19.279
 1146SOL    HW115317   3.169   2.276  19.232
 1146SOL    HW215318   3.258   2.177  19.304
 1147SOL     OW15319   1.313   2.466   3.509
 1147SOL    HW115320   1.363   2.391   3.542
 1147SOL    HW215321   1.303   2.448   3.415
 1148SOL     OW15322   3.189   0.545  20.848
 1148SOL    HW115323   3.145   0.580  20.926
 1148SOL    HW215324   3.239   0.470  20.881
 1149SOL     OW15325   3.767   2.608   0.534
 1149SOL    HW115326   3.844   2.555   0.550
 1149SOL    HW215327   3.728   2.570   0.455
 1150SOL     OW15328   2.179   0.808   4.249
 1150SOL    HW115329   2.211   0.873   4.311
 1150SOL    HW215330   2.093   0.840   4.223
 1151SOL     OW15331   3.651   3.837  18.991
 1151SOL    HW115332   3.687   3.909  19.042
 1151SOL    HW215333   3.623   3.878  18.909
 1152SOL     OW15334   2.721   1.439  16.859
 1152SOL    HW115335   2.632   1.427  16.826
 1152SOL    HW215336   2.769   1.362  16.828
 1153SOL     OW15337   0.680   0.857  21.014
 1153SOL    HW115338   0.679   0.941  21.060
 1153SOL    HW215339   0.641   0.795  21.075
 1154SOL     OW15340   0.239   4.582   3.674
 1154SOL    HW115341   0.170   4.646   3.689
 1154SOL    HW215342   0.240   4.571   3.579
 1155SOL     OW15343   3.431   1.726   5.154
 1155SOL    HW115344   3.352   1.767   5.120
 1155SOL    HW215345   3.439   1.644   5.106
 1156SOL     OW15346   3.373   4.011   5.948
 1156SOL    HW115347   3.416   4.023   6.033
 1156SOL    HW215348   3.280   4.018   5.966
 1157SOL     OW15349   0.619   4.682  13.527
 1157SOL    HW115350   0.705   4.724  13.531
 1157SOL    HW215351   0.605   4.665  13.434
 1158SOL     OW15352   0.886   3.394  15.249
 1158SOL    HW115353   0.859   3.343  15.173
 1158SOL    HW215354   0.884   3.485  15.220
 1159SOL     OW15355   0.823   1.305  15.665
 1159SOL    HW115356   0.767   1.234  15.637
 1159SOL    HW215357   0.842   1.286  15.757
 1160SOL     OW15358   0.240   2.572  20.346
 1160SOL    HW115359   0.192   2.541  20.269
 1160SOL    HW215360   0.257   2.664  20.327
 1161SOL     OW15361   0.602   0.545   5.425
 1161SOL    HW115362   0.659   0.546   5.502
 1161SOL    HW215363   0.659   0.568   5.352
 1162SOL     OW15364   3.722   3.920   2.655
 1162SOL    HW115365   3.743   4.013   2.649
 1162SOL    HW215366   3.644   3.908   2.601
 1163SOL     OW15367   2.072   2.365  18.654
 1163SOL    HW115368   2.022   2.360  18.572
 1163SOL    HW215369   2.134   2.437  18.639
 1164SOL     OW15370   0.533   0.458  18.289
 1164SOL    HW115371   0.469   0.440  18.220
 1164SOL    HW215372   0.495   0.416  18.367
 1165SOL     OW15373   3.936   2.902   6.912
 1165SOL    HW115374   4.000   2.904   6.841
 1165SOL    HW215375   3.965   2.970   6.973
 1166SOL     OW15376   1.322   4.583  13.340
 1166SOL    HW115377   1.328   4.669  13.381
 1166SOL    HW215378   1.345   4.597  13.249
 1167SOL     OW15379   3.306   1.625  15.874
 1167SOL    HW115380   3.239   1.628  15.806
 1167SOL    HW215381   3.267   1.573  15.945
 1168SOL     OW15382   1.044   4.784   1.091
 1168SOL    HW115383   0.960   0.021   1.053
 1168SOL    HW215384   1.041   0.032   1.180
 1169SOL     OW15385   4.564   1.016  15.321
 1169SOL    HW115386   4.645   0.970  15.303
 1169SOL    HW215387   4.495   0.959  15.287
 1170SOL     OW15388   0.316   4.196   5.458
 1170SOL    HW115389   0.324   4.210   5.552
 1170SOL    HW215390   0.404   4.171   5.430
 1171SOL     OW15391   0.972   3.314  14.266
 1171SOL    HW115392   0.907   3.290  14.200
 1171SOL    HW215393   0.939   3.397  14.302
 1172SOL     OW15394   0.518   2.535   1.991
 1172SOL    HW115395   0.598   2.585   1.974
 1172SOL    HW215396   0.452   2.602   2.010
 1173SOL     OW15397   0.188   4.737   0.382
 1173SOL    HW115398   0.249   4.692   0.323
 1173SOL    HW215399   0.225   0.038   0.390
 1174SOL     OW15400   4.686   3.840   7.992
 1174SOL    HW115401   4.685   3.883   7.907
 1174SOL    HW215402   4.777   3.814   8.005
 1175SOL     OW15403   0.516   3.901  20.817
 1175SOL    HW115404   0.486   3.901  20.908
 1175SOL    HW215405   0.554   3.814  20.805
 1176SOL     OW15406   4.530   0.283  18.589
 1176SOL    HW115407   4.522   0.378  18.584
 1176SOL    HW215408   4.609   0.263  18.538
 1177SOL     OW15409   4.009   1.733   6.304
 1177SOL    HW115410   3.931   1.787   6.288
 1177SOL    HW215411   3.990   1.685   6.384
 1178SOL     OW15412   0.076   1.368  15.547
 1178SOL    HW115413   4.783   1.361  15.496
 1178SOL    HW215414   0.139   1.314  15.500
 1179SOL     OW15415   4.019   2.248  18.270
 1179SOL    HW115416   3.971   2.202  18.201
 1179SOL    HW215417   3.967   2.327  18.286
 1180SOL     OW15418   4.696   3.776   2.087
 1180SOL    HW115419   4.731   3.865   2.084
 1180SOL    HW215420   4.771   3.720   2.107
 1181SOL     OW15421   3.679   4.295  19.928
 1181SOL    HW115422   3.703   4.384  19.954
 1181SOL    HW215423   3.760   4.259  19.891
 1182SOL     OW15424   2.732   3.221   4.767
 1182SOL    HW115425   2.695   3.175   4.842
 1182SOL    HW215426   2.658   3.232   4.707
 1183SOL     OW15427   2.287   2.435  15.345
 1183SOL    HW115428   2.309   2.397  15.430
 1183SOL    HW215429   2.256   2.361  15.293
 1184SOL     OW15430   4.650   1.647  16.762
 1184SOL    HW115431   4.671   1.720  16.703
 1184SOL    HW215432   4.722   1.585  16.750
 1185SOL     OW15433   1.315   4.328  14.188
 1185SOL    HW115434   1.220   4.332  14.187
 1185SOL    HW215435   1.337   4.305  14.279
 1186SOL     OW15436   2.592   3.247  20.271
 1186SOL    HW115437   2.574   3.189  20.197
 1186SOL    HW215438   2.626   3.188  20.339
 1187SOL     OW15439   3.614   0.694  17.602
 1187SOL    HW115440   3.580   0.724  17.517
 1187SOL    HW215441   3.678   0.761  17.627
 1188SOL     OW15442   3.669   2.872   1.568
 1188SOL    HW115443   3.617   2.808   1.520
 1188SOL    HW215444   3.760   2.851   1.545
 1189SOL     OW15445   0.197   1.990  16.883
 1189SOL    HW115446   0.149   2.060  16.839
 1189SOL    HW215447   0.254   2.036  16.945
 1190SOL     OW15448   0.405   0.213  17.660
 1190SOL    HW115449   0.319   0.238  17.694
 1190SOL    HW215450   0.440   0.154  17.726
 1191SOL     OW15451   0.971   3.624  15.544
 1191SOL    HW115452   1.033   3.640  15.473
 1191SOL    HW215453   0.952   3.711  15.580
 1192SOL     OW15454   2.981   4.352   3.326
 1192SOL    HW115455   3.028   4.339   3.409
 1192SOL    HW215456   2.891   4.371   3.354
 1193SOL     OW15457   0.570   4.291   0.938
 1193SOL    HW115458   0.549   4.271   1.029
 1193SOL    HW215459   0.538   4.215   0.889
 1194SOL     OW15460   1.635   2.156   1.150
 1194SOL    HW115461   1.729   2.142   1.145
 1194SOL    HW215462   1.615   2.153   1.244
 1195SOL     OW15463   2.613   4.502   4.606
 1195SOL    HW115464   2.588   4.494   4.514
 1195SOL    HW215465   2.579   4.587   4.633
 1196SOL     OW15466   4.354   2.992  17.149
 1196SOL    HW115467   4.346   3.076  17.105
 1196SOL    HW215468   4.318   2.929  17.087
 1197SOL     OW15469   4.584   0.694  19.231
 1197SOL    HW115470   4.559   0.670  19.320
 1197SOL    HW215471   4.612   0.786  19.237
 1198SOL     OW15472   1.908   2.157  21.245
 1198SOL    HW115473   1.846   2.084   0.001
 1198SOL    HW215474   1.958   2.150   0.078
 1199SOL     OW15475   2.980   3.112   3.503
 1199SOL    HW115476   2.997   3.195   3.548
 1199SOL    HW215477   3.032   3.118   3.422
 1200SOL     OW15478   1.130   1.926  16.285
 1200SOL    HW115479   1.091   1.999  16.333
 1200SOL    HW215480   1.190   1.885  16.346
 1201SOL     OW15481   0.670   1.715  18.136
 1201SOL    HW115482   0.700   1.802  18.161
 1201SOL    HW215483   0.674   1.715  18.040
 1202SOL     OW15484   3.921   3.479  15.156
 1202SOL    HW115485   3.926   3.385  15.175
 1202SOL    HW215486   3.995   3.496  15.098
 1203SOL     OW15487   0.858   0.809  18.420
 1203SOL    HW115488   0.820   0.753  18.488
 1203SOL    HW215489   0.808   0.890  18.425
 1204SOL     OW15490   4.670   0.932   3.349
 1204SOL    HW115491   4.764   0.941   3.335
 1204SOL    HW215492   4.651   0.991   3.422
 1205SOL     OW15493   0.202   1.892  16.028
 1205SOL    HW115494   0.291   1.865  16.007
 1205SOL    HW215495   0.208   1.986  16.041
 1206SOL     OW15496   3.307   2.080   3.442
 1206SOL    HW115497   3.279   2.168   3.416
 1206SOL    HW215498   3.238   2.050   3.501
 1207SOL     OW15499   0.428   0.222   6.187
 1207SOL    HW115500   0.423   0.304   6.138
 1207SOL    HW215501   0.522   0.206   6.198
 1208SOL     OW15502   0.904   4.547  19.053
 1208SOL    HW115503   0.870   4.580  18.969
 1208SOL    HW215504   0.939   4.461  19.032
 1209SOL     OW15505   0.862   1.483  15.260
 1209SOL    HW115506   0.934   1.525  15.306
 1209SOL    HW215507   0.891   1.394  15.244
 1210SOL     OW15508   0.549   2.818  15.370
 1210SOL    HW115509   0.558   2.723  15.372
 1210SOL    HW215510   0.509   2.840  15.455
 1211SOL     OW15511   2.121   3.501   4.705
 1211SOL    HW115512   2.041   3.511   4.757
 1211SOL    HW215513   2.096   3.443   4.633
 1212SOL     OW15514   1.472   2.315  13.439
 1212SOL    HW115515   1.561   2.281  13.447
 1212SOL    HW215516   1.421   2.242  13.404
 1213SOL     OW15517   3.901   0.544  19.180
 1213SOL    HW115518   3.809   0.518  19.178
 1213SOL    HW215519   3.947   0.474  19.135
 1214SOL     OW15520   4.139   0.109  17.733
 1214SOL    HW115521   4.098   0.062  17.661
 1214SOL    HW215522   4.135   0.049  17.807
 1215SOL     OW15523   3.671   2.631   3.179
 1215SOL    HW115524   3.610   2.676   3.237
 1215SOL    HW215525   3.641   2.540   3.179
 1216SOL     OW15526   0.223   1.386   3.730
 1216SOL    HW115527   0.275   1.306   3.738
 1216SOL    HW215528   0.194   1.386   3.639
 1217SOL     OW15529   2.147   0.067   3.242
 1217SOL    HW115530   2.223   0.070   3.184
 1217SOL    HW215531   2.175   0.014   3.316
 1218SOL     OW15532   1.555   0.912  17.910
 1218SOL    HW115533   1.496   0.874  17.845
 1218SOL    HW215534   1.536   0.864  17.991
 1219SOL     OW15535   2.471   1.333   5.131
 1219SOL    HW115536   2.453   1.344   5.225
 1219SOL    HW215537   2.543   1.394   5.113
 1220SOL     OW15538   1.171   1.886   2.126
 1220SOL    HW115539   1.171   1.912   2.034
 1220SOL    HW215540   1.229   1.949   2.168
 1221SOL     OW15541   3.297   1.080  15.472
 1221SOL    HW115542   3.379   1.043  15.440
 1221SOL    HW215543   3.273   1.026  15.547
 1222SOL     OW15544   4.240   1.450   8.782
 1222SOL    HW115545   4.185   1.396   8.839
 1222SOL    HW215546   4.324   1.454   8.827
 1223SOL     OW15547   2.290   1.390   3.407
 1223SOL    HW115548   2.255   1.424   3.325
 1223SOL    HW215549   2.376   1.356   3.383
 1224SOL     OW15550   4.584   4.459   1.213
 1224SOL    HW115551   4.564   4.436   1.304
 1224SOL    HW215552   4.648   4.393   1.186
 1225SOL     OW15553   4.697   0.117   0.867
 1225SOL    HW115554   4.761   0.149   0.930
 1225SOL    HW215555   4.724   0.157   0.784
 1226SOL     OW15556   0.554   1.503   8.803
 1226SOL    HW115557   0.538   1.433   8.866
 1226SOL    HW215558   0.468   1.524   8.766
 1227SOL     OW15559   2.088   2.998   2.631
 1227SOL    HW115560   2.034   2.963   2.702
 1227SOL    HW215561   2.128   3.077   2.669
 1228SOL     OW15562   0.198   2.187  18.447
 1228SOL    HW115563   0.190   2.199  18.541
 1228SOL    HW215564   0.112   2.210  18.412
 1229SOL     OW15565   4.008   4.236  17.305
 1229SOL    HW115566   4.087   4.262  17.354
 1229SOL    HW215567   3.936   4.276  17.353
 1230SOL     OW15568   0.231   0.036   7.349
 1230SOL    HW115569   0.299   4.765   7.383
 1230SOL    HW215570   0.156   4.766   7.332
 1231SOL     OW15571   3.532   4.656  14.131
 1231SOL    HW115572   3.440   4.666  14.109
 1231SOL    HW215573   3.566   4.595  14.066
 1232SOL     OW15574   1.417   2.140   4.746
 1232SOL    HW115575   1.343   2.200   4.750
 1232SOL    HW215576   1.465   2.165   4.667
 1233SOL     OW15577   2.882   2.418   5.423
 1233SOL    HW115578   2.968   2.378   5.409
 1233SOL    HW215579   2.837   2.359   5.483
 1234SOL     OW15580   1.963   2.236  20.992
 1234SOL    HW115581   1.945   2.229  21.086
 1234SOL    HW215582   2.050   2.197  20.981
 1235SOL     OW15583   4.292   2.636  20.059
 1235SOL    HW115584   4.252   2.636  19.972
 1235SOL    HW215585   4.341   2.554  20.064
 1236SOL     OW15586   2.217   2.545   4.717
 1236SOL    HW115587   2.159   2.608   4.758
 1236SOL    HW215588   2.239   2.583   4.632
 1237SOL     OW15589   4.238   0.458   5.101
 1237SOL    HW115590   4.251   0.377   5.151
 1237SOL    HW215591   4.309   0.457   5.036
 1238SOL     OW15592   0.349   2.833  20.304
 1238SOL    HW115593   0.410   2.809  20.373
 1238SOL    HW215594   0.373   2.922  20.280
 1239SOL     OW15595   4.656   0.752  15.773
 1239SOL    HW115596   4.684   0.737  15.683
 1239SOL    HW215597   4.571   0.710  15.780
 1240SOL     OW15598   1.950   3.122   6.105
 1240SOL    HW115599   1.915   3.051   6.051
 1240SOL    HW215600   1.872   3.166   6.140
 1241SOL     OW15601   4.569   0.181   0.437
 1241SOL    HW115602   4.514   0.150   0.364
 1241SOL    HW215603   4.513   0.173   0.514
 1242SOL     OW15604   2.424   3.730  17.366
 1242SOL    HW115605   2.465   3.711  17.451
 1242SOL    HW215606   2.488   3.782  17.319
 1243SOL     OW15607   1.117   3.273   0.072
 1243SOL    HW115608   1.024   3.255   0.061
 1243SOL    HW215609   1.161   3.214   0.011
 1244SOL     OW15610   1.473   4.374  17.034
 1244SOL    HW115611   1.499   4.455  17.077
 1244SOL    HW215612   1.466   4.398  16.941
 1245SOL     OW15613   2.065   2.419   5.973
 1245SOL    HW115614   2.059   2.326   5.952
 1245SOL    HW215615   2.099   2.459   5.892
 1246SOL     OW15616   4.055   0.377   2.821
 1246SOL    HW115617   4.103   0.453   2.853
 1246SOL    HW215618   3.963   0.406   2.819
 1247SOL     OW15619   4.665   2.790   3.676
 1247SOL    HW115620   4.646   2.698   3.695
 1247SOL    HW215621   4.588   2.837   3.705
 1248SOL     OW15622   2.033   1.305  17.179
 1248SOL    HW115623   2.111   1.352  17.151
 1248SOL    HW215624   2.025   1.233  17.116
 1249SOL     OW15625   1.146   1.084   4.324
 1249SOL    HW115626   1.116   0.998   4.351
 1249SOL    HW215627   1.068   1.140   4.330
 1250SOL     OW15628   3.605   0.213   2.264
 1250SOL    HW115629   3.513   0.226   2.243
 1250SOL    HW215630   3.622   0.121   2.245
 1251SOL     OW15631   2.296   1.114  19.482
 1251SOL    HW115632   2.266   1.064  19.557
 1251SOL    HW215633   2.326   1.197  19.519
 1252SOL     OW15634   4.772   1.131   3.904
 1252SOL    HW115635   4.757   1.076   3.981
 1252SOL    HW215636   4.744   1.219   3.930
 1253SOL     OW15637   3.365   2.517   3.486
 1253SOL    HW115638   3.403   2.591   3.437
 1253SOL    HW215639   3.275   2.544   3.504
 1254SOL     OW15640   3.778   2.419  20.854
 1254SOL    HW115641   3.815   2.368  20.783
 1254SOL    HW215642   3.761   2.505  20.816
 1255SOL     OW15643   0.060   4.107   2.337
 1255SOL    HW115644   0.106   4.033   2.296
 1255SOL    HW215645   0.006   4.143   2.267
 1256SOL     OW15646   1.761   2.064   6.118
 1256SOL    HW115647   1.795   2.153   6.134
 1256SOL    HW215648   1.704   2.046   6.192
 1257SOL     OW15649   0.543   3.745   3.826
 1257SOL    HW115650   0.550   3.799   3.905
 1257SOL    HW215651   0.605   3.673   3.841
 1258SOL     OW15652   4.486   2.123  17.253
 1258SOL    HW115653   4.413   2.172  17.215
 1258SOL    HW215654   4.564   2.171  17.225
 1259SOL     OW15655   1.025   2.687   5.620
 1259SOL    HW115656   0.942   2.712   5.578
 1259SOL    HW215657   1.092   2.718   5.559
 1260SOL     OW15658   2.498   0.356  17.968
 1260SOL    HW115659   2.470   0.433  18.018
 1260SOL    HW215660   2.448   0.284  18.005
 1261SOL     OW15661   3.647   1.681  17.612
 1261SOL    HW115662   3.667   1.755  17.669
 1261SOL    HW215663   3.629   1.608  17.672
 1262SOL     OW15664   0.111   0.502  17.552
 1262SOL    HW115665   0.045   0.560  17.515
 1262SOL    HW215666   0.191   0.522  17.503
 1263SOL     OW15667   3.646   0.145   1.186
 1263SOL    HW115668   3.721   0.099   1.224
 1263SOL    HW215669   3.673   0.162   1.096
 1264SOL     OW15670   1.393   3.915  20.232
 1264SOL    HW115671   1.472   3.895  20.182
 1264SOL    HW215672   1.329   3.944  20.167
 1265SOL     OW15673   1.479   0.961  19.193
 1265SOL    HW115674   1.435   0.880  19.219
 1265SOL    HW215675   1.569   0.935  19.173
 1266SOL     OW15676   3.506   2.161  16.288
 1266SOL    HW115677   3.481   2.069  16.276
 1266SOL    HW215678   3.484   2.202  16.205
 1267SOL     OW15679   4.084   3.367   1.419
 1267SOL    HW115680   4.146   3.414   1.474
 1267SOL    HW215681   4.027   3.320   1.480
 1268SOL     OW15682   0.064   1.622   3.860
 1268SOL    HW115683   0.084   1.528   3.853
 1268SOL    HW215684   4.757   1.627   3.846
 1269SOL     OW15685   3.962   2.576  20.245
 1269SOL    HW115686   3.887   2.517  20.251
 1269SOL    HW215687   3.992   2.569  20.155
 1270SOL     OW15688   0.859   3.810   3.215
 1270SOL    HW115689   0.809   3.738   3.254
 1270SOL    HW215690   0.948   3.796   3.248
 1271SOL     OW15691   1.453   0.350   5.069
 1271SOL    HW115692   1.506   0.317   5.142
 1271SOL    HW215693   1.389   0.408   5.111
 1272SOL     OW15694   4.731   2.693   6.324
 1272SOL    HW115695   4.670   2.695   6.250
 1272SOL    HW215696   4.783   2.614   6.310
 1273SOL     OW15697   4.262   2.948  18.237
 1273SOL    HW115698   4.205   2.995  18.299
 1273SOL    HW215699   4.302   3.017  18.185
 1274SOL     OW15700   2.241   4.741   8.312
 1274SOL    HW115701   2.182   4.708   8.381
 1274SOL    HW215702   2.323   4.759   8.358
 1275SOL     OW15703   3.603   3.322   4.479
 1275SOL    HW115704   3.654   3.397   4.510
 1275SOL    HW215705   3.512   3.351   4.485
 1276SOL     OW15706   2.965   1.571   2.561
 1276SOL    HW115707   2.985   1.498   2.620
 1276SOL    HW215708   2.937   1.642   2.619
 1277SOL     OW15709   0.872   0.804  20.428
 1277SOL    HW115710   0.948   0.782  20.482
 1277SOL    HW215711   0.888   0.894  20.399
 1278SOL     OW15712   2.574   0.945   5.114
 1278SOL    HW115713   2.518   0.981   5.183
 1278SOL    HW215714   2.576   1.013   5.047
 1279SOL     OW15715   2.631   1.979  17.857
 1279SOL    HW115716   2.644   1.911  17.790
 1279SOL    HW215717   2.539   2.003  17.848
 1280SOL     OW15718   4.274   2.895   7.592
 1280SOL    HW115719   4.343   2.855   7.645
 1280SOL    HW215720   4.274   2.843   7.511
 1281SOL     OW15721   1.251   1.955  20.825
 1281SOL    HW115722   1.244   1.890  20.896
 1281SOL    HW215723   1.184   2.020  20.845
 1282SOL     OW15724   0.579   1.289   0.951
 1282SOL    HW115725   0.670   1.308   0.974
 1282SOL    HW215726   0.585   1.224   0.881
 1283SOL     OW15727   3.232   0.231  17.897
 1283SOL    HW115728   3.189   0.306  17.856
 1283SOL    HW215729   3.295   0.202  17.831
 1284SOL     OW15730   1.707   3.521   3.563
 1284SOL    HW115731   1.698   3.481   3.476
 1284SOL    HW215732   1.633   3.583   3.568
 1285SOL     OW15733   1.715   1.355   3.311
 1285SOL    HW115734   1.702   1.332   3.220
 1285SOL    HW215735   1.647   1.307   3.359
 1286SOL     OW15736   4.228   3.863  20.830
 1286SOL    HW115737   4.178   3.825  20.759
 1286SOL    HW215738   4.176   3.939  20.858
 1287SOL     OW15739   0.057   2.999  20.744
 1287SOL    HW115740   0.065   2.941  20.668
 1287SOL    HW215741   4.783   3.066  20.716
 1288SOL     OW15742   0.028   4.233   5.055
 1288SOL    HW115743   0.097   4.289   5.019
 1288SOL    HW215744   0.014   4.267   5.143
 1289SOL     OW15745   1.477   1.754   6.267
 1289SOL    HW115746   1.486   1.691   6.339
 1289SOL    HW215747   1.436   1.830   6.308
 1290SOL     OW15748   0.187   3.261   6.669
 1290SOL    HW115749   0.251   3.224   6.730
 1290SOL    HW215750   0.109   3.276   6.723
 1291SOL     OW15751   4.222   1.230  18.535
 1291SOL    HW115752   4.193   1.139  18.533
 1291SOL    HW215753   4.141   1.281  18.527
 1292SOL     OW15754   4.355   3.649  17.836
 1292SOL    HW115755   4.305   3.644  17.917
 1292SOL    HW215756   4.391   3.738  17.835
 1293SOL     OW15757   4.188   2.538  18.630
 1293SOL    HW115758   4.272   2.584  18.632
 1293SOL    HW215759   4.123   2.608  18.630
 1294SOL     OW15760   3.121   3.661  15.158
 1294SOL    HW115761   3.137   3.716  15.235
 1294SOL    HW215762   3.208   3.641  15.125
 1295SOL     OW15763   4.674   2.077  13.186
 1295SOL    HW115764   4.670   2.038  13.273
 1295SOL    HW215765   4.635   2.164  13.196
 1296SOL     OW15766   2.651   4.262   2.858
 1296SOL    HW115767   2.701   4.334   2.896
 1296SOL    HW215768   2.658   4.192   2.923
 1297SOL     OW15769   4.224   3.745   5.578
 1297SOL    HW115770   4.268   3.671   5.620
 1297SOL    HW215771   4.158   3.705   5.521
 1298SOL     OW15772   2.138   0.342   6.396
 1298SOL    HW115773   2.130   0.265   6.453
 1298SOL    HW215774   2.230   0.366   6.401
 1299SOL     OW15775   2.977   1.630   2.909
 1299SOL    HW115776   3.054   1.680   2.880
 1299SOL    HW215777   2.956   1.667   2.995
 1300SOL     OW15778   2.066   4.117  17.853
 1300SOL    HW115779   2.142   4.084  17.807
 1300SOL    HW215780   1.998   4.125  17.785
 1301SOL     OW15781   0.802   3.917  16.502
 1301SOL    HW115782   0.863   3.866  16.448
 1301SOL    HW215783   0.724   3.925  16.448
 1302SOL     OW15784   3.267   0.659   3.495
 1302SOL    HW115785   3.185   0.707   3.488
 1302SOL    HW215786   3.241   0.569   3.513
 1303SOL     OW15787   3.944   3.916   1.684
 1303SOL    HW115788   3.902   3.840   1.725
 1303SOL    HW215789   3.898   3.991   1.722
 1304SOL     OW15790   3.763   0.979   2.718
 1304SOL    HW115791   3.847   0.949   2.751
 1304SOL    HW215792   3.762   0.950   2.627
 1305SOL     OW15793   1.901   2.284  19.809
 1305SOL    HW115794   1.823   2.229  19.813
 1305SOL    HW215795   1.898   2.335  19.890
 1306SOL     OW15796   3.380   3.878  18.239
 1306SOL    HW115797   3.434   3.956  18.248
 1306SOL    HW215798   3.426   3.824  18.175
 1307SOL     OW15799   2.959   1.175   3.492
 1307SOL    HW115800   3.025   1.105   3.487
 1307SOL    HW215801   2.922   1.167   3.580
 1308SOL     OW15802   3.628   4.279   3.281
 1308SOL    HW115803   3.655   4.187   3.282
 1308SOL    HW215804   3.575   4.290   3.359
 1309SOL     OW15805   3.195   1.913  17.021
 1309SOL    HW115806   3.226   1.952  17.102
 1309SOL    HW215807   3.231   1.970  16.952
 1310SOL     OW15808   2.616   1.219  20.821
 1310SOL    HW115809   2.710   1.209  20.812
 1310SOL    HW215810   2.605   1.289  20.886
 1311SOL     OW15811   1.845   1.802  20.420
 1311SOL    HW115812   1.840   1.896  20.435
 1311SOL    HW215813   1.767   1.767  20.463
 1312SOL     OW15814   1.275   0.265   3.594
 1312SOL    HW115815   1.336   0.296   3.527
 1312SOL    HW215816   1.191   0.304   3.569
 1313SOL     OW15817   1.645   0.966   0.556
 1313SOL    HW115818   1.691   0.883   0.546
 1313SOL    HW215819   1.713   1.033   0.545
 1314SOL     OW15820   2.890   3.675   9.321
 1314SOL    HW115821   2.894   3.721   9.405
 1314SOL    HW215822   2.977   3.637   9.311
 1315SOL     OW15823   1.477   0.034   4.235
 1315SOL    HW115824   1.433   4.739   4.256
 1315SOL    HW215825   1.438   0.061   4.152
 1316SOL     OW15826   0.739   0.408   0.035
 1316SOL    HW115827   0.801   0.353   0.084
 1316SOL    HW215828   0.654   0.368   0.051
 1317SOL     OW15829   0.549   1.513   7.120
 1317SOL    HW115830   0.518   1.556   7.040
 1317SOL    HW215831   0.609   1.445   7.088
 1318SOL     OW15832   3.305   3.435  18.581
 1318SOL    HW115833   3.292   3.345  18.550
 1318SOL    HW215834   3.251   3.488  18.523
 1319SOL     OW15835   2.418   0.195  20.744
 1319SOL    HW115836   2.439   0.102  20.740
 1319SOL    HW215837   2.460   0.233  20.667
 1320SOL     OW15838   2.998   2.514  13.815
 1320SOL    HW115839   2.932   2.528  13.747
 1320SOL    HW215840   2.963   2.441  13.867
 1321SOL     OW15841   0.628   1.482  13.005
 1321SOL    HW115842   0.576   1.416  12.959
 1321SOL    HW215843   0.687   1.518  12.939
 1322SOL     OW15844   0.432   3.324  20.577
 1322SOL    HW115845   0.358   3.384  20.580
 1322SOL    HW215846   0.402   3.245  20.623
 1323SOL     OW15847   1.143   2.330   8.156
 1323SOL    HW115848   1.077   2.399   8.152
 1323SOL    HW215849   1.112   2.272   8.226
 1324SOL     OW15850   0.012   1.847   6.221
 1324SOL    HW115851   4.707   1.851   6.244
 1324SOL    HW215852   0.030   1.754   6.208
 1325SOL     OW15853   1.921   2.929   9.906
 1325SOL    HW115854   1.987   2.957   9.969
 1325SOL    HW215855   1.849   2.897   9.960
 1326SOL     OW15856   2.019   2.377  20.489
 1326SOL    HW115857   2.111   2.386  20.516
 1326SOL    HW215858   2.018   2.400  20.397
 1327SOL     OW15859   3.980   0.442  20.875
 1327SOL    HW115860   3.961   0.354  20.906
 1327SOL    HW215861   4.047   0.475  20.934
 1328SOL     OW15862   0.355   3.240  15.468
 1328SOL    HW115863   0.369   3.170  15.404
 1328SOL    HW215864   0.419   3.307  15.445
 1329SOL     OW15865   3.511   0.879   1.601
 1329SOL    HW115866   3.476   0.802   1.645
 1329SOL    HW215867   3.605   0.867   1.604
 1330SOL     OW15868   1.643   1.720   1.536
 1330SOL    HW115869   1.659   1.767   1.618
 1330SOL    HW215870   1.650   1.628   1.558
 1331SOL     OW15871   0.343   1.722   5.234
 1331SOL    HW115872   0.295   1.642   5.257
 1331SOL    HW215873   0.311   1.744   5.146
 1332SOL     OW15874   1.431   1.191  14.430
 1332SOL    HW115875   1.504   1.251  14.440
 1332SOL    HW215876   1.470   1.113  14.391
 1333SOL     OW15877   2.201   3.329  19.188
 1333SOL    HW115878   2.142   3.260  19.221
 1333SOL    HW215879   2.200   3.318  19.093
 1334SOL     OW15880   1.767   3.795  18.537
 1334SOL    HW115881   1.777   3.741  18.458
 1334SOL    HW215882   1.845   3.850  18.539
 1335SOL     OW15883   0.456   4.216  20.787
 1335SOL    HW115884   0.371   4.178  20.808
 1335SOL    HW215885   0.519   4.161  20.833
 1336SOL     OW15886   4.551   2.090  19.759
 1336SOL    HW115887   4.535   1.996  19.755
 1336SOL    HW215888   4.473   2.129  19.719
 1337SOL     OW15889   3.982   0.962   1.495
 1337SOL    HW115890   4.054   0.945   1.435
 1337SOL    HW215891   3.953   1.051   1.473
 1338SOL     OW15892   3.389   1.615   0.365
 1338SOL    HW115893   3.384   1.541   0.305
 1338SOL    HW215894   3.299   1.647   0.372
 1339SOL     OW15895   1.329   3.364  19.922
 1339SOL    HW115896   1.258   3.407  19.874
 1339SOL    HW215897   1.320   3.395  20.012
 1340SOL     OW15898   0.164   0.229   3.977
 1340SOL    HW115899   0.095   0.166   3.997
 1340SOL    HW215900   0.215   0.236   4.057
 1341SOL     OW15901   0.343   3.564  19.159
 1341SOL    HW115902   0.335   3.575  19.065
 1341SOL    HW215903   0.388   3.644  19.189
 1342SOL     OW15904   2.262   4.443   2.369
 1342SOL    HW115905   2.351   4.477   2.360
 1342SOL    HW215906   2.256   4.417   2.461
 1343SOL     OW15907   0.813   2.305   4.958
 1343SOL    HW115908   0.774   2.306   5.046
 1343SOL    HW215909   0.738   2.305   4.899
 1344SOL     OW15910   0.194   1.076   2.354
 1344SOL    HW115911   0.112   1.067   2.306
 1344SOL    HW215912   0.177   1.142   2.420
 1345SOL     OW15913   0.786   2.824  16.026
 1345SOL    HW115914   0.719   2.776  15.978
 1345SOL    HW215915   0.743   2.848  16.109
 1346SOL     OW15916   3.273   1.250  20.777
 1346SOL    HW115917   3.239   1.340  20.785
 1346SOL    HW215918   3.335   1.242  20.849
 1347SOL     OW15919   1.135   3.671   4.310
 1347SOL    HW115920   1.057   3.631   4.348
 1347SOL    HW215921   1.177   3.716   4.384
 1348SOL     OW15922   3.863   3.097   5.902
 1348SOL    HW115923   3.773   3.129   5.900
 1348SOL    HW215924   3.894   3.117   5.991
 1349SOL     OW15925   3.158   4.552   0.247
 1349SOL    HW115926   3.245   4.591   0.250
 1349SOL    HW215927   3.098   4.626   0.250
 1350SOL     OW15928   3.238   3.198   6.050
 1350SOL    HW115929   3.245   3.160   6.137
 1350SOL    HW215930   3.284   3.137   5.993
 1351SOL     OW15931   4.215   0.040   0.577
 1351SOL    HW115932   4.256   0.068   0.496
 1351SOL    HW215933   4.287   0.009   0.632
 1352SOL     OW15934   3.058   0.666   1.636
 1352SOL    HW115935   3.028   0.686   1.724
 1352SOL    HW215936   2.983   0.624   1.594
 1353SOL     OW15937   3.389   2.846   0.683
 1353SOL    HW115938   3.461   2.882   0.632
 1353SOL    HW215939   3.421   2.760   0.712
 1354SOL     OW15940   0.444   1.826  19.111
 1354SOL    HW115941   0.376   1.866  19.165
 1354SOL    HW215942   0.446   1.735  19.138
 1355SOL     OW15943   0.432   0.728   2.603
 1355SOL    HW115944   0.523   0.716   2.629
 1355SOL    HW215945   0.435   0.797   2.536
 1356SOL     OW15946   1.056   3.414   2.015
 1356SOL    HW115947   1.099   3.379   1.937
 1356SOL    HW215948   1.094   3.364   2.088
 1357SOL     OW15949   2.962   3.012   1.340
 1357SOL    HW115950   2.939   3.068   1.415
 1357SOL    HW215951   3.056   3.024   1.329
 1358SOL     OW15952   0.933   1.293  11.119
 1358SOL    HW115953   0.974   1.210  11.096
 1358SOL    HW215954   0.851   1.269  11.162
 1359SOL     OW15955   0.001   2.815  21.117
 1359SOL    HW115956   4.767   2.893  21.168
 1359SOL    HW215957   4.711   2.798  21.065
 1360SOL     OW15958   1.936   4.124  15.822
 1360SOL    HW115959   1.875   4.145  15.893
 1360SOL    HW215960   1.971   4.209  15.794
 1361SOL     OW15961   0.642   1.278  15.387
 1361SOL    HW115962   0.579   1.289  15.316
 1361SOL    HW215963   0.694   1.359  15.386
 1362SOL     OW15964   3.147   0.513   5.526
 1362SOL    HW115965   3.209   0.563   5.474
 1362SOL    HW215966   3.195   0.433   5.550
 1363SOL     OW15967   3.589   3.213   6.984
 1363SOL    HW115968   3.585   3.141   6.922
 1363SOL    HW215969   3.552   3.178   7.065
 1364SOL     OW15970   1.071   2.074   1.652
 1364SOL    HW115971   0.980   2.074   1.679
 1364SOL    HW215972   1.069   2.046   1.560
 1365SOL     OW15973   2.293   3.013  20.491
 1365SOL    HW115974   2.374   3.063  20.482
 1365SOL    HW215975   2.275   3.013  20.585
 1366SOL     OW15976   4.554   2.374   4.783
 1366SOL    HW115977   4.573   2.281   4.788
 1366SOL    HW215978   4.556   2.395   4.689
 1367SOL     OW15979   4.393   1.687   6.091
 1367SOL    HW115980   4.468   1.631   6.109
 1367SOL    HW215981   4.430   1.774   6.077
 1368SOL     OW15982   1.749   1.747  17.426
 1368SOL    HW115983   1.672   1.694  17.405
 1368SOL    HW215984   1.793   1.759  17.342
 1369SOL     OW15985   2.331   3.021   5.996
 1369SOL    HW115986   2.291   2.944   5.954
 1369SOL    HW215987   2.310   3.010   6.089
 1370SOL     OW15988   0.367   3.761  20.166
 1370SOL    HW115989   0.328   3.698  20.105
 1370SOL    HW215990   0.314   3.753  20.245
 1371SOL     OW15991   0.260   3.183   0.486
 1371SOL    HW115992   0.333   3.132   0.452
 1371SOL    HW215993   0.259   3.262   0.431
 1372SOL     OW15994   1.724   0.829   6.084
 1372SOL    HW115995   1.793   0.818   6.018
 1372SOL    HW215996   1.675   0.906   6.056
 1373SOL     OW15997   1.234   1.728  17.596
 1373SOL    HW115998   1.304   1.670  17.624
 1373SOL    HW215999   1.207   1.694  17.510
 1374SOL     OW16000   2.293   2.841  21.064
 1374SOL    HW116001   2.374   2.840  21.113
 1374SOL    HW216002   2.236   2.902  21.112
 1375SOL     OW16003   3.295   2.977  14.813
 1375SOL    HW116004   3.310   3.072  14.811
 1375SOL    HW216005   3.364   2.941  14.758
 1376SOL     OW16006   0.561   3.575  12.113
 1376SOL    HW116007   0.536   3.617  12.196
 1376SOL    HW216008   0.628   3.633  12.077
 1377SOL     OW16009   1.045   4.087   2.563
 1377SOL    HW116010   1.070   4.014   2.505
 1377SOL    HW216011   1.001   4.045   2.637
 1378SOL     OW16012   4.435   0.168   0.884
 1378SOL    HW116013   4.425   0.250   0.837
 1378SOL    HW216014   4.530   0.156   0.892
 1379SOL     OW16015   1.122   0.812  20.595
 1379SOL    HW116016   1.155   0.741  20.650
 1379SOL    HW216017   1.185   0.882  20.604
 1380SOL     OW16018   1.979   3.741   2.923
 1380SOL    HW116019   2.074   3.730   2.925
 1380SOL    HW216020   1.945   3.660   2.886
 1381SOL     OW16021   1.936   3.847   4.709
 1381SOL    HW116022   1.887   3.767   4.687
 1381SOL    HW216023   1.869   3.914   4.718
 1382SOL     OW16024   3.197   3.354   5.854
 1382SOL    HW116025   3.236   3.288   5.796
 1382SOL    HW216026   3.202   3.315   5.941
 1383SOL     OW16027   4.442   0.976  17.862
 1383SOL    HW116028   4.507   0.963  17.931
 1383SOL    HW216029   4.396   0.892  17.858
 1384SOL     OW16030   4.670   0.377   0.220
 1384SOL    HW116031   4.695   0.390   0.311
 1384SOL    HW216032   4.725   0.439   0.171
 1385SOL     OW16033   2.903   0.506  18.790
 1385SOL    HW116034   2.892   0.601  18.791
 1385SOL    HW216035   2.993   0.492  18.822
 1386SOL     OW16036   0.994   1.328   2.008
 1386SOL    HW116037   1.037   1.257   2.057
 1386SOL    HW216038   1.067   1.374   1.966
 1387SOL     OW16039   4.607   0.545  11.289
 1387SOL    HW116040   4.656   0.624  11.312
 1387SOL    HW216041   4.660   0.473  11.324
 1388SOL     OW16042   2.073   3.033   1.027
 1388SOL    HW116043   2.082   2.938   1.021
 1388SOL    HW216044   2.007   3.047   1.095
 1389SOL     OW16045   3.705   0.627  20.168
 1389SOL    HW116046   3.774   0.561  20.161
 1389SOL    HW216047   3.751   0.708  20.190
 1390SOL     OW16048   2.331   0.205  18.544
 1390SOL    HW116049   2.290   0.281  18.503
 1390SOL    HW216050   2.402   0.181  18.484
 1391SOL     OW16051   4.677   1.639  20.650
 1391SOL    HW116052   4.623   1.636  20.729
 1391SOL    HW216053   4.715   1.727  20.650
 1392SOL     OW16054   0.399   0.883  17.783
 1392SOL    HW116055   0.454   0.959  17.801
 1392SOL    HW216056   0.447   0.834  17.716
 1393SOL     OW16057   4.219   0.335  15.212
 1393SOL    HW116058   4.184   0.246  15.207
 1393SOL    HW216059   4.280   0.341  15.138
 1394SOL     OW16060   0.349   2.996   0.115
 1394SOL    HW116061   0.372   2.906   0.091
 1394SOL    HW216062   0.398   3.012   0.195
 1395SOL     OW16063   3.831   1.025   4.495
 1395SOL    HW116064   3.748   1.070   4.484
 1395SOL    HW216065   3.891   1.072   4.437
 1396SOL     OW16066   1.142   1.641   5.581
 1396SOL    HW116067   1.233   1.665   5.599
 1396SOL    HW216068   1.136   1.641   5.485
 1397SOL     OW16069   0.848   0.238  18.901
 1397SOL    HW116070   0.916   0.228  18.835
 1397SOL    HW216071   0.828   0.148  18.928
 1398SOL     OW16072   0.415   4.680  17.650
 1398SOL    HW116073   0.458   4.595  17.643
 1398SOL    HW216074   0.460   4.724  17.723
 1399SOL     OW16075   2.457   0.317   4.420
 1399SOL    HW116076   2.459   0.411   4.434
 1399SOL    HW216077   2.423   0.281   4.502
 1400SOL     OW16078   0.934   4.728   5.798
 1400SOL    HW116079   0.947   4.661   5.731
 1400SOL    HW216080   0.884   0.010   5.754
 1401SOL     OW16081   3.019   3.154   0.626
 1401SOL    HW116082   3.035   3.081   0.686
 1401SOL    HW216083   2.925   3.170   0.633
 1402SOL     OW16084   2.526   0.000  21.012
 1402SOL    HW116085   2.621   4.773  21.003
 1402SOL    HW216086   2.488   4.745  20.936
 1403SOL     OW16087   3.328   4.760  19.251
 1403SOL    HW116088   3.407   0.007  19.209
 1403SOL    HW216089   3.304   0.038  19.315
 1404SOL     OW16090   1.077   3.683  15.939
 1404SOL    HW116091   1.079   3.745  15.866
 1404SOL    HW216092   1.165   3.687  15.977
 1405SOL     OW16093   0.271   3.424   0.334
 1405SOL    HW116094   0.357   3.416   0.292
 1405SOL    HW216095   0.210   3.437   0.262
 1406SOL     OW16096   3.169   1.271   4.155
 1406SOL    HW116097   3.134   1.303   4.238
 1406SOL    HW216098   3.122   1.189   4.139
 1407SOL     OW16099   4.433   2.107   4.955
 1407SOL    HW116100   4.400   2.026   4.915
 1407SOL    HW216101   4.371   2.127   5.025
 1408SOL     OW16102   1.343   2.451   3.917
 1408SOL    HW116103   1.342   2.371   3.864
 1408SOL    HW216104   1.252   2.481   3.917
 1409SOL     OW16105   4.145   2.943   5.401
 1409SOL    HW116106   4.198   2.894   5.339
 1409SOL    HW216107   4.072   2.885   5.422
 1410SOL     OW16108   3.590   3.313   4.023
 1410SOL    HW116109   3.520   3.378   4.016
 1410SOL    HW216110   3.548   3.230   4.002
 1411SOL     OW16111   4.720   3.391  20.511
 1411SOL    HW116112   4.709   3.392  20.416
 1411SOL    HW216113   4.663   3.320  20.541
 1412SOL     OW16114   1.283   4.297   4.277
 1412SOL    HW116115   1.297   4.227   4.213
 1412SOL    HW216116   1.227   4.360   4.232
 1413SOL     OW16117   0.677   2.592   3.142
 1413SOL    HW116118   0.660   2.591   3.236
 1413SOL    HW216119   0.762   2.548   3.132
 1414SOL     OW16120   2.234   1.999  21.210
 1414SOL    HW116121   2.224   2.094  21.214
 1414SOL    HW216122   2.162   1.970  21.154
 1415SOL     OW16123   2.212   2.563  18.538
 1415SOL    HW116124   2.253   2.513  18.468
 1415SOL    HW216125   2.157   2.627  18.493
 1416SOL     OW16126   2.351   3.502  19.991
 1416SOL    HW116127   2.287   3.561  20.029
 1416SOL    HW216128   2.400   3.557  19.930
 1417SOL     OW16129   1.447   3.634   6.909
 1417SOL    HW116130   1.498   3.688   6.848
 1417SOL    HW216131   1.508   3.616   6.981
 1418SOL     OW16132   2.129   4.220  20.384
 1418SOL    HW116133   2.163   4.141  20.341
 1418SOL    HW216134   2.199   4.247  20.443
 1419SOL     OW16135   2.050   0.219  19.197
 1419SOL    HW116136   2.053   0.153  19.127
 1419SOL    HW216137   1.961   0.255  19.193
 1420SOL     OW16138   2.073   2.813   5.169
 1420SOL    HW116139   2.158   2.827   5.211
 1420SOL    HW216140   2.015   2.878   5.210
 1421SOL     OW16141   4.426   4.239   6.703
 1421SOL    HW116142   4.433   4.248   6.608
 1421SOL    HW216143   4.332   4.232   6.720
 1422SOL     OW16144   2.194   2.747   1.333
 1422SOL    HW116145   2.157   2.673   1.380
 1422SOL    HW216146   2.246   2.708   1.262
 1423SOL     OW16147   4.288   2.458   2.805
 1423SOL    HW116148   4.222   2.390   2.789
 1423SOL    HW216149   4.267   2.492   2.892
 1424SOL     OW16150   1.611   2.943   4.799
 1424SOL    HW116151   1.669   2.871   4.823
 1424SOL    HW216152   1.647   2.976   4.716
 1425SOL     OW16153   0.302   2.498   1.537
 1425SOL    HW116154   0.313   2.419   1.590
 1425SOL    HW216155   0.340   2.477   1.452
 1426SOL     OW16156   1.162   1.508   1.576
 1426SOL    HW116157   1.079   1.483   1.536
 1426SOL    HW216158   1.219   1.529   1.502
 1427SOL     OW16159   2.588   3.163  15.693
 1427SOL    HW116160   2.531   3.238  15.677
 1427SOL    HW216161   2.660   3.198  15.746
 1428SOL     OW16162   0.018   0.268   1.040
 1428SOL    HW116163   4.718   0.306   1.052
 1428SOL    HW216164   0.048   0.248   1.129
 1429SOL     OW16165   2.246   0.214  13.990
 1429SOL    HW116166   2.164   0.181  13.953
 1429SOL    HW216167   2.301   0.234  13.914
 1430SOL     OW16168   0.278   0.357   4.994
 1430SOL    HW116169   0.370   0.342   4.974
 1430SOL    HW216170   0.230   0.309   4.927
 1431SOL     OW16171   3.247   1.453  19.508
 1431SOL    HW116172   3.194   1.385  19.467
 1431SOL    HW216173   3.280   1.505  19.435
 1432SOL     OW16174   1.890   1.102  20.036
 1432SOL    HW116175   1.876   1.053  20.117
 1432SOL    HW216176   1.903   1.192  20.065
 1433SOL     OW16177   2.618   4.115  12.796
 1433SOL    HW116178   2.557   4.156  12.734
 1433SOL    HW216179   2.562   4.083  12.867
 1434SOL     OW16180   3.751   2.228   0.604
 1434SOL    HW116181   3.730   2.135   0.595
 1434SOL    HW216182   3.731   2.266   0.519
 1435SOL     OW16183   1.637   1.515   4.670
 1435SOL    HW116184   1.593   1.585   4.621
 1435SOL    HW216185   1.730   1.527   4.650
 1436SOL     OW16186   2.087   2.918  16.836
 1436SOL    HW116187   2.111   2.935  16.745
 1436SOL    HW216188   2.014   2.856  16.830
 1437SOL     OW16189   2.198   4.245   3.488
 1437SOL    HW116190   2.119   4.285   3.451
 1437SOL    HW216191   2.174   4.153   3.500
 1438SOL     OW16192   1.145   0.053  21.065
 1438SOL    HW116193   1.141   4.754  21.026
 1438SOL    HW216194   1.163   0.112  20.992
 1439SOL     OW16195   4.245   2.171  19.126
 1439SOL    HW116196   4.233   2.103  19.059
 1439SOL    HW216197   4.339   2.175  19.139
 1440SOL     OW16198   3.014   1.495  20.537
 1440SOL    HW116199   3.046   1.512  20.626
 1440SOL    HW216200   3.039   1.405  20.520
 1441SOL     OW16201   1.501   1.633   3.864
 1441SOL    HW116202   1.478   1.630   3.957
 1441SOL    HW216203   1.546   1.716   3.853
 1442SOL     OW16204   4.307   0.867   6.281
 1442SOL    HW116205   4.283   0.782   6.245
 1442SOL    HW216206   4.231   0.895   6.331
 1443SOL     OW16207   4.688   1.270  16.614
 1443SOL    HW116208   4.748   1.330  16.658
 1443SOL    HW216209   4.621   1.251  16.680
 1444SOL     OW16210   2.077   3.941   0.292
 1444SOL    HW116211   2.073   4.002   0.366
 1444SOL    HW216212   1.991   3.949   0.250
 1445SOL     OW16213   4.399   2.432  20.303
 1445SOL    HW116214   4.420   2.412  20.211
 1445SOL    HW216215   4.435   2.519  20.317
 1446SOL     OW16216   4.181   1.644  17.392
 1446SOL    HW116217   4.265   1.680  17.364
 1446SOL    HW216218   4.124   1.720  17.403
 1447SOL     OW16219   3.360   4.214   3.167
 1447SOL    HW116220   3.308   4.162   3.228
 1447SOL    HW216221   3.357   4.303   3.202
 1448SOL     OW16222   1.283   1.982   0.354
 1448SOL    HW116223   1.334   2.051   0.397
 1448SOL    HW216224   1.295   1.998   0.261
 1449SOL     OW16225   4.481   3.825  18.960
 1449SOL    HW116226   4.418   3.775  18.907
 1449SOL    HW216227   4.477   3.784  19.046
 1450SOL     OW16228   1.874   1.807   2.297
 1450SOL    HW116229   1.835   1.741   2.354
 1450SOL    HW216230   1.968   1.793   2.305
 1451SOL     OW16231   1.739   4.534  13.903
 1451SOL    HW116232   1.813   4.584  13.870
 1451SOL    HW216233   1.666   4.596  13.903
 1452SOL     OW16234   1.804   3.342  17.113
 1452SOL    HW116235   1.777   3.430  17.086
 1452SOL    HW216236   1.899   3.350  17.128
 1453SOL     OW16237   0.674   1.188  14.946
 1453SOL    HW116238   0.716   1.194  15.032
 1453SOL    HW216239   0.618   1.266  14.941
 1454SOL     OW16240   2.317   2.122   1.676
 1454SOL    HW116241   2.354   2.046   1.630
 1454SOL    HW216242   2.389   2.185   1.679
 1455SOL     OW16243   4.570   0.578  16.532
 1455SOL    HW116244   4.657   0.607  16.505
 1455SOL    HW216245   4.563   0.604  16.624
 1456SOL     OW16246   4.563   2.587   5.946
 1456SOL    HW116247   4.621   2.571   5.872
 1456SOL    HW216248   4.603   2.660   5.993
 1457SOL     OW16249   1.137   1.460   1.006
 1457SOL    HW116250   1.189   1.536   0.977
 1457SOL    HW216251   1.147   1.460   1.101
 1458SOL     OW16252   2.695   0.058   0.688
 1458SOL    HW116253   2.706   0.149   0.660
 1458SOL    HW216254   2.724   0.006   0.613
 1459SOL     OW16255   2.270   4.727  20.224
 1459SOL    HW116256   2.223   4.753  20.144
 1459SOL    HW216257   2.262   4.631  20.225
 1460SOL     OW16258   3.376   4.326   0.039
 1460SOL    HW116259   3.421   4.280  21.216
 1460SOL    HW216260   3.283   4.316   0.019
 1461SOL     OW16261   3.813   4.287   4.672
 1461SOL    HW116262   3.782   4.377   4.677
 1461SOL    HW216263   3.740   4.234   4.704
 1462SOL     OW16264   4.125   2.788  18.680
 1462SOL    HW116265   4.190   2.858  18.686
 1462SOL    HW216266   4.065   2.805  18.753
 1463SOL     OW16267   0.662   1.857   5.330
 1463SOL    HW116268   0.675   1.764   5.308
 1463SOL    HW216269   0.594   1.886   5.269
 1464SOL     OW16270   2.868   2.448  15.710
 1464SOL    HW116271   2.778   2.476  15.694
 1464SOL    HW216272   2.896   2.499  15.786
 1465SOL     OW16273   3.900   1.807   1.326
 1465SOL    HW116274   3.941   1.870   1.387
 1465SOL    HW216275   3.923   1.840   1.239
 1466SOL     OW16276   2.737   0.228  15.434
 1466SOL    HW116277   2.673   0.199  15.498
 1466SOL    HW216278   2.809   0.264  15.486
 1467SOL     OW16279   2.466   2.896  14.182
 1467SOL    HW116280   2.450   2.962  14.249
 1467SOL    HW216281   2.477   2.947  14.101
 1468SOL     OW16282   2.719   4.525  14.547
 1468SOL    HW116283   2.792   4.531  14.608
 1468SOL    HW216284   2.686   4.436  14.558
 1469SOL     OW16285   3.458   2.681  19.606
 1469SOL    HW116286   3.409   2.628  19.543
 1469SOL    HW216287   3.412   2.667  19.689
 1470SOL     OW16288   4.163   4.600  15.022
 1470SOL    HW116289   4.121   4.537  15.081
 1470SOL    HW216290   4.221   4.547  14.968
 1471SOL     OW16291   0.329   2.174   5.354
 1471SOL    HW116292   0.409   2.203   5.398
 1471SOL    HW216293   0.323   2.230   5.277
 1472SOL     OW16294   2.463   4.736   3.943
 1472SOL    HW116295   2.499   0.025   3.898
 1472SOL    HW216296   2.513   4.662   3.909
 1473SOL     OW16297   2.419   3.823   2.389
 1473SOL    HW116298   2.441   3.896   2.332
 1473SOL    HW216299   2.495   3.765   2.385
 1474SOL     OW16300   1.717   3.758   2.406
 1474SOL    HW116301   1.684   3.779   2.318
 1474SOL    HW216302   1.650   3.702   2.444
 1475SOL     OW16303   3.823   1.862  15.530
 1475SOL    HW116304   3.834   1.849  15.624
 1475SOL    HW216305   3.847   1.953  15.515
 1476SOL     OW16306   4.679   3.593  20.682
 1476SOL    HW116307   4.684   3.547  20.598
 1476SOL    HW216308   4.665   3.523  20.747
 1477SOL     OW16309   0.917   2.849  18.769
 1477SOL    HW116310   0.854   2.884  18.832
 1477SOL    HW216311   0.867   2.841  18.687
 1478SOL     OW16312   3.372   1.083  16.711
 1478SOL    HW116313   3.440   1.017  16.693
 1478SOL    HW216314   3.315   1.041  16.776
 1479SOL     OW16315   3.349   2.851  17.834
 1479SOL    HW116316   3.391   2.832  17.750
 1479SOL    HW216317   3.259   2.876  17.812
 1480SOL     OW16318   4.340   2.697   2.225
 1480SOL    HW116319   4.403   2.731   2.162
 1480SOL    HW216320   4.348   2.756   2.301
 1481SOL     OW16321   2.132   0.680  15.933
 1481SOL    HW116322   2.220   0.640  15.934
 1481SOL    HW216323   2.122   0.713  15.843
 1482SOL     OW16324   3.616   2.295  18.112
 1482SOL    HW116325   3.611   2.267  18.203
 1482SOL    HW216326   3.538   2.349  18.099
 1483SOL     OW16327   4.707   2.170  16.877
 1483SOL    HW116328   4.758   2.178  16.796
 1483SOL    HW216329   4.766   2.198  16.946
 1484SOL     OW16330   0.087   4.133  14.251
 1484SOL    HW116331   0.157   4.083  14.293
 1484SOL    HW216332   0.038   4.070  14.199
 1485SOL     OW16333   3.460   3.048  18.568
 1485SOL    HW116334   3.365   3.060  18.565
 1485SOL    HW216335   3.487   3.053  18.476
 1486SOL     OW16336   1.720   2.784   2.089
 1486SOL    HW116337   1.719   2.844   2.014
 1486SOL    HW216338   1.671   2.830   2.157
 1487SOL     OW16339   0.225   0.650   5.760
 1487SOL    HW116340   0.178   0.700   5.826
 1487SOL    HW216341   0.295   0.709   5.731
 1488SOL     OW16342   0.823   2.235  15.170
 1488SOL    HW116343   0.778   2.220  15.087
 1488SOL    HW216344   0.887   2.163  15.176
 1489SOL     OW16345   3.535   0.937   4.732
 1489SOL    HW116346   3.548   0.867   4.796
 1489SOL    HW216347   3.582   1.012   4.768
 1490SOL     OW16348   4.008   4.594  19.043
 1490SOL    HW116349   3.951   4.528  19.082
 1490SOL    HW216350   4.070   4.617  19.113
 1491SOL     OW16351   1.217   3.541   0.080
 1491SOL    HW116352   1.146   3.605   0.074
 1491SOL    HW216353   1.173   3.456   0.078
 1492SOL     OW16354   0.753   3.501   4.976
 1492SOL    HW116355   0.816   3.445   5.020
 1492SOL    HW216356   0.763   3.586   5.020
 1493SOL     OW16357   3.054   1.307   5.540
 1493SOL    HW116358   3.044   1.228   5.592
 1493SOL    HW216359   3.140   1.342   5.566
 1494SOL     OW16360   4.668   1.097   6.028
 1494SOL    HW116361   4.638   1.081   5.939
 1494SOL    HW216362   4.752   1.052   6.034
 1495SOL     OW16363   1.149   4.357   0.929
 1495SOL    HW116364   1.067   4.405   0.940
 1495SOL    HW216365   1.212   4.406   0.980
 1496SOL     OW16366   3.533   2.192  12.379
 1496SOL    HW116367   3.576   2.145  12.450
 1496SOL    HW216368   3.604   2.223  12.324
 1497SOL     OW16369   0.807   3.980  15.039
 1497SOL    HW116370   0.821   4.073  15.019
 1497SOL    HW216371   0.847   3.968  15.125
 1498SOL     OW16372   2.155   3.893  16.348
 1498SOL    HW116373   2.139   3.940  16.430
 1498SOL    HW216374   2.185   3.806  16.375
 1499SOL     OW16375   2.414   0.878   3.219
 1499SOL    HW116376   2.356   0.927   3.277
 1499SOL    HW216377   2.478   0.838   3.277
 1500SOL     OW16378   4.383   4.424  20.463
 1500SOL    HW116379   4.304   4.374  20.444
 1500SOL    HW216380   4.426   4.436  20.378
 1501SOL     OW16381   0.889   2.418  19.864
 1501SOL    HW116382   0.976   2.383  19.882
 1501SOL    HW216383   0.868   2.471  19.941
 1502SOL     OW16384   4.127   0.831  20.785
 1502SOL    HW116385   4.211   0.819  20.828
 1502SOL    HW216386   4.124   0.764  20.717
 1503SOL     OW16387   0.532   1.837   2.611
 1503SOL    HW116388   0.437   1.829   2.616
 1503SOL    HW216389   0.548   1.908   2.549
 1504SOL     OW16390   0.346   3.768  16.356
 1504SOL    HW116391   0.274   3.714  16.324
 1504SOL    HW216392   0.398   3.709  16.410
 1505SOL     OW16393   3.659   0.695  18.632
 1505SOL    HW116394   3.676   0.683  18.726
 1505SOL    HW216395   3.727   0.643  18.589
 1506SOL     OW16396   0.300   0.775   3.966
 1506SOL    HW116397   0.372   0.715   3.986
 1506SOL    HW216398   0.239   0.723   3.914
 1507SOL     OW16399   2.105   1.847   6.264
 1507SOL    HW116400   2.062   1.762   6.270
 1507SOL    HW216401   2.162   1.851   6.341
 1508SOL     OW16402   4.298   3.282  19.323
 1508SOL    HW116403   4.264   3.351  19.381
 1508SOL    HW216404   4.249   3.294  19.242
 1509SOL     OW16405   4.286   4.421  14.851
 1509SOL    HW116406   4.296   4.449  14.760
 1509SOL    HW216407   4.207   4.367  14.852
 1510SOL     OW16408   0.637   2.951  16.257
 1510SOL    HW116409   0.632   3.045  16.275
 1510SOL    HW216410   0.548   2.925  16.236
 1511SOL     OW16411   3.061   2.787   3.914
 1511SOL    HW116412   2.980   2.742   3.888
 1511SOL    HW216413   3.044   2.880   3.895
 1512SOL     OW16414   0.004   4.658   7.603
 1512SOL    HW116415   0.024   4.601   7.530
 1512SOL    HW216416   4.759   4.599   7.672
 1513SOL     OW16417   1.452   3.020  15.169
 1513SOL    HW116418   1.442   2.988  15.258
 1513SOL    HW216419   1.525   3.082  15.173
 1514SOL     OW16420   2.278   2.577   8.657
 1514SOL    HW116421   2.302   2.540   8.572
 1514SOL    HW216422   2.316   2.666   8.655
 1515SOL     OW16423   4.236   2.072   5.127
 1515SOL    HW116424   4.193   2.092   5.209
 1515SOL    HW216425   4.185   2.000   5.090
 1516SOL     OW16426   2.591   0.396   3.514
 1516SOL    HW116427   2.564   0.426   3.601
 1516SOL    HW216428   2.518   0.344   3.483
 1517SOL     OW16429   2.028   1.280   2.920
 1517SOL    HW116430   2.009   1.336   2.844
 1517SOL    HW216431   1.966   1.207   2.911
 1518SOL     OW16432   4.276   3.501   5.309
 1518SOL    HW116433   4.273   3.411   5.341
 1518SOL    HW216434   4.345   3.542   5.362
 1519SOL     OW16435   3.788   4.167  20.275
 1519SOL    HW116436   3.714   4.141  20.221
 1519SOL    HW216437   3.752   4.228  20.339
 1520SOL     OW16438   2.857   3.225   2.754
 1520SOL    HW116439   2.842   3.290   2.822
 1520SOL    HW216440   2.789   3.159   2.768
 1521SOL     OW16441   4.075   2.180   8.931
 1521SOL    HW116442   4.019   2.104   8.917
 1521SOL    HW216443   4.082   2.188   9.026
 1522SOL     OW16444   2.708   0.552  17.534
 1522SOL    HW116445   2.645   0.587  17.598
 1522SOL    HW216446   2.657   0.540  17.454
 1523SOL     OW16447   0.650   0.978  15.765
 1523SOL    HW116448   0.681   0.894  15.797
 1523SOL    HW216449   0.657   0.973  15.670
 1524SOL     OW16450   4.537   2.300  17.610
 1524SOL    HW116451   4.569   2.287  17.699
 1524SOL    HW216452   4.447   2.331  17.621
 1525SOL     OW16453   0.796   1.133   1.415
 1525SOL    HW116454   0.774   1.186   1.339
 1525SOL    HW216455   0.746   1.172   1.487
 1526SOL     OW16456   3.385   3.779  20.624
 1526SOL    HW116457   3.426   3.733  20.697
 1526SOL    HW216458   3.303   3.731  20.609
 1527SOL     OW16459   2.512   4.594   5.451
 1527SOL    HW116460   2.487   4.573   5.361
 1527SOL    HW216461   2.608   4.601   5.448
 1528SOL     OW16462   3.907   1.977   1.092
 1528SOL    HW116463   3.979   2.010   1.038
 1528SOL    HW216464   3.828   2.001   1.044
 1529SOL     OW16465   0.355   2.615   5.714
 1529SOL    HW116466   0.412   2.672   5.765
 1529SOL    HW216467   0.353   2.533   5.762
 1530SOL     OW16468   0.880   3.150   2.863
 1530SOL    HW116469   0.861   3.141   2.770
 1530SOL    HW216470   0.822   3.087   2.906
 1531SOL     OW16471   0.164   4.262  14.012
 1531SOL    HW116472   0.153   4.241  14.104
 1531SOL    HW216473   0.123   4.190  13.965
 1532SOL     OW16474   4.324   0.362  18.311
 1532SOL    HW116475   4.382   0.300  18.267
 1532SOL    HW216476   4.293   0.315  18.389
 1533SOL     OW16477   2.957   4.742  19.322
 1533SOL    HW116478   2.941   4.745  19.228
 1533SOL    HW216479   3.020   4.671  19.334
 1534SOL     OW16480   3.139   3.370   7.130
 1534SOL    HW116481   3.047   3.387   7.153
 1534SOL    HW216482   3.187   3.386   7.212
 1535SOL     OW16483   2.413   1.505  15.703
 1535SOL    HW116484   2.490   1.512  15.647
 1535SOL    HW216485   2.382   1.595  15.713
 1536SOL     OW16486   2.177   4.106   0.703
 1536SOL    HW116487   2.133   4.136   0.782
 1536SOL    HW216488   2.234   4.180   0.678
 1537SOL     OW16489   0.498   2.839   6.815
 1537SOL    HW116490   0.511   2.869   6.725
 1537SOL    HW216491   0.405   2.819   6.821
 1538SOL     OW16492   2.274   3.920  15.458
 1538SOL    HW116493   2.268   3.894  15.366
 1538SOL    HW216494   2.250   4.013  15.457
 1539SOL     OW16495   3.783   4.617  19.716
 1539SOL    HW116496   3.796   4.530  19.755
 1539SOL    HW216497   3.714   4.657  19.770
 1540SOL     OW16498   2.956   2.514   6.437
 1540SOL    HW116499   3.039   2.502   6.392
 1540SOL    HW216500   2.900   2.444   6.404
 1541SOL     OW16501   4.025   0.410   2.068
 1541SOL    HW116502   3.959   0.341   2.054
 1541SOL    HW216503   3.994   0.457   2.146
 1542SOL     OW16504   0.225   4.482   5.809
 1542SOL    HW116505   0.163   4.554   5.818
 1542SOL    HW216506   0.311   4.524   5.816
 1543SOL     OW16507   0.932   2.111  17.545
 1543SOL    HW116508   0.938   2.021  17.578
 1543SOL    HW216509   0.959   2.166  17.619
 1544SOL     OW16510   1.997   3.355   4.509
 1544SOL    HW116511   1.913   3.310   4.515
 1544SOL    HW216512   2.010   3.370   4.415
 1545SOL     OW16513   4.710   2.056  14.930
 1545SOL    HW116514   0.002   2.076  14.879
 1545SOL    HW216515   4.701   2.129  14.990
 1546SOL     OW16516   3.407   2.117  19.779
 1546SOL    HW116517   3.314   2.131  19.795
 1546SOL    HW216518   3.437   2.065  19.854
 1547SOL     OW16519   3.949   0.803  14.421
 1547SOL    HW116520   3.881   0.798  14.355
 1547SOL    HW216521   3.906   0.775  14.502
 1548SOL     OW16522   1.857   3.874  15.344
 1548SOL    HW116523   1.831   3.828  15.424
 1548SOL    HW216524   1.774   3.899  15.303
 1549SOL     OW16525   1.429   4.521  14.029
 1549SOL    HW116526   1.390   4.450  14.081
 1549SOL    HW216527   1.407   4.499  13.939
 1550SOL     OW16528   3.502   0.719   4.107
 1550SOL    HW116529   3.454   0.671   4.039
 1550SOL    HW216530   3.467   0.685   4.189
 1551SOL     OW16531   3.339   2.155  17.511
 1551SOL    HW116532   3.400   2.147  17.438
 1551SOL    HW216533   3.376   2.224  17.566
 1552SOL     OW16534   3.259   0.178   5.084
 1552SOL    HW116535   3.345   0.181   5.126
 1552SOL    HW216536   3.220   0.263   5.102
 1553SOL     OW16537   0.954   1.107   5.794
 1553SOL    HW116538   0.902   1.186   5.802
 1553SOL    HW216539   0.909   1.054   5.728
 1554SOL     OW16540   0.214   3.504  16.300
 1554SOL    HW116541   0.278   3.506  16.229
 1554SOL    HW216542   0.129   3.501  16.255
 1555SOL     OW16543   4.319   3.934   0.110
 1555SOL    HW116544   4.327   4.028   0.096
 1555SOL    HW216545   4.226   3.921   0.130
 1556SOL     OW16546   1.007   0.305  18.449
 1556SOL    HW116547   1.021   0.211  18.461
 1556SOL    HW216548   0.912   0.316  18.460
 1557SOL     OW16549   1.928   3.962  17.639
 1557SOL    HW116550   1.877   4.009  17.573
 1557SOL    HW216551   1.871   3.961  17.716
 1558SOL     OW16552   3.944   1.489   6.841
 1558SOL    HW116553   3.934   1.500   6.746
 1558SOL    HW216554   4.038   1.493   6.856
 1559SOL     OW16555   2.912   4.136   0.435
 1559SOL    HW116556   2.983   4.186   0.475
 1559SOL    HW216557   2.955   4.071   0.380
 1560SOL     OW16558   3.107   0.448  17.754
 1560SOL    HW116559   3.061   0.523  17.717
 1560SOL    HW216560   3.198   0.476  17.760
 1561SOL     OW16561   0.594   3.140  15.798
 1561SOL    HW116562   0.636   3.122  15.714
 1561SOL    HW216563   0.658   3.113  15.863
 1562SOL     OW16564   3.045   2.449  19.177
 1562SOL    HW116565   3.027   2.499  19.097
 1562SOL    HW216566   2.975   2.473  19.237
 1563SOL     OW16567   1.555   1.154   6.225
 1563SOL    HW116568   1.464   1.152   6.194
 1563SOL    HW216569   1.607   1.148   6.144
 1564SOL     OW16570   1.398   0.691  14.044
 1564SOL    HW116571   1.358   0.635  14.110
 1564SOL    HW216572   1.372   0.780  14.068
 1565SOL     OW16573   3.068   0.447  16.107
 1565SOL    HW116574   3.107   0.440  16.020
 1565SOL    HW216575   3.111   0.523  16.146
 1566SOL     OW16576   0.061   0.652  12.951
 1566SOL    HW116577   0.012   0.571  12.962
 1566SOL    HW216578   0.071   0.662  12.857
 1567SOL     OW16579   1.838   2.308  18.833
 1567SOL    HW116580   1.779   2.256  18.778
 1567SOL    HW216581   1.801   2.301  18.921
 1568SOL     OW16582   0.842   0.319   2.791
 1568SOL    HW116583   0.803   0.307   2.704
 1568SOL    HW216584   0.768   0.339   2.848
 1569SOL     OW16585   0.133   0.910   5.902
 1569SOL    HW116586   0.069   0.861   5.851
 1569SOL    HW216587   0.186   0.956   5.836
 1570SOL     OW16588   0.034   2.576   3.362
 1570SOL    HW116589   4.756   2.512   3.388
 1570SOL    HW216590   0.117   2.538   3.388
 1571SOL     OW16591   0.902   3.111   0.769
 1571SOL    HW116592   0.824   3.132   0.821
 1571SOL    HW216593   0.975   3.119   0.831
 1572SOL     OW16594   0.819   1.683  20.622
 1572SOL    HW116595   0.728   1.701  20.598
 1572SOL    HW216596   0.858   1.769  20.635
 1573SOL     OW16597   1.877   2.093   3.474
 1573SOL    HW116598   1.833   2.086   3.559
 1573SOL    HW216599   1.805   2.088   3.410
 1574SOL     OW16600   0.654   4.771   4.250
 1574SOL    HW116601   0.683   4.701   4.309
 1574SOL    HW216602   0.569   4.742   4.218
 1575SOL     OW16603   2.060   1.119  18.834
 1575SOL    HW116604   1.994   1.131  18.901
 1575SOL    HW216605   2.013   1.077  18.761
 1576SOL     OW16606   0.830   1.522  20.855
 1576SOL    HW116607   0.740   1.490  20.862
 1576SOL    HW216608   0.841   1.542  20.762
 1577SOL     OW16609   3.977   3.173  19.861
 1577SOL    HW116610   4.046   3.110  19.881
 1577SOL    HW216611   3.913   3.124  19.810
 1578SOL     OW16612   4.619   1.300  15.390
 1578SOL    HW116613   4.601   1.207  15.376
 1578SOL    HW216614   4.589   1.343  15.309
 1579SOL     OW16615   2.044   2.849   3.380
 1579SOL    HW116616   1.992   2.910   3.432
 1579SOL    HW216617   2.075   2.784   3.442
 1580SOL     OW16618   0.064   2.741   4.406
 1580SOL    HW116619   0.136   2.783   4.453
 1580SOL    HW216620   4.773   2.782   4.441
 1581SOL     OW16621   3.932   1.947  15.255
 1581SOL    HW116622   3.898   1.873  15.205
 1581SOL    HW216623   3.893   2.024  15.214
 1582SOL     OW16624   1.438   0.174   2.616
 1582SOL    HW116625   1.429   0.212   2.703
 1582SOL    HW216626   1.429   0.249   2.556
 1583SOL     OW16627   0.453   1.285   2.762
 1583SOL    HW116628   0.377   1.336   2.733
 1583SOL    HW216629   0.437   1.196   2.731
 1584SOL     OW16630   1.593   0.146  17.547
 1584SOL    HW116631   1.562   0.227  17.587
 1584SOL    HW216632   1.526   0.081  17.569
 1585SOL     OW16633   0.149   3.370   3.966
 1585SOL    HW116634   0.126   3.443   3.907
 1585SOL    HW216635   0.095   3.385   4.044
 1586SOL     OW16636   2.808   3.611  19.999
 1586SOL    HW116637   2.748   3.552  20.046
 1586SOL    HW216638   2.876   3.631  20.062
 1587SOL     OW16639   2.736   2.356  12.660
 1587SOL    HW116640   2.791   2.401  12.596
 1587SOL    HW216641   2.654   2.406  12.662
 1588SOL     OW16642   1.511   0.839   3.467
 1588SOL    HW116643   1.517   0.792   3.550
 1588SOL    HW216644   1.417   0.851   3.454
 1589SOL     OW16645   2.399   1.324  18.638
 1589SOL    HW116646   2.438   1.324  18.726
 1589SOL    HW216647   2.309   1.296  18.652
 1590SOL     OW16648   4.464   1.434  17.371
 1590SOL    HW116649   4.488   1.396  17.455
 1590SOL    HW216650   4.452   1.528  17.389
 1591SOL     OW16651   4.453   2.890  14.919
 1591SOL    HW116652   4.391   2.955  14.887
 1591SOL    HW216653   4.402   2.839  14.983
 1592SOL     OW16654   4.573   4.467   6.769
 1592SOL    HW116655   4.551   4.538   6.709
 1592SOL    HW216656   4.490   4.425   6.788
 1593SOL     OW16657   0.106   3.981  20.598
 1593SOL    HW116658   0.185   3.946  20.639
 1593SOL    HW216659   0.131   3.995  20.507
 1594SOL     OW16660   0.929   1.761  13.120
 1594SOL    HW116661   1.014   1.780  13.081
 1594SOL    HW216662   0.946   1.754  13.214
 1595SOL     OW16663   4.053   0.733   0.043
 1595SOL    HW116664   4.042   0.771   0.130
 1595SOL    HW216665   4.112   0.658   0.057
 1596SOL     OW16666   3.951   1.480   1.111
 1596SOL    HW116667   3.941   1.413   1.044
 1596SOL    HW216668   3.931   1.435   1.193
 1597SOL     OW16669   4.675   3.507   1.326
 1597SOL    HW116670   4.742   3.476   1.388
 1597SOL    HW216671   4.725   3.542   1.252
 1598SOL     OW16672   1.025   0.575  15.410
 1598SOL    HW116673   1.032   0.570  15.315
 1598SOL    HW216674   1.009   0.485  15.438
 1599SOL     OW16675   0.065   2.344   3.155
 1599SOL    HW116676   0.010   2.354   3.232
 1599SOL    HW216677   0.140   2.292   3.185
 1600SOL     OW16678   3.750   1.024   3.743
 1600SOL    HW116679   3.787   0.937   3.728
 1600SOL    HW216680   3.686   1.011   3.814
 1601SOL     OW16681   4.053   4.624  20.712
 1601SOL    HW116682   4.140   4.624  20.752
 1601SOL    HW216683   4.051   4.705  20.660
 1602SOL     OW16684   1.188   2.012   5.544
 1602SOL    HW116685   1.100   2.052   5.547
 1602SOL    HW216686   1.248   2.086   5.542
 1603SOL     OW16687   3.797   2.816   5.954
 1603SOL    HW116688   3.823   2.897   5.910
 1603SOL    HW216689   3.873   2.791   6.006
 1604SOL     OW16690   1.954   0.261  16.473
 1604SOL    HW116691   1.996   0.199  16.533
 1604SOL    HW216692   2.009   0.259  16.394
 1605SOL     OW16693   2.089   4.562  16.550
 1605SOL    HW116694   2.052   4.503  16.615
 1605SOL    HW216695   2.184   4.552  16.558
 1606SOL     OW16696   3.019   4.747   4.918
 1606SOL    HW116697   2.970   4.698   4.852
 1606SOL    HW216698   3.110   4.719   4.906
 1607SOL     OW16699   0.588   3.921  19.269
 1607SOL    HW116700   0.591   3.828  19.288
 1607SOL    HW216701   0.541   3.927  19.185
 1608SOL     OW16702   3.949   2.210   6.795
 1608SOL    HW116703   3.891   2.134   6.805
 1608SOL    HW216704   3.910   2.278   6.850
 1609SOL     OW16705   1.028   0.876   0.167
 1609SOL    HW116706   1.008   0.937   0.238
 1609SOL    HW216707   1.005   0.924   0.088
 1610SOL     OW16708   4.210   3.703   6.148
 1610SOL    HW116709   4.190   3.621   6.104
 1610SOL    HW216710   4.202   3.770   6.080
 1611SOL     OW16711   1.549   1.753   4.534
 1611SOL    HW116712   1.606   1.814   4.581
 1611SOL    HW216713   1.554   1.780   4.443
 1612SOL     OW16714   1.767   1.457  18.228
 1612SOL    HW116715   1.781   1.551  18.244
 1612SOL    HW216716   1.855   1.422  18.215
 1613SOL     OW16717   1.909   1.641   2.931
 1613SOL    HW116718   1.855   1.629   3.009
 1613SOL    HW216719   1.853   1.687   2.870
 1614SOL     OW16720   4.572   1.031   4.182
 1614SOL    HW116721   4.592   1.005   4.273
 1614SOL    HW216722   4.643   0.993   4.131
 1615SOL     OW16723   4.193   0.618  17.266
 1615SOL    HW116724   4.239   0.544  17.226
 1615SOL    HW216725   4.251   0.647  17.337
 1616SOL     OW16726   0.148   2.338   4.174
 1616SOL    HW116727   0.118   2.311   4.261
 1616SOL    HW216728   0.196   2.263   4.141
 1617SOL     OW16729   1.228   3.661   3.641
 1617SOL    HW116730   1.143   3.633   3.676
 1617SOL    HW216731   1.292   3.629   3.704
 1618SOL     OW16732   0.093   4.664   4.292
 1618SOL    HW116733   0.087   4.570   4.277
 1618SOL    HW216734   0.048   4.703   4.217
 1619SOL     OW16735   0.510   1.945   4.256
 1619SOL    HW116736   0.517   1.905   4.169
 1619SOL    HW216737   0.601   1.957   4.284
 1620SOL     OW16738   4.106   1.509  14.917
 1620SOL    HW116739   4.031   1.560  14.884
 1620SOL    HW216740   4.142   1.564  14.987
 1621SOL     OW16741   2.498   2.899  21.210
 1621SOL    HW116742   2.532   2.946  21.134
 1621SOL    HW216743   2.489   2.966   0.030
 1622SOL     OW16744   2.659   0.506  18.624
 1622SOL    HW116745   2.652   0.417  18.658
 1622SOL    HW216746   2.725   0.548  18.679
 1623SOL     OW16747   1.436   4.745  19.051
 1623SOL    HW116748   1.480   4.663  19.072
 1623SOL    HW216749   1.360   4.718  18.999
 1624SOL     OW16750   1.520   2.915   0.161
 1624SOL    HW116751   1.440   2.956   0.127
 1624SOL    HW216752   1.494   2.825   0.182
 1625SOL     OW16753   2.450   4.755   4.239
 1625SOL    HW116754   2.490   4.758   4.152
 1625SOL    HW216755   2.357   4.771   4.222
 1626SOL     OW16756   1.523   2.878   3.620
 1626SOL    HW116757   1.435   2.881   3.658
 1626SOL    HW216758   1.513   2.832   3.537
 1627SOL     OW16759   4.533   1.861   2.835
 1627SOL    HW116760   4.567   1.944   2.803
 1627SOL    HW216761   4.493   1.882   2.919
 1628SOL     OW16762   1.838   4.341  13.726
 1628SOL    HW116763   1.760   4.286  13.721
 1628SOL    HW216764   1.809   4.420  13.772
 1629SOL     OW16765   0.313   2.780   0.499
 1629SOL    HW116766   0.338   2.760   0.589
 1629SOL    HW216767   0.218   2.792   0.502
 1630SOL     OW16768   3.096   0.340  21.100
 1630SOL    HW116769   3.117   0.353  21.192
 1630SOL    HW216770   3.007   0.376  21.090
 1631SOL     OW16771   1.807   3.109   5.125
 1631SOL    HW116772   1.866   3.084   5.196
 1631SOL    HW216773   1.774   3.025   5.091
 1632SOL     OW16774   3.954   0.317  20.543
 1632SOL    HW116775   3.860   0.324  20.560
 1632SOL    HW216776   3.982   0.407  20.526
 1633SOL     OW16777   3.069   3.328  19.375
 1633SOL    HW116778   3.031   3.380  19.305
 1633SOL    HW216779   3.154   3.300  19.341
 1634SOL     OW16780   2.622   0.332   6.639
 1634SOL    HW116781   2.623   0.401   6.706
 1634SOL    HW216782   2.701   0.349   6.587
 1635SOL     OW16783   3.773   2.816   3.018
 1635SOL    HW116784   3.744   2.756   2.949
 1635SOL    HW216785   3.742   2.776   3.099
 1636SOL     OW16786   0.562   2.066  15.405
 1636SOL    HW116787   0.551   2.085  15.312
 1636SOL    HW216788   0.473   2.052  15.438
 1637SOL     OW16789   1.890   2.610   4.297
 1637SOL    HW116790   1.904   2.644   4.209
 1637SOL    HW216791   1.800   2.576   4.296
 1638SOL     OW16792   4.709   0.460  15.234
 1638SOL    HW116793   4.782   0.471  15.295
 1638SOL    HW216794   4.694   0.366  15.230
 1639SOL     OW16795   2.016   4.784  17.470
 1639SOL    HW116796   1.973   0.042  17.543
 1639SOL    HW216797   2.085   0.056  17.442
 1640SOL     OW16798   4.405   2.641  17.956
 1640SOL    HW116799   4.357   2.625  18.037
 1640SOL    HW216800   4.497   2.622  17.978
 1641SOL     OW16801   0.336   2.085   4.395
 1641SOL    HW116802   0.398   2.140   4.443
 1641SOL    HW216803   0.383   2.004   4.379
 1642SOL     OW16804   4.114   3.265   5.693
 1642SOL    HW116805   4.035   3.239   5.645
 1642SOL    HW216806   4.122   3.199   5.762
 1643SOL     OW16807   4.433   4.471   6.145
 1643SOL    HW116808   4.443   4.541   6.079
 1643SOL    HW216809   4.499   4.406   6.121
 1644SOL     OW16810   0.009   0.981  17.878
 1644SOL    HW116811   0.082   0.935  17.920
 1644SOL    HW216812   0.016   1.071  17.910
 1645SOL     OW16813   1.089   1.227   6.142
 1645SOL    HW116814   1.079   1.204   6.234
 1645SOL    HW216815   1.022   1.176   6.096
 1646SOL     OW16816   0.170   0.984  15.590
 1646SOL    HW116817   0.103   1.016  15.650
 1646SOL    HW216818   0.241   0.952  15.647
 1647SOL     OW16819   1.947   4.015   7.286
 1647SOL    HW116820   1.976   4.105   7.273
 1647SOL    HW216821   1.965   3.972   7.202
 1648SOL     OW16822   0.088   2.425   5.254
 1648SOL    HW116823   0.161   2.482   5.279
 1648SOL    HW216824   0.020   2.485   5.223
 1649SOL     OW16825   2.402   2.314  15.570
 1649SOL    HW116826   2.467   2.243  15.574
 1649SOL    HW216827   2.390   2.340  15.661
 1650SOL     OW16828   1.762   2.296  13.561
 1650SOL    HW116829   1.744   2.303  13.654
 1650SOL    HW216830   1.858   2.287  13.556
 1651SOL     OW16831   0.741   3.327   2.145
 1651SOL    HW116832   0.658   3.325   2.192
 1651SOL    HW216833   0.720   3.295   2.057
 1652SOL     OW16834   2.698   4.101  17.226
 1652SOL    HW116835   2.677   4.157  17.151
 1652SOL    HW216836   2.766   4.149  17.274
 1653SOL     OW16837   0.999   3.759  16.313
 1653SOL    HW116838   1.030   3.669  16.321
 1653SOL    HW216839   1.077   3.812  16.330
 1654SOL     OW16840   0.431   1.326  20.488
 1654SOL    HW116841   0.381   1.248  20.510
 1654SOL    HW216842   0.365   1.395  20.479
 1655SOL     OW16843   3.381   2.418   6.525
 1655SOL    HW116844   3.374   2.465   6.608
 1655SOL    HW216845   3.292   2.414   6.491
 1656SOL     OW16846   1.544   0.119  18.469
 1656SOL    HW116847   1.627   0.147  18.506
 1656SOL    HW216848   1.489   0.198  18.469
 1657SOL     OW16849   0.080   4.455   2.137
 1657SOL    HW116850   0.014   4.484   2.201
 1657SOL    HW216851   0.037   4.466   2.052
 1658SOL     OW16852   2.375   0.304   2.261
 1658SOL    HW116853   2.355   0.345   2.344
 1658SOL    HW216854   2.295   0.313   2.209
 1659SOL     OW16855   2.790   1.924  14.518
 1659SOL    HW116856   2.709   1.875  14.508
 1659SOL    HW216857   2.856   1.858  14.539
 1660SOL     OW16858   3.077   1.208  16.397
 1660SOL    HW116859   3.066   1.216  16.303
 1660SOL    HW216860   3.168   1.234  16.413
 1661SOL     OW16861   4.251   1.628   8.037
 1661SOL    HW116862   4.324   1.621   7.976
 1661SOL    HW216863   4.210   1.711   8.016
 1662SOL     OW16864   2.158   2.451   1.713
 1662SOL    HW116865   2.142   2.503   1.792
 1662SOL    HW216866   2.179   2.363   1.746
 1663SOL     OW16867   3.889   2.959   0.093
 1663SOL    HW116868   3.903   3.033   0.034
 1663SOL    HW216869   3.890   2.882   0.035
 1664SOL     OW16870   1.950   0.591  17.205
 1664SOL    HW116871   1.992   0.582  17.119
 1664SOL    HW216872   2.015   0.635  17.259
 1665SOL     OW16873   4.240   4.665  16.887
 1665SOL    HW116874   4.316   4.629  16.932
 1665SOL    HW216875   4.262   4.660  16.794
 1666SOL     OW16876   0.983   4.139  15.869
 1666SOL    HW116877   0.952   4.067  15.924
 1666SOL    HW216878   0.912   4.203  15.872
 1667SOL     OW16879   2.892   2.882  14.819
 1667SOL    HW116880   2.819   2.878  14.881
 1667SOL    HW216881   2.901   2.792  14.787
 1668SOL     OW16882   2.327   0.502   5.199
 1668SOL    HW116883   2.404   0.547   5.164
 1668SOL    HW216884   2.309   0.432   5.136
 1669SOL     OW16885   0.007   3.889   3.689
 1669SOL    HW116886   0.102   3.891   3.673
 1669SOL    HW216887   4.756   3.903   3.603
 1670SOL     OW16888   1.633   3.794   6.798
 1670SOL    HW116889   1.722   3.775   6.830
 1670SOL    HW216890   1.648   3.837   6.714
 1671SOL     OW16891   2.149   1.047   3.138
 1671SOL    HW116892   2.059   1.079   3.133
 1671SOL    HW216893   2.154   1.002   3.223
 1672SOL     OW16894   3.063   0.503   5.922
 1672SOL    HW116895   3.158   0.515   5.933
 1672SOL    HW216896   3.033   0.587   5.886
 1673SOL     OW16897   3.672   0.578   5.736
 1673SOL    HW116898   3.658   0.646   5.670
 1673SOL    HW216899   3.719   0.622   5.806
 1674SOL     OW16900   0.899   0.280  17.143
 1674SOL    HW116901   0.822   0.300  17.195
 1674SOL    HW216902   0.872   0.208  17.086
 1675SOL     OW16903   0.715   4.354  17.420
 1675SOL    HW116904   0.652   4.297  17.375
 1675SOL    HW216905   0.685   4.443  17.401
 1676SOL     OW16906   2.781   3.518  18.789
 1676SOL    HW116907   2.768   3.545  18.698
 1676SOL    HW216908   2.697   3.480  18.815
 1677SOL     OW16909   3.664   1.192   2.462
 1677SOL    HW116910   3.591   1.172   2.403
 1677SOL    HW216911   3.626   1.248   2.530
 1678SOL     OW16912   4.516   3.483  15.295
 1678SOL    HW116913   4.570   3.417  15.250
 1678SOL    HW216914   4.563   3.500  15.377
 1679SOL     OW16915   1.236   0.433   9.304
 1679SOL    HW116916   1.230   0.443   9.209
 1679SOL    HW216917   1.324   0.465   9.326
 1680SOL     OW16918   2.558   2.104  15.590
 1680SOL    HW116919   2.637   2.146  15.556
 1680SOL    HW216920   2.577   2.085  15.681
 1681SOL     OW16921   3.006   4.009   2.201
 1681SOL    HW116922   3.059   3.948   2.151
 1681SOL    HW216923   2.947   4.048   2.136
 1682SOL     OW16924   0.814   2.116  19.919
 1682SOL    HW116925   0.731   2.068  19.931
 1682SOL    HW216926   0.788   2.208  19.913
 1683SOL     OW16927   4.747   1.943  19.060
 1683SOL    HW116928   4.684   2.000  19.015
 1683SOL    HW216929   4.721   1.854  19.035
 1684SOL     OW16930   1.532   3.083   8.300
 1684SOL    HW116931   1.493   2.997   8.318
 1684SOL    HW216932   1.538   3.124   8.387
 1685SOL     OW16933   4.082   3.130  13.775
 1685SOL    HW116934   4.012   3.081  13.732
 1685SOL    HW216935   4.099   3.082  13.856
 1686SOL     OW16936   0.734   3.098  15.575
 1686SOL    HW116937   0.772   3.014  15.549
 1686SOL    HW216938   0.800   3.163  15.549
 1687SOL     OW16939   2.578   2.867  20.772
 1687SOL    HW116940   2.557   2.923  20.847
 1687SOL    HW216941   2.669   2.889  20.751
 1688SOL     OW16942   2.269   1.286  15.565
 1688SOL    HW116943   2.317   1.203  15.556
 1688SOL    HW216944   2.325   1.339  15.621
 1689SOL     OW16945   4.051   2.565  14.550
 1689SOL    HW116946   4.116   2.627  14.517
 1689SOL    HW216947   3.998   2.617  14.612
 1690SOL     OW16948   3.315   3.169  20.883
 1690SOL    HW116949   3.371   3.224  20.939
 1690SOL    HW216950   3.251   3.132  20.944
 1691SOL     OW16951   2.591   4.024   3.237
 1691SOL    HW116952   2.499   4.005   3.216
 1691SOL    HW216953   2.609   4.105   3.190
 1692SOL     OW16954   3.556   1.798   1.132
 1692SOL    HW116955   3.615   1.752   1.191
 1692SOL    HW216956   3.490   1.839   1.188
 1693SOL     OW16957   3.473   3.649   6.673
 1693SOL    HW116958   3.470   3.560   6.708
 1693SOL    HW216959   3.476   3.705   6.750
 1694SOL     OW16960   0.808   0.641  18.637
 1694SOL    HW116961   0.771   0.721  18.674
 1694SOL    HW216962   0.903   0.656  18.637
 1695SOL     OW16963   4.130   0.766   1.643
 1695SOL    HW116964   4.085   0.847   1.618
 1695SOL    HW216965   4.093   0.700   1.585
 1696SOL     OW16966   0.646   2.931  14.652
 1696SOL    HW116967   0.582   2.979  14.705
 1696SOL    HW216968   0.605   2.846  14.637
 1697SOL     OW16969   1.812   1.153   2.213
 1697SOL    HW116970   1.870   1.230   2.214
 1697SOL    HW216971   1.731   1.184   2.253
 1698SOL     OW16972   0.854   1.529  20.372
 1698SOL    HW116973   0.800   1.461  20.413
 1698SOL    HW216974   0.884   1.582  20.445
 1699SOL     OW16975   3.904   4.078   4.025
 1699SOL    HW116976   3.991   4.051   4.054
 1699SOL    HW216977   3.913   4.172   4.009
 1700SOL     OW16978   1.738   2.119   3.710
 1700SOL    HW116979   1.790   2.133   3.789
 1700SOL    HW216980   1.674   2.052   3.735
 1701SOL     OW16981   2.198   4.491  16.090
 1701SOL    HW116982   2.181   4.536  16.173
 1701SOL    HW216983   2.293   4.483  16.087
 1702SOL     OW16984   2.058   0.859   1.294
 1702SOL    HW116985   2.034   0.913   1.369
 1702SOL    HW216986   2.079   0.774   1.332
 1703SOL     OW16987   2.575   1.813   4.715
 1703SOL    HW116988   2.648   1.861   4.752
 1703SOL    HW216989   2.500   1.873   4.722
 1704SOL     OW16990   1.721   3.954  17.112
 1704SOL    HW116991   1.655   3.886  17.124
 1704SOL    HW216992   1.683   4.031  17.154
 1705SOL     OW16993   3.660   3.146   7.669
 1705SOL    HW116994   3.676   3.221   7.612
 1705SOL    HW216995   3.697   3.172   7.753
 1706SOL     OW16996   3.853   4.769   1.313
 1706SOL    HW116997   3.870   4.701   1.379
 1706SOL    HW216998   3.936   0.030   1.307
 1707SOL     OW16999   1.665   0.626   5.819
 1707SOL    HW117000   1.621   0.552   5.861
 1707SOL    HW217001   1.621   0.703   5.853
 1708SOL     OW17002   3.856   0.291  16.897
 1708SOL    HW117003   3.881   0.269  16.986
 1708SOL    HW217004   3.860   0.207  16.850
 1709SOL     OW17005   1.516   3.209   2.930
 1709SOL    HW117006   1.501   3.297   2.895
 1709SOL    HW217007   1.429   3.180   2.960
 1710SOL     OW17008   1.514   0.015   5.068
 1710SOL    HW117009   1.577   4.782   4.999
 1710SOL    HW217010   1.434   4.756   5.043
 1711SOL     OW17011   3.114   3.756   5.340
 1711SOL    HW117012   3.139   3.667   5.366
 1711SOL    HW217013   3.052   3.744   5.268
 1712SOL     OW17014   0.245   0.299   0.593
 1712SOL    HW117015   0.279   0.334   0.511
 1712SOL    HW217016   0.284   0.355   0.661
 1713SOL     OW17017   4.641   1.031   0.603
 1713SOL    HW117018   4.546   1.042   0.603
 1713SOL    HW217019   4.654   0.936   0.609
 1714SOL     OW17020   0.653   1.334   8.316
 1714SOL    HW117021   0.743   1.364   8.303
 1714SOL    HW217022   0.599   1.407   8.286
 1715SOL     OW17023   4.638   2.465  17.418
 1715SOL    HW117024   4.605   2.386  17.461
 1715SOL    HW217025   4.622   2.535  17.481
 1716SOL     OW17026   0.591   1.922   3.704
 1716SOL    HW117027   0.506   1.916   3.661
 1716SOL    HW217028   0.598   2.012   3.733
 1717SOL     OW17029   1.190   3.963   4.228
 1717SOL    HW117030   1.191   3.869   4.244
 1717SOL    HW217031   1.098   3.987   4.233
 1718SOL     OW17032   3.086   0.294  18.137
 1718SOL    HW117033   3.137   0.276  18.058
 1718SOL    HW217034   2.997   0.311  18.105
 1719SOL     OW17035   0.378   2.154   4.061
 1719SOL    HW117036   0.380   2.088   4.131
 1719SOL    HW217037   0.357   2.104   3.982
 1720SOL     OW17038   0.100   4.260  16.571
 1720SOL    HW117039   0.156   4.336  16.557
 1720SOL    HW217040   0.140   4.190  16.520
 1721SOL     OW17041   0.466   0.559  17.044
 1721SOL    HW117042   0.508   0.489  17.094
 1721SOL    HW217043   0.476   0.533  16.953
 1722SOL     OW17044   1.259   4.683  19.365
 1722SOL    HW117045   1.171   4.658  19.392
 1722SOL    HW217046   1.315   4.656  19.438
 1723SOL     OW17047   4.616   4.153  18.081
 1723SOL    HW117048   4.589   4.206  18.156
 1723SOL    HW217049   4.605   4.062  18.111
 1724SOL     OW17050   2.165   1.214   0.769
 1724SOL    HW117051   2.077   1.189   0.739
 1724SOL    HW217052   2.157   1.308   0.789
 1725SOL     OW17053   0.026   4.628  20.072
 1725SOL    HW117054   0.014   4.602  19.981
 1725SOL    HW217055   0.038   4.546  20.119
 1726SOL     OW17056   0.297   3.572  17.967
 1726SOL    HW117057   0.287   3.488  18.013
 1726SOL    HW217058   0.336   3.630  18.032
 1727SOL     OW17059   2.602   2.089  20.253
 1727SOL    HW117060   2.523   2.037  20.262
 1727SOL    HW217061   2.674   2.025  20.257
 1728SOL     OW17062   3.368   0.189   2.576
 1728SOL    HW117063   3.442   0.150   2.621
 1728SOL    HW217064   3.346   0.126   2.507
 1729SOL     OW17065   4.330   4.693   4.529
 1729SOL    HW117066   4.305   4.610   4.569
 1729SOL    HW217067   4.341   4.753   4.603
 1730SOL     OW17068   0.598   0.670  15.547
 1730SOL    HW117069   0.611   0.688  15.640
 1730SOL    HW217070   0.678   0.701  15.505
 1731SOL     OW17071   1.864   2.038  20.123
 1731SOL    HW117072   1.841   2.039  20.030
 1731SOL    HW217073   1.780   2.037  20.168
 1732SOL     OW17074   2.826   4.043  17.888
 1732SOL    HW117075   2.777   3.963  17.907
 1732SOL    HW217076   2.783   4.111  17.941
 1733SOL     OW17077   3.917   2.569   1.046
 1733SOL    HW117078   3.824   2.553   1.061
 1733SOL    HW217079   3.923   2.662   1.026
 1734SOL     OW17080   4.080   4.255  14.803
 1734SOL    HW117081   4.045   4.276  14.716
 1734SOL    HW217082   4.004   4.227  14.853
 1735SOL     OW17083   4.472   0.069  14.498
 1735SOL    HW117084   4.465   0.074  14.402
 1735SOL    HW217085   4.382   0.063  14.528
 1736SOL     OW17086   0.718   2.469  17.738
 1736SOL    HW117087   0.683   2.431  17.819
 1736SOL    HW217088   0.788   2.527  17.768
 1737SOL     OW17089   1.515   0.532   3.011
 1737SOL    HW117090   1.448   0.593   3.042
 1737SOL    HW217091   1.574   0.585   2.958
 1738SOL     OW17092   3.145   1.730   0.504
 1738SOL    HW117093   3.085   1.665   0.468
 1738SOL    HW217094   3.133   1.724   0.599
 1739SOL     OW17095   4.079   0.791   6.603
 1739SOL    HW117096   4.174   0.803   6.602
 1739SOL    HW217097   4.051   0.833   6.685
 1740SOL     OW17098   3.159   3.112   0.047
 1740SOL    HW117099   3.190   3.195   0.010
 1740SOL    HW217100   3.164   3.125   0.142
 1741SOL     OW17101   0.671   1.770   6.069
 1741SOL    HW117102   0.607   1.700   6.081
 1741SOL    HW217103   0.621   1.851   6.080
 1742SOL     OW17104   1.960   1.181  12.961
 1742SOL    HW117105   1.943   1.268  12.997
 1742SOL    HW217106   1.922   1.183  12.873
 1743SOL     OW17107   1.457   3.210   1.721
 1743SOL    HW117108   1.513   3.133   1.707
 1743SOL    HW217109   1.515   3.274   1.762
 1744SOL     OW17110   0.627   3.949  18.536
 1744SOL    HW117111   0.624   3.899  18.617
 1744SOL    HW217112   0.608   4.039  18.562
 1745SOL     OW17113   4.655   3.547  15.536
 1745SOL    HW117114   4.747   3.533  15.515
 1745SOL    HW217115   4.651   3.637  15.568
 1746SOL     OW17116   2.037   2.518  13.986
 1746SOL    HW117117   2.107   2.584  13.981
 1746SOL    HW217118   1.969   2.561  14.038
 1747SOL     OW17119   3.444   2.752  14.000
 1747SOL    HW117120   3.508   2.737  13.930
 1747SOL    HW217121   3.362   2.770  13.954
 1748SOL     OW17122   4.190   4.470   4.896
 1748SOL    HW117123   4.148   4.556   4.895
 1748SOL    HW217124   4.134   4.416   4.841
 1749SOL     OW17125   3.339   3.200  16.919
 1749SOL    HW117126   3.383   3.120  16.948
 1749SOL    HW217127   3.250   3.193  16.953
 1750SOL     OW17128   4.629   1.005  18.652
 1750SOL    HW117129   4.596   1.092  18.626
 1750SOL    HW217130   4.717   1.022  18.686
 1751SOL     OW17131   2.344   2.285   6.517
 1751SOL    HW117132   2.252   2.296   6.541
 1751SOL    HW217133   2.362   2.359   6.458
 1752SOL     OW17134   2.636   2.600   6.974
 1752SOL    HW117135   2.657   2.587   7.067
 1752SOL    HW217136   2.611   2.692   6.969
 1753SOL     OW17137   2.430   4.142  19.620
 1753SOL    HW117138   2.447   4.138  19.525
 1753SOL    HW217139   2.422   4.051  19.647
 1754SOL     OW17140   3.369   3.522   6.461
 1754SOL    HW117141   3.440   3.484   6.410
 1754SOL    HW217142   3.411   3.587   6.518
 1755SOL     OW17143   4.535   0.430   3.373
 1755SOL    HW117144   4.522   0.519   3.343
 1755SOL    HW217145   4.630   0.423   3.389
 1756SOL     OW17146   3.002   0.716   2.136
 1756SOL    HW117147   3.011   0.749   2.225
 1756SOL    HW217148   2.989   0.622   2.146
 1757SOL     OW17149   2.687   4.710  19.391
 1757SOL    HW117150   2.656   4.764  19.318
 1757SOL    HW217151   2.779   4.694  19.371
 1758SOL     OW17152   2.852   3.687  20.844
 1758SOL    HW117153   2.764   3.722  20.832
 1758SOL    HW217154   2.890   3.688  20.756
 1759SOL     OW17155   2.415   3.566  14.518
 1759SOL    HW117156   2.361   3.595  14.445
 1759SOL    HW217157   2.468   3.494  14.483
 1760SOL     OW17158   3.743   4.384  18.843
 1760SOL    HW117159   3.692   4.464  18.855
 1760SOL    HW217160   3.783   4.394  18.757
 1761SOL     OW17161   2.223   0.235   0.093
 1761SOL    HW117162   2.300   0.270   0.049
 1761SOL    HW217163   2.234   0.261   0.185
 1762SOL     OW17164   4.053   3.199  21.208
 1762SOL    HW117165   4.089   3.273   0.008
 1762SOL    HW217166   4.076   3.216  21.117
 1763SOL     OW17167   1.583   2.421   8.722
 1763SOL    HW117168   1.669   2.457   8.743
 1763SOL    HW217169   1.602   2.344   8.668
 1764SOL     OW17170   2.075   4.709   8.125
 1764SOL    HW117171   2.094   4.767   8.051
 1764SOL    HW217172   2.143   4.728   8.189
 1765SOL     OW17173   0.685   0.047  18.377
 1765SOL    HW117174   0.698   0.123  18.433
 1765SOL    HW217175   0.609   0.069  18.324
 1766SOL     OW17176   1.470   1.057  15.564
 1766SOL    HW117177   1.409   0.991  15.531
 1766SOL    HW217178   1.416   1.113  15.619
 1767SOL     OW17179   4.706   3.154  17.390
 1767SOL    HW117180   4.734   3.065  17.368
 1767SOL    HW217181   4.686   3.194  17.305
 1768SOL     OW17182   0.263   3.194  17.035
 1768SOL    HW117183   0.260   3.247  17.115
 1768SOL    HW217184   0.205   3.119  17.054
 1769SOL     OW17185   4.343   4.148  17.912
 1769SOL    HW117186   4.292   4.216  17.957
 1769SOL    HW217187   4.306   4.144  17.824
 1770SOL     OW17188   1.673   0.362  18.739
 1770SOL    HW117189   1.729   0.319  18.675
 1770SOL    HW217190   1.664   0.298  18.810
 1771SOL     OW17191   4.475   3.928  20.970
 1771SOL    HW117192   4.547   3.903  20.913
 1771SOL    HW217193   4.396   3.898  20.925
 1772SOL     OW17194   2.560   0.629   4.878
 1772SOL    HW117195   2.536   0.653   4.967
 1772SOL    HW217196   2.593   0.539   4.885
 1773SOL     OW17197   3.364   3.067  15.470
 1773SOL    HW117198   3.299   3.060  15.400
 1773SOL    HW217199   3.438   3.014  15.440
 1774SOL     OW17200   3.660   4.602   3.207
 1774SOL    HW117201   3.683   4.597   3.114
 1774SOL    HW217202   3.569   4.571   3.211
 1775SOL     OW17203   0.965   3.950  15.246
 1775SOL    HW117204   0.959   3.922  15.337
 1775SOL    HW217205   1.049   3.996  15.240
 1776SOL     OW17206   1.965   1.166   1.974
 1776SOL    HW117207   1.906   1.132   1.907
 1776SOL    HW217208   1.916   1.156   2.056
 1777SOL     OW17209   4.567   4.602   5.146
 1777SOL    HW117210   4.609   4.606   5.232
 1777SOL    HW217211   4.504   4.530   5.153
 1778SOL     OW17212   2.271   3.425  16.702
 1778SOL    HW117213   2.351   3.377  16.722
 1778SOL    HW217214   2.295   3.517  16.710
 1779SOL     OW17215   4.204   0.691   1.886
 1779SOL    HW117216   4.172   0.687   1.796
 1779SOL    HW217217   4.208   0.600   1.915
 1780SOL     OW17218   1.077   4.405   0.432
 1780SOL    HW117219   1.024   4.343   0.482
 1780SOL    HW217220   1.135   4.444   0.497
 1781SOL     OW17221   3.166   3.500  19.017
 1781SOL    HW117222   3.257   3.521  18.993
 1781SOL    HW217223   3.127   3.464  18.937
 1782SOL     OW17224   2.158   0.639   1.446
 1782SOL    HW117225   2.225   0.596   1.499
 1782SOL    HW217226   2.170   0.605   1.358
 1783SOL     OW17227   4.664   0.011   3.341
 1783SOL    HW117228   4.589   4.747   3.372
 1783SOL    HW217229   4.626   0.079   3.286
 1784SOL     OW17230   0.235   1.708  21.194
 1784SOL    HW117231   0.325   1.736  21.176
 1784SOL    HW217232   0.243   1.614  21.209
 1785SOL     OW17233   2.863   0.286  16.111
 1785SOL    HW117234   2.789   0.344  16.094
 1785SOL    HW217235   2.939   0.344  16.108
 1786SOL     OW17236   0.794   2.327   8.191
 1786SOL    HW117237   0.856   2.266   8.230
 1786SOL    HW217238   0.715   2.275   8.176
 1787SOL     OW17239   4.392   2.857  17.787
 1787SOL    HW117240   4.399   2.775  17.837
 1787SOL    HW217241   4.299   2.879  17.789
 1788SOL     OW17242   3.951   1.637   9.461
 1788SOL    HW117243   3.983   1.549   9.437
 1788SOL    HW217244   3.956   1.639   9.557
 1789SOL     OW17245   1.602   0.109   6.942
 1789SOL    HW117246   1.630   0.022   6.971
 1789SOL    HW217247   1.632   0.116   6.852
 1790SOL     OW17248   0.502   0.210  14.376
 1790SOL    HW117249   0.506   0.116  14.398
 1790SOL    HW217250   0.476   0.212  14.284
 1791SOL     OW17251   0.271   2.405   6.928
 1791SOL    HW117252   0.335   2.339   6.903
 1791SOL    HW217253   0.265   2.400   7.023
 1792SOL     OW17254   4.728   1.854   9.181
 1792SOL    HW117255   4.758   1.838   9.270
 1792SOL    HW217256   4.761   1.941   9.160
 1793SOL     OW17257   1.798   3.707   5.324
 1793SOL    HW117258   1.857   3.776   5.353
 1793SOL    HW217259   1.854   3.631   5.311
 1794SOL     OW17260   2.089   0.406   4.789
 1794SOL    HW117261   2.152   0.478   4.794
 1794SOL    HW217262   2.061   0.405   4.698
 1795SOL     OW17263   3.138   0.132   7.975
 1795SOL    HW117264   3.197   0.134   7.900
 1795SOL    HW217265   3.127   0.224   7.999
 1796SOL     OW17266   0.539   2.169  10.584
 1796SOL    HW117267   0.549   2.226  10.660
 1796SOL    HW217268   0.619   2.116  10.583
 1797SOL     OW17269   3.230   2.159   8.399
 1797SOL    HW117270   3.177   2.239   8.393
 1797SOL    HW217271   3.320   2.190   8.396
 1798SOL     OW17272   4.418   0.567  15.742
 1798SOL    HW117273   4.380   0.649  15.711
 1798SOL    HW217274   4.395   0.565  15.835
 1799SOL     OW17275   0.438   0.995   9.106
 1799SOL    HW117276   0.483   1.058   9.050
 1799SOL    HW217277   0.366   0.962   9.053
 1800SOL     OW17278   0.046   3.291   8.978
 1800SOL    HW117279   0.099   3.250   8.910
 1800SOL    HW217280   0.109   3.313   9.048
 1801SOL     OW17281   0.575   2.294   9.442
 1801SOL    HW117282   0.658   2.342   9.446
 1801SOL    HW217283   0.509   2.361   9.431
 1802SOL     OW17284   0.279   2.471   7.576
 1802SOL    HW117285   0.230   2.422   7.511
 1802SOL    HW217286   0.369   2.470   7.544
 1803SOL     OW17287   0.418   2.494   9.341
 1803SOL    HW117288   0.333   2.498   9.385
 1803SOL    HW217289   0.418   2.571   9.283
 1804SOL     OW17290   2.383   2.442   8.407
 1804SOL    HW117291   2.445   2.400   8.468
 1804SOL    HW217292   2.422   2.427   8.321
 1805SOL     OW17293   4.695   3.818  15.629
 1805SOL    HW117294   4.652   3.817  15.715
 1805SOL    HW217295   4.782   3.781  15.645
 1806SOL     OW17296   0.433   4.639   8.798
 1806SOL    HW117297   0.507   4.674   8.846
 1806SOL    HW217298   0.454   4.656   8.706
 1807SOL     OW17299   2.999   0.659   9.121
 1807SOL    HW117300   3.094   0.668   9.111
 1807SOL    HW217301   2.970   0.745   9.151
 1808SOL     OW17302   3.474   1.221   5.739
 1808SOL    HW117303   3.397   1.166   5.727
 1808SOL    HW217304   3.449   1.284   5.807
 1809SOL     OW17305   3.747   3.721  14.138
 1809SOL    HW117306   3.710   3.722  14.049
 1809SOL    HW217307   3.681   3.676  14.191
 1810SOL     OW17308   4.629   3.197   9.965
 1810SOL    HW117309   4.697   3.260   9.942
 1810SOL    HW217310   4.583   3.180   9.883
 1811SOL     OW17311   4.597   0.802   9.515
 1811SOL    HW117312   4.594   0.710   9.540
 1811SOL    HW217313   4.506   0.830   9.515
 1812SOL     OW17314   3.682   1.033   1.884
 1812SOL    HW117315   3.700   1.078   1.967
 1812SOL    HW217316   3.725   0.948   1.893
 1813SOL     OW17317   2.920   3.845   9.944
 1813SOL    HW117318   2.983   3.842   9.872
 1813SOL    HW217319   2.847   3.791   9.914
 1814SOL     OW17320   3.512   3.429   8.839
 1814SOL    HW117321   3.523   3.522   8.816
 1814SOL    HW217322   3.602   3.397   8.850
 1815SOL     OW17323   1.621   3.565   5.117
 1815SOL    HW117324   1.550   3.513   5.154
 1815SOL    HW217325   1.692   3.556   5.180
 1816SOL     OW17326   0.784   2.295  10.343
 1816SOL    HW117327   0.690   2.300  10.359
 1816SOL    HW217328   0.818   2.244  10.416
 1817SOL     OW17329   3.716   2.293  10.593
 1817SOL    HW117330   3.800   2.289  10.547
 1817SOL    HW217331   3.700   2.387  10.604
 1818SOL     OW17332   4.244   1.905  10.317
 1818SOL    HW117333   4.322   1.948  10.282
 1818SOL    HW217334   4.267   1.812  10.321
 1819SOL     OW17335   2.463   3.899  11.260
 1819SOL    HW117336   2.526   3.898  11.332
 1819SOL    HW217337   2.392   3.843  11.290
 1820SOL     OW17338   3.456   2.624  10.262
 1820SOL    HW117339   3.361   2.627  10.259
 1820SOL    HW217340   3.477   2.639  10.354
 1821SOL     OW17341   4.252   0.939  11.799
 1821SOL    HW117342   4.263   0.844  11.793
 1821SOL    HW217343   4.178   0.958  11.742
 1822SOL     OW17344   3.631   2.153  10.823
 1822SOL    HW117345   3.555   2.116  10.779
 1822SOL    HW217346   3.682   2.194  10.753
 1823SOL     OW17347   3.098   1.616  11.116
 1823SOL    HW117348   3.074   1.702  11.083
 1823SOL    HW217349   3.022   1.561  11.097
 1824SOL     OW17350   3.823   2.147   9.821
 1824SOL    HW117351   3.729   2.163   9.812
 1824SOL    HW217352   3.862   2.191   9.745
 1825SOL     OW17353   4.713   2.100  10.178
 1825SOL    HW117354   4.625   2.067  10.196
 1825SOL    HW217355   4.750   2.118  10.264
 1826SOL     OW17356   4.047   0.274   9.104
 1826SOL    HW117357   3.990   0.344   9.073
 1826SOL    HW217358   4.135   0.312   9.103
 1827SOL     OW17359   3.843   1.916  10.117
 1827SOL    HW117360   3.791   1.996  10.120
 1827SOL    HW217361   3.803   1.858  10.181
 1828SOL     OW17362   4.767   3.893  11.545
 1828SOL    HW117363   4.703   3.922  11.610
 1828SOL    HW217364   0.063   3.892  11.592
 1829SOL     OW17365   3.097   1.939  10.045
 1829SOL    HW117366   3.151   1.909  10.119
 1829SOL    HW217367   3.105   1.869   9.981
 1830SOL     OW17368   3.378   1.242  10.857
 1830SOL    HW117369   3.367   1.306  10.928
 1830SOL    HW217370   3.430   1.172  10.897
 1831SOL     OW17371   4.715   1.659  13.394
 1831SOL    HW117372   4.764   1.632  13.316
 1831SOL    HW217373   4.637   1.602  13.394
 1832SOL     OW17374   3.366   0.930  13.083
 1832SOL    HW117375   3.320   0.906  13.164
 1832SOL    HW217376   3.333   1.018  13.062
 1833SOL     OW17377   2.137   0.855  11.635
 1833SOL    HW117378   2.137   0.948  11.658
 1833SOL    HW217379   2.048   0.825  11.654
 1834SOL     OW17380   3.582   2.478   9.832
 1834SOL    HW117381   3.582   2.507   9.741
 1834SOL    HW217382   3.567   2.384   9.827
 1835SOL     OW17383   3.285   1.671  11.333
 1835SOL    HW117384   3.268   1.582  11.365
 1835SOL    HW217385   3.219   1.685  11.265
 1836SOL     OW17386   0.527   1.200  12.096
 1836SOL    HW117387   0.603   1.241  12.053
 1836SOL    HW217388   0.459   1.267  12.092
 1837SOL     OW17389   0.071   1.044  12.378
 1837SOL    HW117390   0.117   1.052  12.295
 1837SOL    HW217391   4.777   1.093  12.366
 1838SOL     OW17392   0.306   1.372  12.120
 1838SOL    HW117393   0.319   1.349  12.212
 1838SOL    HW217394   0.268   1.460  12.123
 1839SOL     OW17395   2.974   1.774  11.550
 1839SOL    HW117396   3.046   1.828  11.518
 1839SOL    HW217397   3.014   1.690  11.570
 1840SOL     OW17398   4.787   2.540  11.947
 1840SOL    HW117399   0.029   2.602  12.014
 1840SOL    HW217400   0.016   2.454  11.985
 1841SOL     OW17401   4.081   1.611  12.538
 1841SOL    HW117402   4.019   1.549  12.499
 1841SOL    HW217403   4.086   1.585  12.630
 1842SOL     OW17404   3.941   0.974  10.062
 1842SOL    HW117405   3.883   0.953  10.136
 1842SOL    HW217406   3.901   0.928   9.987
 1843SOL     OW17407   4.234   0.328  12.032
 1843SOL    HW117408   4.148   0.331  12.075
 1843SOL    HW217409   4.292   0.288  12.097
 1844SOL     OW17410   3.915   1.622  10.317
 1844SOL    HW117411   3.839   1.592  10.365
 1844SOL    HW217412   3.905   1.585  10.229
 1845SOL     OW17413   3.060   1.466  12.320
 1845SOL    HW117414   3.110   1.531  12.270
 1845SOL    HW217415   3.122   1.394  12.334
 1846SOL     OW17416   2.836   1.435  12.466
 1846SOL    HW117417   2.916   1.433  12.414
 1846SOL    HW217418   2.802   1.524  12.453
 1847SOL     OW17419   3.983   3.269  11.635
 1847SOL    HW117420   4.052   3.212  11.668
 1847SOL    HW217421   3.964   3.236  11.547
 1848SOL     OW17422   4.468   2.082  12.781
 1848SOL    HW117423   4.468   2.161  12.835
 1848SOL    HW217424   4.393   2.031  12.812
 1849SOL     OW17425   3.732   2.322  11.269
 1849SOL    HW117426   3.705   2.232  11.287
 1849SOL    HW217427   3.686   2.374  11.336
 1850SOL     OW17428   3.890   1.089  10.481
 1850SOL    HW117429   3.953   1.133  10.425
 1850SOL    HW217430   3.930   1.091  10.568
 1851SOL     OW17431   4.462   1.979  11.235
 1851SOL    HW117432   4.467   2.062  11.187
 1851SOL    HW217433   4.404   1.924  11.182
 1852SOL     OW17434   4.128   1.361  11.686
 1852SOL    HW117435   4.109   1.448  11.721
 1852SOL    HW217436   4.166   1.313  11.760
 1853SOL     OW17437   3.913   1.809  17.040
 1853SOL    HW117438   4.006   1.795  17.060
 1853SOL    HW217439   3.874   1.722  17.046
 1854SOL     OW17440   0.779   4.651   3.166
 1854SOL    HW117441   0.693   4.619   3.137
 1854SOL    HW217442   0.831   4.571   3.178
 1855SOL     OW17443   4.226   1.841  12.019
 1855SOL    HW117444   4.297   1.780  11.998
 1855SOL    HW217445   4.207   1.824  12.111
 1856SOL     OW17446   3.518   3.665   0.335
 1856SOL    HW117447   3.441   3.608   0.339
 1856SOL    HW217448   3.588   3.608   0.303
 1857SOL     OW17449   1.117   2.692  16.473
 1857SOL    HW117450   1.047   2.751  16.448
 1857SOL    HW217451   1.077   2.605  16.471
 1858SOL     OW17452   2.956   1.736   1.065
 1858SOL    HW117453   2.923   1.706   0.981
 1858SOL    HW217454   3.047   1.761   1.047
 1859SOL     OW17455   2.123   4.086   6.198
 1859SOL    HW117456   2.071   4.165   6.208
 1859SOL    HW217457   2.117   4.065   6.105
 1860SOL     OW17458   1.972   3.430   3.307
 1860SOL    HW117459   1.916   3.353   3.301
 1860SOL    HW217460   2.055   3.403   3.267
 1861SOL     OW17461   1.312   4.176  18.921
 1861SOL    HW117462   1.351   4.107  18.867
 1861SOL    HW217463   1.336   4.152  19.010
 1862SOL     OW17464   0.218   2.034  18.957
 1862SOL    HW117465   0.299   2.052  19.005
 1862SOL    HW217466   0.158   2.000  19.022
 1863SOL     OW17467   1.484   1.957  15.910
 1863SOL    HW117468   1.441   1.921  15.832
 1863SOL    HW217469   1.565   1.907  15.918
 1864SOL     OW17470   0.578   3.446   6.410
 1864SOL    HW117471   0.549   3.448   6.501
 1864SOL    HW217472   0.614   3.533   6.394
 1865SOL     OW17473   3.600   3.195   5.918
 1865SOL    HW117474   3.529   3.131   5.931
 1865SOL    HW217475   3.557   3.280   5.926
 1866SOL     OW17476   4.699   0.702   4.583
 1866SOL    HW117477   4.781   0.706   4.534
 1866SOL    HW217478   4.726   0.709   4.675
 1867SOL     OW17479   3.528   4.689  18.213
 1867SOL    HW117480   3.577   4.768  18.191
 1867SOL    HW217481   3.466   4.678  18.141
 1868SOL     OW17482   3.466   2.031  13.001
 1868SOL    HW117483   3.428   2.098  12.945
 1868SOL    HW217484   3.561   2.041  12.989
 1869SOL     OW17485   3.445   4.603  15.413
 1869SOL    HW117486   3.372   4.662  15.431
 1869SOL    HW217487   3.522   4.649  15.447
 1870SOL     OW17488   1.455   0.468   3.765
 1870SOL    HW117489   1.368   0.503   3.748
 1870SOL    HW217490   1.445   0.414   3.843
 1871SOL     OW17491   3.871   2.643   2.050
 1871SOL    HW117492   3.810   2.713   2.072
 1871SOL    HW217493   3.846   2.570   2.107
 1872SOL     OW17494   1.271   0.745  12.509
 1872SOL    HW117495   1.209   0.708  12.572
 1872SOL    HW217496   1.216   0.780  12.439
 1873SOL     OW17497   3.453   0.137  18.435
 1873SOL    HW117498   3.542   0.169  18.417
 1873SOL    HW217499   3.399   0.216  18.432
 1874SOL     OW17500   1.351   2.227  16.910
 1874SOL    HW117501   1.399   2.268  16.838
 1874SOL    HW217502   1.292   2.295  16.942
 1875SOL     OW17503   4.616   1.927  13.425
 1875SOL    HW117504   4.665   1.850  13.395
 1875SOL    HW217505   4.568   1.897  13.502
 1876SOL     OW17506   1.676   1.060  19.852
 1876SOL    HW117507   1.754   1.061  19.907
 1876SOL    HW217508   1.709   1.062  19.762
 1877SOL     OW17509   0.142   4.765   5.486
 1877SOL    HW117510   0.156   4.763   5.581
 1877SOL    HW217511   0.219   4.721   5.450
 1878SOL     OW17512   1.457   0.549   4.669
 1878SOL    HW117513   1.520   0.503   4.724
 1878SOL    HW217514   1.376   0.548   4.719
 1879SOL     OW17515   2.049   0.240   1.550
 1879SOL    HW117516   2.031   0.147   1.568
 1879SOL    HW217517   2.016   0.254   1.462
 1880SOL     OW17518   4.783   2.607  13.791
 1880SOL    HW117519   0.061   2.538  13.803
 1880SOL    HW217520   4.774   2.615  13.697
 1881SOL     OW17521   0.419   1.358  11.818
 1881SOL    HW117522   0.414   1.335  11.911
 1881SOL    HW217523   0.337   1.326  11.781
 1882SOL     OW17524   1.729   1.067   5.162
 1882SOL    HW117525   1.735   1.146   5.216
 1882SOL    HW217526   1.788   1.005   5.203
 1883SOL     OW17527   2.051   3.468   5.067
 1883SOL    HW117528   2.134   3.480   5.021
 1883SOL    HW217529   2.008   3.553   5.061
 1884SOL     OW17530   3.306   0.707   5.331
 1884SOL    HW117531   3.244   0.780   5.327
 1884SOL    HW217532   3.391   0.748   5.313
 1885SOL     OW17533   0.086   4.176  18.557
 1885SOL    HW117534   0.126   4.240  18.498
 1885SOL    HW217535   0.018   4.226  18.602
 1886SOL     OW17536   1.167   3.138   2.146
 1886SOL    HW117537   1.165   3.169   2.055
 1886SOL    HW217538   1.193   3.046   2.139
 1887SOL     OW17539   4.711   2.262   5.442
 1887SOL    HW117540   4.772   2.305   5.502
 1887SOL    HW217541   4.735   2.295   5.355
 1888SOL     OW17542   3.595   4.728  17.401
 1888SOL    HW117543   3.670   4.718  17.343
 1888SOL    HW217544   3.617   0.013  17.458
 1889SOL     OW17545   0.965   0.557   3.694
 1889SOL    HW117546   0.872   0.567   3.677
 1889SOL    HW217547   0.983   0.465   3.679
 1890SOL     OW17548   3.671   3.159  15.810
 1890SOL    HW117549   3.589   3.123  15.775
 1890SOL    HW217550   3.644   3.214  15.883
 1891SOL     OW17551   4.396   1.600  14.099
 1891SOL    HW117552   4.482   1.558  14.104
 1891SOL    HW217553   4.335   1.527  14.089
 1892SOL     OW17554   4.694   0.219   6.933
 1892SOL    HW117555   4.722   0.243   7.021
 1892SOL    HW217556   4.629   0.149   6.947
 1893SOL     OW17557   2.799   4.001  14.487
 1893SOL    HW117558   2.792   3.910  14.517
 1893SOL    HW217559   2.888   4.008  14.452
 1894SOL     OW17560   3.170   1.202  18.354
 1894SOL    HW117561   3.203   1.130  18.299
 1894SOL    HW217562   3.244   1.263  18.359
 1895SOL     OW17563   4.631   0.244  19.478
 1895SOL    HW117564   4.595   0.332  19.485
 1895SOL    HW217565   4.694   0.237  19.549
 1896SOL     OW17566   1.368   3.029  20.396
 1896SOL    HW117567   1.396   2.948  20.439
 1896SOL    HW217568   1.446   3.062  20.353
 1897SOL     OW17569   0.634   3.360   4.772
 1897SOL    HW117570   0.687   3.369   4.851
 1897SOL    HW217571   0.640   3.268   4.748
 1898SOL     OW17572   0.537   0.152   1.214
 1898SOL    HW117573   0.470   0.171   1.280
 1898SOL    HW217574   0.503   0.076   1.168
 1899SOL     OW17575   4.508   0.652  15.283
 1899SOL    HW117576   4.588   0.603  15.263
 1899SOL    HW217577   4.456   0.592  15.337
 1900SOL     OW17578   1.962   0.539   3.933
 1900SOL    HW117579   1.934   0.616   3.883
 1900SOL    HW217580   1.931   0.464   3.882
 1901SOL     OW17581   3.613   4.382   0.648
 1901SOL    HW117582   3.567   4.302   0.622
 1901SOL    HW217583   3.606   4.384   0.744
 1902SOL     OW17584   1.322   2.959  19.766
 1902SOL    HW117585   1.315   2.866  19.788
 1902SOL    HW217586   1.318   3.004  19.850
 1903SOL     OW17587   0.162   0.144   6.681
 1903SOL    HW117588   0.100   0.102   6.621
 1903SOL    HW217589   0.223   0.191   6.624
 1904SOL     OW17590   1.984   4.316  16.406
 1904SOL    HW117591   2.074   4.345  16.424
 1904SOL    HW217592   1.929   4.385  16.444
 1905SOL     OW17593   1.831   3.755  19.466
 1905SOL    HW117594   1.833   3.842  19.506
 1905SOL    HW217595   1.921   3.723  19.476
 1906SOL     OW17596   1.939   4.662  19.371
 1906SOL    HW117597   1.939   4.621  19.458
 1906SOL    HW217598   1.899   4.748  19.385
 1907SOL     OW17599   0.846   1.002   5.553
 1907SOL    HW117600   0.772   0.967   5.505
 1907SOL    HW217601   0.868   1.084   5.508
 1908SOL     OW17602   2.697   1.056  15.874
 1908SOL    HW117603   2.625   1.003  15.906
 1908SOL    HW217604   2.726   1.011  15.794
 1909SOL     OW17605   4.172   3.516  20.569
 1909SOL    HW117606   4.213   3.520  20.656
 1909SOL    HW217607   4.105   3.584  20.571
 1910SOL     OW17608   2.821   1.427  17.163
 1910SOL    HW117609   2.810   1.416  17.069
 1910SOL    HW217610   2.788   1.345  17.201
 1911SOL     OW17611   0.413   4.678  13.968
 1911SOL    HW117612   0.363   4.609  13.924
 1911SOL    HW217613   0.456   4.726  13.898
 1912SOL     OW17614   3.051   3.808   0.064
 1912SOL    HW117615   3.098   3.726   0.046
 1912SOL    HW217616   2.998   3.823  21.233
 1913SOL     OW17617   1.414   4.682  15.240
 1913SOL    HW117618   1.368   4.604  15.271
 1913SOL    HW217619   1.443   4.726  15.319
 1914SOL     OW17620   4.281   4.211  20.158
 1914SOL    HW117621   4.266   4.274  20.088
 1914SOL    HW217622   4.193   4.187  20.188
 1915SOL     OW17623   2.094   4.663  16.299
 1915SOL    HW117624   2.120   4.633  16.386
 1915SOL    HW217625   2.005   4.629  16.288
 1916SOL     OW17626   0.506   3.387  19.382
 1916SOL    HW117627   0.580   3.366  19.438
 1916SOL    HW217628   0.457   3.305  19.375
 1917SOL     OW17629   1.851   2.806   5.484
 1917SOL    HW117630   1.826   2.754   5.408
 1917SOL    HW217631   1.875   2.892   5.449
 1918SOL     OW17632   1.881   3.144  20.126
 1918SOL    HW117633   1.893   3.216  20.187
 1918SOL    HW217634   1.919   3.068  20.170
 1919SOL     OW17635   1.197   0.773  16.302
 1919SOL    HW117636   1.232   0.692  16.265
 1919SOL    HW217637   1.230   0.842  16.246
 1920SOL     OW17638   4.483   4.554   7.032
 1920SOL    HW117639   4.499   4.533   6.940
 1920SOL    HW217640   4.395   4.519   7.049
 1921SOL     OW17641   0.701   0.594   3.540
 1921SOL    HW117642   0.611   0.620   3.559
 1921SOL    HW217643   0.698   0.557   3.452
 1922SOL     OW17644   2.386   2.831   5.612
 1922SOL    HW117645   2.384   2.876   5.528
 1922SOL    HW217646   2.412   2.899   5.675
 1923SOL     OW17647   2.149   0.722  17.379
 1923SOL    HW117648   2.214   0.733  17.311
 1923SOL    HW217649   2.129   0.812  17.407
 1924SOL     OW17650   3.025   3.551  17.085
 1924SOL    HW117651   3.040   3.483  17.020
 1924SOL    HW217652   3.113   3.584  17.106
 1925SOL     OW17653   4.082   4.733   4.916
 1925SOL    HW117654   4.118   0.008   4.978
 1925SOL    HW217655   3.991   4.721   4.944
 1926SOL     OW17656   2.432   3.749  13.084
 1926SOL    HW117657   2.487   3.741  13.006
 1926SOL    HW217658   2.437   3.663  13.126
 1927SOL     OW17659   0.558   3.371   1.505
 1927SOL    HW117660   0.612   3.294   1.521
 1927SOL    HW217661   0.520   3.357   1.419
 1928SOL     OW17662   1.858   0.152  15.553
 1928SOL    HW117663   1.853   0.070  15.503
 1928SOL    HW217664   1.885   0.218  15.489
 1929SOL     OW17665   1.332   0.885  21.221
 1929SOL    HW117666   1.320   0.791  21.231
 1929SOL    HW217667   1.414   0.894  21.172
 1930SOL     OW17668   3.274   4.357  15.802
 1930SOL    HW117669   3.193   4.323  15.765
 1930SOL    HW217670   3.335   4.358  15.728
 1931SOL     OW17671   3.129   4.720  16.043
 1931SOL    HW117672   3.152   4.775  16.117
 1931SOL    HW217673   3.109   4.782  15.972
 1932SOL     OW17674   1.877   0.057   1.877
 1932SOL    HW117675   1.912   0.038   1.790
 1932SOL    HW217676   1.832   4.764   1.902
 1933SOL     OW17677   2.812   3.270  15.833
 1933SOL    HW117678   2.845   3.301  15.750
 1933SOL    HW217679   2.834   3.339  15.896
 1934SOL     OW17680   3.277   1.647   0.049
 1934SOL    HW117681   3.202   1.611   0.097
 1934SOL    HW217682   3.349   1.587   0.068
 1935SOL     OW17683   4.658   2.468   2.174
 1935SOL    HW117684   4.709   2.423   2.107
 1935SOL    HW217685   4.646   2.557   2.140
 1936SOL     OW17686   2.497   1.564   2.921
 1936SOL    HW117687   2.448   1.574   2.839
 1936SOL    HW217688   2.577   1.519   2.896
 1937SOL     OW17689   1.418   4.198  19.468
 1937SOL    HW117690   1.487   4.137  19.441
 1937SOL    HW217691   1.337   4.148  19.461
 1938SOL     OW17692   4.500   2.122  15.473
 1938SOL    HW117693   4.545   2.114  15.557
 1938SOL    HW217694   4.453   2.205  15.479
 1939SOL     OW17695   0.084   2.761   5.744
 1939SOL    HW117696   0.157   2.700   5.750
 1939SOL    HW217697   0.040   2.737   5.662
 1940SOL     OW17698   4.381   3.970  20.039
 1940SOL    HW117699   4.367   3.881  20.069
 1940SOL    HW217700   4.382   4.023  20.119
 1941SOL     OW17701   4.345   2.927   0.514
 1941SOL    HW117702   4.394   2.847   0.492
 1941SOL    HW217703   4.333   2.971   0.430
 1942SOL     OW17704   3.736   1.153   0.596
 1942SOL    HW117705   3.655   1.115   0.631
 1942SOL    HW217706   3.733   1.245   0.623
 1943SOL     OW17707   4.381   4.421   0.763
 1943SOL    HW117708   4.366   4.356   0.694
 1943SOL    HW217709   4.460   4.391   0.807
 1944SOL     OW17710   2.518   3.359   3.103
 1944SOL    HW117711   2.539   3.402   3.021
 1944SOL    HW217712   2.458   3.420   3.147
 1945SOL     OW17713   3.827   4.723   5.013
 1945SOL    HW117714   3.788   0.022   5.025
 1945SOL    HW217715   3.811   4.678   5.096
 1946SOL     OW17716   2.725   1.088   4.877
 1946SOL    HW117717   2.687   1.157   4.823
 1946SOL    HW217718   2.702   1.007   4.832
 1947SOL     OW17719   2.129   2.729   1.002
 1947SOL    HW117720   2.206   2.706   1.053
 1947SOL    HW217721   2.062   2.666   1.030
 1948SOL     OW17722   1.943   4.000   8.852
 1948SOL    HW117723   2.031   4.026   8.880
 1948SOL    HW217724   1.953   3.972   8.761
 1949SOL     OW17725   1.091   1.064  20.149
 1949SOL    HW117726   1.015   1.095  20.198
 1949SOL    HW217727   1.055   1.028  20.068
 1950SOL     OW17728   3.594   2.787  15.969
 1950SOL    HW117729   3.535   2.850  15.927
 1950SOL    HW217730   3.674   2.791  15.916
 1951SOL     OW17731   4.652   3.981  14.986
 1951SOL    HW117732   4.689   4.059  15.028
 1951SOL    HW217733   4.585   3.950  15.048
 1952SOL     OW17734   4.043   3.224   3.938
 1952SOL    HW117735   4.042   3.208   4.033
 1952SOL    HW217736   4.126   3.268   3.923
 1953SOL     OW17737   4.210   1.810  15.191
 1953SOL    HW117738   4.183   1.900  15.172
 1953SOL    HW217739   4.303   1.817  15.210
 1954SOL     OW17740   1.283   3.546  19.365
 1954SOL    HW117741   1.267   3.533  19.458
 1954SOL    HW217742   1.195   3.551  19.327
 1955SOL     OW17743   4.277   3.285   2.738
 1955SOL    HW117744   4.207   3.290   2.673
 1955SOL    HW217745   4.278   3.193   2.765
 1956SOL     OW17746   0.092   0.366   6.385
 1956SOL    HW117747   0.029   0.294   6.392
 1956SOL    HW217748   0.173   0.331   6.422
 1957SOL     OW17749   1.420   3.611  18.132
 1957SOL    HW117750   1.365   3.684  18.156
 1957SOL    HW217751   1.394   3.590  18.042
 1958SOL     OW17752   2.607   3.410  20.768
 1958SOL    HW117753   2.642   3.419  20.856
 1958SOL    HW217754   2.680   3.374  20.717
 1959SOL     OW17755   3.351   1.700   3.295
 1959SOL    HW117756   3.430   1.708   3.348
 1959SOL    HW217757   3.372   1.744   3.213
 1960SOL     OW17758   1.943   2.174   2.875
 1960SOL    HW117759   1.886   2.185   2.799
 1960SOL    HW217760   1.972   2.083   2.871
 1961SOL     OW17761   3.274   4.694  14.698
 1961SOL    HW117762   3.359   4.686  14.655
 1961SOL    HW217763   3.251   4.605  14.722
 1962SOL     OW17764   0.283   1.313   5.952
 1962SOL    HW117765   0.218   1.322   6.021
 1962SOL    HW217766   0.330   1.233   5.973
 1963SOL     OW17767   3.934   3.898   3.629
 1963SOL    HW117768   4.005   3.837   3.651
 1963SOL    HW217769   3.978   3.983   3.619
 1964SOL     OW17770   1.625   4.186  17.236
 1964SOL    HW117771   1.677   4.254  17.193
 1964SOL    HW217772   1.538   4.193  17.195
 1965SOL     OW17773   1.157   1.600   0.044
 1965SOL    HW117774   1.156   1.678  21.237
 1965SOL    HW217775   1.178   1.528  21.232
 1966SOL     OW17776   1.272   0.134  15.178
 1966SOL    HW117777   1.282   0.100  15.268
 1966SOL    HW217778   1.359   0.167  15.156
 1967SOL     OW17779   1.141   2.148   3.002
 1967SOL    HW117780   1.144   2.226   2.946
 1967SOL    HW217781   1.189   2.081   2.952
 1968SOL     OW17782   0.286   2.284  17.234
 1968SOL    HW117783   0.287   2.377  17.213
 1968SOL    HW217784   0.241   2.278  17.318
 1969SOL     OW17785   2.095   4.317   0.163
 1969SOL    HW117786   2.111   4.222   0.163
 1969SOL    HW217787   2.129   4.347   0.247
 1970SOL     OW17788   3.534   2.768  19.069
 1970SOL    HW117789   3.453   2.725  19.097
 1970SOL    HW217790   3.509   2.859  19.053
 1971SOL     OW17791   4.325   3.571  20.830
 1971SOL    HW117792   4.406   3.563  20.882
 1971SOL    HW217793   4.310   3.665  20.825
 1972SOL     OW17794   3.799   3.679   3.917
 1972SOL    HW117795   3.825   3.588   3.932
 1972SOL    HW217796   3.854   3.708   3.845
 1973SOL     OW17797   2.138   0.302  16.251
 1973SOL    HW117798   2.180   0.223  16.284
 1973SOL    HW217799   2.160   0.304  16.157
 1974SOL     OW17800   3.147   2.127  16.034
 1974SOL    HW117801   3.219   2.174  16.078
 1974SOL    HW217802   3.190   2.056  15.987
 1975SOL     OW17803   0.443   2.964   4.773
 1975SOL    HW117804   0.502   3.016   4.718
 1975SOL    HW217805   0.434   2.881   4.726
 1976SOL     OW17806   1.451   2.106  17.120
 1976SOL    HW117807   1.542   2.133  17.115
 1976SOL    HW217808   1.409   2.147  17.045
 1977SOL     OW17809   0.365   1.732  18.074
 1977SOL    HW117810   0.294   1.701  18.130
 1977SOL    HW217811   0.443   1.690  18.110
 1978SOL     OW17812   3.757   2.200   4.664
 1978SOL    HW117813   3.850   2.174   4.661
 1978SOL    HW217814   3.734   2.197   4.757
 1979SOL     OW17815   2.458   1.030  20.230
 1979SOL    HW117816   2.490   1.015  20.320
 1979SOL    HW217817   2.425   0.944  20.202
 1980SOL     OW17818   3.974   1.050  17.076
 1980SOL    HW117819   3.890   1.088  17.049
 1980SOL    HW217820   4.012   1.017  16.995
 1981SOL     OW17821   4.506   4.334  19.974
 1981SOL    HW117822   4.523   4.242  19.954
 1981SOL    HW217823   4.475   4.371  19.891
 1982SOL     OW17824   2.022   2.580  20.726
 1982SOL    HW117825   2.089   2.520  20.692
 1982SOL    HW217826   2.068   2.663  20.737
 1983SOL     OW17827   3.603   2.020   1.883
 1983SOL    HW117828   3.646   1.947   1.838
 1983SOL    HW217829   3.511   1.995   1.886
 1984SOL     OW17830   0.111   1.649  19.210
 1984SOL    HW117831   0.062   1.578  19.251
 1984SOL    HW217832   0.193   1.610  19.183
 1985SOL     OW17833   0.683   4.330   1.336
 1985SOL    HW117834   0.631   4.263   1.290
 1985SOL    HW217835   0.651   4.413   1.300
 1986SOL     OW17836   0.594   1.970  17.009
 1986SOL    HW117837   0.521   2.004  17.060
 1986SOL    HW217838   0.629   2.046  16.963
 1987SOL     OW17839   3.717   2.572  13.244
 1987SOL    HW117840   3.621   2.579  13.245
 1987SOL    HW217841   3.746   2.651  13.199
 1988SOL     OW17842   3.043   3.267   6.305
 1988SOL    HW117843   3.086   3.240   6.387
 1988SOL    HW217844   3.088   3.349   6.281
 1989SOL     OW17845   2.598   0.786  14.486
 1989SOL    HW117846   2.684   0.787  14.528
 1989SOL    HW217847   2.551   0.859  14.527
 1990SOL     OW17848   2.145   1.132  20.353
 1990SOL    HW117849   2.064   1.177  20.374
 1990SOL    HW217850   2.120   1.040  20.344
 1991SOL     OW17851   2.841   4.613  16.670
 1991SOL    HW117852   2.844   4.523  16.701
 1991SOL    HW217853   2.903   4.616  16.597
 1992SOL     OW17854   1.303   3.811   5.647
 1992SOL    HW117855   1.299   3.716   5.642
 1992SOL    HW217856   1.389   3.830   5.685
 1993SOL     OW17857   1.263   4.733   4.948
 1993SOL    HW117858   1.207   4.719   5.025
 1993SOL    HW217859   1.228   0.025   4.907
 1994SOL     OW17860   1.730   4.480   6.361
 1994SOL    HW117861   1.774   4.395   6.357
 1994SOL    HW217862   1.800   4.544   6.357
 1995SOL     OW17863   2.958   1.638   1.771
 1995SOL    HW117864   2.978   1.581   1.845
 1995SOL    HW217865   3.042   1.652   1.727
 1996SOL     OW17866   0.028   0.092  12.613
 1996SOL    HW117867   4.742   0.044  12.574
 1996SOL    HW217868   0.104   0.068  12.560
 1997SOL     OW17869   1.276   3.371  20.960
 1997SOL    HW117870   1.185   3.390  20.980
 1997SOL    HW217871   1.326   3.415  21.028
 1998SOL     OW17872   1.383   0.885   2.312
 1998SOL    HW117873   1.447   0.919   2.249
 1998SOL    HW217874   1.299   0.918   2.281
 1999SOL     OW17875   2.952   0.711  16.239
 1999SOL    HW117876   2.910   0.654  16.303
 1999SOL    HW217877   2.935   0.800  16.272
 2000SOL     OW17878   4.706   1.727  18.850
 2000SOL    HW117879   4.709   1.798  18.786
 2000SOL    HW217880   4.747   1.652  18.806
 2001SOL     OW17881   3.091   4.023  19.802
 2001SOL    HW117882   3.141   4.103  19.790
 2001SOL    HW217883   3.033   4.019  19.726
 2002SOL     OW17884   1.822   1.729   6.838
 2002SOL    HW117885   1.746   1.743   6.895
 2002SOL    HW217886   1.810   1.792   6.768
 2003SOL     OW17887   3.860   0.482  16.718
 2003SOL    HW117888   3.859   0.438  16.802
 2003SOL    HW217889   3.821   0.419  16.657
 2004SOL     OW17890   0.121   3.006   2.818
 2004SOL    HW117891   0.065   3.023   2.894
 2004SOL    HW217892   0.130   2.911   2.816
 2005SOL     OW17893   1.974   2.838   4.780
 2005SOL    HW117894   1.898   2.783   4.762
 2005SOL    HW217895   1.959   2.917   4.728
 2006SOL     OW17896   3.094   3.204   4.256
 2006SOL    HW117897   3.070   3.128   4.202
 2006SOL    HW217898   3.025   3.268   4.240
 2007SOL     OW17899   4.506   3.615  18.578
 2007SOL    HW117900   4.536   3.524  18.571
 2007SOL    HW217901   4.466   3.634  18.493
 2008SOL     OW17902   3.402   3.816   3.951
 2008SOL    HW117903   3.421   3.909   3.955
 2008SOL    HW217904   3.404   3.794   3.858
 2009SOL     OW17905   0.494   0.027  13.723
 2009SOL    HW117906   0.420   0.070  13.681
 2009SOL    HW217907   0.548   4.782  13.651
 2010SOL     OW17908   3.691   0.366  20.510
 2010SOL    HW117909   3.618   0.427  20.522
 2010SOL    HW217910   3.682   0.334  20.420
 2011SOL     OW17911   0.628   0.200   1.589
 2011SOL    HW117912   0.585   0.117   1.609
 2011SOL    HW217913   0.562   0.252   1.543
 2012SOL     OW17914   0.090   3.379  20.881
 2012SOL    HW117915   0.134   3.402  20.799
 2012SOL    HW217916   4.785   3.400  20.865
 2013SOL     OW17917   3.637   3.383  15.506
 2013SOL    HW117918   3.725   3.345  15.506
 2013SOL    HW217919   3.624   3.414  15.596
 2014SOL     OW17920   4.483   0.022  21.106
 2014SOL    HW117921   4.434   0.096  21.072
 2014SOL    HW217922   4.536   4.779  21.032
 2015SOL     OW17923   2.014   3.683   2.352
 2015SOL    HW117924   1.926   3.680   2.314
 2015SOL    HW217925   2.062   3.615   2.307
 2016SOL     OW17926   4.482   1.055  16.198
 2016SOL    HW117927   4.537   0.996  16.250
 2016SOL    HW217928   4.398   1.055  16.243
 2017SOL     OW17929   1.244   1.447   2.292
 2017SOL    HW117930   1.194   1.523   2.323
 2017SOL    HW217931   1.230   1.446   2.198
 2018SOL     OW17932   2.317   2.977   4.952
 2018SOL    HW117933   2.285   3.000   5.040
 2018SOL    HW217934   2.396   3.030   4.941
 2019SOL     OW17935   4.579   2.317  13.180
 2019SOL    HW117936   4.653   2.325  13.240
 2019SOL    HW217937   4.506   2.358  13.227
 2020SOL     OW17938   4.409   2.432  12.688
 2020SOL    HW117939   4.336   2.392  12.640
 2020SOL    HW217940   4.457   2.480  12.621
 2021SOL     OW17941   1.503   3.702  19.109
 2021SOL    HW117942   1.556   3.782  19.107
 2021SOL    HW217943   1.523   3.662  19.194
 2022SOL     OW17944   4.604   2.510   4.257
 2022SOL    HW117945   4.652   2.562   4.193
 2022SOL    HW217946   4.583   2.429   4.211
 2023SOL     OW17947   2.058   0.990   2.762
 2023SOL    HW117948   2.012   1.072   2.780
 2023SOL    HW217949   2.069   0.990   2.667
 2024SOL     OW17950   0.548   3.342  17.432
 2024SOL    HW117951   0.473   3.352  17.491
 2024SOL    HW217952   0.582   3.431  17.422
 2025SOL     OW17953   0.709   2.684   4.983
 2025SOL    HW117954   0.657   2.610   5.014
 2025SOL    HW217955   0.752   2.651   4.904
 2026SOL     OW17956   2.408   3.876   2.962
 2026SOL    HW117957   2.355   3.918   2.894
 2026SOL    HW217958   2.354   3.804   2.993
 2027SOL     OW17959   2.402   1.627  20.801
 2027SOL    HW117960   2.444   1.707  20.833
 2027SOL    HW217961   2.397   1.638  20.706
 2028SOL     OW17962   1.827   3.512  21.189
 2028SOL    HW117963   1.837   3.552   0.028
 2028SOL    HW217964   1.899   3.449  21.184
 2029SOL     OW17965   0.968   1.834   3.158
 2029SOL    HW117966   0.919   1.765   3.115
 2029SOL    HW217967   0.977   1.804   3.249
 2030SOL     OW17968   2.170   1.403   6.810
 2030SOL    HW117969   2.171   1.497   6.795
 2030SOL    HW217970   2.086   1.386   6.853
 2031SOL     OW17971   0.543   1.596  20.281
 2031SOL    HW117972   0.519   1.661  20.215
 2031SOL    HW217973   0.460   1.566  20.317
 2032SOL     OW17974   3.825   1.331   8.555
 2032SOL    HW117975   3.876   1.411   8.542
 2032SOL    HW217976   3.791   1.311   8.467
 2033SOL     OW17977   2.724   3.762   1.508
 2033SOL    HW117978   2.763   3.738   1.424
 2033SOL    HW217979   2.630   3.765   1.490
 2034SOL     OW17980   4.042   2.193  20.293
 2034SOL    HW117981   4.115   2.217  20.236
 2034SOL    HW217982   4.068   2.110  20.332
 2035SOL     OW17983   0.937   0.064   1.668
 2035SOL    HW117984   0.909   0.138   1.615
 2035SOL    HW217985   1.033   0.063   1.660
 2036SOL     OW17986   2.031   1.324  17.445
 2036SOL    HW117987   2.039   1.323  17.350
 2036SOL    HW217988   1.955   1.268  17.463
 2037SOL     OW17989   4.727   0.491   0.471
 2037SOL    HW117990   0.023   0.519   0.507
 2037SOL    HW217991   4.669   0.485   0.547
 2038SOL     OW17992   0.113   3.538   7.044
 2038SOL    HW117993   0.097   3.616   7.097
 2038SOL    HW217994   0.202   3.510   7.067
 2039SOL     OW17995   4.306   2.010  14.919
 2039SOL    HW117996   4.311   2.075  14.849
 2039SOL    HW217997   4.332   2.058  14.998
 2040SOL     OW17998   0.667   3.437  20.177
 2040SOL    HW117999   0.572   3.429  20.164
 2040SOL    HW218000   0.704   3.409  20.093
 2041SOL     OW18001   2.067   3.200  20.572
 2041SOL    HW118002   2.150   3.243  20.593
 2041SOL    HW218003   2.035   3.168  20.657
 2042SOL     OW18004   4.733   2.988  18.851
 2042SOL    HW118005   0.012   3.030  18.796
 2042SOL    HW218006   4.732   3.041  18.931
 2043SOL     OW18007   2.873   2.576   4.789
 2043SOL    HW118008   2.793   2.545   4.831
 2043SOL    HW218009   2.872   2.671   4.802
 2044SOL     OW18010   4.333   1.082  20.937
 2044SOL    HW118011   4.286   1.098  21.019
 2044SOL    HW218012   4.339   1.168  20.896
 2045SOL     OW18013   2.447   2.217  16.023
 2045SOL    HW118014   2.467   2.281  16.091
 2045SOL    HW218015   2.398   2.148  16.069
 2046SOL     OW18016   1.024   4.637   6.189
 2046SOL    HW118017   1.037   4.545   6.167
 2046SOL    HW218018   0.933   4.654   6.166
 2047SOL     OW18019   1.113   4.260  16.317
 2047SOL    HW118020   1.083   4.340  16.360
 2047SOL    HW218021   1.145   4.205  16.388
 2048SOL     OW18022   4.775   0.268  18.360
 2048SOL    HW118023   0.055   0.336  18.358
 2048SOL    HW218024   4.717   0.291  18.288
 2049SOL     OW18025   0.111   0.339   2.930
 2049SOL    HW118026   0.107   0.279   3.004
 2049SOL    HW218027   0.075   0.421   2.964
 2050SOL     OW18028   1.304   4.417  19.159
 2050SOL    HW118029   1.387   4.413  19.111
 2050SOL    HW218030   1.292   4.510  19.178
 2051SOL     OW18031   3.092   3.587   3.268
 2051SOL    HW118032   3.078   3.530   3.344
 2051SOL    HW218033   3.043   3.546   3.197
 2052SOL     OW18034   4.615   1.119   3.571
 2052SOL    HW118035   4.533   1.168   3.561
 2052SOL    HW218036   4.591   1.042   3.621
 2053SOL     OW18037   2.024   4.703   5.160
 2053SOL    HW118038   1.975   4.767   5.108
 2053SOL    HW218039   1.988   4.712   5.248
 2054SOL     OW18040   1.545   3.760   0.693
 2054SOL    HW118041   1.456   3.755   0.729
 2054SOL    HW218042   1.538   3.823   0.621
 2055SOL     OW18043   4.342   0.809  15.103
 2055SOL    HW118044   4.260   0.763  15.124
 2055SOL    HW218045   4.408   0.765  15.156
 2056SOL     OW18046   3.669   0.426  13.824
 2056SOL    HW118047   3.759   0.460  13.822
 2056SOL    HW218048   3.657   0.385  13.738
 2057SOL     OW18049   1.231   1.059   5.842
 2057SOL    HW118050   1.136   1.052   5.839
 2057SOL    HW218051   1.260   0.984   5.893
 2058SOL     OW18052   0.667   1.924  17.647
 2058SOL    HW118053   0.579   1.887  17.638
 2058SOL    HW218054   0.652   2.018  17.659
 2059SOL     OW18055   4.077   0.282   6.010
 2059SOL    HW118056   3.993   0.273   6.055
 2059SOL    HW218057   4.118   0.196   6.019
 2060SOL     OW18058   0.142   4.379   6.141
 2060SOL    HW118059   0.159   4.335   6.225
 2060SOL    HW218060   0.226   4.379   6.097
 2061SOL     OW18061   2.086   0.111  13.786
 2061SOL    HW118062   2.098   0.061  13.706
 2061SOL    HW218063   2.071   0.201  13.757
 2062SOL     OW18064   4.427   2.133   1.476
 2062SOL    HW118065   4.491   2.203   1.488
 2062SOL    HW218066   4.472   2.054   1.505
 2063SOL     OW18067   0.059   1.114  17.012
 2063SOL    HW118068   4.785   1.055  17.057
 2063SOL    HW218069   0.016   1.199  17.011
 2064SOL     OW18070   0.041   4.384   3.774
 2064SOL    HW118071   0.103   4.360   3.705
 2064SOL    HW218072   4.764   4.314   3.773
 2065SOL     OW18073   0.402   1.362  15.816
 2065SOL    HW118074   0.481   1.314  15.841
 2065SOL    HW218075   0.361   1.385  15.899
 2066SOL     OW18076   1.622   3.605  21.040
 2066SOL    HW118077   1.550   3.566  21.090
 2066SOL    HW218078   1.701   3.567  21.078
 2067SOL     OW18079   1.629   0.637   7.431
 2067SOL    HW118080   1.609   0.628   7.338
 2067SOL    HW218081   1.564   0.581   7.475
 2068SOL     OW18082   4.170   1.373  18.853
 2068SOL    HW118083   4.199   1.402  18.766
 2068SOL    HW218084   4.112   1.443  18.883
 2069SOL     OW18085   2.118   4.316  18.013
 2069SOL    HW118086   2.162   4.381  17.957
 2069SOL    HW218087   2.093   4.246  17.953
 2070SOL     OW18088   1.941   2.204   6.402
 2070SOL    HW118089   1.911   2.226   6.314
 2070SOL    HW218090   1.909   2.115   6.417
 2071SOL     OW18091   1.016   2.544   0.145
 2071SOL    HW118092   0.992   2.610   0.079
 2071SOL    HW218093   0.933   2.526   0.191
 2072SOL     OW18094   0.043   4.009  17.418
 2072SOL    HW118095   4.753   3.966  17.384
 2072SOL    HW218096   0.116   3.966  17.374
 2073SOL     OW18097   4.699   0.624   3.037
 2073SOL    HW118098   4.628   0.683   3.012
 2073SOL    HW218099   4.664   0.536   3.021
 2074SOL     OW18100   2.134   4.289  18.292
 2074SOL    HW118101   2.107   4.292  18.200
 2074SOL    HW218102   2.134   4.195  18.314
 2075SOL     OW18103   2.865   2.775  19.666
 2075SOL    HW118104   2.916   2.796  19.744
 2075SOL    HW218105   2.905   2.828  19.597
 2076SOL     OW18106   3.739   2.492   3.975
 2076SOL    HW118107   3.733   2.513   3.882
 2076SOL    HW218108   3.782   2.568   4.015
 2077SOL     OW18109   0.774   0.196  12.335
 2077SOL    HW118110   0.702   0.256  12.355
 2077SOL    HW218111   0.814   0.233  12.256
 2078SOL     OW18112   3.514   3.730   4.531
 2078SOL    HW118113   3.540   3.665   4.465
 2078SOL    HW218114   3.590   3.787   4.539
 2079SOL     OW18115   2.040   0.429  18.568
 2079SOL    HW118116   2.098   0.435  18.644
 2079SOL    HW218117   1.968   0.373  18.597
 2080SOL     OW18118   2.743   3.280   5.862
 2080SOL    HW118119   2.768   3.302   5.952
 2080SOL    HW218120   2.648   3.288   5.861
 2081SOL     OW18121   1.319   1.127   8.071
 2081SOL    HW118122   1.412   1.104   8.067
 2081SOL    HW218123   1.301   1.165   7.985
 2082SOL     OW18124   2.714   2.844  17.882
 2082SOL    HW118125   2.666   2.918  17.919
 2082SOL    HW218126   2.765   2.882  17.810
 2083SOL     OW18127   4.197   2.029  17.565
 2083SOL    HW118128   4.147   1.956  17.530
 2083SOL    HW218129   4.224   2.001  17.652
 2084SOL     OW18130   0.551   0.623  17.919
 2084SOL    HW118131   0.550   0.712  17.954
 2084SOL    HW218132   0.495   0.628  17.841
 2085SOL     OW18133   0.598   1.125  18.207
 2085SOL    HW118134   0.601   1.052  18.270
 2085SOL    HW218135   0.677   1.176  18.225
 2086SOL     OW18136   4.120   1.596   1.667
 2086SOL    HW118137   4.147   1.505   1.679
 2086SOL    HW218138   4.025   1.593   1.660
 2087SOL     OW18139   0.245   0.143   2.714
 2087SOL    HW118140   0.186   0.071   2.737
 2087SOL    HW218141   0.214   0.217   2.766
 2088SOL     OW18142   1.752   1.361   4.885
 2088SOL    HW118143   1.700   1.295   4.930
 2088SOL    HW218144   1.700   1.385   4.808
 2089SOL     OW18145   4.265   0.833  16.117
 2089SOL    HW118146   4.259   0.894  16.190
 2089SOL    HW218147   4.320   0.878  16.053
 2090SOL     OW18148   1.866   3.763   0.936
 2090SOL    HW118149   1.950   3.804   0.957
 2090SOL    HW218150   1.853   3.782   0.843
 2091SOL     OW18151   3.184   3.845  13.256
 2091SOL    HW118152   3.092   3.840  13.283
 2091SOL    HW218153   3.218   3.921  13.303
 2092SOL     OW18154   1.489   2.296  21.096
 2092SOL    HW118155   1.416   2.271  21.040
 2092SOL    HW218156   1.521   2.214  21.133
 2093SOL     OW18157   2.219   2.945  19.845
 2093SOL    HW118158   2.133   2.986  19.859
 2093SOL    HW218159   2.247   2.975  19.759
 2094SOL     OW18160   4.438   2.049   6.414
 2094SOL    HW118161   4.363   2.001   6.379
 2094SOL    HW218162   4.429   2.137   6.378
 2095SOL     OW18163   1.052   4.005   6.114
 2095SOL    HW118164   1.066   4.086   6.065
 2095SOL    HW218165   0.966   3.974   6.085
 2096SOL     OW18166   4.068   1.140  16.086
 2096SOL    HW118167   4.016   1.107  16.159
 2096SOL    HW218168   4.144   1.181  16.127
 2097SOL     OW18169   3.176   4.671  20.301
 2097SOL    HW118170   3.101   4.612  20.294
 2097SOL    HW218171   3.151   4.732  20.370
 2098SOL     OW18172   3.804   4.140   2.867
 2098SOL    HW118173   3.838   4.171   2.783
 2098SOL    HW218174   3.821   4.212   2.928
 2099SOL     OW18175   2.787   2.006  20.503
 2099SOL    HW118176   2.715   2.028  20.562
 2099SOL    HW218177   2.845   1.952  20.556
 2100SOL     OW18178   0.142   3.699  20.849
 2100SOL    HW118179   0.231   3.692  20.815
 2100SOL    HW218180   0.087   3.658  20.782
 2101SOL     OW18181   4.109   3.718  17.218
 2101SOL    HW118182   4.189   3.670  17.236
 2101SOL    HW218183   4.138   3.804  17.189
 2102SOL     OW18184   1.958   4.254  17.459
 2102SOL    HW118185   1.884   4.209  17.419
 2102SOL    HW218186   1.921   4.292  17.539
 2103SOL     OW18187   2.734   1.995  18.688
 2103SOL    HW118188   2.757   1.903  18.703
 2103SOL    HW218189   2.730   2.033  18.776
 2104SOL     OW18190   0.050   1.594  20.038
 2104SOL    HW118191   0.022   1.594  19.946
 2104SOL    HW218192   0.056   1.502  20.062
 2105SOL     OW18193   0.468   3.316   0.964
 2105SOL    HW118194   0.402   3.351   1.023
 2105SOL    HW218195   0.419   3.290   0.886
 2106SOL     OW18196   0.190   1.975  15.131
 2106SOL    HW118197   0.124   1.906  15.130
 2106SOL    HW218198   0.141   2.057  15.131
 2107SOL     OW18199   2.059   4.415   0.823
 2107SOL    HW118200   2.041   4.335   0.874
 2107SOL    HW218201   2.135   4.392   0.770
 2108SOL     OW18202   0.534   3.523  19.835
 2108SOL    HW118203   0.615   3.546  19.790
 2108SOL    HW218204   0.518   3.432  19.811
 2109SOL     OW18205   2.602   1.910   0.406
 2109SOL    HW118206   2.533   1.854   0.441
 2109SOL    HW218207   2.661   1.924   0.480
 2110SOL     OW18208   0.089   4.323  15.157
 2110SOL    HW118209   0.099   4.417  15.147
 2110SOL    HW218210   0.013   4.313  15.214
 2111SOL     OW18211   4.296   0.761  17.867
 2111SOL    HW118212   4.355   0.688  17.847
 2111SOL    HW218213   4.233   0.762  17.795
 2112SOL     OW18214   4.630   0.634  17.530
 2112SOL    HW118215   4.602   0.588  17.610
 2112SOL    HW218216   4.661   0.719  17.561
 2113SOL     OW18217   4.183   0.666  19.978
 2113SOL    HW118218   4.159   0.682  19.886
 2113SOL    HW218219   4.142   0.581  19.998
 2114SOL     OW18220   2.836   4.662   4.046
 2114SOL    HW118221   2.921   4.644   4.005
 2114SOL    HW218222   2.843   4.753   4.075
 2115SOL     OW18223   1.923   3.645  16.863
 2115SOL    HW118224   1.880   3.703  16.800
 2115SOL    HW218225   1.896   3.557  16.836
 2116SOL     OW18226   1.924   2.815   0.740
 2116SOL    HW118227   1.882   2.735   0.773
 2116SOL    HW218228   2.012   2.812   0.777
 2117SOL     OW18229   2.041   2.206  17.153
 2117SOL    HW118230   2.120   2.248  17.189
 2117SOL    HW218231   2.034   2.124  17.201
 2118SOL     OW18232   3.484   2.468  17.147
 2118SOL    HW118233   3.562   2.458  17.203
 2118SOL    HW218234   3.434   2.388  17.160
 2119SOL     OW18235   4.068   0.643  12.138
 2119SOL    HW118236   4.107   0.606  12.059
 2119SOL    HW218237   4.030   0.726  12.109
 2120SOL     OW18238   4.415   1.588   0.143
 2120SOL    HW118239   4.493   1.628   0.103
 2120SOL    HW218240   4.407   1.630   0.228
 2121SOL     OW18241   3.649   1.180  17.312
 2121SOL    HW118242   3.558   1.204  17.328
 2121SOL    HW218243   3.656   1.089  17.341
 2122SOL     OW18244   2.209   1.584  12.052
 2122SOL    HW118245   2.202   1.536  11.970
 2122SOL    HW218246   2.245   1.669  12.027
 2123SOL     OW18247   1.040   3.156   0.520
 2123SOL    HW118248   0.988   3.077   0.503
 2123SOL    HW218249   1.033   3.170   0.614
 2124SOL     OW18250   3.307   4.111  17.828
 2124SOL    HW118251   3.214   4.114  17.802
 2124SOL    HW218252   3.331   4.019  17.820
 2125SOL     OW18253   3.026   2.473   1.002
 2125SOL    HW118254   3.103   2.499   1.052
 2125SOL    HW218255   2.994   2.554   0.963
 2126SOL     OW18256   1.582   2.246  18.977
 2126SOL    HW118257   1.591   2.221  19.069
 2126SOL    HW218258   1.595   2.165  18.929
 2127SOL     OW18259   1.206   3.285   0.339
 2127SOL    HW118260   1.157   3.283   0.257
 2127SOL    HW218261   1.143   3.260   0.406
 2128SOL     OW18262   2.508   2.604  17.772
 2128SOL    HW118263   2.573   2.537  17.750
 2128SOL    HW218264   2.527   2.626  17.863
 2129SOL     OW18265   2.040   3.696  15.320
 2129SOL    HW118266   1.976   3.624  15.315
 2129SOL    HW218267   1.987   3.775  15.309
 2130SOL     OW18268   3.463   2.725  20.520
 2130SOL    HW118269   3.440   2.814  20.549
 2130SOL    HW218270   3.389   2.697  20.466
 2131SOL     OW18271   0.776   1.324  12.044
 2131SOL    HW118272   0.794   1.372  11.964
 2131SOL    HW218273   0.854   1.270  12.059
 2132SOL     OW18274   2.876   4.641  17.114
 2132SOL    HW118275   2.799   4.641  17.171
 2132SOL    HW218276   2.857   4.708  17.048
 2133SOL     OW18277   2.708   3.733   2.418
 2133SOL    HW118278   2.773   3.679   2.373
 2133SOL    HW218279   2.696   3.809   2.361
 2134SOL     OW18280   0.909   4.395  16.615
 2134SOL    HW118281   0.953   4.416  16.697
 2134SOL    HW218282   0.924   4.301  16.604
 2135SOL     OW18283   2.979   0.161   4.185
 2135SOL    HW118284   2.890   0.194   4.199
 2135SOL    HW218285   3.012   0.211   4.111
 2136SOL     OW18286   4.359   3.441  13.965
 2136SOL    HW118287   4.450   3.430  13.938
 2136SOL    HW218288   4.365   3.473  14.056
 2137SOL     OW18289   3.994   1.702  17.659
 2137SOL    HW118290   4.074   1.688  17.709
 2137SOL    HW218291   3.931   1.640  17.695
 2138SOL     OW18292   1.682   0.602   4.490
 2138SOL    HW118293   1.696   0.522   4.439
 2138SOL    HW218294   1.598   0.587   4.534
 2139SOL     OW18295   3.905   2.326   1.965
 2139SOL    HW118296   3.906   2.419   1.942
 2139SOL    HW218297   3.815   2.298   1.950
 2140SOL     OW18298   0.760   1.970  20.394
 2140SOL    HW118299   0.722   1.929  20.472
 2140SOL    HW218300   0.687   1.978  20.333
 2141SOL     OW18301   0.184   0.575   5.113
 2141SOL    HW118302   0.267   0.588   5.158
 2141SOL    HW218303   0.196   0.495   5.061
 2142SOL     OW18304   1.513   2.614   5.301
 2142SOL    HW118305   1.529   2.533   5.349
 2142SOL    HW218306   1.463   2.669   5.362
 2143SOL     OW18307   0.977   0.241   3.360
 2143SOL    HW118308   1.017   0.264   3.277
 2143SOL    HW218309   0.905   0.304   3.370
 2144SOL     OW18310   1.623   3.507  15.801
 2144SOL    HW118311   1.645   3.599  15.812
 2144SOL    HW218312   1.697   3.471  15.751
 2145SOL     OW18313   0.122   1.824   0.896
 2145SOL    HW118314   0.211   1.857   0.911
 2145SOL    HW218315   0.078   1.837   0.980
 2146SOL     OW18316   0.051   1.983   4.875
 2146SOL    HW118317   4.766   1.982   4.813
 2146SOL    HW218318   0.019   2.034   4.949
 2147SOL     OW18319   4.233   1.473   6.837
 2147SOL    HW118320   4.320   1.437   6.820
 2147SOL    HW218321   4.238   1.564   6.809
 2148SOL     OW18322   1.360   0.851   2.816
 2148SOL    HW118323   1.267   0.849   2.794
 2148SOL    HW218324   1.364   0.892   2.902
 2149SOL     OW18325   1.046   2.840  14.088
 2149SOL    HW118326   1.093   2.779  14.146
 2149SOL    HW218327   1.098   2.840  14.007
 2150SOL     OW18328   1.553   1.438   1.650
 2150SOL    HW118329   1.527   1.436   1.557
 2150SOL    HW218330   1.494   1.376   1.692
 2151SOL     OW18331   2.243   0.220  14.697
 2151SOL    HW118332   2.284   0.260  14.774
 2151SOL    HW218333   2.227   0.294  14.638
 2152SOL     OW18334   3.017   4.067   1.287
 2152SOL    HW118335   2.987   4.064   1.378
 2152SOL    HW218336   3.036   3.975   1.265
 2153SOL     OW18337   2.980   1.379  18.464
 2153SOL    HW118338   3.047   1.340  18.407
 2153SOL    HW218339   2.921   1.307  18.484
 2154SOL     OW18340   2.181   2.396   5.030
 2154SOL    HW118341   2.157   2.481   4.994
 2154SOL    HW218342   2.195   2.340   4.954
 2155SOL     OW18343   4.482   0.017   6.223
 2155SOL    HW118344   4.556   4.744   6.226
 2155SOL    HW218345   4.465   0.029   6.129
 2156SOL     OW18346   3.081   1.852  17.849
 2156SOL    HW118347   3.005   1.796  17.862
 2156SOL    HW218348   3.058   1.935  17.891
 2157SOL     OW18349   3.897   0.650   0.924
 2157SOL    HW118350   3.933   0.613   1.004
 2157SOL    HW218351   3.838   0.582   0.890
 2158SOL     OW18352   2.854   2.090  19.710
 2158SOL    HW118353   2.885   2.109  19.798
 2158SOL    HW218354   2.758   2.092  19.717
 2159SOL     OW18355   4.567   2.844   1.257
 2159SOL    HW118356   4.582   2.883   1.344
 2159SOL    HW218357   4.478   2.870   1.234
 2160SOL     OW18358   3.596   2.684  18.676
 2160SOL    HW118359   3.523   2.677  18.738
 2160SOL    HW218360   3.613   2.778  18.670
 2161SOL     OW18361   1.518   1.368   5.390
 2161SOL    HW118362   1.600   1.410   5.364
 2161SOL    HW218363   1.460   1.440   5.412
 2162SOL     OW18364   1.179   3.405  12.786
 2162SOL    HW118365   1.104   3.346  12.776
 2162SOL    HW218366   1.255   3.347  12.780
 2163SOL     OW18367   2.013   4.617  13.887
 2163SOL    HW118368   2.064   4.682  13.838
 2163SOL    HW218369   2.076   4.579  13.948
 2164SOL     OW18370   0.602   3.955  15.266
 2164SOL    HW118371   0.644   3.885  15.315
 2164SOL    HW218372   0.583   3.916  15.181
 2165SOL     OW18373   0.753   3.284   1.844
 2165SOL    HW118374   0.808   3.206   1.846
 2165SOL    HW218375   0.812   3.354   1.816
 2166SOL     OW18376   3.635   4.322   3.581
 2166SOL    HW118377   3.544   4.305   3.557
 2166SOL    HW218378   3.660   4.247   3.635
 2167SOL     OW18379   0.765   2.170  15.914
 2167SOL    HW118380   0.723   2.105  15.858
 2167SOL    HW218381   0.859   2.148  15.909
 2168SOL     OW18382   4.402   2.415   1.629
 2168SOL    HW118383   4.370   2.450   1.712
 2168SOL    HW218384   4.479   2.364   1.653
 2169SOL     OW18385   0.944   1.615   2.552
 2169SOL    HW118386   0.982   1.546   2.608
 2169SOL    HW218387   1.018   1.648   2.501
 2170SOL     OW18388   2.393   1.326   4.597
 2170SOL    HW118389   2.407   1.363   4.510
 2170SOL    HW218390   2.306   1.287   4.592
 2171SOL     OW18391   0.887   1.486  15.903
 2171SOL    HW118392   0.954   1.519  15.843
 2171SOL    HW218393   0.917   1.397  15.924
 2172SOL     OW18394   0.914   3.668  18.500
 2172SOL    HW118395   0.820   3.681  18.482
 2172SOL    HW218396   0.934   3.733  18.567
 2173SOL     OW18397   4.046   1.554   2.425
 2173SOL    HW118398   4.015   1.584   2.340
 2173SOL    HW218399   4.034   1.459   2.423
 2174SOL     OW18400   3.033   0.310   5.366
 2174SOL    HW118401   3.020   0.335   5.275
 2174SOL    HW218402   3.029   0.393   5.414
 2175SOL     OW18403   3.757   2.560   1.568
 2175SOL    HW118404   3.811   2.585   1.643
 2175SOL    HW218405   3.813   2.574   1.492
 2176SOL     OW18406   2.449   3.573  19.122
 2176SOL    HW118407   2.486   3.539  19.204
 2176SOL    HW218408   2.354   3.563  19.133
 2177SOL     OW18409   3.829   3.107   0.802
 2177SOL    HW118410   3.769   3.090   0.874
 2177SOL    HW218411   3.915   3.113   0.843
 2178SOL     OW18412   4.315   4.787   7.792
 2178SOL    HW118413   4.340   4.714   7.734
 2178SOL    HW218414   4.221   4.776   7.805
 2179SOL     OW18415   2.435   2.084   4.730
 2179SOL    HW118416   2.381   2.070   4.652
 2179SOL    HW218417   2.393   2.156   4.776
 2180SOL     OW18418   2.817   2.804   2.595
 2180SOL    HW118419   2.803   2.712   2.617
 2180SOL    HW218420   2.910   2.819   2.613
 2181SOL     OW18421   0.859   4.481  13.631
 2181SOL    HW118422   0.870   4.461  13.538
 2181SOL    HW218423   0.838   4.574  13.633
 2182SOL     OW18424   3.462   2.223  19.069
 2182SOL    HW118425   3.395   2.248  19.132
 2182SOL    HW218426   3.477   2.301  19.016
 2183SOL     OW18427   2.634   4.277   6.407
 2183SOL    HW118428   2.623   4.307   6.317
 2183SOL    HW218429   2.666   4.354   6.454
 2184SOL     OW18430   4.217   1.938   6.301
 2184SOL    HW118431   4.180   1.995   6.233
 2184SOL    HW218432   4.172   1.855   6.290
 2185SOL     OW18433   1.097   4.589  17.502
 2185SOL    HW118434   1.010   4.555  17.523
 2185SOL    HW218435   1.082   4.642  17.423
 2186SOL     OW18436   2.578   3.533   8.937
 2186SOL    HW118437   2.497   3.572   8.969
 2186SOL    HW218438   2.646   3.598   8.955
 2187SOL     OW18439   0.222   1.142  20.820
 2187SOL    HW118440   0.249   1.155  20.729
 2187SOL    HW218441   0.170   1.219  20.841
 2188SOL     OW18442   4.782   3.458   5.684
 2188SOL    HW118443   4.787   3.530   5.622
 2188SOL    HW218444   4.721   3.488   5.751
 2189SOL     OW18445   3.725   4.760   1.950
 2189SOL    HW118446   3.726   4.759   2.046
 2189SOL    HW218447   3.639   0.008   1.928
 2190SOL     OW18448   4.233   3.982  17.151
 2190SOL    HW118449   4.286   4.060  17.136
 2190SOL    HW218450   4.194   3.996  17.237
 2191SOL     OW18451   4.759   1.210   1.758
 2191SOL    HW118452   4.720   1.165   1.833
 2191SOL    HW218453   0.027   1.277   1.797
 2192SOL     OW18454   2.290   1.756  18.178
 2192SOL    HW118455   2.250   1.791  18.098
 2192SOL    HW218456   2.369   1.809  18.191
 2193SOL     OW18457   3.352   3.822  20.122
 2193SOL    HW118458   3.351   3.799  20.029
 2193SOL    HW218459   3.309   3.748  20.165
 2194SOL     OW18460   3.571   4.548   5.865
 2194SOL    HW118461   3.547   4.613   5.799
 2194SOL    HW218462   3.590   4.468   5.816
 2195SOL     OW18463   3.521   1.270  18.761
 2195SOL    HW118464   3.559   1.239  18.679
 2195SOL    HW218465   3.463   1.342  18.735
 2196SOL     OW18466   0.525   4.265   2.613
 2196SOL    HW118467   0.605   4.262   2.561
 2196SOL    HW218468   0.546   4.216   2.693
 2197SOL     OW18469   2.417   3.777   1.880
 2197SOL    HW118470   2.497   3.730   1.901
 2197SOL    HW218471   2.381   3.731   1.804
 2198SOL     OW18472   1.560   1.261   0.590
 2198SOL    HW118473   1.531   1.170   0.595
 2198SOL    HW218474   1.579   1.275   0.498
 2199SOL     OW18475   1.434   3.050   3.271
 2199SOL    HW118476   1.463   2.981   3.212
 2199SOL    HW218477   1.361   3.011   3.320
 2200SOL     OW18478   0.774   4.135   0.034
 2200SOL    HW118479   0.839   4.144  21.213
 2200SOL    HW218480   0.825   4.120   0.114
 2201SOL     OW18481   4.008   0.479  15.327
 2201SOL    HW118482   4.047   0.458  15.411
 2201SOL    HW218483   4.059   0.430  15.263
 2202SOL     OW18484   2.806   1.969   6.218
 2202SOL    HW118485   2.824   2.060   6.244
 2202SOL    HW218486   2.822   1.968   6.124
 2203SOL     OW18487   0.149   0.837  19.603
 2203SOL    HW118488   0.076   0.877  19.555
 2203SOL    HW218489   0.113   0.815  19.689
 2204SOL     OW18490   4.523   3.008   1.728
 2204SOL    HW118491   4.595   2.990   1.668
 2204SOL    HW218492   4.481   2.923   1.743
 2205SOL     OW18493   4.649   2.827   6.024
 2205SOL    HW118494   4.730   2.866   5.990
 2205SOL    HW218495   4.587   2.832   5.951
 2206SOL     OW18496   1.322   1.774  19.406
 2206SOL    HW118497   1.285   1.767  19.318
 2206SOL    HW218498   1.261   1.725  19.461
 2207SOL     OW18499   4.555   0.719   6.551
 2207SOL    HW118500   4.478   0.664   6.564
 2207SOL    HW218501   4.520   0.806   6.531
 2208SOL     OW18502   4.486   2.403   9.462
 2208SOL    HW118503   4.477   2.474   9.525
 2208SOL    HW218504   4.528   2.332   9.511
 2209SOL     OW18505   0.026   2.937  19.271
 2209SOL    HW118506   0.076   2.857  19.282
 2209SOL    HW218507   4.726   2.908  19.246
 2210SOL     OW18508   4.038   2.578  15.486
 2210SOL    HW118509   4.080   2.536  15.410
 2210SOL    HW218510   4.067   2.526  15.561
 2211SOL     OW18511   3.900   4.602   5.563
 2211SOL    HW118512   3.914   4.588   5.469
 2211SOL    HW218513   3.894   4.514   5.600
 2212SOL     OW18514   1.984   3.961  21.090
 2212SOL    HW118515   1.997   3.907  21.012
 2212SOL    HW218516   1.906   3.925  21.131
 2213SOL     OW18517   4.355   1.097  18.289
 2213SOL    HW118518   4.289   1.039  18.250
 2213SOL    HW218519   4.304   1.156  18.345
 2214SOL     OW18520   0.476   0.256  11.998
 2214SOL    HW118521   0.415   0.324  11.967
 2214SOL    HW218522   0.557   0.274  11.950
 2215SOL     OW18523   2.056   0.670   5.522
 2215SOL    HW118524   2.110   0.671   5.443
 2215SOL    HW218525   2.000   0.748   5.514
 2216SOL     OW18526   2.470   1.103  21.153
 2216SOL    HW118527   2.547   1.092  21.097
 2216SOL    HW218528   2.407   1.150  21.098
 2217SOL     OW18529   0.493   0.021   0.041
 2217SOL    HW118530   0.526   4.734  21.238
 2217SOL    HW218531   0.419   4.774   0.090
 2218SOL     OW18532   2.836   1.235   8.940
 2218SOL    HW118533   2.795   1.317   8.913
 2218SOL    HW218534   2.829   1.235   9.036
 2219SOL     OW18535   1.604   0.921   2.140
 2219SOL    HW118536   1.638   1.010   2.130
 2219SOL    HW218537   1.675   0.864   2.110
 2220SOL     OW18538   1.255   3.756  17.437
 2220SOL    HW118539   1.345   3.783  17.456
 2220SOL    HW218540   1.201   3.819  17.484
 2221SOL     OW18541   2.695   2.909  15.664
 2221SOL    HW118542   2.715   2.866  15.746
 2221SOL    HW218543   2.652   2.991  15.689
 2222SOL     OW18544   3.614   3.755  21.054
 2222SOL    HW118545   3.681   3.802  21.103
 2222SOL    HW218546   3.533   3.770  21.103
 2223SOL     OW18547   4.218   3.484  19.489
 2223SOL    HW118548   4.143   3.453  19.540
 2223SOL    HW218549   4.181   3.549  19.430
 2224SOL     OW18550   2.387   4.047   5.158
 2224SOL    HW118551   2.352   3.977   5.102
 2224SOL    HW218552   2.370   4.017   5.247
 2225SOL     OW18553   4.094   4.262   2.251
 2225SOL    HW118554   4.164   4.284   2.313
 2225SOL    HW218555   4.131   4.283   2.165
 2226SOL     OW18556   2.658   2.616   6.150
 2226SOL    HW118557   2.601   2.597   6.075
 2226SOL    HW218558   2.658   2.711   6.157
 2227SOL     OW18559   2.474   2.335  16.560
 2227SOL    HW118560   2.542   2.380  16.610
 2227SOL    HW218561   2.432   2.278  16.625
 2228SOL     OW18562   1.311   0.749  13.790
 2228SOL    HW118563   1.397   0.772  13.756
 2228SOL    HW218564   1.321   0.748  13.885
 2229SOL     OW18565   2.199   3.779   4.727
 2229SOL    HW118566   2.182   3.688   4.701
 2229SOL    HW218567   2.114   3.823   4.720
 2230SOL     OW18568   3.789   2.801  18.279
 2230SOL    HW118569   3.862   2.812  18.339
 2230SOL    HW218570   3.714   2.839  18.326
 2231SOL     OW18571   0.458   4.787   1.710
 2231SOL    HW118572   0.478   4.699   1.742
 2231SOL    HW218573   0.365   4.783   1.687
 2232SOL     OW18574   2.049   2.063   3.990
 2232SOL    HW118575   2.105   2.111   3.928
 2232SOL    HW218576   2.110   2.014   4.045
 2233SOL     OW18577   1.387   0.759   4.888
 2233SOL    HW118578   1.368   0.767   4.795
 2233SOL    HW218579   1.359   0.670   4.911
 2234SOL     OW18580   3.654   0.233  15.999
 2234SOL    HW118581   3.747   0.225  15.975
 2234SOL    HW218582   3.627   0.316  15.961
 2235SOL     OW18583   2.712   2.421  17.189
 2235SOL    HW118584   2.705   2.349  17.251
 2235SOL    HW218585   2.728   2.379  17.105
 2236SOL     OW18586   0.487   4.203  14.900
 2236SOL    HW118587   0.494   4.288  14.855
 2236SOL    HW218588   0.568   4.157  14.876
 2237SOL     OW18589   3.988   2.099   4.015
 2237SOL    HW118590   4.048   2.168   4.046
 2237SOL    HW218591   4.040   2.050   3.951
 2238SOL     OW18592   2.100   2.536   2.517
 2238SOL    HW118593   2.132   2.484   2.444
 2238SOL    HW218594   2.151   2.617   2.514
 2239SOL     OW18595   1.942   0.650  13.108
 2239SOL    HW118596   1.882   0.683  13.175
 2239SOL    HW218597   1.988   0.579  13.151
 2240SOL     OW18598   0.139   0.069   2.289
 2240SOL    HW118599   0.185   0.129   2.348
 2240SOL    HW218600   0.208   0.023   2.242
 2241SOL     OW18601   2.309   1.458  18.970
 2241SOL    HW118602   2.328   1.545  19.005
 2241SOL    HW218603   2.265   1.413  19.042
 2242SOL     OW18604   2.322   4.628   3.472
 2242SOL    HW118605   2.384   4.555   3.476
 2242SOL    HW218606   2.376   4.703   3.446
 2243SOL     OW18607   3.742   1.109   1.211
 2243SOL    HW118608   3.706   1.130   1.124
 2243SOL    HW218609   3.711   1.181   1.267
 2244SOL     OW18610   2.619   4.338  15.667
 2244SOL    HW118611   2.528   4.336  15.638
 2244SOL    HW218612   2.660   4.262  15.627
 2245SOL     OW18613   0.795   1.911  19.025
 2245SOL    HW118614   0.857   1.843  19.001
 2245SOL    HW218615   0.829   1.991  18.984
 2246SOL     OW18616   4.622   3.472   5.919
 2246SOL    HW118617   4.548   3.412   5.920
 2246SOL    HW218618   4.605   3.533   5.990
 2247SOL     OW18619   2.700   2.519   0.900
 2247SOL    HW118620   2.768   2.457   0.871
 2247SOL    HW218621   2.673   2.564   0.820
 2248SOL     OW18622   4.026   0.033  18.331
 2248SOL    HW118623   4.027   0.043  18.236
 2248SOL    HW218624   4.099   0.087  18.361
 2249SOL     OW18625   1.853   4.582  16.191
 2249SOL    HW118626   1.824   4.671  16.210
 2249SOL    HW218627   1.895   4.588  16.105
 2250SOL     OW18628   0.204   4.749   7.841
 2250SOL    HW118629   0.227   4.662   7.810
 2250SOL    HW218630   0.155   0.001   7.769
 2251SOL     OW18631   2.570   2.913   5.337
 2251SOL    HW118632   2.630   2.874   5.274
 2251SOL    HW218633   2.627   2.953   5.403
 2252SOL     OW18634   3.268   2.364  21.024
 2252SOL    HW118635   3.223   2.284  21.054
 2252SOL    HW218636   3.324   2.335  20.952
 2253SOL     OW18637   4.324   3.824   4.975
 2253SOL    HW118638   4.269   3.901   4.992
 2253SOL    HW218639   4.292   3.758   5.036
 2254SOL     OW18640   4.117   2.871   9.547
 2254SOL    HW118641   4.095   2.934   9.615
 2254SOL    HW218642   4.164   2.921   9.481
 2255SOL     OW18643   2.336   0.288  15.985
 2255SOL    HW118644   2.259   0.297  15.930
 2255SOL    HW218645   2.339   0.195  16.007
 2256SOL     OW18646   4.751   0.936  16.631
 2256SOL    HW118647   0.039   0.943  16.690
 2256SOL    HW218648   4.676   0.963  16.685
 2257SOL     OW18649   0.284   0.609   3.483
 2257SOL    HW118650   0.335   0.594   3.563
 2257SOL    HW218651   0.272   0.704   3.481
 2258SOL     OW18652   1.526   4.726  21.063
 2258SOL    HW118653   1.498   4.782  20.990
 2258SOL    HW218654   1.618   4.707  21.044
 2259SOL     OW18655   1.651   2.151  18.727
 2259SOL    HW118656   1.561   2.162  18.693
 2259SOL    HW218657   1.650   2.065  18.769
 2260SOL     OW18658   4.720   3.384  20.218
 2260SOL    HW118659   4.703   3.455  20.156
 2260SOL    HW218660   4.755   3.313  20.165
 2261SOL     OW18661   1.713   0.481   0.476
 2261SOL    HW118662   1.703   0.389   0.453
 2261SOL    HW218663   1.634   0.524   0.441
 2262SOL     OW18664   3.640   1.898   6.449
 2262SOL    HW118665   3.636   1.959   6.522
 2262SOL    HW218666   3.646   1.811   6.490
 2263SOL     OW18667   4.554   2.597   1.397
 2263SOL    HW118668   4.460   2.582   1.392
 2263SOL    HW218669   4.571   2.670   1.338
 2264SOL     OW18670   2.288   3.442   0.202
 2264SOL    HW118671   2.254   3.531   0.204
 2264SOL    HW218672   2.234   3.394   0.265
 2265SOL     OW18673   3.644   2.895  16.215
 2265SOL    HW118674   3.624   2.843  16.138
 2265SOL    HW218675   3.561   2.904  16.260
 2266SOL     OW18676   3.792   3.399  14.266
 2266SOL    HW118677   3.719   3.461  14.271
 2266SOL    HW218678   3.819   3.402  14.174
 2267SOL     OW18679   1.329   4.337   5.378
 2267SOL    HW118680   1.364   4.314   5.464
 2267SOL    HW218681   1.392   4.303   5.316
 2268SOL     OW18682   3.182   2.629   2.961
 2268SOL    HW118683   3.197   2.537   2.940
 2268SOL    HW218684   3.261   2.674   2.932
 2269SOL     OW18685   2.634   0.714  16.153
 2269SOL    HW118686   2.559   0.723  16.213
 2269SOL    HW218687   2.670   0.628  16.172
 2270SOL     OW18688   1.244   3.372  20.199
 2270SOL    HW118689   1.211   3.284  20.213
 2270SOL    HW218690   1.167   3.428  20.200
 2271SOL     OW18691   2.074   2.062  19.656
 2271SOL    HW118692   2.054   2.122  19.584
 2271SOL    HW218693   1.990   2.050  19.700
 2272SOL     OW18694   2.323   0.226   4.643
 2272SOL    HW118695   2.253   0.239   4.707
 2272SOL    HW218696   2.281   0.178   4.571
 2273SOL     OW18697   1.037   1.517   3.305
 2273SOL    HW118698   1.113   1.573   3.294
 2273SOL    HW218699   1.070   1.440   3.351
 2274SOL     OW18700   1.397   0.197   4.659
 2274SOL    HW118701   1.459   0.270   4.663
 2274SOL    HW218702   1.452   0.119   4.667
 2275SOL     OW18703   4.198   1.486   6.431
 2275SOL    HW118704   4.256   1.428   6.383
 2275SOL    HW218705   4.253   1.560   6.456
 2276SOL     OW18706   4.620   2.542  15.129
 2276SOL    HW118707   4.698   2.589  15.158
 2276SOL    HW218708   4.588   2.592  15.054
 2277SOL     OW18709   2.888   4.377   8.333
 2277SOL    HW118710   2.936   4.434   8.272
 2277SOL    HW218711   2.796   4.398   8.319
 2278SOL     OW18712   4.023   3.309   5.362
 2278SOL    HW118713   3.960   3.241   5.340
 2278SOL    HW218714   4.109   3.268   5.348
 2279SOL     OW18715   4.178   3.922  18.715
 2279SOL    HW118716   4.182   3.893  18.623
 2279SOL    HW218717   4.091   3.961  18.724
 2280SOL     OW18718   0.128   2.174  16.698
 2280SOL    HW118719   0.219   2.169  16.726
 2280SOL    HW218720   0.131   2.221  16.614
 2281SOL     OW18721   2.526   2.817  20.353
 2281SOL    HW118722   2.445   2.835  20.306
 2281SOL    HW218723   2.504   2.748  20.414
 2282SOL     OW18724   0.366   3.649  19.594
 2282SOL    HW118725   0.406   3.639  19.680
 2282SOL    HW218726   0.394   3.735  19.564
 2283SOL     OW18727   2.185   4.551   3.699
 2283SOL    HW118728   2.262   4.499   3.721
 2283SOL    HW218729   2.201   4.582   3.610
 2284SOL     OW18730   3.434   3.373   7.767
 2284SOL    HW118731   3.510   3.323   7.796
 2284SOL    HW218732   3.470   3.455   7.733
 2285SOL     OW18733   3.698   0.592  17.172
 2285SOL    HW118734   3.662   0.574  17.085
 2285SOL    HW218735   3.793   0.593  17.159
 2286SOL     OW18736   2.825   1.187   2.408
 2286SOL    HW118737   2.738   1.186   2.368
 2286SOL    HW218738   2.875   1.122   2.358
 2287SOL     OW18739   4.748   3.562   1.040
 2287SOL    HW118740   0.006   3.555   0.956
 2287SOL    HW218741   4.674   3.502   1.031
 2288SOL     OW18742   3.505   1.863   2.739
 2288SOL    HW118743   3.551   1.789   2.699
 2288SOL    HW218744   3.522   1.853   2.833
 2289SOL     OW18745   1.407   2.315  20.042
 2289SOL    HW118746   1.403   2.219  20.041
 2289SOL    HW218747   1.378   2.339  20.130
 2290SOL     OW18748   2.680   2.395  17.688
 2290SOL    HW118749   2.741   2.420  17.618
 2290SOL    HW218750   2.701   2.304  17.706
 2291SOL     OW18751   0.486   0.662   4.134
 2291SOL    HW118752   0.537   0.597   4.086
 2291SOL    HW218753   0.411   0.614   4.169
 2292SOL     OW18754   4.520   1.872  15.257
 2292SOL    HW118755   4.595   1.860  15.199
 2292SOL    HW218756   4.549   1.839  15.342
 2293SOL     OW18757   2.749   0.681  16.623
 2293SOL    HW118758   2.688   0.620  16.582
 2293SOL    HW218759   2.826   0.682  16.566
 2294SOL     OW18760   0.138   0.495   6.115
 2294SOL    HW118761   0.135   0.463   6.205
 2294SOL    HW218762   0.161   0.587   6.122
 2295SOL     OW18763   2.982   1.110   3.059
 2295SOL    HW118764   2.888   1.104   3.043
 2295SOL    HW218765   3.003   1.202   3.044
 2296SOL     OW18766   3.343   2.225   6.844
 2296SOL    HW118767   3.250   2.247   6.838
 2296SOL    HW218768   3.376   2.235   6.754
 2297SOL     OW18769   4.611   2.166   7.709
 2297SOL    HW118770   4.701   2.140   7.691
 2297SOL    HW218771   4.574   2.188   7.623
 2298SOL     OW18772   4.330   1.747   2.269
 2298SOL    HW118773   4.342   1.693   2.191
 2298SOL    HW218774   4.299   1.831   2.235
 2299SOL     OW18775   3.384   0.762  20.880
 2299SOL    HW118776   3.341   0.815  20.947
 2299SOL    HW218777   3.315   0.706  20.845
 2300SOL     OW18778   0.947   3.485   0.249
 2300SOL    HW118779   0.951   3.493   0.344
 2300SOL    HW218780   0.893   3.408   0.233
 2301SOL     OW18781   3.981   0.490  15.678
 2301SOL    HW118782   3.921   0.562  15.658
 2301SOL    HW218783   4.017   0.512  15.764
 2302SOL     OW18784   2.952   2.645  18.219
 2302SOL    HW118785   2.922   2.577  18.158
 2302SOL    HW218786   2.921   2.615  18.304
 2303SOL     OW18787   3.805   0.716  19.489
 2303SOL    HW118788   3.758   0.649  19.440
 2303SOL    HW218789   3.762   0.717  19.575
 2304SOL     OW18790   0.401   1.737  17.307
 2304SOL    HW118791   0.351   1.671  17.257
 2304SOL    HW218792   0.399   1.704  17.397
 2305SOL     OW18793   2.061   0.999  17.445
 2305SOL    HW118794   2.132   0.994  17.510
 2305SOL    HW218795   2.006   1.071  17.475
 2306SOL     OW18796   3.118   3.326  20.039
 2306SOL    HW118797   3.098   3.407  19.993
 2306SOL    HW218798   3.068   3.259  19.993
 2307SOL     OW18799   0.369   0.907  18.750
 2307SOL    HW118800   0.402   0.940  18.833
 2307SOL    HW218801   0.363   0.812  18.763
 2308SOL     OW18802   1.980   0.819   7.794
 2308SOL    HW118803   1.920   0.787   7.727
 2308SOL    HW218804   1.966   0.913   7.797
 2309SOL     OW18805   2.180   4.405   3.174
 2309SOL    HW118806   2.273   4.424   3.171
 2309SOL    HW218807   2.173   4.314   3.146
 2310SOL     OW18808   3.770   4.306  20.530
 2310SOL    HW118809   3.834   4.320  20.600
 2310SOL    HW218810   3.687   4.294  20.576
 2311SOL     OW18811   1.534   4.571   5.297
 2311SOL    HW118812   1.463   4.527   5.249
 2311SOL    HW218813   1.571   4.631   5.233
 2312SOL     OW18814   2.076   1.816  19.974
 2312SOL    HW118815   2.058   1.907  20.000
 2312SOL    HW218816   2.017   1.764  20.028
 2313SOL     OW18817   0.533   4.655   5.441
 2313SOL    HW118818   0.539   4.727   5.378
 2313SOL    HW218819   0.446   4.618   5.427
 2314SOL     OW18820   0.873   1.892  16.201
 2314SOL    HW118821   0.842   1.900  16.291
 2314SOL    HW218822   0.968   1.901  16.207
 2315SOL     OW18823   3.843   3.826   6.663
 2315SOL    HW118824   3.842   3.731   6.651
 2315SOL    HW218825   3.785   3.859   6.595
 2316SOL     OW18826   0.712   1.315  20.490
 2316SOL    HW118827   0.619   1.310  20.513
 2316SOL    HW218828   0.757   1.268  20.560
 2317SOL     OW18829   0.779   4.360   4.181
 2317SOL    HW118830   0.688   4.330   4.171
 2317SOL    HW218831   0.791   4.421   4.108
 2318SOL     OW18832   4.349   0.623  16.375
 2318SOL    HW118833   4.397   0.611  16.293
 2318SOL    HW218834   4.416   0.630  16.442
 2319SOL     OW18835   2.451   1.047   5.340
 2319SOL    HW118836   2.374   1.083   5.384
 2319SOL    HW218837   2.525   1.081   5.390
 2320SOL     OW18838   1.699   4.151  15.579
 2320SOL    HW118839   1.648   4.177  15.502
 2320SOL    HW218840   1.642   4.169  15.653
 2321SOL     OW18841   1.197   1.540   3.900
 2321SOL    HW118842   1.164   1.623   3.934
 2321SOL    HW218843   1.291   1.542   3.916
 2322SOL     OW18844   1.447   3.320   5.928
 2322SOL    HW118845   1.525   3.342   5.980
 2322SOL    HW218846   1.399   3.402   5.922
 2323SOL     OW18847   3.532   2.120   1.349
 2323SOL    HW118848   3.585   2.157   1.278
 2323SOL    HW218849   3.507   2.195   1.403
 2324SOL     OW18850   1.073   0.380  20.499
 2324SOL    HW118851   1.144   0.324  20.532
 2324SOL    HW218852   1.115   0.438  20.437
 2325SOL     OW18853   2.704   2.948  19.397
 2325SOL    HW118854   2.694   2.990  19.482
 2325SOL    HW218855   2.778   2.993  19.356
 2326SOL     OW18856   4.295   4.346   1.995
 2326SOL    HW118857   4.308   4.440   1.985
 2326SOL    HW218858   4.294   4.312   1.906
 2327SOL     OW18859   2.791   3.097   6.191
 2327SOL    HW118860   2.873   3.145   6.175
 2327SOL    HW218861   2.810   3.041   6.267
 2328SOL     OW18862   1.494   2.698   3.408
 2328SOL    HW118863   1.449   2.630   3.459
 2328SOL    HW218864   1.480   2.672   3.317
 2329SOL     OW18865   2.761   0.592   1.763
 2329SOL    HW118866   2.695   0.631   1.707
 2329SOL    HW218867   2.727   0.603   1.852
 2330SOL     OW18868   4.749   4.171  13.201
 2330SOL    HW118869   0.041   4.197  13.247
 2330SOL    HW218870   4.760   4.077  13.186
 2331SOL     OW18871   1.397   0.563  15.161
 2331SOL    HW118872   1.330   0.630  15.148
 2331SOL    HW218873   1.463   0.582  15.095
 2332SOL     OW18874   4.344   4.593  17.505
 2332SOL    HW118875   4.361   4.636  17.422
 2332SOL    HW218876   4.330   4.665  17.567
 2333SOL     OW18877   2.217   2.784   2.528
 2333SOL    HW118878   2.163   2.857   2.558
 2333SOL    HW218879   2.221   2.795   2.433
 2334SOL     OW18880   2.503   1.922  18.113
 2334SOL    HW118881   2.564   1.889  18.047
 2334SOL    HW218882   2.469   2.004  18.077
 2335SOL     OW18883   0.971   1.315   4.256
 2335SOL    HW118884   0.911   1.371   4.305
 2335SOL    HW218885   0.928   1.300   4.172
 2336SOL     OW18886   3.890   3.740  17.415
 2336SOL    HW118887   3.949   3.738  17.340
 2336SOL    HW218888   3.918   3.817  17.465
 2337SOL     OW18889   2.567   2.716   5.887
 2337SOL    HW118890   2.472   2.723   5.873
 2337SOL    HW218891   2.596   2.806   5.897
 2338SOL     OW18892   4.622   0.257  15.016
 2338SOL    HW118893   4.638   0.207  14.936
 2338SOL    HW218894   4.688   0.225  15.077
 2339SOL     OW18895   2.568   0.996  13.237
 2339SOL    HW118896   2.630   1.032  13.174
 2339SOL    HW218897   2.549   1.068  13.297
 2340SOL     OW18898   2.348   0.339   8.886
 2340SOL    HW118899   2.404   0.375   8.817
 2340SOL    HW218900   2.350   0.405   8.955
 2341SOL     OW18901   2.459   1.648   2.225
 2341SOL    HW118902   2.498   1.686   2.304
 2341SOL    HW218903   2.395   1.585   2.257
 2342SOL     OW18904   2.403   0.022   3.158
 2342SOL    HW118905   2.435   0.059   3.076
 2342SOL    HW218906   2.438   4.720   3.158
 2343SOL     OW18907   3.213   2.421  19.949
 2343SOL    HW118908   3.203   2.334  19.911
 2343SOL    HW218909   3.130   2.437  19.995
 2344SOL     OW18910   4.695   4.519  19.818
 2344SOL    HW118911   4.611   4.560  19.840
 2344SOL    HW218912   4.673   4.426  19.804
 2345SOL     OW18913   2.142   4.582  17.588
 2345SOL    HW118914   2.066   4.526  17.576
 2345SOL    HW218915   2.114   4.668  17.556
 2346SOL     OW18916   4.738   2.573  15.771
 2346SOL    HW118917   4.721   2.550  15.862
 2346SOL    HW218918   4.754   2.489  15.728
 2347SOL     OW18919   0.672   3.779  18.742
 2347SOL    HW118920   0.733   3.833  18.793
 2347SOL    HW218921   0.650   3.706  18.800
 2348SOL     OW18922   1.830   1.485  20.694
 2348SOL    HW118923   1.916   1.444  20.704
 2348SOL    HW218924   1.807   1.513  20.783
 2349SOL     OW18925   1.922   3.503  13.510
 2349SOL    HW118926   1.993   3.566  13.498
 2349SOL    HW218927   1.894   3.516  13.601
 2350SOL     OW18928   1.285   1.064   5.562
 2350SOL    HW118929   1.239   0.987   5.530
 2350SOL    HW218930   1.282   1.056   5.657
 2351SOL     OW18931   3.471   0.737   7.004
 2351SOL    HW118932   3.531   0.786   6.948
 2351SOL    HW218933   3.409   0.803   7.036
 2352SOL     OW18934   4.221   0.511  17.686
 2352SOL    HW118935   4.203   0.442  17.622
 2352SOL    HW218936   4.189   0.475  17.769
 2353SOL     OW18937   1.262   0.813   4.640
 2353SOL    HW118938   1.187   0.846   4.689
 2353SOL    HW218939   1.241   0.830   4.548
 2354SOL     OW18940   2.239   1.483  15.091
 2354SOL    HW118941   2.232   1.573  15.125
 2354SOL    HW218942   2.203   1.428  15.161
 2355SOL     OW18943   0.409   3.392   3.585
 2355SOL    HW118944   0.460   3.356   3.513
 2355SOL    HW218945   0.366   3.316   3.624
 2356SOL     OW18946   4.784   0.752  16.973
 2356SOL    HW118947   4.699   0.740  17.015
 2356SOL    HW218948   0.056   0.772  17.044
 2357SOL     OW18949   2.384   2.062  14.509
 2357SOL    HW118950   2.295   2.063  14.474
 2357SOL    HW218951   2.437   2.103  14.441
 2358SOL     OW18952   0.255   4.359   4.922
 2358SOL    HW118953   0.292   4.427   4.979
 2358SOL    HW218954   0.331   4.308   4.894
 2359SOL     OW18955   3.337   2.406   2.535
 2359SOL    HW118956   3.422   2.448   2.524
 2359SOL    HW218957   3.285   2.439   2.462
 2360SOL     OW18958   3.368   3.066   4.144
 2360SOL    HW118959   3.327   3.135   4.091
 2360SOL    HW218960   3.359   3.096   4.234
 2361SOL     OW18961   1.708   3.710   2.077
 2361SOL    HW118962   1.675   3.708   1.988
 2361SOL    HW218963   1.797   3.746   2.069
 2362SOL     OW18964   0.634   0.968  17.245
 2362SOL    HW118965   0.728   0.959  17.257
 2362SOL    HW218966   0.597   0.959  17.333
 2363SOL     OW18967   0.368   1.498  16.851
 2363SOL    HW118968   0.430   1.560  16.813
 2363SOL    HW218969   0.377   1.419  16.797
 2364SOL     OW18970   2.611   3.698  12.874
 2364SOL    HW118971   2.612   3.752  12.795
 2364SOL    HW218972   2.695   3.652  12.873
 2365SOL     OW18973   0.162   3.756  14.252
 2365SOL    HW118974   0.232   3.814  14.222
 2365SOL    HW218975   0.081   3.804  14.231
 2366SOL     OW18976   1.174   3.543  19.805
 2366SOL    HW118977   1.172   3.579  19.893
 2366SOL    HW218978   1.188   3.619  19.748
 2367SOL     OW18979   0.764   0.012   4.989
 2367SOL    HW118980   0.824   0.085   5.000
 2367SOL    HW218981   0.733   0.020   4.898
 2368SOL     OW18982   3.415   0.588   3.885
 2368SOL    HW118983   3.424   0.661   3.825
 2368SOL    HW218984   3.410   0.511   3.829
 2369SOL     OW18985   2.514   1.988   5.920
 2369SOL    HW118986   2.525   2.072   5.964
 2369SOL    HW218987   2.419   1.981   5.906
 2370SOL     OW18988   4.730   1.931   1.117
 2370SOL    HW118989   4.683   2.014   1.126
 2370SOL    HW218990   4.665   1.871   1.081
 2371SOL     OW18991   1.722   0.378   2.450
 2371SOL    HW118992   1.741   0.377   2.356
 2371SOL    HW218993   1.723   0.285   2.475
 2372SOL     OW18994   4.456   1.267  16.783
 2372SOL    HW118995   4.459   1.323  16.860
 2372SOL    HW218996   4.387   1.204  16.801
 2373SOL     OW18997   2.071   0.617   1.900
 2373SOL    HW118998   2.121   0.671   1.839
 2373SOL    HW218999   2.052   0.537   1.851
 2374SOL     OW19000   1.742   4.232   3.636
 2374SOL    HW119001   1.682   4.242   3.710
 2374SOL    HW219002   1.828   4.256   3.671
 2375SOL     OW19003   0.013   0.457  18.692
 2375SOL    HW119004   4.730   0.521  18.693
 2375SOL    HW219005   0.081   0.496  18.636
 2376SOL     OW19006   0.468   2.972  19.771
 2376SOL    HW119007   0.457   2.963  19.676
 2376SOL    HW219008   0.546   2.920  19.791
 2377SOL     OW19009   3.522   3.611  20.804
 2377SOL    HW119010   3.588   3.557  20.762
 2377SOL    HW219011   3.548   3.615  20.896
 2378SOL     OW19012   0.240   3.937  21.243
 2378SOL    HW119013   0.284   3.923   0.079
 2378SOL    HW219014   0.197   3.853  21.225
 2379SOL     OW19015   2.654   2.766   1.658
 2379SOL    HW119016   2.690   2.703   1.595
 2379SOL    HW219017   2.559   2.756   1.650
 2380SOL     OW19018   2.606   3.085   7.215
 2380SOL    HW119019   2.665   3.097   7.289
 2380SOL    HW219020   2.522   3.061   7.255
 2381SOL     OW19021   4.620   3.391  20.838
 2381SOL    HW119022   4.581   3.438  20.912
 2381SOL    HW219023   4.565   3.313  20.828
 2382SOL     OW19024   1.405   3.772  15.814
 2382SOL    HW119025   1.372   3.740  15.897
 2382SOL    HW219026   1.499   3.782  15.828
 2383SOL     OW19027   3.213   3.936   3.633
 2383SOL    HW119028   3.305   3.963   3.628
 2383SOL    HW219029   3.184   3.933   3.542
 2384SOL     OW19030   3.711   1.212  14.881
 2384SOL    HW119031   3.717   1.164  14.964
 2384SOL    HW219032   3.796   1.255  14.872
 2385SOL     OW19033   2.345   2.090   0.799
 2385SOL    HW119034   2.421   2.127   0.845
 2385SOL    HW219035   2.370   1.999   0.782
 2386SOL     OW19036   4.243   1.601   2.930
 2386SOL    HW119037   4.178   1.574   2.864
 2386SOL    HW219038   4.214   1.689   2.956
 2387SOL     OW19039   0.725   3.743  14.613
 2387SOL    HW119040   0.723   3.755  14.708
 2387SOL    HW219041   0.673   3.815  14.578
 2388SOL     OW19042   2.667   4.078   3.483
 2388SOL    HW119043   2.601   4.130   3.529
 2388SOL    HW219044   2.629   4.060   3.397
 2389SOL     OW19045   2.918   1.740  17.573
 2389SOL    HW119046   2.890   1.771  17.659
 2389SOL    HW219047   2.891   1.810  17.513
 2390SOL     OW19048   2.052   2.496  19.331
 2390SOL    HW119049   2.103   2.572  19.359
 2390SOL    HW219050   2.014   2.462  19.412
 2391SOL     OW19051   4.170   1.436   2.115
 2391SOL    HW119052   4.211   1.410   2.197
 2391SOL    HW219053   4.218   1.513   2.087
 2392SOL     OW19054   3.876   1.018   6.537
 2392SOL    HW119055   3.828   0.941   6.506
 2392SOL    HW219056   3.905   0.995   6.625
 2393SOL     OW19057   3.999   2.575  16.312
 2393SOL    HW119058   4.023   2.488  16.343
 2393SOL    HW219059   4.017   2.573  16.218
 2394SOL     OW19060   3.516   0.521  16.958
 2394SOL    HW119061   3.534   0.609  16.925
 2394SOL    HW219062   3.425   0.525  16.987
 2395SOL     OW19063   4.165   1.443   0.107
 2395SOL    HW119064   4.251   1.478   0.130
 2395SOL    HW219065   4.133   1.502   0.039
 2396SOL     OW19066   4.494   2.600  21.169
 2396SOL    HW119067   4.472   2.659  21.098
 2396SOL    HW219068   4.589   2.585  21.161
 2397SOL     OW19069   3.906   0.069   3.895
 2397SOL    HW119070   3.821   0.037   3.866
 2397SOL    HW219071   3.914   0.156   3.854
 2398SOL     OW19072   3.715   3.073  18.055
 2398SOL    HW119073   3.735   3.146  18.113
 2398SOL    HW219074   3.714   2.996  18.112
 2399SOL     OW19075   2.853   4.663   3.261
 2399SOL    HW119076   2.926   4.696   3.313
 2399SOL    HW219077   2.809   4.601   3.319
 2400SOL     OW19078   4.139   3.003  17.730
 2400SOL    HW119079   4.131   3.097  17.746
 2400SOL    HW219080   4.059   2.979  17.683
 2401SOL     OW19081   2.475   2.548  14.620
 2401SOL    HW119082   2.521   2.467  14.596
 2401SOL    HW219083   2.483   2.552  14.715
 2402SOL     OW19084   4.416   2.756   1.811
 2402SOL    HW119085   4.471   2.721   1.881
 2402SOL    HW219086   4.363   2.681   1.783
 2403SOL     OW19087   4.206   3.683  17.520
 2403SOL    HW119088   4.233   3.691  17.612
 2403SOL    HW219089   4.255   3.608  17.487
 2404SOL     OW19090   2.723   0.128   1.661
 2404SOL    HW119091   2.776   0.064   1.614
 2404SOL    HW219092   2.783   0.200   1.682
 2405SOL     OW19093   4.522   1.772   5.231
 2405SOL    HW119094   4.589   1.840   5.230
 2405SOL    HW219095   4.569   1.692   5.256
 2406SOL     OW19096   1.382   2.763  15.761
 2406SOL    HW119097   1.302   2.711  15.761
 2406SOL    HW219098   1.351   2.854  15.757
 2407SOL     OW19099   3.757   0.491   0.222
 2407SOL    HW119100   3.739   0.414   0.169
 2407SOL    HW219101   3.840   0.471   0.266
 2408SOL     OW19102   2.884   2.396   2.930
 2408SOL    HW119103   2.977   2.404   2.947
 2408SOL    HW219104   2.841   2.418   3.013
 2409SOL     OW19105   3.717   1.724   7.170
 2409SOL    HW119106   3.749   1.765   7.250
 2409SOL    HW219107   3.636   1.679   7.196
 2410SOL     OW19108   1.339   4.719   0.643
 2410SOL    HW119109   1.343   0.008   0.585
 2410SOL    HW219110   1.261   4.734   0.696
 2411SOL     OW19111   1.827   3.979   0.164
 2411SOL    HW119112   1.780   3.925   0.228
 2411SOL    HW219113   1.804   3.941   0.079
 2412SOL     OW19114   0.452   3.816   1.472
 2412SOL    HW119115   0.416   3.728   1.463
 2412SOL    HW219116   0.494   3.815   1.559
 2413SOL     OW19117   3.952   1.174  20.232
 2413SOL    HW119118   3.940   1.084  20.263
 2413SOL    HW219119   4.029   1.206  20.278
 2414SOL     OW19120   4.611   1.232  20.114
 2414SOL    HW119121   4.706   1.242  20.105
 2414SOL    HW219122   4.579   1.220  20.025
 2415SOL     OW19123   3.180   1.552   1.611
 2415SOL    HW119124   3.205   1.475   1.663
 2415SOL    HW219125   3.114   1.519   1.550
 2416SOL     OW19126   1.957   2.046   3.180
 2416SOL    HW119127   1.886   1.993   3.216
 2416SOL    HW219128   1.980   2.001   3.099
 2417SOL     OW19129   3.525   1.910   2.183
 2417SOL    HW119130   3.454   1.895   2.244
 2417SOL    HW219131   3.482   1.923   2.098
 2418SOL     OW19132   4.371   1.840  20.359
 2418SOL    HW119133   4.278   1.848  20.337
 2418SOL    HW219134   4.372   1.831  20.455
 2419SOL     OW19135   2.328   1.865  16.419
 2419SOL    HW119136   2.423   1.868  16.412
 2419SOL    HW219137   2.310   1.860  16.513
 2420SOL     OW19138   2.105   2.672   4.943
 2420SOL    HW119139   2.104   2.715   5.029
 2420SOL    HW219140   2.066   2.736   4.884
 2421SOL     OW19141   2.936   1.105  14.688
 2421SOL    HW119142   2.977   1.187  14.716
 2421SOL    HW219143   2.856   1.133  14.643
 2422SOL     OW19144   1.788   2.410  21.248
 2422SOL    HW119145   1.852   2.357   0.047
 2422SOL    HW219146   1.728   2.346  21.209
 2423SOL     OW19147   2.696   4.385   4.336
 2423SOL    HW119148   2.777   4.338   4.320
 2423SOL    HW219149   2.635   4.353   4.270
 2424SOL     OW19150   3.379   4.283   3.485
 2424SOL    HW119151   3.330   4.202   3.473
 2424SOL    HW219152   3.313   4.352   3.489
 2425SOL     OW19153   3.561   0.386   8.172
 2425SOL    HW119154   3.651   0.399   8.142
 2425SOL    HW219155   3.523   0.326   8.107
 2426SOL     OW19156   3.585   4.146  14.317
 2426SOL    HW119157   3.614   4.078  14.257
 2426SOL    HW219158   3.630   4.225  14.286
 2427SOL     OW19159   1.117   0.577   4.353
 2427SOL    HW119160   1.196   0.529   4.377
 2427SOL    HW219161   1.131   0.602   4.262
 2428SOL     OW19162   2.729   4.434   3.394
 2428SOL    HW119163   2.696   4.487   3.466
 2428SOL    HW219164   2.664   4.364   3.384
 2429SOL     OW19165   1.367   2.620  18.678
 2429SOL    HW119166   1.397   2.704  18.642
 2429SOL    HW219167   1.364   2.561  18.603
 2430SOL     OW19168   1.410   1.284   2.482
 2430SOL    HW119169   1.389   1.192   2.496
 2430SOL    HW219170   1.331   1.321   2.441
 2431SOL     OW19171   3.652   1.702   6.625
 2431SOL    HW119172   3.656   1.694   6.721
 2431SOL    HW219173   3.616   1.619   6.595
 2432SOL     OW19174   1.190   3.141  21.103
 2432SOL    HW119175   1.103   3.123  21.068
 2432SOL    HW219176   1.222   3.214  21.050
 2433SOL     OW19177   2.477   2.551   4.518
 2433SOL    HW119178   2.536   2.588   4.452
 2433SOL    HW219179   2.410   2.505   4.467
 2434SOL     OW19180   1.937   1.833   6.028
 2434SOL    HW119181   1.981   1.874   6.103
 2434SOL    HW219182   1.851   1.809   6.062
 2435SOL     OW19183   1.174   1.708   0.837
 2435SOL    HW119184   1.182   1.797   0.805
 2435SOL    HW219185   1.110   1.667   0.780
 2436SOL     OW19186   0.038   1.670   1.527
 2436SOL    HW119187   0.019   1.581   1.497
 2436SOL    HW219188   4.743   1.716   1.518
 2437SOL     OW19189   1.550   3.790   4.348
 2437SOL    HW119190   1.548   3.768   4.441
 2437SOL    HW219191   1.552   3.706   4.303
 2438SOL     OW19192   2.176   1.458   7.327
 2438SOL    HW119193   2.100   1.475   7.383
 2438SOL    HW219194   2.243   1.424   7.387
 2439SOL     OW19195   3.366   3.626  17.802
 2439SOL    HW119196   3.284   3.613  17.755
 2439SOL    HW219197   3.416   3.546  17.785
 2440SOL     OW19198   4.598   3.097  18.539
 2440SOL    HW119199   4.656   3.041  18.590
 2440SOL    HW219200   4.566   3.041  18.468
 2441SOL     OW19201   3.905   3.678  20.153
 2441SOL    HW119202   3.959   3.707  20.227
 2441SOL    HW219203   3.819   3.718  20.169
 2442SOL     OW19204   0.267   0.178   5.250
 2442SOL    HW119205   0.279   0.257   5.197
 2442SOL    HW219206   0.279   0.106   5.187
 2443SOL     OW19207   0.175   3.452  20.617
 2443SOL    HW119208   0.096   3.412  20.582
 2443SOL    HW219209   0.164   3.546  20.601
 2444SOL     OW19210   4.156   3.929  17.807
 2444SOL    HW119211   4.155   4.013  17.760
 2444SOL    HW219212   4.092   3.875  17.760
 2445SOL     OW19213   0.516   2.155  14.484
 2445SOL    HW119214   0.477   2.195  14.406
 2445SOL    HW219215   0.463   2.077  14.501
 2446SOL     OW19216   2.712   1.135  18.529
 2446SOL    HW119217   2.663   1.126  18.610
 2446SOL    HW219218   2.792   1.084  18.543
 2447SOL     OW19219   0.876   3.548  14.477
 2447SOL    HW119220   0.933   3.598  14.418
 2447SOL    HW219221   0.814   3.612  14.511
 2448SOL     OW19222   1.749   4.208  18.984
 2448SOL    HW119223   1.823   4.225  18.925
 2448SOL    HW219224   1.790   4.166  19.060
 2449SOL     OW19225   0.105   1.131   1.224
 2449SOL    HW119226   0.166   1.133   1.297
 2449SOL    HW219227   0.121   1.046   1.181
 2450SOL     OW19228   4.267   0.205  18.034
 2450SOL    HW119229   4.191   0.252  18.066
 2450SOL    HW219230   4.341   0.262  18.055
 2451SOL     OW19231   1.288   0.661   6.155
 2451SOL    HW119232   1.271   0.714   6.077
 2451SOL    HW219233   1.214   0.677   6.213
 2452SOL     OW19234   3.699   0.558  16.063
 2452SOL    HW119235   3.752   0.625  16.019
 2452SOL    HW219236   3.617   0.603  16.083
 2453SOL     OW19237   2.196   1.622  18.599
 2453SOL    HW119238   2.255   1.624  18.523
 2453SOL    HW219239   2.174   1.529  18.610
 2454SOL     OW19240   0.615   0.645   7.140
 2454SOL    HW119241   0.683   0.681   7.084
 2454SOL    HW219242   0.542   0.625   7.081
 2455SOL     OW19243   0.243   4.411   2.539
 2455SOL    HW119244   0.173   4.475   2.548
 2455SOL    HW219245   0.231   4.352   2.613
 2456SOL     OW19246   0.467   4.081   2.252
 2456SOL    HW119247   0.475   4.170   2.217
 2456SOL    HW219248   0.406   4.090   2.326
 2457SOL     OW19249   1.457   1.732  19.651
 2457SOL    HW119250   1.411   1.809  19.685
 2457SOL    HW219251   1.440   1.733  19.557
 2458SOL     OW19252   0.000   0.438  12.636
 2458SOL    HW119253   4.697   0.451  12.663
 2458SOL    HW219254   0.045   0.519  12.661
 2459SOL     OW19255   1.120   4.620  18.576
 2459SOL    HW119256   1.142   4.562  18.649
 2459SOL    HW219257   1.143   4.570  18.498
 2460SOL     OW19258   2.648   4.537   7.591
 2460SOL    HW119259   2.729   4.498   7.624
 2460SOL    HW219260   2.619   4.595   7.662
 2461SOL     OW19261   1.212   4.600   4.515
 2461SOL    HW119262   1.160   4.578   4.592
 2461SOL    HW219263   1.148   4.626   4.449
 2462SOL     OW19264   3.123   4.120  20.607
 2462SOL    HW119265   3.120   4.144  20.699
 2462SOL    HW219266   3.067   4.043  20.600
 2463SOL     OW19267   0.677   2.523  19.758
 2463SOL    HW119268   0.635   2.475  19.687
 2463SOL    HW219269   0.746   2.464  19.789
 2464SOL     OW19270   3.351   2.022  19.443
 2464SOL    HW119271   3.416   2.071  19.494
 2464SOL    HW219272   3.403   1.963  19.389
 2465SOL     OW19273   4.111   4.678   0.184
 2465SOL    HW119274   4.073   4.593   0.206
 2465SOL    HW219275   4.047   4.742   0.215
 2466SOL     OW19276   2.791   0.423   3.019
 2466SOL    HW119277   2.875   0.453   2.986
 2466SOL    HW219278   2.758   0.363   2.952
 2467SOL     OW19279   1.856   0.637   1.550
 2467SOL    HW119280   1.798   0.659   1.477
 2467SOL    HW219281   1.944   0.637   1.512
 2468SOL     OW19282   2.050   4.154   6.852
 2468SOL    HW119283   2.098   4.180   6.773
 2468SOL    HW219284   2.002   4.233   6.877
 2469SOL     OW19285   2.739   0.279   4.266
 2469SOL    HW119286   2.762   0.303   4.356
 2469SOL    HW219287   2.650   0.312   4.253
 2470SOL     OW19288   2.578   1.096  18.743
 2470SOL    HW119289   2.620   1.151  18.809
 2470SOL    HW219290   2.486   1.093  18.770
 2471SOL     OW19291   1.540   2.140  17.534
 2471SOL    HW119292   1.508   2.084  17.463
 2471SOL    HW219293   1.551   2.081  17.608
 2472SOL     OW19294   3.679   4.343  19.386
 2472SOL    HW119295   3.647   4.433  19.396
 2472SOL    HW219296   3.605   4.288  19.410
 2473SOL     OW19297   0.426   1.447   2.040
 2473SOL    HW119298   0.379   1.370   2.070
 2473SOL    HW219299   0.429   1.505   2.116
 2474SOL     OW19300   3.169   1.104  17.386
 2474SOL    HW119301   3.137   1.181  17.433
 2474SOL    HW219302   3.094   1.045  17.381
 2475SOL     OW19303   1.732   2.496  20.014
 2475SOL    HW119304   1.639   2.520  20.009
 2475SOL    HW219305   1.778   2.580  20.017
 2476SOL     OW19306   2.724   3.326   5.585
 2476SOL    HW119307   2.745   3.300   5.674
 2476SOL    HW219308   2.646   3.380   5.593
 2477SOL     OW19309   2.815   3.311   1.171
 2477SOL    HW119310   2.846   3.341   1.257
 2477SOL    HW219311   2.869   3.235   1.152
 2478SOL     OW19312   3.922   3.318  17.555
 2478SOL    HW119313   3.869   3.241  17.536
 2478SOL    HW219314   3.940   3.356  17.469
 2479SOL     OW19315   3.025   4.560  17.378
 2479SOL    HW119316   2.995   4.572  17.288
 2479SOL    HW219317   3.063   4.645  17.402
 2480SOL     OW19318   0.516   1.667   5.005
 2480SOL    HW119319   0.541   1.682   5.096
 2480SOL    HW219320   0.552   1.581   4.984
 2481SOL     OW19321   4.047   0.164  17.170
 2481SOL    HW119322   4.116   0.197  17.113
 2481SOL    HW219323   4.092   0.134  17.249
 2482SOL     OW19324   2.563   2.634  21.055
 2482SOL    HW119325   2.476   2.610  21.087
 2482SOL    HW219326   2.586   2.712  21.105
 2483SOL     OW19327   2.049   2.126  16.012
 2483SOL    HW119328   2.077   2.056  16.071
 2483SOL    HW219329   2.048   2.204  16.066
 2484SOL     OW19330   4.128   4.206  16.350
 2484SOL    HW119331   4.155   4.138  16.413
 2484SOL    HW219332   4.206   4.221  16.296
 2485SOL     OW19333   2.833   1.694  14.736
 2485SOL    HW119334   2.900   1.647  14.785
 2485SOL    HW219335   2.751   1.651  14.761
 2486SOL     OW19336   2.391   0.862  15.706
 2486SOL    HW119337   2.398   0.876  15.801
 2486SOL    HW219338   2.309   0.815  15.695
 2487SOL     OW19339   1.656   4.297   3.887
 2487SOL    HW119340   1.693   4.382   3.909
 2487SOL    HW219341   1.561   4.309   3.894
 2488SOL     OW19342   4.516   2.862  18.715
 2488SOL    HW119343   4.563   2.871  18.798
 2488SOL    HW219344   4.434   2.908  18.729
 2489SOL     OW19345   2.542   1.823  16.632
 2489SOL    HW119346   2.598   1.778  16.695
 2489SOL    HW219347   2.575   1.798  16.547
 2490SOL     OW19348   4.089   4.120  19.432
 2490SOL    HW119349   4.092   4.206  19.391
 2490SOL    HW219350   4.120   4.135  19.522
 2491SOL     OW19351   4.681   3.793   0.845
 2491SOL    HW119352   4.742   3.799   0.771
 2491SOL    HW219353   4.634   3.711   0.831
 2492SOL     OW19354   1.950   3.946   5.402
 2492SOL    HW119355   2.042   3.965   5.420
 2492SOL    HW219356   1.902   4.021   5.438
 2493SOL     OW19357   3.160   1.790   6.594
 2493SOL    HW119358   3.066   1.805   6.582
 2493SOL    HW219359   3.178   1.820   6.683
 2494SOL     OW19360   1.899   2.030   1.521
 2494SOL    HW119361   1.872   1.954   1.470
 2494SOL    HW219362   1.867   2.105   1.471
 2495SOL     OW19363   2.489   4.249  20.178
 2495SOL    HW119364   2.521   4.293  20.100
 2495SOL    HW219365   2.398   4.227  20.158
 2496SOL     OW19366   1.571   2.602  17.516
 2496SOL    HW119367   1.536   2.521  17.553
 2496SOL    HW219368   1.580   2.583  17.422
 2497SOL     OW19369   1.253   1.171   6.478
 2497SOL    HW119370   1.246   1.089   6.430
 2497SOL    HW219371   1.335   1.164   6.526
 2498SOL     OW19372   1.562   4.707   2.739
 2498SOL    HW119373   1.489   4.761   2.710
 2498SOL    HW219374   1.546   4.621   2.700
 2499SOL     OW19375   2.011   3.337  16.095
 2499SOL    HW119376   2.086   3.333  16.036
 2499SOL    HW219377   1.966   3.418  16.073
 2500SOL     OW19378   1.437   1.289   7.230
 2500SOL    HW119379   1.497   1.229   7.273
 2500SOL    HW219380   1.384   1.325   7.302
 2501SOL     OW19381   3.574   2.532  14.264
 2501SOL    HW119382   3.632   2.536  14.187
 2501SOL    HW219383   3.571   2.440  14.287
 2502SOL     OW19384   4.059   4.514  18.760
 2502SOL    HW119385   4.106   4.431  18.766
 2502SOL    HW219386   4.036   4.535  18.851
 2503SOL     OW19387   1.828   0.682  20.771
 2503SOL    HW119388   1.860   0.593  20.756
 2503SOL    HW219389   1.850   0.701  20.862
 2504SOL     OW19390   4.089   1.825   2.439
 2504SOL    HW119391   4.162   1.846   2.381
 2504SOL    HW219392   4.071   1.733   2.421
 2505SOL     OW19393   4.119   2.381  19.234
 2505SOL    HW119394   4.026   2.362  19.223
 2505SOL    HW219395   4.163   2.302  19.201
 2506SOL     OW19396   0.509   4.240  20.221
 2506SOL    HW119397   0.475   4.315  20.173
 2506SOL    HW219398   0.468   4.164  20.179
 2507SOL     OW19399   1.509   1.566  18.516
 2507SOL    HW119400   1.469   1.546  18.431
 2507SOL    HW219401   1.603   1.567  18.498
 2508SOL     OW19402   3.416   4.363   2.031
 2508SOL    HW119403   3.398   4.439   2.086
 2508SOL    HW219404   3.341   4.356   1.973
 2509SOL     OW19405   1.338   3.061  19.010
 2509SOL    HW119406   1.342   3.017  18.924
 2509SOL    HW219407   1.340   2.989  19.073
 2510SOL     OW19408   1.010   3.113  19.013
 2510SOL    HW119409   0.955   3.054  19.064
 2510SOL    HW219410   1.092   3.065  19.001
 2511SOL     OW19411   2.843   3.916   2.664
 2511SOL    HW119412   2.869   3.839   2.612
 2511SOL    HW219413   2.908   3.982   2.643
 2512SOL     OW19414   4.242   2.632   9.530
 2512SOL    HW119415   4.206   2.719   9.544
 2512SOL    HW219416   4.253   2.626   9.435
 2513SOL     OW19417   0.702   0.722   1.301
 2513SOL    HW119418   0.665   0.673   1.375
 2513SOL    HW219419   0.765   0.782   1.340
 2514SOL     OW19420   2.324   2.822   3.915
 2514SOL    HW119421   2.245   2.788   3.871
 2514SOL    HW219422   2.373   2.865   3.845
 2515SOL     OW19423   3.189   1.796   5.700
 2515SOL    HW119424   3.116   1.757   5.748
 2515SOL    HW219425   3.176   1.766   5.610
 2516SOL     OW19426   1.571   3.154   2.063
 2516SOL    HW119427   1.566   3.093   1.989
 2516SOL    HW219428   1.566   3.098   2.140
 2517SOL     OW19429   1.183   3.787   2.777
 2517SOL    HW119430   1.158   3.742   2.857
 2517SOL    HW219431   1.171   3.722   2.708
 2518SOL     OW19432   3.872   2.744  21.179
 2518SOL    HW119433   3.794   2.772  21.132
 2518SOL    HW219434   3.920   2.690  21.116
 2519SOL     OW19435   0.601   4.329   5.148
 2519SOL    HW119436   0.684   4.362   5.184
 2519SOL    HW219437   0.564   4.277   5.220
 2520SOL     OW19438   1.246   0.866   1.292
 2520SOL    HW119439   1.329   0.827   1.264
 2520SOL    HW219440   1.202   0.797   1.341
 2521SOL     OW19441   2.248   4.210   4.994
 2521SOL    HW119442   2.302   4.245   4.924
 2521SOL    HW219443   2.310   4.167   5.054
 2522SOL     OW19444   3.775   2.280   4.186
 2522SOL    HW119445   3.816   2.229   4.116
 2522SOL    HW219446   3.715   2.340   4.141
 2523SOL     OW19447   0.851   4.294  18.884
 2523SOL    HW119448   0.946   4.283  18.882
 2523SOL    HW219449   0.817   4.204  18.885
 2524SOL     OW19450   3.548   2.424  18.922
 2524SOL    HW119451   3.467   2.474  18.917
 2524SOL    HW219452   3.616   2.489  18.939
 2525SOL     OW19453   3.116   1.863   1.320
 2525SOL    HW119454   3.088   1.933   1.261
 2525SOL    HW219455   3.052   1.793   1.307
 2526SOL     OW19456   1.099   4.171  11.435
 2526SOL    HW119457   1.066   4.256  11.406
 2526SOL    HW219458   1.190   4.187  11.459
 2527SOL     OW19459   1.555   2.490   2.045
 2527SOL    HW119460   1.593   2.429   2.108
 2527SOL    HW219461   1.528   2.565   2.098
 2528SOL     OW19462   0.636   4.681  12.722
 2528SOL    HW119463   0.693   4.727  12.662
 2528SOL    HW219464   0.557   4.663  12.672
 2529SOL     OW19465   0.629   2.560  15.412
 2529SOL    HW119466   0.622   2.509  15.493
 2529SOL    HW219467   0.591   2.504  15.345
 2530SOL     OW19468   3.268   1.589  16.214
 2530SOL    HW119469   3.209   1.645  16.163
 2530SOL    HW219470   3.260   1.622  16.304
 2531SOL     OW19471   1.468   2.059   3.591
 2531SOL    HW119472   1.511   1.974   3.589
 2531SOL    HW219473   1.525   2.116   3.540
 2532SOL     OW19474   0.103   1.298  20.351
 2532SOL    HW119475   0.135   1.212  20.380
 2532SOL    HW219476   0.117   1.298  20.256
 2533SOL     OW19477   3.639   2.800   7.051
 2533SOL    HW119478   3.630   2.727   7.113
 2533SOL    HW219479   3.663   2.875   7.106
 2534SOL     OW19480   1.172   2.361  18.368
 2534SOL    HW119481   1.223   2.355  18.287
 2534SOL    HW219482   1.086   2.326  18.346
 2535SOL     OW19483   1.145   1.160  19.626
 2535SOL    HW119484   1.136   1.184  19.534
 2535SOL    HW219485   1.203   1.226  19.663
 2536SOL     OW19486   0.996   4.348  18.453
 2536SOL    HW119487   1.037   4.391  18.378
 2536SOL    HW219488   1.024   4.256  18.446
 2537SOL     OW19489   1.461   3.767  18.519
 2537SOL    HW119490   1.420   3.734  18.440
 2537SOL    HW219491   1.516   3.695  18.551
 2538SOL     OW19492   1.763   4.537  19.896
 2538SOL    HW119493   1.772   4.445  19.872
 2538SOL    HW219494   1.671   4.557  19.882
 2539SOL     OW19495   1.521   1.363   4.033
 2539SOL    HW119496   1.588   1.431   4.047
 2539SOL    HW219497   1.544   1.295   4.096
 2540SOL     OW19498   0.535   1.874  15.878
 2540SOL    HW119499   0.559   1.954  15.831
 2540SOL    HW219500   0.504   1.815  15.809
 2541SOL     OW19501   4.260   3.629   0.821
 2541SOL    HW119502   4.238   3.627   0.914
 2541SOL    HW219503   4.187   3.678   0.781
 2542SOL     OW19504   4.067   3.949   0.285
 2542SOL    HW119505   3.982   3.979   0.317
 2542SOL    HW219506   4.130   3.990   0.345
 2543SOL     OW19507   4.207   0.372  10.519
 2543SOL    HW119508   4.229   0.465  10.528
 2543SOL    HW219509   4.251   0.330  10.593
 2544SOL     OW19510   3.880   4.330  17.516
 2544SOL    HW119511   3.839   4.257  17.469
 2544SOL    HW219512   3.816   4.401  17.513
 2545SOL     OW19513   1.182   4.446   0.173
 2545SOL    HW119514   1.136   4.424   0.254
 2545SOL    HW219515   1.258   4.497   0.201
 2546SOL     OW19516   2.914   1.701   5.114
 2546SOL    HW119517   2.894   1.769   5.178
 2546SOL    HW219518   2.841   1.639   5.122
 2547SOL     OW19519   2.332   2.942  12.722
 2547SOL    HW119520   2.291   2.857  12.735
 2547SOL    HW219521   2.378   2.934  12.638
 2548SOL     OW19522   2.595   3.752   5.183
 2548SOL    HW119523   2.505   3.785   5.185
 2548SOL    HW219524   2.587   3.663   5.147
 2549SOL     OW19525   1.310   4.294   5.888
 2549SOL    HW119526   1.335   4.313   5.978
 2549SOL    HW219527   1.375   4.230   5.858
 2550SOL     OW19528   4.222   2.314  17.689
 2550SOL    HW119529   4.251   2.228  17.658
 2550SOL    HW219530   4.178   2.296  17.772
 2551SOL     OW19531   4.325   3.601   1.909
 2551SOL    HW119532   4.379   3.642   1.841
 2551SOL    HW219533   4.264   3.670   1.935
 2552SOL     OW19534   4.005   3.129   1.093
 2552SOL    HW119535   4.036   3.163   1.009
 2552SOL    HW219536   3.917   3.165   1.103
 2553SOL     OW19537   4.566   2.556   4.982
 2553SOL    HW119538   4.546   2.478   4.930
 2553SOL    HW219539   4.489   2.611   4.975
 2554SOL     OW19540   2.485   3.380  15.574
 2554SOL    HW119541   2.542   3.431  15.518
 2554SOL    HW219542   2.457   3.440  15.643
 2555SOL     OW19543   4.685   0.276  20.815
 2555SOL    HW119544   4.722   0.304  20.899
 2555SOL    HW219545   4.758   0.233  20.770
 2556SOL     OW19546   1.100   1.561  16.411
 2556SOL    HW119547   1.127   1.544  16.321
 2556SOL    HW219548   1.180   1.591  16.455
 2557SOL     OW19549   4.527   2.284  17.884
 2557SOL    HW119550   4.579   2.310  17.960
 2557SOL    HW219551   4.443   2.255  17.921
 2558SOL     OW19552   2.077   4.638   5.590
 2558SOL    HW119553   2.055   4.712   5.533
 2558SOL    HW219554   2.102   4.568   5.530
 2559SOL     OW19555   2.064   2.755   8.991
 2559SOL    HW119556   1.987   2.808   9.009
 2559SOL    HW219557   2.101   2.793   8.911
 2560SOL     OW19558   3.405   0.674  18.875
 2560SOL    HW119559   3.406   0.719  18.791
 2560SOL    HW219560   3.485   0.621  18.875
 2561SOL     OW19561   1.552   1.840  20.830
 2561SOL    HW119562   1.644   1.825  20.810
 2561SOL    HW219563   1.526   1.912  20.773
 2562SOL     OW19564   3.013   0.754   3.588
 2562SOL    HW119565   3.029   0.761   3.682
 2562SOL    HW219566   2.927   0.712   3.581
 2563SOL     OW19567   3.753   0.998  15.380
 2563SOL    HW119568   3.750   1.068  15.445
 2563SOL    HW219569   3.843   0.965  15.384
 2564SOL     OW19570   0.984   0.778   2.029
 2564SOL    HW119571   0.921   0.829   2.080
 2564SOL    HW219572   0.935   0.748   1.952
 2565SOL     OW19573   0.481   1.323   4.140
 2565SOL    HW119574   0.467   1.317   4.235
 2565SOL    HW219575   0.512   1.413   4.127
 2566SOL     OW19576   1.989   4.550  18.924
 2566SOL    HW119577   1.960   4.468  18.884
 2566SOL    HW219578   2.083   4.553  18.908
 2567SOL     OW19579   4.050   2.000  19.287
 2567SOL    HW119580   4.026   1.933  19.224
 2567SOL    HW219581   4.093   2.068  19.235
 2568SOL     OW19582   4.603   1.444  17.867
 2568SOL    HW119583   4.592   1.525  17.917
 2568SOL    HW219584   4.548   1.380  17.912
 2569SOL     OW19585   2.546   0.077  18.406
 2569SOL    HW119586   2.588   0.158  18.380
 2569SOL    HW219587   2.600   0.008  18.367
 2570SOL     OW19588   0.871   2.964   0.182
 2570SOL    HW119589   0.841   2.904   0.114
 2570SOL    HW219590   0.961   2.936   0.202
 2571SOL     OW19591   3.543   3.988  12.344
 2571SOL    HW119592   3.536   3.902  12.385
 2571SOL    HW219593   3.588   4.042  12.409
 2572SOL     OW19594   2.687   2.415   6.382
 2572SOL    HW119595   2.623   2.461   6.329
 2572SOL    HW219596   2.673   2.447   6.471
 2573SOL     OW19597   3.708   3.121   4.748
 2573SOL    HW119598   3.672   3.116   4.659
 2573SOL    HW219599   3.798   3.150   4.736
 2574SOL     OW19600   3.881   1.574   0.674
 2574SOL    HW119601   3.903   1.641   0.738
 2574SOL    HW219602   3.868   1.621   0.592
 2575SOL     OW19603   4.540   4.478  11.430
 2575SOL    HW119604   4.631   4.483  11.460
 2575SOL    HW219605   4.496   4.552  11.471
 2576SOL     OW19606   0.252   4.288   6.664
 2576SOL    HW119607   0.227   4.218   6.603
 2576SOL    HW219608   0.192   4.360   6.644
 2577SOL     OW19609   0.230   2.784  17.123
 2577SOL    HW119610   0.260   2.795  17.213
 2577SOL    HW219611   0.156   2.845  17.115
 2578SOL     OW19612   1.186   2.462  16.254
 2578SOL    HW119613   1.215   2.426  16.171
 2578SOL    HW219614   1.120   2.528  16.229
 2579SOL     OW19615   0.133   3.273  12.884
 2579SOL    HW119616   0.066   3.314  12.829
 2579SOL    HW219617   0.111   3.180  12.883
 2580SOL     OW19618   1.647   3.640  18.282
 2580SOL    HW119619   1.566   3.647  18.231
 2580SOL    HW219620   1.668   3.547  18.282
 2581SOL     OW19621   1.227   3.927   0.444
 2581SOL    HW119622   1.207   3.930   0.350
 2581SOL    HW219623   1.248   4.017   0.467
 2582SOL     OW19624   4.574   4.023   5.199
 2582SOL    HW119625   4.489   4.016   5.242
 2582SOL    HW219626   4.571   3.960   5.127
 2583SOL     OW19627   3.675   2.124  18.523
 2583SOL    HW119628   3.595   2.104  18.572
 2583SOL    HW219629   3.745   2.117  18.587
 2584SOL     OW19630   3.168   1.360  16.984
 2584SOL    HW119631   3.239   1.300  17.008
 2584SOL    HW219632   3.162   1.421  17.058
 2585SOL     OW19633   3.875   1.406   2.772
 2585SOL    HW119634   3.894   1.361   2.855
 2585SOL    HW219635   3.779   1.411   2.770
 2586SOL     OW19636   4.345   0.673  17.482
 2586SOL    HW119637   4.432   0.648  17.512
 2586SOL    HW219638   4.285   0.634  17.547
 2587SOL     OW19639   1.341   3.538  17.610
 2587SOL    HW119640   1.424   3.536  17.562
 2587SOL    HW219641   1.277   3.565  17.544
 2588SOL     OW19642   1.990   3.345   6.395
 2588SOL    HW119643   2.004   3.439   6.386
 2588SOL    HW219644   2.072   3.312   6.431
 2589SOL     OW19645   0.288   0.230  18.107
 2589SOL    HW119646   0.263   0.321  18.124
 2589SOL    HW219647   0.263   0.215  18.016
 2590SOL     OW19648   0.859   1.210  20.265
 2590SOL    HW119649   0.816   1.243  20.344
 2590SOL    HW219650   0.787   1.191  20.205
 2591SOL     OW19651   2.345   0.631   1.157
 2591SOL    HW119652   2.255   0.598   1.145
 2591SOL    HW219653   2.380   0.578   1.228
 2592SOL     OW19654   1.457   2.578  17.881
 2592SOL    HW119655   1.431   2.491  17.850
 2592SOL    HW219656   1.549   2.569  17.903
 2593SOL     OW19657   3.933   2.777   6.201
 2593SOL    HW119658   3.909   2.861   6.241
 2593SOL    HW219659   3.977   2.729   6.271
 2594SOL     OW19660   4.651   4.222   2.150
 2594SOL    HW119661   4.654   4.305   2.198
 2594SOL    HW219662   4.558   4.199   2.149
 2595SOL     OW19663   2.080   0.360  17.085
 2595SOL    HW119664   2.096   0.317  17.169
 2595SOL    HW219665   2.134   0.439  17.088
 2596SOL     OW19666   2.918   0.927  18.918
 2596SOL    HW119667   2.892   0.843  18.957
 2596SOL    HW219668   2.897   0.992  18.985
 2597SOL     OW19669   1.024   2.544  20.859
 2597SOL    HW119670   1.072   2.493  20.924
 2597SOL    HW219671   1.075   2.624  20.849
 2598SOL     OW19672   4.637   4.373   4.164
 2598SOL    HW119673   4.730   4.388   4.182
 2598SOL    HW219674   4.607   4.319   4.237
 2599SOL     OW19675   2.118   0.007  20.005
 2599SOL    HW119676   2.126   4.722  19.943
 2599SOL    HW219677   2.094   0.082  19.952
 2600SOL     OW19678   0.938   1.420  19.640
 2600SOL    HW119679   0.977   1.336  19.614
 2600SOL    HW219680   0.850   1.418  19.602
 2601SOL     OW19681   0.705   2.149  14.934
 2601SOL    HW119682   0.742   2.065  14.909
 2601SOL    HW219683   0.754   2.213  14.883
 2602SOL     OW19684   4.701   1.255   3.292
 2602SOL    HW119685   4.608   1.259   3.315
 2602SOL    HW219686   4.717   1.334   3.241
 2603SOL     OW19687   0.384   2.828   1.661
 2603SOL    HW119688   0.414   2.866   1.578
 2603SOL    HW219689   0.288   2.834   1.656
 2604SOL     OW19690   0.683   4.568  15.840
 2604SOL    HW119691   0.637   4.650  15.859
 2604SOL    HW219692   0.747   4.591  15.773
 2605SOL     OW19693   4.122   0.864  20.151
 2605SOL    HW119694   4.147   0.791  20.094
 2605SOL    HW219695   4.108   0.937  20.090
 2606SOL     OW19696   4.093   1.826   5.071
 2606SOL    HW119697   4.035   1.901   5.058
 2606SOL    HW219698   4.036   1.749   5.064
 2607SOL     OW19699   3.102   1.861   2.092
 2607SOL    HW119700   3.057   1.820   2.167
 2607SOL    HW219701   3.033   1.882   2.031
 2608SOL     OW19702   2.050   3.397  18.133
 2608SOL    HW119703   2.024   3.467  18.194
 2608SOL    HW219704   2.035   3.433  18.046
 2609SOL     OW19705   0.621   2.486  16.511
 2609SOL    HW119706   0.617   2.580  16.499
 2609SOL    HW219707   0.537   2.453  16.480
 2610SOL     OW19708   2.756   2.559  13.019
 2610SOL    HW119709   2.678   2.510  13.044
 2610SOL    HW219710   2.771   2.620  13.092
 2611SOL     OW19711   1.610   1.051   1.544
 2611SOL    HW119712   1.578   0.961   1.549
 2611SOL    HW219713   1.641   1.070   1.633
 2612SOL     OW19714   1.077   1.422   2.680
 2612SOL    HW119715   1.132   1.347   2.702
 2612SOL    HW219716   1.098   1.487   2.746
 2613SOL     OW19717   2.567   3.614  20.578
 2613SOL    HW119718   2.475   3.589  20.570
 2613SOL    HW219719   2.601   3.560  20.650
 2614SOL     OW19720   0.740   4.115   2.482
 2614SOL    HW119721   0.697   4.030   2.496
 2614SOL    HW219722   0.790   4.129   2.562
 2615SOL     OW19723   0.267   2.285   0.905
 2615SOL    HW119724   0.303   2.236   0.979
 2615SOL    HW219725   0.318   2.366   0.904
 2616SOL     OW19726   0.155   4.617  20.649
 2616SOL    HW119727   0.113   4.660  20.724
 2616SOL    HW219728   0.170   4.527  20.679
 2617SOL     OW19729   0.513   2.263   4.515
 2617SOL    HW119730   0.520   2.326   4.443
 2617SOL    HW219731   0.481   2.315   4.589
 2618SOL     OW19732   2.414   0.856   9.808
 2618SOL    HW119733   2.471   0.844   9.732
 2618SOL    HW219734   2.383   0.768   9.829
 2619SOL     OW19735   3.391   3.013   5.910
 2619SOL    HW119736   3.426   2.928   5.936
 2619SOL    HW219737   3.387   3.010   5.814
 2620SOL     OW19738   4.640   0.825   1.148
 2620SOL    HW119739   4.572   0.877   1.105
 2620SOL    HW219740   4.668   0.762   1.081
 2621SOL     OW19741   0.802   3.892  20.410
 2621SOL    HW119742   0.744   3.967  20.422
 2621SOL    HW219743   0.761   3.842  20.339
 2622SOL     OW19744   2.103   3.477   5.879
 2622SOL    HW119745   2.126   3.386   5.899
 2622SOL    HW219746   2.038   3.500   5.946
 2623SOL     OW19747   0.745   1.503  17.600
 2623SOL    HW119748   0.728   1.410  17.614
 2623SOL    HW219749   0.684   1.528  17.531
 2624SOL     OW19750   2.326   4.744   2.620
 2624SOL    HW119751   2.355   0.043   2.646
 2624SOL    HW219752   2.256   4.723   2.681
 2625SOL     OW19753   0.107   1.022   3.687
 2625SOL    HW119754   0.098   1.081   3.612
 2625SOL    HW219755   0.056   1.063   3.757
 2626SOL     OW19756   3.391   2.800  16.286
 2626SOL    HW119757   3.413   2.715  16.247
 2626SOL    HW219758   3.335   2.778  16.361
 2627SOL     OW19759   0.530   2.083   2.447
 2627SOL    HW119760   0.593   2.108   2.378
 2627SOL    HW219761   0.515   2.164   2.496
 2628SOL     OW19762   0.045   1.923  19.783
 2628SOL    HW119763   0.006   1.874  19.711
 2628SOL    HW219764   4.768   1.916  19.854
 2629SOL     OW19765   1.453   2.275   1.022
 2629SOL    HW119766   1.532   2.224   1.040
 2629SOL    HW219767   1.460   2.351   1.080
 2630SOL     OW19768   1.062   2.828   2.611
 2630SOL    HW119769   1.001   2.830   2.685
 2630SOL    HW219770   1.078   2.735   2.596
 2631SOL     OW19771   4.721   3.184   3.877
 2631SOL    HW119772   4.770   3.102   3.883
 2631SOL    HW219773   4.766   3.234   3.809
 2632SOL     OW19774   3.387   0.188   4.803
 2632SOL    HW119775   3.330   0.175   4.878
 2632SOL    HW219776   3.346   0.257   4.752
 2633SOL     OW19777   1.161   3.758  15.376
 2633SOL    HW119778   1.149   3.736  15.284
 2633SOL    HW219779   1.175   3.853  15.376
 2634SOL     OW19780   4.027   0.890  16.545
 2634SOL    HW119781   4.010   0.866  16.453
 2634SOL    HW219782   4.080   0.817  16.578
 2635SOL     OW19783   4.382   3.960  18.293
 2635SOL    HW119784   4.408   4.027  18.356
 2635SOL    HW219785   4.462   3.942  18.242
 2636SOL     OW19786   1.569   2.859  17.592
 2636SOL    HW119787   1.624   2.893  17.522
 2636SOL    HW219788   1.566   2.764  17.576
 2637SOL     OW19789   2.768   4.746   6.236
 2637SOL    HW119790   2.681   4.726   6.270
 2637SOL    HW219791   2.799   4.662   6.200
 2638SOL     OW19792   1.230   1.185   0.300
 2638SOL    HW119793   1.252   1.274   0.273
 2638SOL    HW219794   1.294   1.129   0.256
 2639SOL     OW19795   4.737   1.912  16.232
 2639SOL    HW119796   4.766   1.955  16.151
 2639SOL    HW219797   4.641   1.912  16.225
 2640SOL     OW19798   0.073   1.600   7.869
 2640SOL    HW119799   0.073   1.507   7.893
 2640SOL    HW219800   0.120   1.643   7.940
 2641SOL     OW19801   4.270   0.964  20.472
 2641SOL    HW119802   4.324   0.911  20.530
 2641SOL    HW219803   4.274   0.920  20.387
 2642SOL     OW19804   1.851   1.273   2.665
 2642SOL    HW119805   1.806   1.356   2.683
 2642SOL    HW219806   1.797   1.206   2.706
 2643SOL     OW19807   0.324   4.397  16.494
 2643SOL    HW119808   0.349   4.376  16.404
 2643SOL    HW219809   0.396   4.364  16.548
 2644SOL     OW19810   0.460   2.978   6.542
 2644SOL    HW119811   0.482   2.922   6.468
 2644SOL    HW219812   0.366   2.993   6.534
 2645SOL     OW19813   2.344   3.242   6.300
 2645SOL    HW119814   2.320   3.273   6.213
 2645SOL    HW219815   2.431   3.278   6.316
 2646SOL     OW19816   3.679   1.249   5.536
 2646SOL    HW119817   3.600   1.259   5.588
 2646SOL    HW219818   3.735   1.190   5.587
 2647SOL     OW19819   4.772   3.094   3.069
 2647SOL    HW119820   4.758   3.046   3.151
 2647SOL    HW219821   0.030   3.174   3.095
 2648SOL     OW19822   2.486   2.668   3.067
 2648SOL    HW119823   2.545   2.638   2.998
 2648SOL    HW219824   2.402   2.629   3.046
 2649SOL     OW19825   3.533   2.172   5.151
 2649SOL    HW119826   3.540   2.239   5.220
 2649SOL    HW219827   3.528   2.089   5.199
 2650SOL     OW19828   2.355   0.269   0.767
 2650SOL    HW119829   2.273   0.255   0.719
 2650SOL    HW219830   2.344   0.354   0.809
 2651SOL     OW19831   0.790   3.733   3.691
 2651SOL    HW119832   0.727   3.755   3.622
 2651SOL    HW219833   0.863   3.794   3.677
 2652SOL     OW19834   2.686   2.563   0.235
 2652SOL    HW119835   2.770   2.586   0.195
 2652SOL    HW219836   2.676   2.469   0.217
 2653SOL     OW19837   1.866   2.887   0.485
 2653SOL    HW119838   1.793   2.947   0.468
 2653SOL    HW219839   1.864   2.872   0.579
 2654SOL     OW19840   1.141   2.143  18.980
 2654SOL    HW119841   1.205   2.071  18.982
 2654SOL    HW219842   1.071   2.112  18.923
 2655SOL     OW19843   3.022   2.547   7.519
 2655SOL    HW119844   3.091   2.482   7.504
 2655SOL    HW219845   2.941   2.496   7.525
 2656SOL     OW19846   0.153   4.651   6.111
 2656SOL    HW119847   0.248   4.656   6.102
 2656SOL    HW219848   0.138   4.569   6.158
 2657SOL     OW19849   0.240   3.739   5.138
 2657SOL    HW119850   0.212   3.796   5.209
 2657SOL    HW219851   0.196   3.773   5.060
 2658SOL     OW19852   0.696   1.176  16.641
 2658SOL    HW119853   0.754   1.189  16.716
 2658SOL    HW219854   0.685   1.081  16.635
 2659SOL     OW19855   0.659   2.212   3.702
 2659SOL    HW119856   0.605   2.277   3.746
 2659SOL    HW219857   0.722   2.183   3.768
 2660SOL     OW19858   3.611   3.575  15.707
 2660SOL    HW119859   3.647   3.593  15.794
 2660SOL    HW219860   3.650   3.642  15.651
 2661SOL     OW19861   1.334   0.120  15.746
 2661SOL    HW119862   1.429   0.112  15.744
 2661SOL    HW219863   1.304   0.066  15.672
 2662SOL     OW19864   0.511   0.273  16.816
 2662SOL    HW119865   0.452   0.213  16.771
 2662SOL    HW219866   0.500   0.253  16.909
 2663SOL     OW19867   1.405   0.319  15.916
 2663SOL    HW119868   1.369   0.258  15.852
 2663SOL    HW219869   1.404   0.404  15.871
 2664SOL     OW19870   4.054   3.382   0.941
 2664SOL    HW119871   4.010   3.420   0.865
 2664SOL    HW219872   3.990   3.390   1.012
 2665SOL     OW19873   3.846   1.440   5.426
 2665SOL    HW119874   3.869   1.454   5.518
 2665SOL    HW219875   3.787   1.365   5.427
 2666SOL     OW19876   1.423   2.890  13.963
 2666SOL    HW119877   1.337   2.893  13.922
 2666SOL    HW219878   1.468   2.967  13.931
 2667SOL     OW19879   3.240   3.683  15.508
 2667SOL    HW119880   3.213   3.752  15.446
 2667SOL    HW219881   3.323   3.651  15.472
 2668SOL     OW19882   3.071   1.720   3.599
 2668SOL    HW119883   3.090   1.629   3.576
 2668SOL    HW219884   2.987   1.717   3.644
 2669SOL     OW19885   2.219   3.131   6.523
 2669SOL    HW119886   2.252   3.192   6.589
 2669SOL    HW219887   2.258   3.161   6.441
 2670SOL     OW19888   3.573   4.138   2.006
 2670SOL    HW119889   3.528   4.222   1.995
 2670SOL    HW219890   3.666   4.161   2.008
 2671SOL     OW19891   1.774   2.632  18.872
 2671SOL    HW119892   1.808   2.569  18.934
 2671SOL    HW219893   1.689   2.596  18.845
 2672SOL     OW19894   2.786   2.994   0.511
 2672SOL    HW119895   2.757   2.944   0.587
 2672SOL    HW219896   2.866   2.949   0.482
 2673SOL     OW19897   2.008   3.784   3.224
 2673SOL    HW119898   1.965   3.813   3.143
 2673SOL    HW219899   1.986   3.851   3.289
 2674SOL     OW19900   2.410   2.719  19.060
 2674SOL    HW119901   2.360   2.771  19.123
 2674SOL    HW219902   2.391   2.628  19.083
 2675SOL     OW19903   3.514   3.259  18.217
 2675SOL    HW119904   3.472   3.261  18.131
 2675SOL    HW219905   3.448   3.224  18.276
 2676SOL     OW19906   0.537   4.787  12.961
 2676SOL    HW119907   0.567   0.090  12.966
 2676SOL    HW219908   0.558   4.759  12.872
 2677SOL     OW19909   0.654   3.061   0.619
 2677SOL    HW119910   0.736   3.033   0.578
 2677SOL    HW219911   0.665   3.038   0.712
 2678SOL     OW19912   2.882   0.858   4.304
 2678SOL    HW119913   2.868   0.885   4.394
 2678SOL    HW219914   2.794   0.854   4.266
 2679SOL     OW19915   4.739   4.540   3.972
 2679SOL    HW119916   4.779   4.479   3.911
 2679SOL    HW219917   4.680   4.486   4.025
 2680SOL     OW19918   2.855   3.767   4.586
 2680SOL    HW119919   2.838   3.822   4.662
 2680SOL    HW219920   2.895   3.826   4.522
 2681SOL     OW19921   4.752   4.241  17.258
 2681SOL    HW119922   0.053   4.248  17.223
 2681SOL    HW219923   4.751   4.156  17.302
 2682SOL     OW19924   0.090   2.619  17.400
 2682SOL    HW119925   0.024   2.556  17.371
 2682SOL    HW219926   0.054   2.656  17.480
 2683SOL     OW19927   4.767   2.927   6.718
 2683SOL    HW119928   4.755   2.997   6.782
 2683SOL    HW219929   4.690   2.871   6.730
 2684SOL     OW19930   1.481   1.560  11.017
 2684SOL    HW119931   1.561   1.611  11.008
 2684SOL    HW219932   1.510   1.475  11.052
 2685SOL     OW19933   1.328   1.005  20.663
 2685SOL    HW119934   1.287   1.049  20.737
 2685SOL    HW219935   1.395   1.067  20.633
 2686SOL     OW19936   4.669   1.850   3.627
 2686SOL    HW119937   4.645   1.833   3.718
 2686SOL    HW219938   4.630   1.935   3.607
 2687SOL     OW19939   3.083   4.378   4.191
 2687SOL    HW119940   3.162   4.433   4.199
 2687SOL    HW219941   3.094   4.333   4.107
 2688SOL     OW19942   4.780   0.191   1.300
 2688SOL    HW119943   4.707   0.222   1.354
 2688SOL    HW219944   4.767   0.096   1.294
 2689SOL     OW19945   0.840   0.228  20.949
 2689SOL    HW119946   0.747   0.246  20.958
 2689SOL    HW219947   0.866   0.273  20.869
 2690SOL     OW19948   2.236   4.105  13.142
 2690SOL    HW119949   2.252   4.178  13.202
 2690SOL    HW219950   2.143   4.111  13.120
 2691SOL     OW19951   3.028   3.728  20.130
 2691SOL    HW119952   2.970   3.789  20.176
 2691SOL    HW219953   3.053   3.774  20.050
 2692SOL     OW19954   0.771   1.189   4.511
 2692SOL    HW119955   0.863   1.203   4.533
 2692SOL    HW219956   0.746   1.268   4.462
 2693SOL     OW19957   4.569   1.158  20.612
 2693SOL    HW119958   4.568   1.093  20.542
 2693SOL    HW219959   4.597   1.239  20.569
 2694SOL     OW19960   1.041   0.616   3.081
 2694SOL    HW119961   0.946   0.601   3.077
 2694SOL    HW219962   1.056   0.655   3.167
 2695SOL     OW19963   0.009   2.904   4.164
 2695SOL    HW119964   4.705   2.886   4.184
 2695SOL    HW219965   0.058   2.849   4.224
 2696SOL     OW19966   0.779   0.713   7.909
 2696SOL    HW119967   0.814   0.722   7.998
 2696SOL    HW219968   0.765   0.619   7.898
 2697SOL     OW19969   2.264   3.644  16.154
 2697SOL    HW119970   2.270   3.658  16.249
 2697SOL    HW219971   2.170   3.629  16.139
 2698SOL     OW19972   0.042   3.299   1.730
 2698SOL    HW119973   0.080   3.370   1.782
 2698SOL    HW219974   4.773   3.253   1.791
 2699SOL     OW19975   0.309   0.270   5.521
 2699SOL    HW119976   0.277   0.205   5.459
 2699SOL    HW219977   0.404   0.273   5.506
 2700SOL     OW19978   0.749   4.377  16.277
 2700SOL    HW119979   0.798   4.302  16.244
 2700SOL    HW219980   0.684   4.395  16.209
 2701SOL     OW19981   2.261   2.605  16.980
 2701SOL    HW119982   2.298   2.598  17.068
 2701SOL    HW219983   2.172   2.571  16.989
 2702SOL     OW19984   0.310   1.945  18.385
 2702SOL    HW119985   0.246   2.015  18.401
 2702SOL    HW219986   0.264   1.865  18.409
 2703SOL     OW19987   0.236   3.262  14.485
 2703SOL    HW119988   0.231   3.323  14.411
 2703SOL    HW219989   0.221   3.317  14.562
 2704SOL     OW19990   0.951   4.642  19.550
 2704SOL    HW119991   0.896   4.677  19.620
 2704SOL    HW219992   0.903   4.663  19.469
 2705SOL     OW19993   2.372   3.382  20.642
 2705SOL    HW119994   2.295   3.380  20.699
 2705SOL    HW219995   2.445   3.394  20.702
 2706SOL     OW19996   2.605   1.980   6.420
 2706SOL    HW119997   2.573   1.916   6.484
 2706SOL    HW219998   2.699   1.964   6.415
 2707SOL     OW19999   1.388   2.007   2.556
 2707SOL    HW120000   1.467   1.957   2.535
 2707SOL    HW220001   1.382   2.072   2.487
 2708SOL     OW20002   0.657   3.725  17.947
 2708SOL    HW120003   0.661   3.633  17.920
 2708SOL    HW220004   0.574   3.732  17.995
 2709SOL     OW20005   3.349   4.637   0.897
 2709SOL    HW120006   3.344   4.560   0.840
 2709SOL    HW220007   3.358   4.600   0.985
 2710SOL     OW20008   0.329   0.602   0.745
 2710SOL    HW120009   0.349   0.675   0.803
 2710SOL    HW220010   0.406   0.544   0.752
 2711SOL     OW20011   4.108   4.718  15.552
 2711SOL    HW120012   4.118   4.724  15.647
 2711SOL    HW220013   4.047   4.645  15.538
 2712SOL     OW20014   2.407   0.747  12.977
 2712SOL    HW120015   2.422   0.780  12.889
 2712SOL    HW220016   2.320   0.779  13.000
 2713SOL     OW20017   1.929   4.161  14.029
 2713SOL    HW120018   1.846   4.209  14.026
 2713SOL    HW220019   1.995   4.228  14.011
 2714SOL     OW20020   2.307   2.645   2.067
 2714SOL    HW120021   2.383   2.702   2.054
 2714SOL    HW220022   2.270   2.673   2.151
 2715SOL     OW20023   1.662   3.953  16.119
 2715SOL    HW120024   1.605   3.998  16.181
 2715SOL    HW220025   1.691   4.022  16.059
 2716SOL     OW20026   1.170   1.251  19.370
 2716SOL    HW120027   1.186   1.286  19.282
 2716SOL    HW220028   1.257   1.227  19.402
 2717SOL     OW20029   3.780   4.504   3.786
 2717SOL    HW120030   3.753   4.459   3.706
 2717SOL    HW220031   3.850   4.563   3.757
 2718SOL     OW20032   0.500   0.178   2.989
 2718SOL    HW120033   0.526   0.117   2.920
 2718SOL    HW220034   0.573   0.176   3.051
 2719SOL     OW20035   2.874   0.899   4.578
 2719SOL    HW120036   2.786   0.917   4.613
 2719SOL    HW220037   2.932   0.954   4.630
 2720SOL     OW20038   3.686   0.212  19.982
 2720SOL    HW120039   3.688   0.227  19.888
 2720SOL    HW220040   3.599   0.175  19.998
 2721SOL     OW20041   0.036   2.820  15.430
 2721SOL    HW120042   0.057   2.892  15.370
 2721SOL    HW220043   0.040   2.859  15.517
 2722SOL     OW20044   2.955   1.677   5.816
 2722SOL    HW120045   2.961   1.584   5.837
 2722SOL    HW220046   2.876   1.685   5.763
 2723SOL     OW20047   4.729   2.170  18.596
 2723SOL    HW120048   4.665   2.119  18.645
 2723SOL    HW220049   0.016   2.179  18.655
 2724SOL     OW20050   1.699   2.380  19.349
 2724SOL    HW120051   1.645   2.454  19.377
 2724SOL    HW220052   1.777   2.385  19.405
 2725SOL     OW20053   1.956   1.729   0.591
 2725SOL    HW120054   1.895   1.723   0.665
 2725SOL    HW220055   1.951   1.821   0.564
 2726SOL     OW20056   2.171   1.594   2.969
 2726SOL    HW120057   2.086   1.586   2.926
 2726SOL    HW220058   2.234   1.599   2.898
 2727SOL     OW20059   3.643   4.043   3.990
 2727SOL    HW120060   3.606   4.061   4.077
 2727SOL    HW220061   3.737   4.051   4.003
 2728SOL     OW20062   0.643   3.514  13.535
 2728SOL    HW120063   0.680   3.456  13.602
 2728SOL    HW220064   0.703   3.506  13.461
 2729SOL     OW20065   0.481   2.762   4.392
 2729SOL    HW120066   0.542   2.804   4.452
 2729SOL    HW220067   0.395   2.780   4.428
 2730SOL     OW20068   4.527   4.123  15.662
 2730SOL    HW120069   4.525   4.036  15.703
 2730SOL    HW220070   4.594   4.116  15.595
 2731SOL     OW20071   1.948   4.772   1.610
 2731SOL    HW120072   1.960   4.683   1.643
 2731SOL    HW220073   1.935   4.761   1.515
 2732SOL     OW20074   1.899   3.811  18.861
 2732SOL    HW120075   1.863   3.724  18.875
 2732SOL    HW220076   1.833   3.855  18.807
 2733SOL     OW20077   3.218   4.324  17.392
 2733SOL    HW120078   3.248   4.394  17.449
 2733SOL    HW220079   3.128   4.347  17.370
 2734SOL     OW20080   3.792   2.670  14.966
 2734SOL    HW120081   3.734   2.593  14.972
 2734SOL    HW220082   3.732   2.744  14.958
 2735SOL     OW20083   1.036   0.993   4.762
 2735SOL    HW120084   1.010   1.023   4.849
 2735SOL    HW220085   1.052   1.073   4.712
 2736SOL     OW20086   2.879   0.892   9.192
 2736SOL    HW120087   2.926   0.934   9.264
 2736SOL    HW220088   2.787   0.915   9.207
 2737SOL     OW20089   2.128   0.785  15.686
 2737SOL    HW120090   2.068   0.728  15.638
 2737SOL    HW220091   2.082   0.868  15.693
 2738SOL     OW20092   1.254   0.956   1.675
 2738SOL    HW120093   1.200   1.011   1.619
 2738SOL    HW220094   1.194   0.888   1.706
 2739SOL     OW20095   4.525   0.475   4.620
 2739SOL    HW120096   4.501   0.442   4.534
 2739SOL    HW220097   4.573   0.556   4.602
 2740SOL     OW20098   4.393   4.406   5.063
 2740SOL    HW120099   4.315   4.445   5.024
 2740SOL    HW220100   4.361   4.331   5.113
 2741SOL     OW20101   4.785   3.985   1.020
 2741SOL    HW120102   4.739   3.927   0.960
 2741SOL    HW220103   0.090   3.974   0.999
 2742SOL     OW20104   3.005   3.269   5.302
 2742SOL    HW120105   3.079   3.284   5.243
 2742SOL    HW220106   2.988   3.175   5.295
 2743SOL     OW20107   0.323   0.066   0.720
 2743SOL    HW120108   0.419   0.061   0.714
 2743SOL    HW220109   0.299   0.133   0.655
 2744SOL     OW20110   3.900   3.430  16.214
 2744SOL    HW120111   3.827   3.395  16.163
 2744SOL    HW220112   3.965   3.360  16.214
 2745SOL     OW20113   1.237   3.910  16.311
 2745SOL    HW120114   1.222   3.978  16.376
 2745SOL    HW220115   1.284   3.955  16.240
 2746SOL     OW20116   0.166   2.224  18.751
 2746SOL    HW120117   0.164   2.310  18.794
 2746SOL    HW220118   0.228   2.173  18.802
 2747SOL     OW20119   3.988   4.553  19.552
 2747SOL    HW120120   4.038   4.523  19.628
 2747SOL    HW220121   3.914   4.601  19.589
 2748SOL     OW20122   3.739   2.994   7.229
 2748SOL    HW120123   3.789   3.039   7.161
 2748SOL    HW220124   3.688   3.063   7.271
 2749SOL     OW20125   0.885   2.822   1.103
 2749SOL    HW120126   0.839   2.758   1.157
 2749SOL    HW220127   0.863   2.907   1.142
 2750SOL     OW20128   4.225   3.436   5.998
 2750SOL    HW120129   4.236   3.426   5.903
 2750SOL    HW220130   4.285   3.372   6.036
 2751SOL     OW20131   2.167   0.685  18.706
 2751SOL    HW120132   2.230   0.639  18.650
 2751SOL    HW220133   2.212   0.695  18.790
 2752SOL     OW20134   2.713   2.689  16.874
 2752SOL    HW120135   2.805   2.711  16.858
 2752SOL    HW220136   2.717   2.609  16.927
 2753SOL     OW20137   3.520   4.077   4.231
 2753SOL    HW120138   3.428   4.075   4.207
 2753SOL    HW220139   3.521   4.111   4.320
 2754SOL     OW20140   1.535   3.647  20.768
 2754SOL    HW120141   1.572   3.735  20.754
 2754SOL    HW220142   1.575   3.618  20.850
 2755SOL     OW20143   2.365   2.221  18.852
 2755SOL    HW120144   2.384   2.158  18.783
 2755SOL    HW220145   2.375   2.307  18.810
 2756SOL     OW20146   2.456   3.379   3.865
 2756SOL    HW120147   2.525   3.314   3.879
 2756SOL    HW220148   2.390   3.358   3.931
 2757SOL     OW20149   1.012   0.173  20.186
 2757SOL    HW120150   1.012   0.087  20.228
 2757SOL    HW220151   1.081   0.167  20.120
 2758SOL     OW20152   1.468   1.009   5.143
 2758SOL    HW120153   1.563   1.009   5.158
 2758SOL    HW220154   1.448   1.099   5.117
 2759SOL     OW20155   2.729   0.651   1.056
 2759SOL    HW120156   2.698   0.731   1.015
 2759SOL    HW220157   2.696   0.656   1.146
 2760SOL     OW20158   2.893   2.647  16.670
 2760SOL    HW120159   2.873   2.739  16.654
 2760SOL    HW220160   2.983   2.647  16.702
 2761SOL     OW20161   3.432   0.057  16.841
 2761SOL    HW120162   3.458   0.149  16.829
 2761SOL    HW220163   3.344   0.052  16.803
 2762SOL     OW20164   3.405   0.821   3.727
 2762SOL    HW120165   3.386   0.819   3.633
 2762SOL    HW220166   3.417   0.913   3.748
 2763SOL     OW20167   2.717   2.910   6.436
 2763SOL    HW120168   2.675   2.845   6.492
 2763SOL    HW220169   2.772   2.962   6.495
 2764SOL     OW20170   2.116   2.519   5.445
 2764SOL    HW120171   2.147   2.428   5.445
 2764SOL    HW220172   2.195   2.571   5.462
 2765SOL     OW20173   0.676   3.220   3.129
 2765SOL    HW120174   0.677   3.264   3.044
 2765SOL    HW220175   0.611   3.151   3.119
 2766SOL     OW20176   2.717   3.790   3.577
 2766SOL    HW120177   2.702   3.881   3.552
 2766SOL    HW220178   2.638   3.744   3.550
 2767SOL     OW20179   3.194   0.174  16.168
 2767SOL    HW120180   3.178   0.266  16.187
 2767SOL    HW220181   3.290   0.166  16.166
 2768SOL     OW20182   3.639   4.535  13.901
 2768SOL    HW120183   3.704   4.519  13.833
 2768SOL    HW220184   3.564   4.481  13.876
 2769SOL     OW20185   2.481   0.431   5.418
 2769SOL    HW120186   2.419   0.423   5.347
 2769SOL    HW220187   2.556   0.378   5.392
 2770SOL     OW20188   3.477   4.721  16.529
 2770SOL    HW120189   3.496   4.661  16.457
 2770SOL    HW220190   3.425   4.670  16.590
 2771SOL     OW20191   3.590   3.417   3.562
 2771SOL    HW120192   3.686   3.424   3.556
 2771SOL    HW220193   3.558   3.497   3.522
 2772SOL     OW20194   4.282   2.544   1.414
 2772SOL    HW120195   4.210   2.488   1.385
 2772SOL    HW220196   4.330   2.490   1.477
 2773SOL     OW20197   3.336   4.089  19.568
 2773SOL    HW120198   3.423   4.088  19.607
 2773SOL    HW220199   3.291   4.161  19.612
 2774SOL     OW20200   1.796   2.947   5.967
 2774SOL    HW120201   1.807   2.875   5.905
 2774SOL    HW220202   1.703   2.945   5.989
 2775SOL     OW20203   0.910   0.811  17.452
 2775SOL    HW120204   0.981   0.876  17.446
 2775SOL    HW220205   0.881   0.817  17.543
 2776SOL     OW20206   0.878   2.552   4.813
 2776SOL    HW120207   0.966   2.556   4.774
 2776SOL    HW220208   0.878   2.471   4.863
 2777SOL     OW20209   3.631   3.777   0.828
 2777SOL    HW120210   3.582   3.848   0.786
 2777SOL    HW220211   3.717   3.815   0.846
 2778SOL     OW20212   0.264   0.960  17.172
 2778SOL    HW120213   0.186   1.003  17.135
 2778SOL    HW220214   0.266   0.988  17.263
 2779SOL     OW20215   2.873   1.191  20.910
 2779SOL    HW120216   2.889   1.283  20.932
 2779SOL    HW220217   2.960   1.153  20.898
 2780SOL     OW20218   4.342   0.016  18.361
 2780SOL    HW120219   4.298   4.769  18.439
 2780SOL    HW220220   4.432   0.031  18.389
 2781SOL     OW20221   2.941   4.410  20.845
 2781SOL    HW120222   3.006   4.343  20.824
 2781SOL    HW220223   2.872   4.363  20.893
 2782SOL     OW20224   0.938   4.505   2.491
 2782SOL    HW120225   1.001   4.434   2.497
 2782SOL    HW220226   0.959   4.563   2.564
 2783SOL     OW20227   1.852   4.312  17.070
 2783SOL    HW120228   1.831   4.405  17.073
 2783SOL    HW220229   1.919   4.300  17.138
 2784SOL     OW20230   1.109   4.510  12.688
 2784SOL    HW120231   1.030   4.488  12.639
 2784SOL    HW220232   1.166   4.553  12.623
 2785SOL     OW20233   4.615   3.381   0.551
 2785SOL    HW120234   4.708   3.404   0.548
 2785SOL    HW220235   4.614   3.294   0.591
 2786SOL     OW20236   2.266   2.731  17.784
 2786SOL    HW120237   2.342   2.685  17.750
 2786SOL    HW220238   2.201   2.725  17.714
 2787SOL     OW20239   0.475   0.159  18.281
 2787SOL    HW120240   0.431   0.128  18.361
 2787SOL    HW220241   0.406   0.203  18.231
 2788SOL     OW20242   3.110   1.849  16.374
 2788SOL    HW120243   3.150   1.900  16.444
 2788SOL    HW220244   3.037   1.803  16.416
 2789SOL     OW20245   0.492   1.790  21.178
 2789SOL    HW120246   0.520   1.804  21.087
 2789SOL    HW220247   0.534   1.860  21.227
 2790SOL     OW20248   0.317   3.438  14.953
 2790SOL    HW120249   0.337   3.382  15.028
 2790SOL    HW220250   0.384   3.418  14.888
 2791SOL     OW20251   3.038   3.867  15.970
 2791SOL    HW120252   2.967   3.817  16.011
 2791SOL    HW220253   3.013   3.958  15.983
 2792SOL     OW20254   0.688   1.425   5.014
 2792SOL    HW120255   0.762   1.365   5.009
 2792SOL    HW220256   0.613   1.373   4.987
 2793SOL     OW20257   0.676   0.542  20.665
 2793SOL    HW120258   0.698   0.626  20.705
 2793SOL    HW220259   0.615   0.565  20.594
 2794SOL     OW20260   4.696   3.156   1.085
 2794SOL    HW120261   4.648   3.093   1.033
 2794SOL    HW220262   4.639   3.233   1.090
 2795SOL     OW20263   2.189   2.190  15.220
 2795SOL    HW120264   2.116   2.208  15.161
 2795SOL    HW220265   2.150   2.192  15.308
 2796SOL     OW20266   2.221   4.523  17.855
 2796SOL    HW120267   2.186   4.552  17.771
 2796SOL    HW220268   2.308   4.489  17.835
 2797SOL     OW20269   1.961   0.609   4.480
 2797SOL    HW120270   1.866   0.616   4.472
 2797SOL    HW220271   1.994   0.623   4.392
 2798SOL     OW20272   4.482   3.244  17.760
 2798SOL    HW120273   4.463   3.213  17.849
 2798SOL    HW220274   4.570   3.211  17.741
 2799SOL     OW20275   0.221   4.333   3.968
 2799SOL    HW120276   0.303   4.362   3.926
 2799SOL    HW220277   0.152   4.362   3.909
 2800SOL     OW20278   0.384   0.864   5.689
 2800SOL    HW120279   0.310   0.924   5.683
 2800SOL    HW220280   0.434   0.879   5.608
 2801SOL     OW20281   2.979   1.712   6.944
 2801SOL    HW120282   2.980   1.620   6.920
 2801SOL    HW220283   2.951   1.713   7.036
 2802SOL     OW20284   0.469   4.350  14.397
 2802SOL    HW120285   0.438   4.332  14.308
 2802SOL    HW220286   0.560   4.377  14.386
 2803SOL     OW20287   2.354   4.133   3.884
 2803SOL    HW120288   2.405   4.052   3.884
 2803SOL    HW220289   2.280   4.115   3.826
 2804SOL     OW20290   3.163   1.739  18.152
 2804SOL    HW120291   3.118   1.662  18.188
 2804SOL    HW220292   3.094   1.805  18.142
 2805SOL     OW20293   0.964   4.158  20.628
 2805SOL    HW120294   0.956   4.190  20.538
 2805SOL    HW220295   1.042   4.203  20.662
 2806SOL     OW20296   3.448   0.858  19.115
 2806SOL    HW120297   3.396   0.937  19.135
 2806SOL    HW220298   3.398   0.815  19.046
 2807SOL     OW20299   2.135   2.097  20.848
 2807SOL    HW120300   2.117   2.008  20.876
 2807SOL    HW220301   2.079   2.110  20.771
 2808SOL     OW20302   1.645   1.368  17.665
 2808SOL    HW120303   1.621   1.310  17.738
 2808SOL    HW220304   1.679   1.309  17.598
 2809SOL     OW20305   3.152   2.481   4.153
 2809SOL    HW120306   3.216   2.438   4.096
 2809SOL    HW220307   3.154   2.431   4.234
 2810SOL     OW20308   1.092   1.249  15.554
 2810SOL    HW120309   1.003   1.276  15.577
 2810SOL    HW220310   1.116   1.307  15.482
 2811SOL     OW20311   0.390   0.533  16.744
 2811SOL    HW120312   0.430   0.449  16.769
 2811SOL    HW220313   0.324   0.509  16.679
 2812SOL     OW20314   2.297   1.541  19.725
 2812SOL    HW120315   2.304   1.540  19.820
 2812SOL    HW220316   2.295   1.634  19.701
 2813SOL     OW20317   0.521   4.624   5.730
 2813SOL    HW120318   0.524   4.638   5.635
 2813SOL    HW220319   0.598   4.571   5.749
 2814SOL     OW20320   2.530   1.117   3.107
 2814SOL    HW120321   2.492   1.031   3.129
 2814SOL    HW220322   2.600   1.096   3.044
 2815SOL     OW20323   1.255   1.003  16.141
 2815SOL    HW120324   1.275   1.063  16.213
 2815SOL    HW220325   1.166   1.025  16.115
 2816SOL     OW20326   0.609   4.183  17.239
 2816SOL    HW120327   0.555   4.108  17.262
 2816SOL    HW220328   0.699   4.149  17.237
 2817SOL     OW20329   4.618   1.639  15.690
 2817SOL    HW120330   4.561   1.715  15.703
 2817SOL    HW220331   4.561   1.564  15.708
 2818SOL     OW20332   1.896   4.783   1.091
 2818SOL    HW120333   1.861   0.045   1.017
 2818SOL    HW220334   1.982   4.753   1.060
 2819SOL     OW20335   0.521   1.138   4.689
 2819SOL    HW120336   0.596   1.151   4.631
 2819SOL    HW220337   0.459   1.086   4.638
 2820SOL     OW20338   2.670   0.362  20.021
 2820SOL    HW120339   2.694   0.392  19.934
 2820SOL    HW220340   2.576   0.343  20.015
 2821SOL     OW20341   3.656   1.446   3.328
 2821SOL    HW120342   3.623   1.400   3.405
 2821SOL    HW220343   3.663   1.378   3.260
 2822SOL     OW20344   2.222   3.113  20.852
 2822SOL    HW120345   2.191   3.201  20.872
 2822SOL    HW220346   2.284   3.093  20.922
 2823SOL     OW20347   4.438   3.629  15.818
 2823SOL    HW120348   4.381   3.595  15.887
 2823SOL    HW220349   4.512   3.568  15.816
 2824SOL     OW20350   2.106   4.544  19.831
 2824SOL    HW120351   2.146   4.537  19.744
 2824SOL    HW220352   2.128   4.461  19.874
 2825SOL     OW20353   2.098   4.404  19.418
 2825SOL    HW120354   2.168   4.362  19.367
 2825SOL    HW220355   2.109   4.497  19.402
 2826SOL     OW20356   1.224   1.448   5.184
 2826SOL    HW120357   1.224   1.359   5.220
 2826SOL    HW220358   1.269   1.500   5.250
 2827SOL     OW20359   2.112   0.438   3.408
 2827SOL    HW120360   2.042   0.425   3.472
 2827SOL    HW220361   2.077   0.402   3.327
 2828SOL     OW20362   0.709   2.212  16.919
 2828SOL    HW120363   0.799   2.216  16.888
 2828SOL    HW220364   0.681   2.304  16.923
 2829SOL     OW20365   0.856   3.601   5.945
 2829SOL    HW120366   0.864   3.694   5.962
 2829SOL    HW220367   0.933   3.562   5.985
 2830SOL     OW20368   2.657   2.122   0.866
 2830SOL    HW120369   2.715   2.188   0.829
 2830SOL    HW220370   2.692   2.107   0.954
 2831SOL     OW20371   2.797   2.258  16.220
 2831SOL    HW120372   2.813   2.269  16.313
 2831SOL    HW220373   2.725   2.195  16.215
 2832SOL     OW20374   4.306   3.835  15.400
 2832SOL    HW120375   4.276   3.799  15.484
 2832SOL    HW220376   4.312   3.929  15.416
 2833SOL     OW20377   1.224   1.443  11.711
 2833SOL    HW120378   1.291   1.402  11.766
 2833SOL    HW220379   1.270   1.463  11.630
 2834SOL     OW20380   1.979   2.217   5.128
 2834SOL    HW120381   2.047   2.282   5.112
 2834SOL    HW220382   2.013   2.164   5.201
 2835SOL     OW20383   0.666   4.727   0.985
 2835SOL    HW120384   0.719   4.766   1.054
 2835SOL    HW220385   0.691   4.635   0.985
 2836SOL     OW20386   2.494   4.485  20.355
 2836SOL    HW120387   2.559   4.537  20.308
 2836SOL    HW220388   2.498   4.399  20.313
 2837SOL     OW20389   4.264   0.758   3.143
 2837SOL    HW120390   4.224   0.841   3.166
 2837SOL    HW220391   4.295   0.721   3.226
 2838SOL     OW20392   0.369   3.068   5.371
 2838SOL    HW120393   0.352   3.162   5.376
 2838SOL    HW220394   0.299   3.028   5.423
 2839SOL     OW20395   0.136   1.998  19.494
 2839SOL    HW120396   0.166   2.076  19.541
 2839SOL    HW220397   0.045   2.017  19.473
 2840SOL     OW20398   3.760   2.981  20.563
 2840SOL    HW120399   3.783   2.948  20.476
 2840SOL    HW220400   3.821   2.938  20.622
 2841SOL     OW20401   1.941   1.648  18.739
 2841SOL    HW120402   2.036   1.645  18.728
 2841SOL    HW220403   1.914   1.727  18.692
 2842SOL     OW20404   2.485   3.528   6.020
 2842SOL    HW120405   2.470   3.513   6.113
 2842SOL    HW220406   2.440   3.611   6.001
 2843SOL     OW20407   3.849   0.769  15.991
 2843SOL    HW120408   3.807   0.854  15.983
 2843SOL    HW220409   3.929   0.777  15.939
 2844SOL     OW20410   0.385   4.017   6.141
 2844SOL    HW120411   0.371   3.923   6.150
 2844SOL    HW220412   0.389   4.049   6.232
 2845SOL     OW20413   0.799   2.776   5.513
 2845SOL    HW120414   0.762   2.832   5.581
 2845SOL    HW220415   0.780   2.822   5.431
 2846SOL     OW20416   3.339   3.368   3.725
 2846SOL    HW120417   3.430   3.348   3.699
 2846SOL    HW220418   3.328   3.460   3.704
 2847SOL     OW20419   4.485   0.168   2.592
 2847SOL    HW120420   4.556   0.186   2.654
 2847SOL    HW220421   4.405   0.180   2.644
 2848SOL     OW20422   2.402   4.424  14.365
 2848SOL    HW120423   2.436   4.364  14.431
 2848SOL    HW220424   2.374   4.501  14.415
 2849SOL     OW20425   3.883   4.770  20.358
 2849SOL    HW120426   3.811   4.726  20.403
 2849SOL    HW220427   3.941   0.011  20.428
 2850SOL     OW20428   4.144   4.286   5.184
 2850SOL    HW120429   4.051   4.304   5.170
 2850SOL    HW220430   4.173   4.353   5.245
 2851SOL     OW20431   4.069   0.082  20.599
 2851SOL    HW120432   4.047   0.174  20.583
 2851SOL    HW220433   4.158   0.073  20.565
 2852SOL     OW20434   1.277   2.291  19.173
 2852SOL    HW120435   1.255   2.244  19.093
 2852SOL    HW220436   1.291   2.223  19.239
 2853SOL     OW20437   0.848   2.300  14.774
 2853SOL    HW120438   0.896   2.380  14.753
 2853SOL    HW220439   0.870   2.240  14.703
 2854SOL     OW20440   0.682   2.314   5.258
 2854SOL    HW120441   0.659   2.272   5.341
 2854SOL    HW220442   0.750   2.377   5.282
 2855SOL     OW20443   1.528   0.326   0.817
 2855SOL    HW120444   1.532   0.296   0.726
 2855SOL    HW220445   1.492   0.415   0.812
 2856SOL     OW20446   4.029   4.168   0.086
 2856SOL    HW120447   4.089   4.130   0.022
 2856SOL    HW220448   4.014   4.098   0.150
 2857SOL     OW20449   0.393   4.525  19.536
 2857SOL    HW120450   0.392   4.475  19.618
 2857SOL    HW220451   0.439   4.469  19.474
 2858SOL     OW20452   1.011   0.601   1.673
 2858SOL    HW120453   0.925   0.605   1.633
 2858SOL    HW220454   1.014   0.515   1.716
 2859SOL     OW20455   4.055   0.079   4.663
 2859SOL    HW120456   4.095   0.041   4.742
 2859SOL    HW220457   4.058   0.173   4.677
 2860SOL     OW20458   3.604   4.528   6.361
 2860SOL    HW120459   3.689   4.503   6.325
 2860SOL    HW220460   3.543   4.462   6.326
 2861SOL     OW20461   4.561   3.660   0.493
 2861SOL    HW120462   4.591   3.641   0.404
 2861SOL    HW220463   4.579   3.579   0.542
 2862SOL     OW20464   3.970   4.204   4.369
 2862SOL    HW120465   3.934   4.201   4.458
 2862SOL    HW220466   3.895   4.191   4.312
 2863SOL     OW20467   4.586   3.529   3.575
 2863SOL    HW120468   4.560   3.536   3.483
 2863SOL    HW220469   4.515   3.479   3.616
 2864SOL     OW20470   3.066   0.590  19.218
 2864SOL    HW120471   3.063   0.623  19.308
 2864SOL    HW220472   3.019   0.657  19.167
 2865SOL     OW20473   4.549   4.692  14.947
 2865SOL    HW120474   4.508   4.671  15.031
 2865SOL    HW220475   4.476   4.700  14.886
 2866SOL     OW20476   0.115   2.320  16.981
 2866SOL    HW120477   0.059   2.383  16.936
 2866SOL    HW220478   0.187   2.372  17.016
 2867SOL     OW20479   2.055   0.913  16.296
 2867SOL    HW120480   2.019   0.930  16.383
 2867SOL    HW220481   2.098   0.828  16.304
 2868SOL     OW20482   1.596   3.081  20.092
 2868SOL    HW120483   1.611   2.995  20.132
 2868SOL    HW220484   1.683   3.122  20.090
 2869SOL     OW20485   4.511   3.883   2.490
 2869SOL    HW120486   4.588   3.836   2.458
 2869SOL    HW220487   4.437   3.831   2.460
 2870SOL     OW20488   1.837   2.600   5.046
 2870SOL    HW120489   1.914   2.610   4.991
 2870SOL    HW220490   1.871   2.600   5.135
 2871SOL     OW20491   1.702   3.790   0.359
 2871SOL    HW120492   1.679   3.698   0.369
 2871SOL    HW220493   1.630   3.837   0.401
 2872SOL     OW20494   0.102   3.195   1.288
 2872SOL    HW120495   0.040   3.187   1.215
 2872SOL    HW220496   0.055   3.162   1.364
 2873SOL     OW20497   2.153   2.030   6.556
 2873SOL    HW120498   2.090   2.055   6.489
 2873SOL    HW220499   2.131   2.084   6.632
 2874SOL     OW20500   3.523   3.884  17.517
 2874SOL    HW120501   3.590   3.840  17.569
 2874SOL    HW220502   3.555   3.880  17.427
 2875SOL     OW20503   2.022   3.303   2.745
 2875SOL    HW120504   1.956   3.296   2.814
 2875SOL    HW220505   1.971   3.305   2.664
 2876SOL     OW20506   4.767   4.470   6.409
 2876SOL    HW120507   4.784   4.377   6.398
 2876SOL    HW220508   4.763   4.483   6.503
 2877SOL     OW20509   3.746   2.124   8.588
 2877SOL    HW120510   3.778   2.181   8.658
 2877SOL    HW220511   3.817   2.061   8.575
 2878SOL     OW20512   1.547   3.616  16.212
 2878SOL    HW120513   1.608   3.685  16.240
 2878SOL    HW220514   1.603   3.550  16.171
 2879SOL     OW20515   2.337   3.972   1.000
 2879SOL    HW120516   2.379   3.906   0.945
 2879SOL    HW220517   2.278   3.922   1.056
 2880SOL     OW20518   3.897   0.070  18.084
 2880SOL    HW120519   3.924   4.778  18.039
 2880SOL    HW220520   3.907   0.139  18.019
 2881SOL     OW20521   3.159   2.461  18.517
 2881SOL    HW120522   3.144   2.489  18.427
 2881SOL    HW220523   3.214   2.530  18.554
 2882SOL     OW20524   0.676   0.247  19.744
 2882SOL    HW120525   0.703   0.161  19.711
 2882SOL    HW220526   0.595   0.231  19.791
 2883SOL     OW20527   2.379   3.078  14.922
 2883SOL    HW120528   2.382   3.075  15.018
 2883SOL    HW220529   2.445   3.143  14.898
 2884SOL     OW20530   2.688   1.811   5.818
 2884SOL    HW120531   2.644   1.731   5.845
 2884SOL    HW220532   2.626   1.881   5.840
 2885SOL     OW20533   1.678   3.207   2.348
 2885SOL    HW120534   1.708   3.135   2.403
 2885SOL    HW220535   1.593   3.231   2.384
 2886SOL     OW20536   1.053   3.556  19.101
 2886SOL    HW120537   1.133   3.543  19.049
 2886SOL    HW220538   0.994   3.487  19.071
 2887SOL     OW20539   4.291   3.610  15.214
 2887SOL    HW120540   4.372   3.570  15.245
 2887SOL    HW220541   4.283   3.690  15.266
 2888SOL     OW20542   4.088   1.991   1.428
 2888SOL    HW120543   4.084   2.046   1.506
 2888SOL    HW220544   4.180   1.991   1.403
 2889SOL     OW20545   3.618   2.509   3.598
 2889SOL    HW120546   3.525   2.512   3.573
 2889SOL    HW220547   3.659   2.455   3.530
 2890SOL     OW20548   2.673   2.021   5.611
 2890SOL    HW120549   2.657   1.993   5.521
 2890SOL    HW220550   2.614   1.966   5.664
 2891SOL     OW20551   3.985   1.469  14.037
 2891SOL    HW120552   3.968   1.447  13.946
 2891SOL    HW220553   4.080   1.463  14.046
 2892SOL     OW20554   1.938   1.361   0.632
 2892SOL    HW120555   1.885   1.428   0.589
 2892SOL    HW220556   1.953   1.395   0.720
 2893SOL     OW20557   0.815   4.182   7.390
 2893SOL    HW120558   0.759   4.259   7.381
 2893SOL    HW220559   0.901   4.210   7.360
 2894SOL     OW20560   1.712   4.507  16.517
 2894SOL    HW120561   1.654   4.558  16.460
 2894SOL    HW220562   1.743   4.570  16.582
 2895SOL     OW20563   1.899   4.107  18.255
 2895SOL    HW120564   1.898   4.015  18.231
 2895SOL    HW220565   1.884   4.154  18.172
 2896SOL     OW20566   0.182   1.390  18.656
 2896SOL    HW120567   0.261   1.359  18.611
 2896SOL    HW220568   0.215   1.443  18.728
 2897SOL     OW20569   2.269   0.421  14.503
 2897SOL    HW120570   2.341   0.406  14.443
 2897SOL    HW220571   2.202   0.466  14.451
 2898SOL     OW20572   1.145   4.485  20.429
 2898SOL    HW120573   1.062   4.441  20.408
 2898SOL    HW220574   1.211   4.416  20.421
 2899SOL     OW20575   1.361   2.503  14.227
 2899SOL    HW120576   1.445   2.548  14.232
 2899SOL    HW220577   1.296   2.573  14.221
 2900SOL     OW20578   3.283   4.760   1.275
 2900SOL    HW120579   3.238   0.004   1.196
 2900SOL    HW220580   3.358   0.031   1.285
 2901SOL     OW20581   4.444   4.264  16.803
 2901SOL    HW120582   4.502   4.339  16.788
 2901SOL    HW220583   4.503   4.190  16.814
 2902SOL     OW20584   4.563   4.240  16.137
 2902SOL    HW120585   4.581   4.332  16.118
 2902SOL    HW220586   4.605   4.224  16.222
 2903SOL     OW20587   0.708   1.198   0.293
 2903SOL    HW120588   0.799   1.229   0.299
 2903SOL    HW220589   0.682   1.218   0.203
 2904SOL     OW20590   0.290   3.769   0.677
 2904SOL    HW120591   0.201   3.767   0.642
 2904SOL    HW220592   0.330   3.687   0.647
 2905SOL     OW20593   3.143   2.851  13.560
 2905SOL    HW120594   3.048   2.850  13.574
 2905SOL    HW220595   3.164   2.943  13.542
 2906SOL     OW20596   1.752   2.400  16.619
 2906SOL    HW120597   1.807   2.336  16.664
 2906SOL    HW220598   1.764   2.381  16.526
 2907SOL     OW20599   2.783   3.259   0.445
 2907SOL    HW120600   2.701   3.264   0.493
 2907SOL    HW220601   2.818   3.172   0.465
 2908SOL     OW20602   4.301   1.089   1.184
 2908SOL    HW120603   4.290   0.994   1.184
 2908SOL    HW220604   4.353   1.108   1.262
 2909SOL     OW20605   0.352   0.664   2.312
 2909SOL    HW120606   0.276   0.665   2.254
 2909SOL    HW220607   0.315   0.675   2.400
 2910SOL     OW20608   0.364   3.012  15.304
 2910SOL    HW120609   0.422   3.034  15.230
 2910SOL    HW220610   0.396   2.927  15.334
 2911SOL     OW20611   2.166   0.755   1.696
 2911SOL    HW120612   2.151   0.740   1.602
 2911SOL    HW220613   2.201   0.844   1.700
 2912SOL     OW20614   1.748   0.497   1.792
 2912SOL    HW120615   1.773   0.548   1.715
 2912SOL    HW220616   1.817   0.431   1.800
 2913SOL     OW20617   4.485   1.566   2.464
 2913SOL    HW120618   4.473   1.586   2.557
 2913SOL    HW220619   4.436   1.634   2.418
 2914SOL     OW20620   1.442   0.373  18.541
 2914SOL    HW120621   1.502   0.410  18.606
 2914SOL    HW220622   1.356   0.378  18.582
 2915SOL     OW20623   3.324   0.980  21.070
 2915SOL    HW120624   3.291   0.978  21.160
 2915SOL    HW220625   3.403   1.034  21.075
 2916SOL     OW20626   2.143   3.186   4.000
 2916SOL    HW120627   2.130   3.281   3.992
 2916SOL    HW220628   2.084   3.148   3.935
 2917SOL     OW20629   1.896   4.712  15.867
 2917SOL    HW120630   1.808   4.722  15.830
 2917SOL    HW220631   1.951   4.692  15.792
 2918SOL     OW20632   4.648   2.491  19.822
 2918SOL    HW120633   4.575   2.498  19.760
 2918SOL    HW220634   4.657   2.578  19.860
 2919SOL     OW20635   3.101   4.367   0.448
 2919SOL    HW120636   3.048   4.398   0.522
 2919SOL    HW220637   3.102   4.442   0.388
 2920SOL     OW20638   1.518   4.301   0.983
 2920SOL    HW120639   1.541   4.285   1.075
 2920SOL    HW220640   1.479   4.388   0.983
 2921SOL     OW20641   3.712   0.462   2.350
 2921SOL    HW120642   3.649   0.483   2.419
 2921SOL    HW220643   3.676   0.385   2.306
 2922SOL     OW20644   1.188   1.090  20.871
 2922SOL    HW120645   1.148   1.176  20.857
 2922SOL    HW220646   1.123   1.028  20.838
 2923SOL     OW20647   2.182   3.753   8.972
 2923SOL    HW120648   2.275   3.748   8.994
 2923SOL    HW220649   2.163   3.847   8.972
 2924SOL     OW20650   3.374   4.704  19.571
 2924SOL    HW120651   3.327   4.781  19.540
 2924SOL    HW220652   3.457   4.738  19.605
 2925SOL     OW20653   2.466   4.280  18.093
 2925SOL    HW120654   2.399   4.253  18.030
 2925SOL    HW220655   2.532   4.211  18.088
 2926SOL     OW20656   2.575   1.517   0.581
 2926SOL    HW120657   2.571   1.563   0.497
 2926SOL    HW220658   2.667   1.524   0.608
 2927SOL     OW20659   3.615   1.954   0.492
 2927SOL    HW120660   3.585   1.956   0.401
 2927SOL    HW220661   3.642   1.863   0.506
 2928SOL     OW20662   0.198   4.450  19.900
 2928SOL    HW120663   0.150   4.377  19.938
 2928SOL    HW220664   0.149   4.473  19.821
 2929SOL     OW20665   4.142   1.440  17.937
 2929SOL    HW120666   4.215   1.408  17.884
 2929SOL    HW220667   4.097   1.360  17.966
 2930SOL     OW20668   3.961   0.517   5.128
 2930SOL    HW120669   3.978   0.550   5.040
 2930SOL    HW220670   4.045   0.481   5.157
 2931SOL     OW20671   3.007   2.836   5.224
 2931SOL    HW120672   2.923   2.826   5.179
 2931SOL    HW220673   3.055   2.755   5.204
 2932SOL     OW20674   0.079   4.730   2.852
 2932SOL    HW120675   4.775   4.736   2.878
 2932SOL    HW220676   0.123   4.693   2.929
 2933SOL     OW20677   3.633   2.270   2.680
 2933SOL    HW120678   3.537   2.271   2.681
 2933SOL    HW220679   3.656   2.227   2.598
 2934SOL     OW20680   2.089   2.663   1.882
 2934SOL    HW120681   2.001   2.638   1.909
 2934SOL    HW220682   2.140   2.663   1.964
 2935SOL     OW20683   3.862   2.934   7.745
 2935SOL    HW120684   3.808   2.987   7.687
 2935SOL    HW220685   3.914   2.880   7.686
 2936SOL     OW20686   4.380   1.785   8.283
 2936SOL    HW120687   4.349   1.841   8.213
 2936SOL    HW220688   4.475   1.777   8.268
 2937SOL     OW20689   2.014   4.223  16.142
 2937SOL    HW120690   1.994   4.262  16.227
 2937SOL    HW220691   2.047   4.296  16.089
 2938SOL     OW20692   4.109   3.422  13.865
 2938SOL    HW120693   4.190   3.455  13.904
 2938SOL    HW220694   4.134   3.339  13.825
 2939SOL     OW20695   2.831   2.245  16.605
 2939SOL    HW120696   2.843   2.327  16.556
 2939SOL    HW220697   2.916   2.230  16.647
 2940SOL     OW20698   3.861   1.395  16.686
 2940SOL    HW120699   3.837   1.371  16.597
 2940SOL    HW220700   3.791   1.455  16.713
 2941SOL     OW20701   2.753   1.295   1.444
 2941SOL    HW120702   2.693   1.340   1.503
 2941SOL    HW220703   2.699   1.230   1.399
 2942SOL     OW20704   1.111   0.115  15.905
 2942SOL    HW120705   1.196   0.097  15.866
 2942SOL    HW220706   1.094   0.040  15.961
 2943SOL     OW20707   4.773   1.847  17.954
 2943SOL    HW120708   4.685   1.810  17.958
 2943SOL    HW220709   4.770   1.909  17.882
 2944SOL     OW20710   1.969   4.509   9.245
 2944SOL    HW120711   2.008   4.590   9.209
 2944SOL    HW220712   2.041   4.445   9.241
 2945SOL     OW20713   3.933   0.938  15.684
 2945SOL    HW120714   3.858   0.984  15.722
 2945SOL    HW220715   4.009   0.981  15.722
 2946SOL     OW20716   4.261   1.678  17.774
 2946SOL    HW120717   4.240   1.602  17.719
 2946SOL    HW220718   4.354   1.694  17.757
 2947SOL     OW20719   1.751   4.381   9.790
 2947SOL    HW120720   1.685   4.450   9.795
 2947SOL    HW220721   1.832   4.426   9.766
 2948SOL     OW20722   0.890   0.269  12.104
 2948SOL    HW120723   0.857   0.326  12.034
 2948SOL    HW220724   0.982   0.255  12.082
 2949SOL     OW20725   1.786   3.280  13.817
 2949SOL    HW120726   1.858   3.266  13.878
 2949SOL    HW220727   1.827   3.275  13.730
 2950SOL     OW20728   1.513   2.521  16.748
 2950SOL    HW120729   1.460   2.461  16.696
 2950SOL    HW220730   1.599   2.521  16.705
 2951SOL     OW20731   3.557   3.992  20.230
 2951SOL    HW120732   3.483   4.023  20.282
 2951SOL    HW220733   3.518   3.929  20.169
 2952SOL     OW20734   3.504   1.431  17.491
 2952SOL    HW120735   3.572   1.495  17.472
 2952SOL    HW220736   3.550   1.348  17.497
 2953SOL     OW20737   4.365   2.507  16.532
 2953SOL    HW120738   4.305   2.578  16.508
 2953SOL    HW220739   4.308   2.433  16.553
 2954SOL     OW20740   3.254   4.203   2.900
 2954SOL    HW120741   3.312   4.200   2.976
 2954SOL    HW220742   3.223   4.114   2.889
 2955SOL     OW20743   2.893   0.037   1.045
 2955SOL    HW120744   2.984   0.064   1.034
 2955SOL    HW220745   2.894   4.731   1.027
 2956SOL     OW20746   0.680   3.310  16.076
 2956SOL    HW120747   0.701   3.221  16.048
 2956SOL    HW220748   0.760   3.360  16.062
 2957SOL     OW20749   1.393   1.319  12.886
 2957SOL    HW120750   1.367   1.294  12.797
 2957SOL    HW220751   1.313   1.312  12.938
 2958SOL     OW20752   2.278   2.723   2.795
 2958SOL    HW120753   2.288   2.734   2.701
 2958SOL    HW220754   2.292   2.810   2.832
 2959SOL     OW20755   2.556   3.045  17.977
 2959SOL    HW120756   2.464   3.017  17.974
 2959SOL    HW220757   2.553   3.137  17.952
 2960SOL     OW20758   4.541   0.905   5.146
 2960SOL    HW120759   4.491   0.847   5.089
 2960SOL    HW220760   4.491   0.986   5.148
 2961SOL     OW20761   0.887   0.707  11.538
 2961SOL    HW120762   0.893   0.614  11.562
 2961SOL    HW220763   0.933   0.753  11.608
 2962SOL     OW20764   2.466   3.052   1.599
 2962SOL    HW120765   2.373   3.037   1.579
 2962SOL    HW220766   2.513   3.013   1.525
 2963SOL     OW20767   3.313   3.910   1.407
 2963SOL    HW120768   3.392   3.863   1.381
 2963SOL    HW220769   3.246   3.841   1.413
 2964SOL     OW20770   1.992   3.047   2.059
 2964SOL    HW120771   2.074   3.057   2.107
 2964SOL    HW220772   1.980   2.953   2.050
 2965SOL     OW20773   2.593   1.352  19.825
 2965SOL    HW120774   2.572   1.395  19.907
 2965SOL    HW220775   2.635   1.270  19.851
 2966SOL     OW20776   1.576   1.500   1.084
 2966SOL    HW120777   1.589   1.443   1.008
 2966SOL    HW220778   1.503   1.557   1.059
 2967SOL     OW20779   0.520   0.651   2.905
 2967SOL    HW120780   0.502   0.639   2.812
 2967SOL    HW220781   0.509   0.745   2.920
 2968SOL     OW20782   2.615   1.510   7.632
 2968SOL    HW120783   2.615   1.457   7.712
 2968SOL    HW220784   2.646   1.596   7.661
 2969SOL     OW20785   0.625   4.624  20.922
 2969SOL    HW120786   0.548   4.677  20.942
 2969SOL    HW220787   0.598   4.570  20.848
 2970SOL     OW20788   4.479   1.194   1.706
 2970SOL    HW120789   4.447   1.280   1.679
 2970SOL    HW220790   4.573   1.206   1.721
 2971SOL     OW20791   3.398   4.461   4.216
 2971SOL    HW120792   3.457   4.398   4.174
 2971SOL    HW220793   3.403   4.439   4.310
 2972SOL     OW20794   1.198   0.021  13.487
 2972SOL    HW120795   1.169   0.094  13.542
 2972SOL    HW220796   1.211   4.736  13.549
 2973SOL     OW20797   1.662   1.970   5.874
 2973SOL    HW120798   1.683   2.019   5.795
 2973SOL    HW220799   1.710   2.014   5.944
 2974SOL     OW20800   1.626   3.237  20.654
 2974SOL    HW120801   1.693   3.292  20.613
 2974SOL    HW220802   1.544   3.282  20.634
 2975SOL     OW20803   1.743   2.254   1.434
 2975SOL    HW120804   1.762   2.338   1.392
 2975SOL    HW220805   1.648   2.251   1.441
 2976SOL     OW20806   0.135   2.532   8.351
 2976SOL    HW120807   0.178   2.616   8.365
 2976SOL    HW220808   0.055   2.537   8.403
 2977SOL     OW20809   1.038   3.216  15.881
 2977SOL    HW120810   0.994   3.287  15.834
 2977SOL    HW220811   1.126   3.250  15.899
 2978SOL     OW20812   2.091   1.744   1.971
 2978SOL    HW120813   2.019   1.682   1.975
 2978SOL    HW220814   2.103   1.761   1.877
 2979SOL     OW20815   3.465   4.354   7.866
 2979SOL    HW120816   3.446   4.333   7.774
 2979SOL    HW220817   3.382   4.385   7.901
 2980SOL     OW20818   3.735   3.038   5.224
 2980SOL    HW120819   3.760   2.954   5.263
 2980SOL    HW220820   3.709   3.016   5.134
 2981SOL     OW20821   3.348   1.906   0.030
 2981SOL    HW120822   3.404   1.922  21.202
 2981SOL    HW220823   3.336   1.811   0.032
 2982SOL     OW20824   4.714   2.956   6.418
 2982SOL    HW120825   4.727   2.861   6.411
 2982SOL    HW220826   4.692   2.970   6.510
 2983SOL     OW20827   2.887   3.165  19.251
 2983SOL    HW120828   2.931   3.209  19.324
 2983SOL    HW220829   2.916   3.213  19.173
 2984SOL     OW20830   0.968   0.697  19.489
 2984SOL    HW120831   0.924   0.782  19.484
 2984SOL    HW220832   1.055   0.717  19.522
 2985SOL     OW20833   1.461   2.769  20.438
 2985SOL    HW120834   1.481   2.769  20.532
 2985SOL    HW220835   1.407   2.691  20.425
 2986SOL     OW20836   1.659   2.199  15.232
 2986SOL    HW120837   1.611   2.273  15.195
 2986SOL    HW220838   1.748   2.208  15.199
 2987SOL     OW20839   0.008   2.066   6.054
 2987SOL    HW120840   4.727   2.118   6.095
 2987SOL    HW220841   4.781   1.977   6.086
 2988SOL     OW20842   0.218   0.676   1.156
 2988SOL    HW120843   0.232   0.770   1.145
 2988SOL    HW220844   0.306   0.639   1.162
 2989SOL     OW20845   2.497   2.235  14.337
 2989SOL    HW120846   2.581   2.193  14.322
 2989SOL    HW220847   2.518   2.314  14.387
 2990SOL     OW20848   4.684   2.469  16.028
 2990SOL    HW120849   4.676   2.374  16.038
 2990SOL    HW220850   4.619   2.505  16.088
 2991SOL     OW20851   0.437   1.760  15.608
 2991SOL    HW120852   0.400   1.671  15.612
 2991SOL    HW220853   0.506   1.754  15.542
 2992SOL     OW20854   2.286   2.089   3.800
 2992SOL    HW120855   2.323   2.012   3.757
 2992SOL    HW220856   2.336   2.162   3.765
 2993SOL     OW20857   4.062   3.965   4.584
 2993SOL    HW120858   4.101   4.000   4.504
 2993SOL    HW220859   4.100   3.878   4.593
 2994SOL     OW20860   0.928   0.472  15.149
 2994SOL    HW120861   1.009   0.427  15.126
 2994SOL    HW220862   0.867   0.402  15.171
 2995SOL     OW20863   3.644   2.928   5.700
 2995SOL    HW120864   3.635   2.928   5.795
 2995SOL    HW220865   3.559   2.900   5.667
 2996SOL     OW20866   3.040   2.566  19.543
 2996SOL    HW120867   3.103   2.547  19.611
 2996SOL    HW220868   3.006   2.653  19.565
 2997SOL     OW20869   0.540   0.615   4.818
 2997SOL    HW120870   0.467   0.675   4.837
 2997SOL    HW220871   0.555   0.625   4.724
 2998SOL     OW20872   1.556   2.799  20.176
 2998SOL    HW120873   1.499   2.791  20.252
 2998SOL    HW220874   1.505   2.764  20.103
 2999SOL     OW20875   3.064   0.208  19.671
 2999SOL    HW120876   3.014   0.201  19.589
 2999SOL    HW220877   3.010   0.163  19.736
 3000SOL     OW20878   3.708   1.309   1.392
 3000SOL    HW120879   3.619   1.325   1.422
 3000SOL    HW220880   3.761   1.374   1.438
 3001SOL     OW20881   0.579   2.030   0.051
 3001SOL    HW120882   0.673   2.036   0.067
 3001SOL    HW220883   0.555   2.115   0.014
 3002SOL     OW20884   2.428   3.067   8.141
 3002SOL    HW120885   2.352   3.010   8.152
 3002SOL    HW220886   2.393   3.156   8.150
 3003SOL     OW20887   4.598   3.244   4.118
 3003SOL    HW120888   4.643   3.325   4.142
 3003SOL    HW220889   4.649   3.209   4.045
 3004SOL     OW20890   2.832   0.414  17.124
 3004SOL    HW120891   2.852   0.492  17.072
 3004SOL    HW220892   2.793   0.353  17.062
 3005SOL     OW20893   3.038   3.352  18.268
 3005SOL    HW120894   3.074   3.417  18.329
 3005SOL    HW220895   2.966   3.398  18.223
 3006SOL     OW20896   1.424   1.385  18.705
 3006SOL    HW120897   1.456   1.465  18.663
 3006SOL    HW220898   1.329   1.391  18.700
 3007SOL     OW20899   0.334   3.652   3.693
 3007SOL    HW120900   0.412   3.674   3.744
 3007SOL    HW220901   0.343   3.559   3.675
 3008SOL     OW20902   2.323   2.297   5.240
 3008SOL    HW120903   2.285   2.313   5.327
 3008SOL    HW220904   2.270   2.350   5.181
 3009SOL     OW20905   2.612   0.926  17.629
 3009SOL    HW120906   2.576   1.012  17.646
 3009SOL    HW220907   2.692   0.922  17.682
 3010SOL     OW20908   3.553   2.409  21.083
 3010SOL    HW120909   3.624   2.347  21.067
 3010SOL    HW220910   3.475   2.366  21.047
 3011SOL     OW20911   3.896   3.640   1.424
 3011SOL    HW120912   3.942   3.560   1.398
 3011SOL    HW220913   3.965   3.706   1.433
 3012SOL     OW20914   4.043   0.565  20.396
 3012SOL    HW120915   4.078   0.595  20.480
 3012SOL    HW220916   4.119   0.529  20.350
 3013SOL     OW20917   3.682   3.347   0.823
 3013SOL    HW120918   3.757   3.400   0.797
 3013SOL    HW220919   3.720   3.264   0.852
 3014SOL     OW20920   4.232   3.050  19.806
 3014SOL    HW120921   4.302   3.037  19.742
 3014SOL    HW220922   4.205   2.962  19.832
 3015SOL     OW20923   2.757   2.579   1.498
 3015SOL    HW120924   2.688   2.532   1.451
 3015SOL    HW220925   2.822   2.600   1.431
 3016SOL     OW20926   2.832   3.682  14.939
 3016SOL    HW120927   2.900   3.704  15.002
 3016SOL    HW220928   2.854   3.733  14.861
 3017SOL     OW20929   2.352   2.985  19.221
 3017SOL    HW120930   2.335   2.926  19.294
 3017SOL    HW220931   2.267   3.027  19.204
 3018SOL     OW20932   0.831   0.069  17.625
 3018SOL    HW120933   0.770   0.089  17.695
 3018SOL    HW220934   0.905   0.027  17.668
 3019SOL     OW20935   2.047   3.104  19.575
 3019SOL    HW120936   2.141   3.087  19.573
 3019SOL    HW220937   2.026   3.107  19.669
 3020SOL     OW20938   4.256   4.611  16.024
 3020SOL    HW120939   4.299   4.536  15.984
 3020SOL    HW220940   4.308   4.629  16.103
 3021SOL     OW20941   2.130   2.658  18.020
 3021SOL    HW120942   2.108   2.750  18.037
 3021SOL    HW220943   2.140   2.653  17.925
 3022SOL     OW20944   0.546   1.050   2.200
 3022SOL    HW120945   0.630   1.084   2.230
 3022SOL    HW220946   0.506   1.124   2.153
 3023SOL     OW20947   3.417   4.074  15.824
 3023SOL    HW120948   3.503   4.117  15.824
 3023SOL    HW220949   3.364   4.128  15.765
 3024SOL     OW20950   2.042   3.637  15.791
 3024SOL    HW120951   1.963   3.608  15.746
 3024SOL    HW220952   2.106   3.653  15.721
 3025SOL     OW20953   4.469   3.370  17.006
 3025SOL    HW120954   4.427   3.448  16.969
 3025SOL    HW220955   4.520   3.403  17.079
 3026SOL     OW20956   2.928   1.073   5.682
 3026SOL    HW120957   2.928   1.015   5.606
 3026SOL    HW220958   2.898   1.017   5.754
 3027SOL     OW20959   0.478   3.585   4.908
 3027SOL    HW120960   0.428   3.566   4.988
 3027SOL    HW220961   0.535   3.509   4.897
 3028SOL     OW20962   1.489   0.571  18.923
 3028SOL    HW120963   1.562   0.587  18.864
 3028SOL    HW220964   1.429   0.644  18.908
 3029SOL     OW20965   0.849   3.305  19.175
 3029SOL    HW120966   0.902   3.252  19.115
 3029SOL    HW220967   0.893   3.297  19.260
 3030SOL     OW20968   4.199   0.038  17.360
 3030SOL    HW120969   4.273   0.010  17.307
 3030SOL    HW220970   4.150   4.745  17.379
 3031SOL     OW20971   4.081   1.646  21.191
 3031SOL    HW120972   4.051   1.734  21.212
 3031SOL    HW220973   4.146   1.658  21.123
 3032SOL     OW20974   2.539   3.551  16.039
 3032SOL    HW120975   2.558   3.584  15.951
 3032SOL    HW220976   2.460   3.598  16.065
 3033SOL     OW20977   1.590   3.640  20.090
 3033SOL    HW120978   1.651   3.591  20.035
 3033SOL    HW220979   1.543   3.572  20.139
 3034SOL     OW20980   2.645   1.636  16.103
 3034SOL    HW120981   2.625   1.679  16.186
 3034SOL    HW220982   2.608   1.693  16.037
 3035SOL     OW20983   3.750   4.538  20.043
 3035SOL    HW120984   3.801   4.608  20.002
 3035SOL    HW220985   3.702   4.581  20.114
 3036SOL     OW20986   4.347   2.053  16.613
 3036SOL    HW120987   4.308   2.104  16.684
 3036SOL    HW220988   4.436   2.088  16.605
 3037SOL     OW20989   2.760   0.241  20.758
 3037SOL    HW120990   2.742   0.330  20.789
 3037SOL    HW220991   2.720   0.237  20.671
 3038SOL     OW20992   0.640   2.001   1.084
 3038SOL    HW120993   0.683   1.978   1.002
 3038SOL    HW220994   0.656   1.926   1.141
 3039SOL     OW20995   0.615   3.541  18.873
 3039SOL    HW120996   0.592   3.524  18.964
 3039SOL    HW220997   0.651   3.458  18.841
 3040SOL     OW20998   0.792   4.658  16.653
 3040SOL    HW120999   0.846   4.581  16.674
 3040SOL    HW221000   0.765   4.644  16.562
 3041SOL     OW21001   3.867   2.176  19.439
 3041SOL    HW121002   3.808   2.221  19.378
 3041SOL    HW221003   3.904   2.104  19.388
 3042SOL     OW21004   1.871   1.058   7.641
 3042SOL    HW121005   1.886   1.153   7.647
 3042SOL    HW221006   1.786   1.050   7.599
 3043SOL     OW21007   2.657   2.638   4.312
 3043SOL    HW121008   2.673   2.562   4.255
 3043SOL    HW221009   2.596   2.693   4.262
 3044SOL     OW21010   0.684   1.291   2.628
 3044SOL    HW121011   0.713   1.227   2.693
 3044SOL    HW221012   0.591   1.306   2.649
 3045SOL     OW21013   2.434   1.414   3.927
 3045SOL    HW121014   2.345   1.446   3.916
 3045SOL    HW221015   2.472   1.470   3.995
 3046SOL     OW21016   3.621   3.671   4.280
 3046SOL    HW121017   3.687   3.734   4.248
 3046SOL    HW221018   3.658   3.585   4.259
 3047SOL     OW21019   2.104   1.091   9.624
 3047SOL    HW121020   2.147   1.084   9.538
 3047SOL    HW221021   2.041   1.163   9.613
 3048SOL     OW21022   2.439   2.635   3.336
 3048SOL    HW121023   2.351   2.606   3.361
 3048SOL    HW221024   2.444   2.616   3.242
 3049SOL     OW21025   0.520   2.823   3.533
 3049SOL    HW121026   0.508   2.769   3.611
 3049SOL    HW221027   0.450   2.888   3.537
 3050SOL     OW21028   1.593   2.935   2.260
 3050SOL    HW121029   1.657   2.950   2.330
 3050SOL    HW221030   1.508   2.944   2.303
 3051SOL     OW21031   4.729   0.326   7.177
 3051SOL    HW121032   4.771   0.376   7.247
 3051SOL    HW221033   4.673   0.390   7.132
 3052SOL     OW21034   0.864   0.362  20.712
 3052SOL    HW121035   0.935   0.387  20.653
 3052SOL    HW221036   0.793   0.422  20.690
 3053SOL     OW21037   1.815   4.735  14.527
 3053SOL    HW121038   1.751   4.669  14.551
 3053SOL    HW221039   1.900   4.691  14.534
 3054SOL     OW21040   0.189   4.498   6.903
 3054SOL    HW121041   0.226   4.587   6.899
 3054SOL    HW221042   0.129   4.501   6.977
 3055SOL     OW21043   1.062   4.369   3.809
 3055SOL    HW121044   1.130   4.400   3.749
 3055SOL    HW221045   1.108   4.353   3.891
 3056SOL     OW21046   3.233   1.194   6.064
 3056SOL    HW121047   3.139   1.201   6.078
 3056SOL    HW221048   3.271   1.247   6.135
 3057SOL     OW21049   1.235   1.446   4.529
 3057SOL    HW121050   1.272   1.533   4.546
 3057SOL    HW221051   1.218   1.445   4.435
 3058SOL     OW21052   3.523   0.525   3.429
 3058SOL    HW121053   3.583   0.516   3.355
 3058SOL    HW221054   3.456   0.586   3.398
 3059SOL     OW21055   3.650   3.738   9.143
 3059SOL    HW121056   3.736   3.714   9.108
 3059SOL    HW221057   3.662   3.827   9.176
 3060SOL     OW21058   0.332   3.601   5.494
 3060SOL    HW121059   0.299   3.612   5.583
 3060SOL    HW221060   0.349   3.690   5.463
 3061SOL     OW21061   4.104   0.847   0.977
 3061SOL    HW121062   4.100   0.836   1.072
 3061SOL    HW221063   4.019   0.814   0.946
 3062SOL     OW21064   1.993   2.418  17.633
 3062SOL    HW121065   2.053   2.472  17.581
 3062SOL    HW221066   1.942   2.369  17.569
 3063SOL     OW21067   0.064   0.238  17.519
 3063SOL    HW121068   0.148   0.197  17.497
 3063SOL    HW221069   0.088   0.325  17.553
 3064SOL     OW21070   0.645   2.566  18.616
 3064SOL    HW121071   0.666   2.563  18.710
 3064SOL    HW221072   0.677   2.652  18.588
 3065SOL     OW21073   1.426   1.789   4.919
 3065SOL    HW121074   1.413   1.843   4.997
 3065SOL    HW221075   1.518   1.802   4.897
 3066SOL     OW21076   2.388   3.260  17.114
 3066SOL    HW121077   2.483   3.271  17.121
 3066SOL    HW221078   2.352   3.320  17.180
 3067SOL     OW21079   2.788   4.439  19.909
 3067SOL    HW121080   2.840   4.426  19.988
 3067SOL    HW221081   2.800   4.359  19.858
 3068SOL     OW21082   4.008   2.267  16.392
 3068SOL    HW121083   4.027   2.221  16.310
 3068SOL    HW221084   3.913   2.271  16.397
 3069SOL     OW21085   4.075   1.252   5.693
 3069SOL    HW121086   4.039   1.337   5.717
 3069SOL    HW221087   4.019   1.189   5.739
 3070SOL     OW21088   3.791   2.458  17.294
 3070SOL    HW121089   3.854   2.439  17.225
 3070SOL    HW221090   3.811   2.395  17.363
 3071SOL     OW21091   2.690   2.938  14.995
 3071SOL    HW121092   2.679   2.980  15.081
 3071SOL    HW221093   2.675   3.008  14.932
 3072SOL     OW21094   0.754   4.770  12.505
 3072SOL    HW121095   0.774   0.063  12.458
 3072SOL    HW221096   0.816   4.706  12.469
 3073SOL     OW21097   3.844   3.405   3.933
 3073SOL    HW121098   3.909   3.335   3.939
 3073SOL    HW221099   3.765   3.370   3.973
 3074SOL     OW21100   4.638   0.595  19.773
 3074SOL    HW121101   4.713   0.646  19.803
 3074SOL    HW221102   4.670   0.505  19.767
 3075SOL     OW21103   4.117   3.224  20.473
 3075SOL    HW121104   4.140   3.316  20.486
 3075SOL    HW221105   4.033   3.226  20.428
 3076SOL     OW21106   1.433   4.778   3.964
 3076SOL    HW121107   1.372   4.706   3.950
 3076SOL    HW221108   1.436   0.036   3.880
 3077SOL     OW21109   2.273   1.659  17.747
 3077SOL    HW121110   2.203   1.609  17.706
 3077SOL    HW221111   2.332   1.593  17.782
 3078SOL     OW21112   1.767   2.357   3.250
 3078SOL    HW121113   1.761   2.449   3.222
 3078SOL    HW221114   1.844   2.355   3.307
 3079SOL     OW21115   0.227   2.688  18.355
 3079SOL    HW121116   0.273   2.610  18.323
 3079SOL    HW221117   0.295   2.738  18.400
 3080SOL     OW21118   1.982   0.366  15.715
 3080SOL    HW121119   1.906   0.309  15.702
 3080SOL    HW221120   1.953   0.452  15.683
 3081SOL     OW21121   1.145   2.488   4.735
 3081SOL    HW121122   1.136   2.426   4.663
 3081SOL    HW221123   1.197   2.560   4.698
 3082SOL     OW21124   2.295   1.449   5.901
 3082SOL    HW121125   2.348   1.514   5.948
 3082SOL    HW221126   2.204   1.473   5.922
 3083SOL     OW21127   0.134   3.677  17.563
 3083SOL    HW121128   0.144   3.601  17.505
 3083SOL    HW221129   0.187   3.746  17.522
 3084SOL     OW21130   0.683   3.786  19.796
 3084SOL    HW121131   0.709   3.750  19.711
 3084SOL    HW221132   0.762   3.778  19.850
 3085SOL     OW21133   2.855   2.488  14.901
 3085SOL    HW121134   2.947   2.461  14.910
 3085SOL    HW221135   2.856   2.554  14.832
 3086SOL     OW21136   0.569   3.386  19.099
 3086SOL    HW121137   0.520   3.413  19.177
 3086SOL    HW221138   0.650   3.347  19.133
 3087SOL     OW21139   3.679   1.174   6.477
 3087SOL    HW121140   3.753   1.118   6.500
 3087SOL    HW221141   3.690   1.192   6.383
 3088SOL     OW21142   3.312   2.596  19.124
 3088SOL    HW121143   3.329   2.575  19.216
 3088SOL    HW221144   3.217   2.600  19.118
 3089SOL     OW21145   2.214   0.675  13.805
 3089SOL    HW121146   2.262   0.753  13.778
 3089SOL    HW221147   2.240   0.607  13.743
 3090SOL     OW21148   1.941   1.276  16.151
 3090SOL    HW121149   1.883   1.352  16.141
 3090SOL    HW221150   1.988   1.270  16.068
 3091SOL     OW21151   1.539   0.608  20.784
 3091SOL    HW121152   1.501   0.650  20.861
 3091SOL    HW221153   1.626   0.647  20.777
 3092SOL     OW21154   4.772   4.509   1.881
 3092SOL    HW121155   4.747   4.602   1.877
 3092SOL    HW221156   4.770   4.479   1.791
 3093SOL     OW21157   4.501   3.134   2.446
 3093SOL    HW121158   4.553   3.100   2.519
 3093SOL    HW221159   4.517   3.228   2.448
 3094SOL     OW21160   0.295   2.709   7.750
 3094SOL    HW121161   0.377   2.674   7.784
 3094SOL    HW221162   0.240   2.632   7.735
 3095SOL     OW21163   4.725   3.452  15.075
 3095SOL    HW121164   4.673   3.529  15.053
 3095SOL    HW221165   4.716   3.394  14.999
 3096SOL     OW21166   0.482   2.362  16.321
 3096SOL    HW121167   0.532   2.326  16.248
 3096SOL    HW221168   0.433   2.288  16.356
 3097SOL     OW21169   3.889   3.549  18.189
 3097SOL    HW121170   3.936   3.573  18.109
 3097SOL    HW221171   3.839   3.627  18.212
 3098SOL     OW21172   4.542   0.098  16.797
 3098SOL    HW121173   4.480   0.036  16.758
 3098SOL    HW221174   4.528   0.179  16.747
 3099SOL     OW21175   0.722   1.269   5.308
 3099SOL    HW121176   0.750   1.347   5.357
 3099SOL    HW221177   0.627   1.266   5.321
 3100SOL     OW21178   2.242   4.040  21.153
 3100SOL    HW121179   2.149   4.017  21.155
 3100SOL    HW221180   2.257   4.072  21.065
 3101SOL     OW21181   1.601   1.940   2.364
 3101SOL    HW121182   1.580   1.939   2.271
 3101SOL    HW221183   1.685   1.985   2.369
 3102SOL     OW21184   2.504   1.260   5.852
 3102SOL    HW121185   2.541   1.284   5.937
 3102SOL    HW221186   2.420   1.305   5.847
 3103SOL     OW21187   1.186   1.285  19.109
 3103SOL    HW121188   1.231   1.358  19.066
 3103SOL    HW221189   1.242   1.210  19.094
 3104SOL     OW21190   4.118   2.820   1.301
 3104SOL    HW121191   4.106   2.788   1.212
 3104SOL    HW221192   4.164   2.750   1.346
 3105SOL     OW21193   1.110   1.453  18.682
 3105SOL    HW121194   1.072   1.521  18.626
 3105SOL    HW221195   1.068   1.466  18.767
 3106SOL     OW21196   0.872   2.050   1.982
 3106SOL    HW121197   0.846   1.958   1.987
 3106SOL    HW221198   0.845   2.078   1.895
 3107SOL     OW21199   1.620   0.188   4.021
 3107SOL    HW121200   1.572   0.105   4.013
 3107SOL    HW221201   1.553   0.253   4.041
 3108SOL     OW21202   2.386   2.022   5.293
 3108SOL    HW121203   2.317   1.991   5.351
 3108SOL    HW221204   2.354   2.107   5.261
 3109SOL     OW21205   0.112   1.604  15.746
 3109SOL    HW121206   0.170   1.538  15.707
 3109SOL    HW221207   0.029   1.593  15.701
 3110SOL     OW21208   3.788   2.479   2.747
 3110SOL    HW121209   3.729   2.414   2.709
 3110SOL    HW221210   3.772   2.559   2.696
 3111SOL     OW21211   4.775   0.849  19.858
 3111SOL    HW121212   0.050   0.922  19.856
 3111SOL    HW221213   0.026   0.785  19.916
 3112SOL     OW21214   2.821   2.950  11.498
 3112SOL    HW121215   2.833   2.855  11.495
 3112SOL    HW221216   2.729   2.963  11.474
 3113SOL     OW21217   4.772   2.828   0.678
 3113SOL    HW121218   4.736   2.765   0.741
 3113SOL    HW221219   4.776   2.779   0.596
 3114SOL     OW21220   0.925   3.132   4.746
 3114SOL    HW121221   0.877   3.129   4.829
 3114SOL    HW221222   0.988   3.061   4.753
 3115SOL     OW21223   2.708   4.563   1.188
 3115SOL    HW121224   2.753   4.549   1.271
 3115SOL    HW221225   2.771   4.532   1.122
 3116SOL     OW21226   3.386   3.803  17.135
 3116SOL    HW121227   3.432   3.799  17.219
 3116SOL    HW221228   3.316   3.738  17.143
 3117SOL     OW21229   1.739   3.570  18.918
 3117SOL    HW121230   1.665   3.571  18.979
 3117SOL    HW221231   1.729   3.486  18.872
 3118SOL     OW21232   4.076   4.147   3.598
 3118SOL    HW121233   4.091   4.235   3.561
 3118SOL    HW221234   4.088   4.159   3.692
 3119SOL     OW21235   0.731   4.432  17.933
 3119SOL    HW121236   0.818   4.472  17.939
 3119SOL    HW221237   0.722   4.383  18.015
 3120SOL     OW21238   4.244   2.796   2.678
 3120SOL    HW121239   4.169   2.744   2.706
 3120SOL    HW221240   4.316   2.733   2.672
 3121SOL     OW21241   1.018   3.148   8.067
 3121SOL    HW121242   1.087   3.107   8.015
 3121SOL    HW221243   1.060   3.170   8.150
 3122SOL     OW21244   2.202   0.016   4.122
 3122SOL    HW121245   2.180   0.108   4.107
 3122SOL    HW221246   2.196   4.763   4.035
 3123SOL     OW21247   2.058   2.344   3.134
 3123SOL    HW121248   1.983   2.298   3.098
 3123SOL    HW221249   2.082   2.294   3.212
 3124SOL     OW21250   3.098   4.397   0.036
 3124SOL    HW121251   3.119   4.446   0.116
 3124SOL    HW221252   3.082   4.465  21.218
 3125SOL     OW21253   1.972   1.342  20.177
 3125SOL    HW121254   1.978   1.299  20.262
 3125SOL    HW221255   1.889   1.389  20.179
 3126SOL     OW21256   1.523   3.724   5.817
 3126SOL    HW121257   1.486   3.650   5.768
 3126SOL    HW221258   1.583   3.766   5.755
 3127SOL     OW21259   2.870   1.447   0.641
 3127SOL    HW121260   2.896   1.362   0.677
 3127SOL    HW221261   2.871   1.506   0.716
 3128SOL     OW21262   1.663   3.366  16.180
 3128SOL    HW121263   1.727   3.378  16.251
 3128SOL    HW221264   1.670   3.274  16.157
 3129SOL     OW21265   0.140   1.535   5.317
 3129SOL    HW121266   0.095   1.558   5.398
 3129SOL    HW221267   0.073   1.492   5.264
 3130SOL     OW21268   3.512   4.363   6.664
 3130SOL    HW121269   3.422   4.342   6.686
 3130SOL    HW221270   3.562   4.341   6.743
 3131SOL     OW21271   4.486   3.151  20.883
 3131SOL    HW121272   4.455   3.066  20.913
 3131SOL    HW221273   4.508   3.198  20.964
 3132SOL     OW21274   3.323   2.441  13.575
 3132SOL    HW121275   3.403   2.389  13.577
 3132SOL    HW221276   3.257   2.386  13.617
 3133SOL     OW21277   4.142   1.184   6.848
 3133SOL    HW121278   4.155   1.180   6.753
 3133SOL    HW221279   4.142   1.278   6.867
 3134SOL     OW21280   0.580   1.490  17.360
 3134SOL    HW121281   0.492   1.469  17.330
 3134SOL    HW221282   0.632   1.495  17.281
 3135SOL     OW21283   0.214   3.907   2.207
 3135SOL    HW121284   0.240   3.891   2.116
 3135SOL    HW221285   0.290   3.880   2.259
 3136SOL     OW21286   1.932   1.467  12.896
 3136SOL    HW121287   1.840   1.443  12.901
 3136SOL    HW221288   1.932   1.562  12.905
 3137SOL     OW21289   4.488   0.033   7.006
 3137SOL    HW121290   4.487   4.725   6.993
 3137SOL    HW221291   4.476   0.045   7.100
 3138SOL     OW21292   3.238   3.651   3.618
 3138SOL    HW121293   3.305   3.622   3.555
 3138SOL    HW221294   3.249   3.746   3.623
 3139SOL     OW21295   2.166   0.891  19.173
 3139SOL    HW121296   2.231   0.865  19.239
 3139SOL    HW221297   2.139   0.979  19.200
 3140SOL     OW21298   4.782   0.424  19.310
 3140SOL    HW121299   4.713   0.357  19.309
 3140SOL    HW221300   4.741   0.500  19.268
 3141SOL     OW21301   1.816   0.092  17.072
 3141SOL    HW121302   1.731   0.097  17.117
 3141SOL    HW221303   1.848   0.182  17.070
 3142SOL     OW21304   1.881   0.240  17.372
 3142SOL    HW121305   1.872   0.307  17.439
 3142SOL    HW221306   1.793   0.205  17.360
 3143SOL     OW21307   1.049   3.778   4.951
 3143SOL    HW121308   1.018   3.789   4.861
 3143SOL    HW221309   1.106   3.701   4.948
 3144SOL     OW21310   0.387   2.244  21.160
 3144SOL    HW121311   0.322   2.180  21.130
 3144SOL    HW221312   0.346   2.287  21.234
 3145SOL     OW21313   2.321   0.559   3.516
 3145SOL    HW121314   2.345   0.504   3.591
 3145SOL    HW221315   2.251   0.510   3.472
 3146SOL     OW21316   0.168   1.072  19.826
 3146SOL    HW121317   0.201   1.148  19.777
 3146SOL    HW221318   0.247   1.024  19.852
 3147SOL     OW21319   3.663   1.591  21.045
 3147SOL    HW121320   3.729   1.527  21.020
 3147SOL    HW221321   3.594   1.540  21.086
 3148SOL     OW21322   0.227   0.179  16.314
 3148SOL    HW121323   0.234   0.169  16.409
 3148SOL    HW221324   0.314   0.153  16.281
 3149SOL     OW21325   3.144   4.223  12.985
 3149SOL    HW121326   3.134   4.295  13.048
 3149SOL    HW221327   3.056   4.213  12.947
 3150SOL     OW21328   4.070   2.875  13.950
 3150SOL    HW121329   4.150   2.871  14.003
 3150SOL    HW221330   4.071   2.793  13.900
 3151SOL     OW21331   4.673   0.655   6.771
 3151SOL    HW121332   4.706   0.567   6.757
 3151SOL    HW221333   4.626   0.677   6.691
 3152SOL     OW21334   2.029   3.332  21.223
 3152SOL    HW121335   2.044   3.293   0.061
 3152SOL    HW221336   1.949   3.290  21.191
 3153SOL     OW21337   1.022   4.472  20.765
 3153SOL    HW121338   0.954   4.412  20.797
 3153SOL    HW221339   1.089   4.414  20.728
 3154SOL     OW21340   3.346   0.837  18.671
 3154SOL    HW121341   3.377   0.806  18.587
 3154SOL    HW221342   3.252   0.822  18.669
 3155SOL     OW21343   4.745   1.362  17.056
 3155SOL    HW121344   4.771   1.392  17.143
 3155SOL    HW221345   4.655   1.333  17.067
 3156SOL     OW21346   1.147   4.079  18.098
 3156SOL    HW121347   1.087   4.123  18.037
 3156SOL    HW221348   1.207   4.149  18.126
 3157SOL     OW21349   1.126   3.312   0.767
 3157SOL    HW121350   1.167   3.356   0.841
 3157SOL    HW221351   1.065   3.377   0.732
 3158SOL     OW21352   2.421   4.304  14.133
 3158SOL    HW121353   2.425   4.363  14.208
 3158SOL    HW221354   2.507   4.312  14.092
 3159SOL     OW21355   0.913   3.669   2.491
 3159SOL    HW121356   0.848   3.733   2.521
 3159SOL    HW221357   0.867   3.617   2.425
 3160SOL     OW21358   3.960   2.826   2.457
 3160SOL    HW121359   3.959   2.732   2.440
 3160SOL    HW221360   4.029   2.838   2.522
 3161SOL     OW21361   2.273   2.770  15.844
 3161SOL    HW121362   2.314   2.728  15.768
 3161SOL    HW221363   2.202   2.823  15.807
 3162SOL     OW21364   4.118   4.603   6.504
 3162SOL    HW121365   4.075   4.524   6.471
 3162SOL    HW221366   4.191   4.618   6.443
 3163SOL     OW21367   3.383   1.858   1.373
 3163SOL    HW121368   3.289   1.863   1.357
 3163SOL    HW221369   3.410   1.948   1.391
 3164SOL     OW21370   0.561   2.103  19.725
 3164SOL    HW121371   0.553   2.156  19.646
 3164SOL    HW221372   0.481   2.051  19.728
 3165SOL     OW21373   2.897   2.527   2.679
 3165SOL    HW121374   2.876   2.476   2.758
 3165SOL    HW221375   2.985   2.560   2.695
 3166SOL     OW21376   0.000   0.920   1.373
 3166SOL    HW121377   4.779   1.015   1.380
 3166SOL    HW221378   4.725   0.895   1.305
 3167SOL     OW21379   3.106   0.723  18.760
 3167SOL    HW121380   3.121   0.658  18.829
 3167SOL    HW221381   3.074   0.800  18.807
 3168SOL     OW21382   2.386   1.903  15.625
 3168SOL    HW121383   2.461   1.962  15.636
 3168SOL    HW221384   2.353   1.921  15.537
 3169SOL     OW21385   0.812   3.727   6.852
 3169SOL    HW121386   0.737   3.700   6.904
 3169SOL    HW221387   0.865   3.779   6.913
 3170SOL     OW21388   3.946   0.297   3.727
 3170SOL    HW121389   3.887   0.353   3.678
 3170SOL    HW221390   3.997   0.252   3.660
 3171SOL     OW21391   0.772   3.362  19.908
 3171SOL    HW121392   0.717   3.300  19.861
 3171SOL    HW221393   0.775   3.439  19.852
 3172SOL     OW21394   0.341   0.649  15.466
 3172SOL    HW121395   0.432   0.674  15.481
 3172SOL    HW221396   0.301   0.654  15.553
 3173SOL     OW21397   1.841   2.620  14.137
 3173SOL    HW121398   1.781   2.545  14.141
 3173SOL    HW221399   1.783   2.696  14.133
 3174SOL     OW21400   3.767   3.008   2.657
 3174SOL    HW121401   3.856   3.034   2.680
 3174SOL    HW221402   3.733   3.081   2.604
 3175SOL     OW21403   1.104   0.800   3.938
 3175SOL    HW121404   1.048   0.844   3.875
 3175SOL    HW221405   1.190   0.839   3.925
 3176SOL     OW21406   2.869   2.837   4.304
 3176SOL    HW121407   2.806   2.767   4.321
 3176SOL    HW221408   2.953   2.792   4.291
 3177SOL     OW21409   1.513   3.683  16.686
 3177SOL    HW121410   1.475   3.657  16.770
 3177SOL    HW221411   1.488   3.614  16.626
 3178SOL     OW21412   2.989   4.457  17.844
 3178SOL    HW121413   2.968   4.535  17.896
 3178SOL    HW221414   3.000   4.387  17.909
 3179SOL     OW21415   4.594   4.292  18.322
 3179SOL    HW121416   4.561   4.381  18.328
 3179SOL    HW221417   4.689   4.300  18.333
 3180SOL     OW21418   1.175   1.553  16.856
 3180SOL    HW121419   1.239   1.601  16.806
 3180SOL    HW221420   1.126   1.620  16.904
 3181SOL     OW21421   1.191   2.647   2.875
 3181SOL    HW121422   1.110   2.678   2.835
 3181SOL    HW221423   1.184   2.552   2.872
 3182SOL     OW21424   2.568   0.647  17.774
 3182SOL    HW121425   2.571   0.743  17.775
 3182SOL    HW221426   2.481   0.626  17.807
 3183SOL     OW21427   4.550   4.591   0.361
 3183SOL    HW121428   4.600   4.618   0.438
 3183SOL    HW221429   4.564   4.661   0.298
 3184SOL     OW21430   3.996   0.836  18.675
 3184SOL    HW121431   4.001   0.750  18.716
 3184SOL    HW221432   3.964   0.895  18.744
 3185SOL     OW21433   2.122   3.190  16.884
 3185SOL    HW121434   2.084   3.233  16.807
 3185SOL    HW221435   2.106   3.096  16.870
 3186SOL     OW21436   2.877   3.754  17.195
 3186SOL    HW121437   2.941   3.813  17.156
 3186SOL    HW221438   2.916   3.667  17.186
 3187SOL     OW21439   1.274   4.147  18.605
 3187SOL    HW121440   1.274   4.051  18.615
 3187SOL    HW221441   1.185   4.168  18.577
 3188SOL     OW21442   0.385   3.912  20.565
 3188SOL    HW121443   0.422   3.967  20.496
 3188SOL    HW221444   0.444   3.923  20.640
 3189SOL     OW21445   4.546   4.569  14.472
 3189SOL    HW121446   4.542   4.663  14.457
 3189SOL    HW221447   4.609   4.537  14.407
 3190SOL     OW21448   0.851   0.397  19.933
 3190SOL    HW121449   0.868   0.313  19.975
 3190SOL    HW221450   0.806   0.374  19.852
 3191SOL     OW21451   4.569   1.564   6.301
 3191SOL    HW121452   4.634   1.569   6.371
 3191SOL    HW221453   4.602   1.496   6.242
 3192SOL     OW21454   0.939   4.427   3.204
 3192SOL    HW121455   1.028   4.436   3.239
 3192SOL    HW221456   0.905   4.347   3.243
 3193SOL     OW21457   4.348   0.762   3.872
 3193SOL    HW121458   4.375   0.671   3.888
 3193SOL    HW221459   4.254   0.763   3.887
 3194SOL     OW21460   2.350   1.996  17.796
 3194SOL    HW121461   2.284   1.958  17.854
 3194SOL    HW221462   2.314   2.080  17.770
 3195SOL     OW21463   3.385   3.130   6.683
 3195SOL    HW121464   3.439   3.069   6.732
 3195SOL    HW221465   3.337   3.179   6.750
 3196SOL     OW21466   0.159   3.943  16.667
 3196SOL    HW121467   0.170   3.961  16.760
 3196SOL    HW221468   0.237   3.979  16.625
 3197SOL     OW21469   4.552   3.555  17.627
 3197SOL    HW121470   4.602   3.559  17.709
 3197SOL    HW221471   4.543   3.646  17.601
 3198SOL     OW21472   1.197   4.636  20.875
 3198SOL    HW121473   1.245   4.556  20.899
 3198SOL    HW221474   1.116   4.605  20.836
 3199SOL     OW21475   0.555   0.690   0.372
 3199SOL    HW121476   0.523   0.717   0.286
 3199SOL    HW221477   0.599   0.768   0.406
 3200SOL     OW21478   0.905   1.670   6.172
 3200SOL    HW121479   0.956   1.750   6.177
 3200SOL    HW221480   0.816   1.700   6.151
 3201SOL     OW21481   1.767   2.678  16.304
 3201SOL    HW121482   1.696   2.703  16.246
 3201SOL    HW221483   1.829   2.751  16.300
 3202SOL     OW21484   0.817   3.093  15.973
 3202SOL    HW121485   0.899   3.132  15.942
 3202SOL    HW221486   0.836   2.999  15.977
 3203SOL     OW21487   4.308   2.533  19.372
 3203SOL    HW121488   4.271   2.604  19.424
 3203SOL    HW221489   4.234   2.476  19.351
 3204SOL     OW21490   3.776   1.951  16.291
 3204SOL    HW121491   3.713   1.913  16.352
 3204SOL    HW221492   3.845   1.988  16.346
 3205SOL     OW21493   1.016   3.758  20.537
 3205SOL    HW121494   1.074   3.750  20.461
 3205SOL    HW221495   0.937   3.799  20.503
 3206SOL     OW21496   4.725   4.627  17.758
 3206SOL    HW121497   4.770   4.575  17.691
 3206SOL    HW221498   4.661   4.567  17.796
 3207SOL     OW21499   1.962   0.093  18.062
 3207SOL    HW121500   2.000   0.007  18.080
 3207SOL    HW221501   2.009   0.153  18.120
 3208SOL     OW21502   3.707   4.554  17.562
 3208SOL    HW121503   3.659   4.612  17.503
 3208SOL    HW221504   3.694   4.592  17.649
 3209SOL     OW21505   4.781   3.313  16.559
 3209SOL    HW121506   4.723   3.236  16.559
 3209SOL    HW221507   4.783   3.342  16.467
 3210SOL     OW21508   0.405   1.019  19.906
 3210SOL    HW121509   0.442   1.094  19.953
 3210SOL    HW221510   0.410   0.947  19.968
 3211SOL     OW21511   3.330   0.894   8.772
 3211SOL    HW121512   3.356   0.804   8.794
 3211SOL    HW221513   3.397   0.924   8.711
 3212SOL     OW21514   0.491   3.533  16.183
 3212SOL    HW121515   0.519   3.459  16.129
 3212SOL    HW221516   0.573   3.579  16.204
 3213SOL     OW21517   1.615   0.857  16.737
 3213SOL    HW121518   1.586   0.767  16.748
 3213SOL    HW221519   1.543   0.900  16.689
 3214SOL     OW21520   3.973   3.713   3.018
 3214SOL    HW121521   3.963   3.777   2.948
 3214SOL    HW221522   3.884   3.682   3.036
 3215SOL     OW21523   3.767   1.684  19.624
 3215SOL    HW121524   3.830   1.745  19.662
 3215SOL    HW221525   3.749   1.621  19.694
 3216SOL     OW21526   0.532   4.534   1.801
 3216SOL    HW121527   0.595   4.526   1.872
 3216SOL    HW221528   0.572   4.487   1.728
 3217SOL     OW21529   1.124   0.389  13.077
 3217SOL    HW121530   1.211   0.350  13.081
 3217SOL    HW221531   1.067   0.325  13.119
 3218SOL     OW21532   0.918   2.969  19.840
 3218SOL    HW121533   0.988   3.001  19.782
 3218SOL    HW221534   0.907   3.039  19.904
 3219SOL     OW21535   4.551   1.306   4.169
 3219SOL    HW121536   4.537   1.212   4.165
 3219SOL    HW221537   4.588   1.329   4.084
 3220SOL     OW21538   2.822   0.972   5.279
 3220SOL    HW121539   2.759   1.028   5.324
 3220SOL    HW221540   2.778   0.949   5.197
 3221SOL     OW21541   1.518   4.625   5.702
 3221SOL    HW121542   1.550   4.627   5.792
 3221SOL    HW221543   1.423   4.633   5.710
 3222SOL     OW21544   2.306   1.573   2.724
 3222SOL    HW121545   2.303   1.608   2.635
 3222SOL    HW221546   2.270   1.484   2.717
 3223SOL     OW21547   4.093   2.169  21.193
 3223SOL    HW121548   4.105   2.254  21.237
 3223SOL    HW221549   4.006   2.175  21.154
 3224SOL     OW21550   4.221   2.418   1.010
 3224SOL    HW121551   4.129   2.418   0.983
 3224SOL    HW221552   4.223   2.365   1.090
 3225SOL     OW21553   3.900   1.300   2.490
 3225SOL    HW121554   3.819   1.250   2.484
 3225SOL    HW221555   3.883   1.365   2.558
 3226SOL     OW21556   1.373   2.588   8.788
 3226SOL    HW121557   1.440   2.524   8.762
 3226SOL    HW221558   1.411   2.633   8.864
 3227SOL     OW21559   0.584   1.810  18.885
 3227SOL    HW121560   0.674   1.831  18.909
 3227SOL    HW221561   0.535   1.819  18.967
 3228SOL     OW21562   3.218   0.708  16.519
 3228SOL    HW121563   3.270   0.628  16.529
 3228SOL    HW221564   3.283   0.778  16.513
 3229SOL     OW21565   0.443   4.569   2.562
 3229SOL    HW121566   0.364   4.516   2.553
 3229SOL    HW221567   0.491   4.554   2.481
 3230SOL     OW21568   1.094   2.553   3.287
 3230SOL    HW121569   1.052   2.466   3.292
 3230SOL    HW221570   1.126   2.570   3.375
 3231SOL     OW21571   3.206   2.375   1.851
 3231SOL    HW121572   3.185   2.451   1.798
 3231SOL    HW221573   3.286   2.400   1.898
 3232SOL     OW21574   4.651   1.491   2.961
 3232SOL    HW121575   4.697   1.512   2.879
 3232SOL    HW221576   4.717   1.505   3.029
 3233SOL     OW21577   3.486   1.959  18.238
 3233SOL    HW121578   3.464   1.968  18.145
 3233SOL    HW221579   3.409   1.992  18.284
 3234SOL     OW21580   3.318   3.194  16.269
 3234SOL    HW121581   3.257   3.265  16.249
 3234SOL    HW221582   3.401   3.238  16.289
 3235SOL     OW21583   0.968   3.339   5.034
 3235SOL    HW121584   0.949   3.249   5.063
 3235SOL    HW221585   1.013   3.327   4.950
 3236SOL     OW21586   2.187   1.601  20.274
 3236SOL    HW121587   2.193   1.505  20.274
 3236SOL    HW221588   2.108   1.620  20.223
 3237SOL     OW21589   4.426   1.672   2.696
 3237SOL    HW121590   4.479   1.735   2.743
 3237SOL    HW221591   4.346   1.663   2.748
 3238SOL     OW21592   3.657   0.354   5.877
 3238SOL    HW121593   3.668   0.435   5.827
 3238SOL    HW221594   3.712   0.366   5.954
 3239SOL     OW21595   1.367   3.641  16.917
 3239SOL    HW121596   1.411   3.558  16.939
 3239SOL    HW221597   1.274   3.621  16.921
 3240SOL     OW21598   2.513   3.002   5.783
 3240SOL    HW121599   2.469   3.048   5.854
 3240SOL    HW221600   2.605   3.000   5.809
 3241SOL     OW21601   4.648   0.956   4.822
 3241SOL    HW121602   4.668   0.967   4.915
 3241SOL    HW221603   4.587   0.882   4.818
 3242SOL     OW21604   1.790   0.518   2.712
 3242SOL    HW121605   1.764   0.487   2.625
 3242SOL    HW221606   1.722   0.582   2.736
 3243SOL     OW21607   3.847   4.323   5.176
 3243SOL    HW121608   3.763   4.288   5.205
 3243SOL    HW221609   3.880   4.258   5.114
 3244SOL     OW21610   2.880   1.249   0.094
 3244SOL    HW121611   2.813   1.270   0.159
 3244SOL    HW221612   2.831   1.229   0.015
 3245SOL     OW21613   0.995   2.750   5.874
 3245SOL    HW121614   1.009   2.665   5.917
 3245SOL    HW221615   1.022   2.736   5.783
 3246SOL     OW21616   4.539   3.832  16.177
 3246SOL    HW121617   4.493   3.889  16.116
 3246SOL    HW221618   4.469   3.778  16.216
 3247SOL     OW21619   3.953   4.011   0.579
 3247SOL    HW121620   3.864   3.999   0.545
 3247SOL    HW221621   3.972   4.104   0.565
 3248SOL     OW21622   0.400   4.277   0.459
 3248SOL    HW121623   0.421   4.347   0.520
 3248SOL    HW221624   0.485   4.243   0.431
 3249SOL     OW21625   2.762   3.985   0.178
 3249SOL    HW121626   2.691   4.017   0.234
 3249SOL    HW221627   2.825   3.947   0.240
 3250SOL     OW21628   4.226   0.380  20.281
 3250SOL    HW121629   4.203   0.411  20.193
 3250SOL    HW221630   4.282   0.304  20.266
 3251SOL     OW21631   4.756   3.811   5.888
 3251SOL    HW121632   0.004   3.816   5.799
 3251SOL    HW221633   0.034   3.760   5.937
 3252SOL     OW21634   2.079   3.052  19.153
 3252SOL    HW121635   2.061   3.004  19.073
 3252SOL    HW221636   2.031   3.005  19.221
 3253SOL     OW21637   4.293   1.021   4.162
 3253SOL    HW121638   4.258   0.962   4.228
 3253SOL    HW221639   4.387   1.021   4.176
 3254SOL     OW21640   1.642   2.954  14.604
 3254SOL    HW121641   1.590   2.940  14.682
 3254SOL    HW221642   1.622   2.879  14.548
 3255SOL     OW21643   4.363   0.444   2.758
 3255SOL    HW121644   4.324   0.358   2.744
 3255SOL    HW221645   4.380   0.477   2.669
 3256SOL     OW21646   4.675   0.454   5.472
 3256SOL    HW121647   4.644   0.415   5.553
 3256SOL    HW221648   4.765   0.482   5.491
 3257SOL     OW21649   1.785   3.336  18.453
 3257SOL    HW121650   1.873   3.349  18.488
 3257SOL    HW221651   1.797   3.279  18.377
 3258SOL     OW21652   0.741   0.509   0.521
 3258SOL    HW121653   0.667   0.533   0.464
 3258SOL    HW221654   0.808   0.574   0.500
 3259SOL     OW21655   1.602   0.372   4.825
 3259SOL    HW121656   1.684   0.420   4.835
 3259SOL    HW221657   1.572   0.358   4.915
 3260SOL     OW21658   4.169   3.981   4.083
 3260SOL    HW121659   4.191   3.892   4.055
 3260SOL    HW221660   4.232   4.001   4.152
 3261SOL     OW21661   4.544   4.047  18.785
 3261SOL    HW121662   4.581   4.118  18.837
 3261SOL    HW221663   4.497   3.992  18.848
 3262SOL     OW21664   2.837   3.745   0.517
 3262SOL    HW121665   2.805   3.675   0.460
 3262SOL    HW221666   2.777   3.818   0.503
 3263SOL     OW21667   1.909   2.406  19.543
 3263SOL    HW121668   1.840   2.467  19.568
 3263SOL    HW221669   1.925   2.354  19.622
 3264SOL     OW21670   3.588   4.596  18.857
 3264SOL    HW121671   3.549   4.653  18.791
 3264SOL    HW221672   3.576   4.642  18.939
 3265SOL     OW21673   3.774   3.668   2.737
 3265SOL    HW121674   3.752   3.758   2.714
 3265SOL    HW221675   3.747   3.658   2.828
 3266SOL     OW21676   2.786   2.388   3.598
 3266SOL    HW121677   2.734   2.390   3.678
 3266SOL    HW221678   2.742   2.449   3.539
 3267SOL     OW21679   3.462   1.328   1.506
 3267SOL    HW121680   3.408   1.249   1.510
 3267SOL    HW221681   3.506   1.331   1.591
 3268SOL     OW21682   1.725   2.714  15.009
 3268SOL    HW121683   1.707   2.739  15.100
 3268SOL    HW221684   1.816   2.741  14.995
 3269SOL     OW21685   3.719   0.083  17.597
 3269SOL    HW121686   3.745   0.160  17.647
 3269SOL    HW221687   3.800   0.034  17.585
 3270SOL     OW21688   1.223   4.083  16.538
 3270SOL    HW121689   1.210   4.157  16.597
 3270SOL    HW221690   1.237   4.009  16.597
 3271SOL     OW21691   1.718   3.313   3.765
 3271SOL    HW121692   1.684   3.249   3.702
 3271SOL    HW221693   1.707   3.398   3.721
 3272SOL     OW21694   1.715   2.969   2.487
 3272SOL    HW121695   1.810   2.967   2.480
 3272SOL    HW221696   1.695   2.919   2.566
 3273SOL     OW21697   0.731   3.341   5.795
 3273SOL    HW121698   0.811   3.330   5.744
 3273SOL    HW221699   0.661   3.344   5.730
 3274SOL     OW21700   4.036   3.136  18.015
 3274SOL    HW121701   3.946   3.165  18.024
 3274SOL    HW221702   4.074   3.193  17.948
 3275SOL     OW21703   2.735   2.280  18.295
 3275SOL    HW121704   2.737   2.371  18.265
 3275SOL    HW221705   2.700   2.231  18.220
 3276SOL     OW21706   3.727   3.817  17.747
 3276SOL    HW121707   3.761   3.734  17.713
 3276SOL    HW221708   3.804   3.870  17.765
 3277SOL     OW21709   3.024   0.997  15.839
 3277SOL    HW121710   2.976   0.914  15.837
 3277SOL    HW221711   2.973   1.055  15.783
 3278SOL     OW21712   4.073   2.384  19.605
 3278SOL    HW121713   4.007   2.340  19.551
 3278SOL    HW221714   4.023   2.418  19.679
 3279SOL     OW21715   2.019   0.257   4.265
 3279SOL    HW121716   2.065   0.316   4.205
 3279SOL    HW221717   1.970   0.197   4.209
 3280SOL     OW21718   2.558   2.507  20.597
 3280SOL    HW121719   2.576   2.455  20.519
 3280SOL    HW221720   2.626   2.482  20.659
 3281SOL     OW21721   4.547   2.672  20.266
 3281SOL    HW121722   4.480   2.735  20.240
 3281SOL    HW221723   4.628   2.706  20.227
 3282SOL     OW21724   3.549   1.311   4.998
 3282SOL    HW121725   3.624   1.279   4.948
 3282SOL    HW221726   3.558   1.269   5.084
 3283SOL     OW21727   2.358   0.187  14.229
 3283SOL    HW121728   2.334   0.263  14.283
 3283SOL    HW221729   2.308   0.200  14.148
 3284SOL     OW21730   2.135   1.620  17.275
 3284SOL    HW121731   2.049   1.648  17.243
 3284SOL    HW221732   2.173   1.572  17.202
 3285SOL     OW21733   1.886   1.038  18.272
 3285SOL    HW121734   1.858   1.084  18.193
 3285SOL    HW221735   1.806   1.030  18.324
 3286SOL     OW21736   0.461   4.056   3.534
 3286SOL    HW121737   0.547   4.078   3.568
 3286SOL    HW221738   0.475   4.038   3.441
 3287SOL     OW21739   2.141   4.502   4.772
 3287SOL    HW121740   2.077   4.571   4.789
 3287SOL    HW221741   2.088   4.424   4.752
 3288SOL     OW21742   1.637   1.631  20.528
 3288SOL    HW121743   1.721   1.606  20.567
 3288SOL    HW221744   1.572   1.603  20.593
 3289SOL     OW21745   1.785   2.990   6.393
 3289SOL    HW121746   1.764   3.083   6.385
 3289SOL    HW221747   1.864   2.988   6.448
 3290SOL     OW21748   2.318   0.811   8.408
 3290SOL    HW121749   2.302   0.800   8.501
 3290SOL    HW221750   2.262   0.746   8.365
 3291SOL     OW21751   1.368   1.224   1.759
 3291SOL    HW121752   1.357   1.132   1.732
 3291SOL    HW221753   1.413   1.219   1.844
 3292SOL     OW21754   1.455   2.933   0.808
 3292SOL    HW121755   1.509   2.969   0.878
 3292SOL    HW221756   1.518   2.895   0.746
 3293SOL     OW21757   3.485   3.015  19.484
 3293SOL    HW121758   3.488   3.052  19.396
 3293SOL    HW221759   3.574   2.984  19.500
 3294SOL     OW21760   0.440   2.287   1.654
 3294SOL    HW121761   0.446   2.237   1.735
 3294SOL    HW221762   0.506   2.356   1.663
 3295SOL     OW21763   1.077   4.736   6.729
 3295SOL    HW121764   1.026   4.680   6.670
 3295SOL    HW221765   1.093   0.027   6.678
 3296SOL     OW21766   0.770   3.183  18.482
 3296SOL    HW121767   0.852   3.191  18.531
 3296SOL    HW221768   0.789   3.221  18.397
 3297SOL     OW21769   2.614   4.295  13.804
 3297SOL    HW121770   2.674   4.305  13.878
 3297SOL    HW221771   2.552   4.227  13.833
 3298SOL     OW21772   2.401   4.152  12.490
 3298SOL    HW121773   2.322   4.187  12.450
 3298SOL    HW221774   2.369   4.095  12.560
 3299SOL     OW21775   1.587   0.340   5.386
 3299SOL    HW121776   1.654   0.271   5.386
 3299SOL    HW221777   1.630   0.414   5.430
 3300SOL     OW21778   1.078   1.347  17.062
 3300SOL    HW121779   1.112   1.385  16.980
 3300SOL    HW221780   1.147   1.364  17.126
 3301SOL     OW21781   0.760   2.514   2.286
 3301SOL    HW121782   0.733   2.497   2.376
 3301SOL    HW221783   0.713   2.593   2.260
 3302SOL     OW21784   1.735   0.031   2.518
 3302SOL    HW121785   1.806   0.083   2.554
 3302SOL    HW221786   1.679   0.012   2.593
 3303SOL     OW21787   3.937   0.159   5.651
 3303SOL    HW121788   3.847   0.134   5.672
 3303SOL    HW221789   3.991   0.092   5.693
 3304SOL     OW21790   2.885   4.646   5.634
 3304SOL    HW121791   2.909   4.736   5.608
 3304SOL    HW221792   2.930   4.633   5.717
 3305SOL     OW21793   3.748   1.685   4.769
 3305SOL    HW121794   3.703   1.609   4.734
 3305SOL    HW221795   3.812   1.709   4.701
 3306SOL     OW21796   1.945   0.314   1.795
 3306SOL    HW121797   1.999   0.294   1.718
 3306SOL    HW221798   1.933   0.229   1.838
 3307SOL     OW21799   0.598   1.269  18.780
 3307SOL    HW121800   0.613   1.357  18.744
 3307SOL    HW221801   0.680   1.247  18.824
 3308SOL     OW21802   1.375   0.867   8.277
 3308SOL    HW121803   1.405   0.915   8.200
 3308SOL    HW221804   1.307   0.808   8.244
 3309SOL     OW21805   3.304   3.284   3.023
 3309SOL    HW121806   3.266   3.200   2.998
 3309SOL    HW221807   3.229   3.337   3.049
 3310SOL     OW21808   2.565   0.337  20.558
 3310SOL    HW121809   2.557   0.416  20.611
 3310SOL    HW221810   2.584   0.368  20.470
 3311SOL     OW21811   0.089   1.076   2.671
 3311SOL    HW121812   0.074   1.154   2.619
 3311SOL    HW221813   0.001   1.049   2.700
 3312SOL     OW21814   1.680   3.102  15.307
 3312SOL    HW121815   1.750   3.158  15.340
 3312SOL    HW221816   1.711   3.013  15.324
 3313SOL     OW21817   1.753   3.811  16.749
 3313SOL    HW121818   1.714   3.898  16.750
 3313SOL    HW221819   1.678   3.751  16.750
 3314SOL     OW21820   2.916   4.757   5.180
 3314SOL    HW121821   2.989   4.784   5.236
 3314SOL    HW221822   2.953   4.756   5.091
 3315SOL     OW21823   0.286   2.609  16.506
 3315SOL    HW121824   0.312   2.646  16.422
 3315SOL    HW221825   0.225   2.538  16.484
 3316SOL     OW21826   4.135   1.580   0.950
 3316SOL    HW121827   4.083   1.562   0.872
 3316SOL    HW221828   4.076   1.558   1.023
 3317SOL     OW21829   2.575   0.995   6.280
 3317SOL    HW121830   2.663   0.992   6.240
 3317SOL    HW221831   2.530   0.919   6.243
 3318SOL     OW21832   1.559   3.686   7.796
 3318SOL    HW121833   1.473   3.652   7.774
 3318SOL    HW221834   1.616   3.655   7.725
 3319SOL     OW21835   4.744   2.784  16.800
 3319SOL    HW121836   4.677   2.752  16.860
 3319SOL    HW221837   4.696   2.828  16.730
 3320SOL     OW21838   4.200   0.261  14.125
 3320SOL    HW121839   4.273   0.208  14.092
 3320SOL    HW221840   4.187   0.328  14.058
 3321SOL     OW21841   0.446   4.574  20.506
 3321SOL    HW121842   0.369   4.559  20.452
 3321SOL    HW221843   0.459   4.669  20.502
 3322SOL     OW21844   1.954   0.604  18.299
 3322SOL    HW121845   1.923   0.605  18.208
 3322SOL    HW221846   1.940   0.513  18.328
 3323SOL     OW21847   4.664   0.854   3.694
 3323SOL    HW121848   4.752   0.821   3.677
 3323SOL    HW221849   4.607   0.777   3.683
 3324SOL     OW21850   2.621   0.596  18.308
 3324SOL    HW121851   2.603   0.606  18.401
 3324SOL    HW221852   2.537   0.611  18.265
 3325SOL     OW21853   3.290   0.223  14.705
 3325SOL    HW121854   3.296   0.128  14.689
 3325SOL    HW221855   3.367   0.259  14.660
 3326SOL     OW21856   2.051   2.891   3.741
 3326SOL    HW121857   1.966   2.893   3.785
 3326SOL    HW221858   2.060   2.979   3.702
 3327SOL     OW21859   3.952   2.802   7.548
 3327SOL    HW121860   3.974   2.795   7.455
 3327SOL    HW221861   3.953   2.712   7.580
 3328SOL     OW21862   4.300   2.645  18.194
 3328SOL    HW121863   4.221   2.621  18.146
 3328SOL    HW221864   4.282   2.734  18.226
 3329SOL     OW21865   1.030   2.054   0.433
 3329SOL    HW121866   1.061   2.107   0.506
 3329SOL    HW221867   1.108   2.009   0.401
 3330SOL     OW21868   0.355   2.488  18.254
 3330SOL    HW121869   0.380   2.408  18.208
 3330SOL    HW221870   0.367   2.468  18.347
 3331SOL     OW21871   2.512   0.103  16.823
 3331SOL    HW121872   2.474   0.190  16.830
 3331SOL    HW221873   2.444   0.050  16.782
 3332SOL     OW21874   0.288   2.233   2.717
 3332SOL    HW121875   0.329   2.152   2.748
 3332SOL    HW221876   0.347   2.265   2.649
 3333SOL     OW21877   2.203   2.896  18.632
 3333SOL    HW121878   2.164   2.835  18.570
 3333SOL    HW221879   2.268   2.844  18.679
 3334SOL     OW21880   0.666   3.602   0.377
 3334SOL    HW121881   0.662   3.680   0.432
 3334SOL    HW221882   0.699   3.533   0.436
 3335SOL     OW21883   3.687   2.379  17.802
 3335SOL    HW121884   3.628   2.439  17.848
 3335SOL    HW221885   3.747   2.348  17.869
 3336SOL     OW21886   1.849   1.522   5.068
 3336SOL    HW121887   1.822   1.610   5.041
 3336SOL    HW221888   1.833   1.467   4.991
 3337SOL     OW21889   4.384   2.939   0.105
 3337SOL    HW121890   4.363   2.846   0.108
 3337SOL    HW221891   4.316   2.981   0.157
 3338SOL     OW21892   2.833   0.333   3.686
 3338SOL    HW121893   2.777   0.378   3.624
 3338SOL    HW221894   2.856   0.400   3.751
 3339SOL     OW21895   2.079   3.337   7.004
 3339SOL    HW121896   2.023   3.316   6.929
 3339SOL    HW221897   2.133   3.258   7.016
 3340SOL     OW21898   1.525   0.244  15.199
 3340SOL    HW121899   1.533   0.283  15.112
 3340SOL    HW221900   1.581   0.298  15.254
 3341SOL     OW21901   2.235   0.254   2.009
 3341SOL    HW121902   2.144   0.225   2.017
 3341SOL    HW221903   2.287   0.181   2.043
 3342SOL     OW21904   1.818   2.553   1.902
 3342SOL    HW121905   1.792   2.490   1.834
 3342SOL    HW221906   1.748   2.548   1.967
 3343SOL     OW21907   2.245   3.898   4.293
 3343SOL    HW121908   2.234   3.988   4.263
 3343SOL    HW221909   2.328   3.869   4.254
 3344SOL     OW21910   1.110   1.733   5.329
 3344SOL    HW121911   1.126   1.716   5.236
 3344SOL    HW221912   1.060   1.814   5.330
 3345SOL     OW21913   0.178   4.578  19.363
 3345SOL    HW121914   0.169   4.483  19.358
 3345SOL    HW221915   0.251   4.593  19.423
 3346SOL     OW21916   1.641   0.539  19.861
 3346SOL    HW121917   1.688   0.527  19.779
 3346SOL    HW221918   1.604   0.628  19.855
 3347SOL     OW21919   0.014   1.852  17.363
 3347SOL    HW121920   4.741   1.926  17.369
 3347SOL    HW221921   0.094   1.883  17.404
 3348SOL     OW21922   4.548   0.714   4.206
 3348SOL    HW121923   4.633   0.710   4.163
 3348SOL    HW221924   4.501   0.783   4.160
 3349SOL     OW21925   0.493   3.633  16.791
 3349SOL    HW121926   0.476   3.697  16.860
 3349SOL    HW221927   0.541   3.563  16.835
 3350SOL     OW21928   2.911   1.875  16.177
 3350SOL    HW121929   2.879   1.790  16.206
 3350SOL    HW221930   2.987   1.893  16.232
 3351SOL     OW21931   4.066   2.409   1.347
 3351SOL    HW121932   4.109   2.363   1.275
 3351SOL    HW221933   3.976   2.378   1.347
 3352SOL     OW21934   3.273   4.115   4.211
 3352SOL    HW121935   3.216   4.112   4.287
 3352SOL    HW221936   3.216   4.097   4.136
 3353SOL     OW21937   0.508   3.613  16.494
 3353SOL    HW121938   0.483   3.520  16.492
 3353SOL    HW221939   0.489   3.641  16.583
 3354SOL     OW21940   0.233   4.615  14.185
 3354SOL    HW121941   0.311   4.665  14.165
 3354SOL    HW221942   0.215   4.634  14.277
 3355SOL     OW21943   2.128   0.708   5.918
 3355SOL    HW121944   2.183   0.644   5.962
 3355SOL    HW221945   2.189   0.764   5.870
 3356SOL     OW21946   3.269   4.773  18.304
 3356SOL    HW121947   3.335   0.022  18.363
 3356SOL    HW221948   3.316   4.757  18.222
 3357SOL     OW21949   1.008   0.814   5.296
 3357SOL    HW121950   0.942   0.879   5.272
 3357SOL    HW221951   1.091   0.857   5.276
 3358SOL     OW21952   3.957   1.681  20.244
 3358SOL    HW121953   3.914   1.654  20.325
 3358SOL    HW221954   3.950   1.605  20.187
 3359SOL     OW21955   3.039   3.144  18.665
 3359SOL    HW121956   2.963   3.105  18.709
 3359SOL    HW221957   3.039   3.104  18.578
 3360SOL     OW21958   0.373   1.230  20.175
 3360SOL    HW121959   0.397   1.153  20.227
 3360SOL    HW221960   0.445   1.291  20.189
 3361SOL     OW21961   3.138   1.225  21.243
 3361SOL    HW121962   3.045   1.205   0.008
 3361SOL    HW221963   3.183   1.149   0.033
 3362SOL     OW21964   3.915   2.831  20.780
 3362SOL    HW121965   3.984   2.771  20.753
 3362SOL    HW221966   3.961   2.905  20.819
 3363SOL     OW21967   3.203   3.601  20.289
 3363SOL    HW121968   3.173   3.517  20.324
 3363SOL    HW221969   3.129   3.634  20.239
 3364SOL     OW21970   1.943   4.378   6.525
 3364SOL    HW121971   2.019   4.384   6.583
 3364SOL    HW221972   1.881   4.443   6.558
 3365SOL     OW21973   0.431   2.357   4.751
 3365SOL    HW121974   0.447   2.451   4.761
 3365SOL    HW221975   0.449   2.320   4.838
 3366SOL     OW21976   3.677   4.580   6.655
 3366SOL    HW121977   3.643   4.491   6.667
 3366SOL    HW221978   3.623   4.618   6.586
 3367SOL     OW21979   0.988   1.648  19.227
 3367SOL    HW121980   1.074   1.673  19.194
 3367SOL    HW221981   0.978   1.697  19.308
 3368SOL     OW21982   1.297   2.278  19.790
 3368SOL    HW121983   1.336   2.297  19.875
 3368SOL    HW221984   1.362   2.223  19.746
 3369SOL     OW21985   2.406   1.152   4.932
 3369SOL    HW121986   2.461   1.194   4.866
 3369SOL    HW221987   2.429   1.197   5.014
 3370SOL     OW21988   4.680   1.710   8.196
 3370SOL    HW121989   4.690   1.786   8.253
 3370SOL    HW221990   4.744   1.724   8.126
 3371SOL     OW21991   3.865   1.021  18.825
 3371SOL    HW121992   3.786   0.998  18.874
 3371SOL    HW221993   3.917   1.072  18.887
 3372SOL     OW21994   1.842   2.609  15.559
 3372SOL    HW121995   1.917   2.629  15.503
 3372SOL    HW221996   1.776   2.573  15.500
 3373SOL     OW21997   1.567   4.619   1.794
 3373SOL    HW121998   1.602   4.693   1.744
 3373SOL    HW221999   1.494   4.587   1.741
 3374SOL     OW22000   2.145   3.974  19.353
 3374SOL    HW122001   2.081   4.039  19.381
 3374SOL    HW222002   2.139   3.975  19.257
 3375SOL     OW22003   2.781   0.748   3.013
 3375SOL    HW122004   2.783   0.653   3.005
 3375SOL    HW222005   2.697   0.773   2.974
 3376SOL     OW22006   2.387   4.176  19.019
 3376SOL    HW122007   2.345   4.091  19.035
 3376SOL    HW222008   2.471   4.153  18.979
 3377SOL     OW22009   1.857   3.906   5.713
 3377SOL    HW122010   1.778   3.889   5.663
 3377SOL    HW222011   1.916   3.834   5.693
 3378SOL     OW22012   2.240   0.111   3.830
 3378SOL    HW122013   2.313   0.057   3.861
 3378SOL    HW222014   2.267   0.140   3.743
 3379SOL     OW22015   1.234   2.837  19.159
 3379SOL    HW122016   1.175   2.822  19.085
 3379SOL    HW222017   1.307   2.777  19.144
 3380SOL     OW22018   2.299   3.250   6.761
 3380SOL    HW122019   2.361   3.316   6.791
 3380SOL    HW222020   2.273   3.204   6.841
 3381SOL     OW22021   2.559   3.035  20.989
 3381SOL    HW122022   2.508   3.114  21.008
 3381SOL    HW222023   2.650   3.063  20.996
 3382SOL     OW22024   1.170   0.586   4.095
 3382SOL    HW122025   1.155   0.664   4.042
 3382SOL    HW222026   1.119   0.517   4.052
 3383SOL     OW22027   0.383   3.527   0.578
 3383SOL    HW122028   0.352   3.498   0.493
 3383SOL    HW222029   0.474   3.553   0.563
 3384SOL     OW22030   4.411   2.627   3.137
 3384SOL    HW122031   4.498   2.664   3.118
 3384SOL    HW222032   4.351   2.699   3.119
 3385SOL     OW22033   3.064   4.409  13.142
 3385SOL    HW122034   3.001   4.393  13.211
 3385SOL    HW222035   3.068   4.504  13.133
 3386SOL     OW22036   3.501   3.982   0.735
 3386SOL    HW122037   3.481   4.074   0.718
 3386SOL    HW222038   3.444   3.934   0.674
 3387SOL     OW22039   3.069   2.878  20.612
 3387SOL    HW122040   3.060   2.784  20.625
 3387SOL    HW222041   3.132   2.887  20.541
 3388SOL     OW22042   1.766   3.310   0.185
 3388SOL    HW122043   1.721   3.355   0.113
 3388SOL    HW222044   1.697   3.296   0.251
 3389SOL     OW22045   2.382   0.765  15.050
 3389SOL    HW122046   2.388   0.717  15.133
 3389SOL    HW222047   2.326   0.711  14.995
 3390SOL     OW22048   0.028   2.772  20.252
 3390SOL    HW122049   0.044   2.862  20.224
 3390SOL    HW222050   0.069   2.717  20.185
 3391SOL     OW22051   1.354   2.331   8.013
 3391SOL    HW122052   1.286   2.338   8.081
 3391SOL    HW222053   1.390   2.420   8.006
 3392SOL     OW22054   4.653   1.222   1.132
 3392SOL    HW122055   4.739   1.200   1.168
 3392SOL    HW222056   4.595   1.223   1.208
 3393SOL     OW22057   3.112   1.878  20.228
 3393SOL    HW122058   3.136   1.848  20.141
 3393SOL    HW222059   3.194   1.882  20.276
 3394SOL     OW22060   0.793   4.394  15.572
 3394SOL    HW122061   0.813   4.344  15.493
 3394SOL    HW222062   0.698   4.405  15.570
 3395SOL     OW22063   2.184   1.619   0.509
 3395SOL    HW122064   2.209   1.565   0.584
 3395SOL    HW222065   2.098   1.654   0.532
 3396SOL     OW22066   0.300   4.544  17.030
 3396SOL    HW122067   0.392   4.525  17.013
 3396SOL    HW222068   0.302   4.619  17.089
 3397SOL     OW22069   2.610   0.763  19.227
 3397SOL    HW122070   2.552   0.839  19.236
 3397SOL    HW222071   2.635   0.742  19.317
 3398SOL     OW22072   1.902   3.189   7.628
 3398SOL    HW122073   1.911   3.195   7.723
 3398SOL    HW222074   1.814   3.220   7.610
 3399SOL     OW22075   4.781   1.897  18.218
 3399SOL    HW122076   4.787   1.896  18.122
 3399SOL    HW222077   0.057   1.833  18.247
 3400SOL     OW22078   3.705   2.092  15.854
 3400SOL    HW122079   3.782   2.037  15.840
 3400SOL    HW222080   3.660   2.052  15.928
 3401SOL     OW22081   3.910   3.975  18.791
 3401SOL    HW122082   3.819   3.971  18.760
 3401SOL    HW222083   3.913   4.055  18.844
 3402SOL     OW22084   2.805   2.809   1.291
 3402SOL    HW122085   2.847   2.887   1.328
 3402SOL    HW222086   2.875   2.743   1.290
 3403SOL     OW22087   3.575   1.278   1.755
 3403SOL    HW122088   3.587   1.187   1.781
 3403SOL    HW222089   3.648   1.325   1.795
 3404SOL     OW22090   0.058   3.507   0.161
 3404SOL    HW122091   0.037   3.483   0.070
 3404SOL    HW222092   4.761   3.529   0.200
 3405SOL     OW22093   1.703   1.169  17.253
 3405SOL    HW122094   1.756   1.188  17.175
 3405SOL    HW222095   1.646   1.245  17.261
 3406SOL     OW22096   0.340   2.160  16.434
 3406SOL    HW122097   0.333   2.171  16.529
 3406SOL    HW222098   0.383   2.076  16.423
 3407SOL     OW22099   1.724   1.926   1.739
 3407SOL    HW122100   1.654   1.980   1.777
 3407SOL    HW222101   1.789   1.989   1.708
 3408SOL     OW22102   2.491   2.903   3.354
 3408SOL    HW122103   2.433   2.907   3.278
 3408SOL    HW222104   2.491   2.811   3.380
 3409SOL     OW22105   2.993   2.856  20.900
 3409SOL    HW122106   3.049   2.902  20.963
 3409SOL    HW222107   3.042   2.860  20.818
 3410SOL     OW22108   0.912   3.427   6.618
 3410SOL    HW122109   0.948   3.397   6.701
 3410SOL    HW222110   0.945   3.364   6.553
 3411SOL     OW22111   4.296   2.321  18.534
 3411SOL    HW122112   4.344   2.355  18.459
 3411SOL    HW222113   4.249   2.398  18.569
 3412SOL     OW22114   0.158   2.120  15.757
 3412SOL    HW122115   0.143   2.153  15.846
 3412SOL    HW222116   0.158   2.025  15.766
 3413SOL     OW22117   1.401   0.830  17.012
 3413SOL    HW122118   1.492   0.859  17.009
 3413SOL    HW222119   1.396   0.761  16.945
 3414SOL     OW22120   4.480   0.249   0.108
 3414SOL    HW122121   4.544   0.304   0.153
 3414SOL    HW222122   4.532   0.181   0.066
 3415SOL     OW22123   0.934   3.933  18.618
 3415SOL    HW122124   0.962   3.975  18.700
 3415SOL    HW222125   0.839   3.930  18.624
 3416SOL     OW22126   0.525   0.526  20.040
 3416SOL    HW122127   0.558   0.441  20.008
 3416SOL    HW222128   0.599   0.564  20.087
 3417SOL     OW22129   2.403   4.269   4.440
 3417SOL    HW122130   2.400   4.364   4.457
 3417SOL    HW222131   2.485   4.241   4.481
 3418SOL     OW22132   2.237   2.296   5.513
 3418SOL    HW122133   2.177   2.265   5.582
 3418SOL    HW222134   2.324   2.273   5.545
 3419SOL     OW22135   2.358   4.302  14.634
 3419SOL    HW122136   2.307   4.223  14.650
 3419SOL    HW222137   2.319   4.368  14.691
 3420SOL     OW22138   1.277   0.577  19.548
 3420SOL    HW122139   1.231   0.525  19.615
 3420SOL    HW222140   1.330   0.513  19.501
 3421SOL     OW22141   4.110   3.763   7.280
 3421SOL    HW122142   4.095   3.756   7.186
 3421SOL    HW222143   4.168   3.839   7.290
 3422SOL     OW22144   0.272   3.466   3.242
 3422SOL    HW122145   0.326   3.398   3.280
 3422SOL    HW222146   0.189   3.423   3.222
 3423SOL     OW22147   4.781   2.906  15.952
 3423SOL    HW122148   4.763   2.926  15.860
 3423SOL    HW222149   4.695   2.888  15.990
 3424SOL     OW22150   1.425   1.757  20.372
 3424SOL    HW122151   1.414   1.801  20.456
 3424SOL    HW222152   1.503   1.702  20.383
 3425SOL     OW22153   0.448   1.298   5.369
 3425SOL    HW122154   0.412   1.357   5.436
 3425SOL    HW222155   0.379   1.290   5.304
 3426SOL     OW22156   0.174   3.220   4.505
 3426SOL    HW122157   0.257   3.248   4.545
 3426SOL    HW222158   0.106   3.259   4.561
 3427SOL     OW22159   0.650   1.766   1.250
 3427SOL    HW122160   0.570   1.714   1.242
 3427SOL    HW222161   0.718   1.712   1.210
 3428SOL     OW22162   1.329   0.478   2.107
 3428SOL    HW122163   1.389   0.466   2.033
 3428SOL    HW222164   1.324   0.391   2.148
 3429SOL     OW22165   2.590   3.609   2.955
 3429SOL    HW122166   2.507   3.649   2.984
 3429SOL    HW222167   2.610   3.653   2.873
 3430SOL     OW22168   0.131   4.359   0.417
 3430SOL    HW122169   0.110   4.428   0.480
 3430SOL    HW222170   0.225   4.345   0.427
 3431SOL     OW22171   2.959   1.656   9.479
 3431SOL    HW122172   2.899   1.697   9.417
 3431SOL    HW222173   2.907   1.643   9.558
 3432SOL     OW22174   2.909   4.493   8.074
 3432SOL    HW122175   2.952   4.569   8.113
 3432SOL    HW222176   2.938   4.494   7.983
 3433SOL     OW22177   4.353   3.618   8.011
 3433SOL    HW122178   4.306   3.701   8.020
 3433SOL    HW222179   4.417   3.634   7.941
 3434SOL     OW22180   3.925   3.848   9.591
 3434SOL    HW122181   4.003   3.903   9.582
 3434SOL    HW222182   3.928   3.818   9.681
 3435SOL     OW22183   1.313   2.444   7.701
 3435SOL    HW122184   1.229   2.473   7.735
 3435SOL    HW222185   1.367   2.524   7.700
 3436SOL     OW22186   1.491   0.861   8.850
 3436SOL    HW122187   1.578   0.838   8.817
 3436SOL    HW222188   1.494   0.838   8.943
 3437SOL     OW22189   1.780   1.483   6.591
 3437SOL    HW122190   1.837   1.407   6.595
 3437SOL    HW222191   1.744   1.490   6.679
 3438SOL     OW22192   1.698   0.828   8.648
 3438SOL    HW122193   1.737   0.804   8.564
 3438SOL    HW222194   1.637   0.899   8.626
 3439SOL     OW22195   1.472   4.492   6.277
 3439SOL    HW122196   1.553   4.507   6.326
 3439SOL    HW222197   1.408   4.550   6.318
 3440SOL     OW22198   0.290   4.379   1.844
 3440SOL    HW122199   0.354   4.450   1.833
 3440SOL    HW222200   0.205   4.424   1.843
 3441SOL     OW22201   1.993   0.366   8.150
 3441SOL    HW122202   1.922   0.395   8.207
 3441SOL    HW222203   1.965   0.391   8.062
 3442SOL     OW22204   0.241   1.705   4.755
 3442SOL    HW122205   0.330   1.677   4.731
 3442SOL    HW222206   0.183   1.641   4.713
 3443SOL     OW22207   3.473   0.663   8.598
 3443SOL    HW122208   3.502   0.573   8.583
 3443SOL    HW222209   3.547   0.717   8.569
 3444SOL     OW22210   2.562   4.254   7.489
 3444SOL    HW122211   2.606   4.334   7.516
 3444SOL    HW222212   2.607   4.227   7.409
 3445SOL     OW22213   0.523   4.348   4.121
 3445SOL    HW122214   0.462   4.408   4.162
 3445SOL    HW222215   0.488   4.334   4.033
 3446SOL     OW22216   0.018   3.601   9.335
 3446SOL    HW122217   4.777   3.642   9.417
 3446SOL    HW222218   0.020   3.673   9.272
 3447SOL     OW22219   2.254   3.440  21.131
 3447SOL    HW122220   2.176   3.417  21.181
 3447SOL    HW222221   2.296   3.510  21.182
 3448SOL     OW22222   1.233   3.331   9.408
 3448SOL    HW122223   1.281   3.252   9.430
 3448SOL    HW222224   1.158   3.331   9.469
 3449SOL     OW22225   2.781   4.026  10.095
 3449SOL    HW122226   2.850   4.031  10.161
 3449SOL    HW222227   2.821   3.978  10.022
 3450SOL     OW22228   3.477   3.481  10.842
 3450SOL    HW122229   3.418   3.519  10.777
 3450SOL    HW222230   3.420   3.451  10.913
 3451SOL     OW22231   0.055   3.410   9.860
 3451SOL    HW122232   0.109   3.482   9.893
 3451SOL    HW222233   0.093   3.388   9.775
 3452SOL     OW22234   2.712   3.741   9.141
 3452SOL    HW122235   2.763   3.798   9.083
 3452SOL    HW222236   2.775   3.713   9.208
 3453SOL     OW22237   0.075   4.488   9.509
 3453SOL    HW122238   0.063   4.583   9.502
 3453SOL    HW222239   0.087   4.459   9.419
 3454SOL     OW22240   3.566   4.307  10.471
 3454SOL    HW122241   3.577   4.212  10.472
 3454SOL    HW222242   3.498   4.323  10.406
 3455SOL     OW22243   0.009   0.595   9.398
 3455SOL    HW122244   0.001   0.581   9.492
 3455SOL    HW222245   4.711   0.571   9.362
 3456SOL     OW22246   3.825   4.147  11.019
 3456SOL    HW122247   3.861   4.058  11.015
 3456SOL    HW222248   3.897   4.202  10.988
 3457SOL     OW22249   0.133   3.798  10.988
 3457SOL    HW122250   0.198   3.808  11.058
 3457SOL    HW222251   0.160   3.861  10.921
 3458SOL     OW22252   3.179   3.203  10.447
 3458SOL    HW122253   3.205   3.183  10.357
 3458SOL    HW222254   3.111   3.269  10.439
 3459SOL     OW22255   3.141   0.114  10.290
 3459SOL    HW122256   3.115   0.051  10.357
 3459SOL    HW222257   3.077   0.185  10.299
 3460SOL     OW22258   4.035   0.071   8.909
 3460SOL    HW122259   4.068   4.783   8.957
 3460SOL    HW222260   4.043   0.144   8.970
 3461SOL     OW22261   4.534   0.536   9.344
 3461SOL    HW122262   4.530   0.464   9.407
 3461SOL    HW222263   4.453   0.586   9.359
 3462SOL     OW22264   4.456   4.026   9.189
 3462SOL    HW122265   4.369   4.004   9.156
 3462SOL    HW222266   4.505   3.943   9.185
 3463SOL     OW22267   0.195   4.426   9.891
 3463SOL    HW122268   0.148   4.423   9.974
 3463SOL    HW222269   0.185   4.338   9.854
 3464SOL     OW22270   4.774   3.993   9.066
 3464SOL    HW122271   0.081   4.008   9.074
 3464SOL    HW222272   4.763   3.902   9.093
 3465SOL     OW22273   3.362   3.677  10.710
 3465SOL    HW122274   3.402   3.724  10.783
 3465SOL    HW222275   3.327   3.746  10.653
 3466SOL     OW22276   4.771   3.836  10.175
 3466SOL    HW122277   0.041   3.760  10.167
 3466SOL    HW222278   4.705   3.809  10.239
 3467SOL     OW22279   0.791   0.340  11.372
 3467SOL    HW122280   0.844   0.371  11.298
 3467SOL    HW222281   0.763   0.252  11.346
 3468SOL     OW22282   4.253   3.475  10.593
 3468SOL    HW122283   4.322   3.462  10.527
 3468SOL    HW222284   4.298   3.470  10.677
 3469SOL     OW22285   3.878   2.783  10.244
 3469SOL    HW122286   3.809   2.757  10.184
 3469SOL    HW222287   3.947   2.718  10.232
 3470SOL     OW22288   3.434   4.404   9.357
 3470SOL    HW122289   3.342   4.379   9.368
 3470SOL    HW222290   3.482   4.342   9.412
 3471SOL     OW22291   4.095   3.583  11.325
 3471SOL    HW122292   4.075   3.635  11.247
 3471SOL    HW222293   4.090   3.645  11.398
 3472SOL     OW22294   0.456   4.380   9.928
 3472SOL    HW122295   0.466   4.299   9.878
 3472SOL    HW222296   0.365   4.406   9.915
 3473SOL     OW22297   3.892   3.019  10.379
 3473SOL    HW122298   3.806   3.025  10.420
 3473SOL    HW222299   3.891   2.934  10.334
 3474SOL     OW22300   0.113   2.662  10.389
 3474SOL    HW122301   0.118   2.584  10.445
 3474SOL    HW222302   0.019   2.680  10.382
 3475SOL     OW22303   2.957   3.718   9.610
 3475SOL    HW122304   3.002   3.800   9.627
 3475SOL    HW222305   3.026   3.651   9.616
 3476SOL     OW22306   4.330   2.591  10.299
 3476SOL    HW122307   4.248   2.634  10.277
 3476SOL    HW222308   4.335   2.597  10.394
 3477SOL     OW22309   3.047   3.436  13.312
 3477SOL    HW122310   3.072   3.446  13.220
 3477SOL    HW222311   2.989   3.510  13.330
 3478SOL     OW22312   2.395   0.298  20.011
 3478SOL    HW122313   2.337   0.222  20.021
 3478SOL    HW222314   2.385   0.324  19.920
 3479SOL     OW22315   3.860   2.287   1.674
 3479SOL    HW122316   3.848   2.366   1.622
 3479SOL    HW222317   3.954   2.285   1.692
 3480SOL     OW22318   3.846   4.640  12.588
 3480SOL    HW122319   3.921   4.700  12.590
 3480SOL    HW222320   3.769   4.697  12.588
 3481SOL     OW22321   2.067   3.756  11.442
 3481SOL    HW122322   2.004   3.696  11.403
 3481SOL    HW222323   2.025   3.843  11.436
 3482SOL     OW22324   4.057   3.840  11.443
 3482SOL    HW122325   4.066   3.838  11.538
 3482SOL    HW222326   4.120   3.907  11.416
 3483SOL     OW22327   2.217   3.685  18.772
 3483SOL    HW122328   2.191   3.762  18.722
 3483SOL    HW222329   2.203   3.612  18.712
 3484SOL     OW22330   2.789   2.245   5.912
 3484SOL    HW122331   2.847   2.321   5.924
 3484SOL    HW222332   2.729   2.250   5.986
 3485SOL     OW22333   3.644   0.068  12.621
 3485SOL    HW122334   3.647   0.163  12.613
 3485SOL    HW222335   3.551   0.046  12.615
 3486SOL     OW22336   3.872   0.421  12.879
 3486SOL    HW122337   3.910   0.502  12.912
 3486SOL    HW222338   3.781   0.443  12.859
 3487SOL     OW22339   4.136   1.627  11.861
 3487SOL    HW122340   4.216   1.666  11.895
 3487SOL    HW222341   4.098   1.582  11.937
 3488SOL     OW22342   4.032   0.453   0.668
 3488SOL    HW122343   3.947   0.472   0.630
 3488SOL    HW222344   4.083   0.415   0.597
 3489SOL     OW22345   0.205   4.230  12.526
 3489SOL    HW122346   0.170   4.143  12.545
 3489SOL    HW222347   0.234   4.225  12.435
 3490SOL     OW22348   3.174   0.407  12.079
 3490SOL    HW122349   3.195   0.496  12.052
 3490SOL    HW222350   3.162   0.413  12.174
 3491SOL     OW22351   0.715   4.635  16.373
 3491SOL    HW122352   0.782   4.672  16.317
 3491SOL    HW222353   0.726   4.541  16.366
 3492SOL     OW22354   4.742   3.275  11.154
 3492SOL    HW122355   4.755   3.370  11.149
 3492SOL    HW222356   4.688   3.254  11.078
 3493SOL     OW22357   1.283   0.924  20.291
 3493SOL    HW122358   1.198   0.962  20.268
 3493SOL    HW222359   1.336   0.936  20.212
 3494SOL     OW22360   4.391   1.735  12.346
 3494SOL    HW122361   4.428   1.816  12.382
 3494SOL    HW222362   4.296   1.750  12.347
 3495SOL     OW22363   4.654   1.358   3.888
 3495SOL    HW122364   4.678   1.320   3.804
 3495SOL    HW222365   4.580   1.416   3.869
 3496SOL     OW22366   1.290   0.582   5.158
 3496SOL    HW122367   1.261   0.550   5.244
 3496SOL    HW222368   1.265   0.674   5.157
 3497SOL     OW22369   3.881   2.837   4.899
 3497SOL    HW122370   3.825   2.914   4.900
 3497SOL    HW222371   3.821   2.764   4.888
 3498SOL     OW22372   0.632   4.350   6.037
 3498SOL    HW122373   0.646   4.367   5.943
 3498SOL    HW222374   0.695   4.407   6.081
 3499SOL     OW22375   2.639   0.905   2.031
 3499SOL    HW122376   2.706   0.955   1.985
 3499SOL    HW222377   2.681   0.822   2.051
 3500SOL     OW22378   3.429   0.225  17.716
 3500SOL    HW122379   3.453   0.315  17.694
 3500SOL    HW222380   3.459   0.174  17.641
 3501SOL     OW22381   4.043   3.635  16.475
 3501SOL    HW122382   4.051   3.541  16.492
 3501SOL    HW222383   4.125   3.672  16.508
 3502SOL     OW22384   2.957   4.627   3.607
 3502SOL    HW122385   2.861   4.630   3.616
 3502SOL    HW222386   2.979   4.706   3.559
 3503SOL     OW22387   2.328   3.704  11.363
 3503SOL    HW122388   2.234   3.720  11.351
 3503SOL    HW222389   2.332   3.642  11.437
 3504SOL     OW22390   1.292   4.193   0.469
 3504SOL    HW122391   1.374   4.239   0.486
 3504SOL    HW222392   1.239   4.256   0.420
 3505SOL     OW22393   3.027   3.795   1.172
 3505SOL    HW122394   3.077   3.739   1.231
 3505SOL    HW222395   2.937   3.763   1.178
 3506SOL     OW22396   1.636   1.012  14.072
 3506SOL    HW122397   1.603   0.973  14.153
 3506SOL    HW222398   1.646   1.105  14.092
 3507SOL     OW22399   4.064   0.689   4.081
 3507SOL    HW122400   4.032   0.702   4.171
 3507SOL    HW222401   4.020   0.609   4.052
 3508SOL     OW22402   0.433   3.895   4.325
 3508SOL    HW122403   0.461   3.868   4.413
 3508SOL    HW222404   0.463   3.985   4.317
 3509SOL     OW22405   2.031   2.958  18.060
 3509SOL    HW122406   1.985   3.012  17.997
 3509SOL    HW222407   1.964   2.937  18.126
 3510SOL     OW22408   4.411   4.114  16.473
 3510SOL    HW122409   4.480   4.173  16.443
 3510SOL    HW222410   4.452   4.063  16.543
 3511SOL     OW22411   0.611   0.657  11.619
 3511SOL    HW122412   0.631   0.563  11.627
 3511SOL    HW222413   0.674   0.689  11.554
 3512SOL     OW22414   0.115   4.656  11.333
 3512SOL    HW122415   0.088   4.582  11.388
 3512SOL    HW222416   0.044   4.720  11.343
 3513SOL     OW22417   4.259   0.517  18.948
 3513SOL    HW122418   4.209   0.527  19.029
 3513SOL    HW222419   4.195   0.529  18.878
 3514SOL     OW22420   0.668   3.006  20.661
 3514SOL    HW122421   0.637   2.965  20.580
 3514SOL    HW222422   0.658   2.938  20.728
 3515SOL     OW22423   4.637   1.498  16.096
 3515SOL    HW122424   4.681   1.527  16.016
 3515SOL    HW222425   4.695   1.524  16.166
 3516SOL     OW22426   3.691   0.967  18.621
 3516SOL    HW122427   3.755   0.964  18.692
 3516SOL    HW222428   3.673   0.876  18.600
 3517SOL     OW22429   1.171   3.879  15.755
 3517SOL    HW122430   1.155   3.948  15.819
 3517SOL    HW222431   1.263   3.855  15.767
 3518SOL     OW22432   4.485   0.619  14.950
 3518SOL    HW122433   4.570   0.661  14.938
 3518SOL    HW222434   4.435   0.680  15.005
 3519SOL     OW22435   4.510   1.279  12.472
 3519SOL    HW122436   4.444   1.285  12.542
 3519SOL    HW222437   4.556   1.363  12.476
 3520SOL     OW22438   1.444   4.642  14.959
 3520SOL    HW122439   1.393   4.717  14.929
 3520SOL    HW222440   1.435   4.644  15.054
 3521SOL     OW22441   1.866   3.444   1.607
 3521SOL    HW122442   1.846   3.536   1.622
 3521SOL    HW222443   1.815   3.397   1.675
 3522SOL     OW22444   4.464   3.267   5.533
 3522SOL    HW122445   4.493   3.192   5.583
 3522SOL    HW222446   4.389   3.236   5.483
 3523SOL     OW22447   0.716   0.132   0.153
 3523SOL    HW122448   0.784   0.097   0.095
 3523SOL    HW222449   0.634   0.102   0.113
 3524SOL     OW22450   1.647   2.511  15.389
 3524SOL    HW122451   1.587   2.560  15.446
 3524SOL    HW222452   1.589   2.457  15.335
 3525SOL     OW22453   0.717   4.331  18.163
 3525SOL    HW122454   0.757   4.247  18.187
 3525SOL    HW222455   0.741   4.391  18.233
 3526SOL     OW22456   0.805   0.649   2.327
 3526SOL    HW122457   0.727   0.597   2.309
 3526SOL    HW222458   0.801   0.722   2.266
 3527SOL     OW22459   0.324   0.130   3.189
 3527SOL    HW122460   0.371   0.145   3.106
 3527SOL    HW222461   0.316   0.217   3.227
 3528SOL     OW22462   2.513   1.874  20.887
 3528SOL    HW122463   2.476   1.957  20.916
 3528SOL    HW222464   2.600   1.870  20.927
 3529SOL     OW22465   0.850   2.168  18.865
 3529SOL    HW122466   0.867   2.234  18.932
 3529SOL    HW222467   0.786   2.209  18.806
 3530SOL     OW22468   4.708   2.098   4.105
 3530SOL    HW122469   4.682   2.006   4.108
 3530SOL    HW222470   4.695   2.129   4.195
 3531SOL     OW22471   4.492   4.143   2.553
 3531SOL    HW122472   4.584   4.167   2.560
 3531SOL    HW222473   4.493   4.051   2.527
 3532SOL     OW22474   0.748   1.582   2.359
 3532SOL    HW122475   0.829   1.567   2.407
 3532SOL    HW222476   0.735   1.677   2.364
 3533SOL     OW22477   1.919   0.844   0.227
 3533SOL    HW122478   2.007   0.816   0.203
 3533SOL    HW222479   1.930   0.932   0.263
 3534SOL     OW22480   4.201   2.973  12.917
 3534SOL    HW122481   4.106   2.971  12.914
 3534SOL    HW222482   4.224   3.065  12.909
 3535SOL     OW22483   3.223   1.111  20.094
 3535SOL    HW122484   3.243   1.025  20.131
 3535SOL    HW222485   3.196   1.093  20.004
 3536SOL     OW22486   0.735   4.028   3.098
 3536SOL    HW122487   0.771   3.943   3.122
 3536SOL    HW222488   0.774   4.089   3.161
 3537SOL     OW22489   2.724   3.010  19.103
 3537SOL    HW122490   2.777   3.072  19.151
 3537SOL    HW222491   2.634   3.026  19.133
 3538SOL     OW22492   4.766   3.786  21.200
 3538SOL    HW122493   4.672   3.787  21.217
 3538SOL    HW222494   4.774   3.761  21.108
 3539SOL     OW22495   2.478   4.197  11.185
 3539SOL    HW122496   2.450   4.106  11.181
 3539SOL    HW222497   2.481   4.217  11.279
 3540SOL     OW22498   1.574   1.330  19.735
 3540SOL    HW122499   1.550   1.254  19.681
 3540SOL    HW222500   1.624   1.292  19.808
 3541SOL     OW22501   0.655   2.317  21.221
 3541SOL    HW122502   0.644   2.342   0.065
 3541SOL    HW222503   0.567   2.313  21.185
 3542SOL     OW22504   0.240   2.519  14.434
 3542SOL    HW122505   0.211   2.610  14.430
 3542SOL    HW222506   0.172   2.474  14.484
 3543SOL     OW22507   2.398   1.708   8.104
 3543SOL    HW122508   2.491   1.726   8.096
 3543SOL    HW222509   2.393   1.623   8.148
 3544SOL     OW22510   0.736   1.021   3.017
 3544SOL    HW122511   0.765   1.103   2.976
 3544SOL    HW222512   0.688   1.049   3.095
 3545SOL     OW22513   1.118   4.539   2.127
 3545SOL    HW122514   1.066   4.459   2.128
 3545SOL    HW222515   1.054   4.609   2.140
 3546SOL     OW22516   0.664   2.178  18.655
 3546SOL    HW122517   0.638   2.228  18.577
 3546SOL    HW222518   0.586   2.128  18.678
 3547SOL     OW22519   1.405   0.399   2.465
 3547SOL    HW122520   1.385   0.468   2.528
 3547SOL    HW222521   1.427   0.445   2.384
 3548SOL     OW22522   0.189   3.292  19.662
 3548SOL    HW122523   0.137   3.240  19.601
 3548SOL    HW222524   0.235   3.355  19.607
 3549SOL     OW22525   0.695   1.357  19.511
 3549SOL    HW122526   0.650   1.279  19.542
 3549SOL    HW222527   0.760   1.325  19.448
 3550SOL     OW22528   4.610   2.465   4.524
 3550SOL    HW122529   4.682   2.520   4.556
 3550SOL    HW222530   4.604   2.485   4.431
 3551SOL     OW22531   1.299   0.384   6.160
 3551SOL    HW122532   1.289   0.479   6.161
 3551SOL    HW222533   1.209   0.351   6.156
 3552SOL     OW22534   3.762   0.029  13.496
 3552SOL    HW122535   3.823   4.743  13.495
 3552SOL    HW222536   3.735   0.038  13.405
 3553SOL     OW22537   2.079   2.763  15.504
 3553SOL    HW122538   2.049   2.811  15.581
 3553SOL    HW222539   2.172   2.749  15.519
 3554SOL     OW22540   1.077   3.010  18.109
 3554SOL    HW122541   1.166   3.012  18.144
 3554SOL    HW222542   1.041   2.927  18.140
 3555SOL     OW22543   3.764   1.416   1.884
 3555SOL    HW122544   3.851   1.378   1.887
 3555SOL    HW222545   3.757   1.469   1.964
 3556SOL     OW22546   0.552   4.724  14.638
 3556SOL    HW122547   0.492   4.678  14.696
 3556SOL    HW222548   0.596   0.001  14.693
 3557SOL     OW22549   0.429   1.020  15.985
 3557SOL    HW122550   0.442   1.087  16.052
 3557SOL    HW222551   0.508   1.023  15.932
 3558SOL     OW22552   2.396   2.330   3.615
 3558SOL    HW122553   2.426   2.248   3.576
 3558SOL    HW222554   2.310   2.346   3.576
 3559SOL     OW22555   0.130   1.880   0.131
 3559SOL    HW122556   0.065   1.841   0.190
 3559SOL    HW222557   0.173   1.805   0.091
 3560SOL     OW22558   4.474   2.262  11.858
 3560SOL    HW122559   4.562   2.297  11.852
 3560SOL    HW222560   4.483   2.170  11.833
 3561SOL     OW22561   4.528   1.238   2.842
 3561SOL    HW122562   4.533   1.156   2.891
 3561SOL    HW222563   4.589   1.296   2.887
 3562SOL     OW22564   1.211   2.167   3.658
 3562SOL    HW122565   1.251   2.162   3.571
 3562SOL    HW222566   1.172   2.081   3.672
 3563SOL     OW22567   0.063   2.963   1.800
 3563SOL    HW122568   0.139   3.014   1.773
 3563SOL    HW222569   0.010   3.023   1.852
 3564SOL     OW22570   1.075   1.145  14.957
 3564SOL    HW122571   1.163   1.128  14.921
 3564SOL    HW222572   1.025   1.066  14.934
 3565SOL     OW22573   4.699   0.788   1.721
 3565SOL    HW122574   4.685   0.728   1.648
 3565SOL    HW222575   4.611   0.818   1.745
 3566SOL     OW22576   3.678   2.067   7.505
 3566SOL    HW122577   3.709   2.104   7.422
 3566SOL    HW222578   3.749   2.083   7.567
 3567SOL     OW22579   0.764   3.280  17.119
 3567SOL    HW122580   0.801   3.201  17.078
 3567SOL    HW222581   0.708   3.246  17.189
 3568SOL     OW22582   3.366   3.591  14.982
 3568SOL    HW122583   3.287   3.605  14.931
 3568SOL    HW222584   3.398   3.679  15.002
 3569SOL     OW22585   0.116   0.215  18.716
 3569SOL    HW122586   0.146   0.217  18.807
 3569SOL    HW222587   0.072   0.300  18.705
 3570SOL     OW22588   4.066   4.167  14.355
 3570SOL    HW122589   4.036   4.079  14.376
 3570SOL    HW222590   4.161   4.164  14.369
 3571SOL     OW22591   2.939   2.018   7.559
 3571SOL    HW122592   3.030   2.002   7.536
 3571SOL    HW222593   2.942   2.092   7.619
 3572SOL     OW22594   2.178   0.715   5.259
 3572SOL    HW122595   2.243   0.651   5.230
 3572SOL    HW222596   2.198   0.794   5.208
 3573SOL     OW22597   0.952   3.124  20.983
 3573SOL    HW122598   0.954   3.029  20.967
 3573SOL    HW222599   0.897   3.159  20.912
 3574SOL     OW22600   3.780   2.478  15.804
 3574SOL    HW122601   3.689   2.450  15.808
 3574SOL    HW222602   3.821   2.419  15.741
 3575SOL     OW22603   0.019   4.433  17.575
 3575SOL    HW122604   0.019   4.448  17.481
 3575SOL    HW222605   0.010   4.338  17.584
 3576SOL     OW22606   2.787   3.447   6.078
 3576SOL    HW122607   2.713   3.497   6.043
 3576SOL    HW222608   2.865   3.497   6.052
 3577SOL     OW22609   2.176   1.015  12.291
 3577SOL    HW122610   2.205   0.930  12.325
 3577SOL    HW222611   2.254   1.053  12.250
 3578SOL     OW22612   3.764   0.319  18.016
 3578SOL    HW122613   3.755   0.395  18.074
 3578SOL    HW222614   3.696   0.259  18.045
 3579SOL     OW22615   0.101   2.195   4.516
 3579SOL    HW122616   0.181   2.166   4.473
 3579SOL    HW222617   0.128   2.212   4.607
 3580SOL     OW22618   0.561   4.427  17.704
 3580SOL    HW122619   0.610   4.438  17.785
 3580SOL    HW222620   0.625   4.395  17.641
 3581SOL     OW22621   1.085   2.795  17.751
 3581SOL    HW122622   1.049   2.878  17.782
 3581SOL    HW222623   1.168   2.820  17.708
 3582SOL     OW22624   3.082   2.193  20.392
 3582SOL    HW122625   3.108   2.138  20.466
 3582SOL    HW222626   2.991   2.215  20.409
 3583SOL     OW22627   2.455   3.204   4.906
 3583SOL    HW122628   2.500   3.278   4.946
 3583SOL    HW222629   2.404   3.242   4.835
 3584SOL     OW22630   3.622   1.645   2.589
 3584SOL    HW122631   3.604   1.558   2.625
 3584SOL    HW222632   3.651   1.628   2.499
 3585SOL     OW22633   2.013   3.796  17.908
 3585SOL    HW122634   1.950   3.784  17.979
 3585SOL    HW222635   2.007   3.890  17.886
 3586SOL     OW22636   1.976   0.522   6.241
 3586SOL    HW122637   1.942   0.594   6.294
 3586SOL    HW222638   2.023   0.466   6.303
 3587SOL     OW22639   4.013   3.384  18.611
 3587SOL    HW122640   3.999   3.430  18.528
 3587SOL    HW222641   4.108   3.382  18.621
 3588SOL     OW22642   1.179   4.311  15.352
 3588SOL    HW122643   1.120   4.311  15.427
 3588SOL    HW222644   1.263   4.341  15.387
 3589SOL     OW22645   0.896   2.767   4.334
 3589SOL    HW122646   0.890   2.707   4.408
 3589SOL    HW222647   0.898   2.854   4.373
 3590SOL     OW22648   0.442   3.795   6.903
 3590SOL    HW122649   0.409   3.858   6.968
 3590SOL    HW222650   0.508   3.744   6.951
 3591SOL     OW22651   0.110   4.019  13.906
 3591SOL    HW122652   0.162   3.999  13.829
 3591SOL    HW222653   0.025   3.979  13.889
 3592SOL     OW22654   0.998   1.011   2.646
 3592SOL    HW122655   0.906   1.003   2.672
 3592SOL    HW222656   1.021   1.102   2.668
 3593SOL     OW22657   2.926   0.177  15.617
 3593SOL    HW122658   2.903   0.104  15.560
 3593SOL    HW222659   3.015   0.158  15.647
 3594SOL     OW22660   2.613   1.252  13.357
 3594SOL    HW122661   2.682   1.283  13.297
 3594SOL    HW222662   2.596   1.326  13.414
 3595SOL     OW22663   1.252   2.584  20.500
 3595SOL    HW122664   1.157   2.592  20.511
 3595SOL    HW222665   1.281   2.545  20.582
 3596SOL     OW22666   1.931   0.208   2.580
 3596SOL    HW122667   1.918   0.276   2.646
 3596SOL    HW222668   1.996   0.244   2.520
 3597SOL     OW22669   2.620   3.094  16.517
 3597SOL    HW122670   2.643   3.123  16.428
 3597SOL    HW222671   2.533   3.056  16.508
 3598SOL     OW22672   2.854   4.673   2.677
 3598SOL    HW122673   2.906   4.740   2.720
 3598SOL    HW222674   2.764   4.693   2.700
 3599SOL     OW22675   1.071   3.799  17.021
 3599SOL    HW122676   1.024   3.798  16.938
 3599SOL    HW222677   1.125   3.878  17.016
 3600SOL     OW22678   0.688   3.917  15.855
 3600SOL    HW122679   0.596   3.902  15.875
 3600SOL    HW222680   0.688   3.956  15.767
 3601SOL     OW22681   3.049   4.246  15.426
 3601SOL    HW122682   3.046   4.160  15.469
 3601SOL    HW222683   3.126   4.289  15.465
 3602SOL     OW22684   2.668   4.614   3.601
 3602SOL    HW122685   2.622   4.698   3.598
 3602SOL    HW222686   2.652   4.581   3.690
 3603SOL     OW22687   0.412   4.731   6.161
 3603SOL    HW122688   0.416   0.035   6.187
 3603SOL    HW222689   0.445   4.730   6.071
 3604SOL     OW22690   2.877   2.464  16.460
 3604SOL    HW122691   2.826   2.498  16.387
 3604SOL    HW222692   2.876   2.533  16.525
 3605SOL     OW22693   1.502   1.462  20.863
 3605SOL    HW122694   1.458   1.489  20.943
 3605SOL    HW222695   1.548   1.381  20.886
 3606SOL     OW22696   1.454   2.490  16.320
 3606SOL    HW122697   1.363   2.491  16.291
 3606SOL    HW222698   1.463   2.571  16.370
 3607SOL     OW22699   1.798   1.851  20.999
 3607SOL    HW122700   1.722   1.888  21.043
 3607SOL    HW222701   1.782   1.756  21.001
 3608SOL     OW22702   3.601   1.715  14.179
 3608SOL    HW122703   3.688   1.676  14.185
 3608SOL    HW222704   3.600   1.760  14.095
 3609SOL     OW22705   4.782   3.696  18.366
 3609SOL    HW122706   4.767   3.709  18.272
 3609SOL    HW222707   4.779   3.784  18.404
 3610SOL     OW22708   1.844   1.668   3.926
 3610SOL    HW122709   1.754   1.692   3.902
 3610SOL    HW222710   1.898   1.730   3.877
 3611SOL     OW22711   0.393   0.278  19.208
 3611SOL    HW122712   0.435   0.206  19.161
 3611SOL    HW222713   0.421   0.267  19.298
 3612SOL     OW22714   4.373   1.727   6.495
 3612SOL    HW122715   4.444   1.704   6.556
 3612SOL    HW222716   4.417   1.775   6.425
 3613SOL     OW22717   2.508   2.241   6.059
 3613SOL    HW122718   2.493   2.211   6.149
 3613SOL    HW222719   2.452   2.318   6.049
 3614SOL     OW22720   4.478   0.665   1.296
 3614SOL    HW122721   4.545   0.702   1.239
 3614SOL    HW222722   4.524   0.651   1.379
 3615SOL     OW22723   0.809   4.603  12.934
 3615SOL    HW122724   0.762   4.599  12.851
 3615SOL    HW222725   0.872   4.675  12.922
 3616SOL     OW22726   2.424   2.609   3.658
 3616SOL    HW122727   2.330   2.622   3.663
 3616SOL    HW222728   2.434   2.519   3.625
 3617SOL     OW22729   2.014   4.676  14.838
 3617SOL    HW122730   1.957   4.599  14.839
 3617SOL    HW222731   2.072   4.662  14.763
 3618SOL     OW22732   3.174   2.225  18.134
 3618SOL    HW122733   3.213   2.156  18.188
 3618SOL    HW222734   3.108   2.265  18.191
 3619SOL     OW22735   4.114   1.634   6.057
 3619SOL    HW122736   4.084   1.649   6.147
 3619SOL    HW222737   4.209   1.647   6.061
 3620SOL     OW22738   0.113   4.599  18.290
 3620SOL    HW122739   0.100   4.636  18.203
 3620SOL    HW222740   0.080   4.666  18.350
 3621SOL     OW22741   0.832   0.302  17.457
 3621SOL    HW122742   0.840   0.218  17.501
 3621SOL    HW222743   0.912   0.311  17.406
 3622SOL     OW22744   0.906   3.942   4.198
 3622SOL    HW122745   0.836   3.995   4.159
 3622SOL    HW222746   0.881   3.852   4.178
 3623SOL     OW22747   1.349   3.407  15.833
 3623SOL    HW122748   1.339   3.405  15.737
 3623SOL    HW222749   1.437   3.441  15.847
 3624SOL     OW22750   3.999   1.928  18.785
 3624SOL    HW122751   3.944   1.852  18.768
 3624SOL    HW222752   3.957   1.999  18.738
 3625SOL     OW22753   2.750   3.382   3.500
 3625SOL    HW122754   2.659   3.402   3.523
 3625SOL    HW222755   2.746   3.360   3.407
 3626SOL     OW22756   4.286   3.576   0.517
 3626SOL    HW122757   4.363   3.631   0.503
 3626SOL    HW222758   4.282   3.563   0.612
 3627SOL     OW22759   3.244   4.244  16.068
 3627SOL    HW122760   3.318   4.285  16.114
 3627SOL    HW222761   3.258   4.266  15.976
 3628SOL     OW22762   0.031   0.716  16.482
 3628SOL    HW122763   4.779   0.791  16.525
 3628SOL    HW222764   0.066   0.751  16.399
 3629SOL     OW22765   2.468   3.055   1.875
 3629SOL    HW122766   2.443   3.132   1.925
 3629SOL    HW222767   2.431   3.069   1.788
 3630SOL     OW22768   4.062   0.871   3.856
 3630SOL    HW122769   4.055   0.962   3.885
 3630SOL    HW222770   4.047   0.819   3.936
 3631SOL     OW22771   4.297   0.704   5.819
 3631SOL    HW122772   4.367   0.729   5.880
 3631SOL    HW222773   4.238   0.650   5.871
 3632SOL     OW22774   1.943   0.504   0.227
 3632SOL    HW122775   1.887   0.562   0.279
 3632SOL    HW222776   1.910   0.416   0.244
 3633SOL     OW22777   2.411   2.912   6.344
 3633SOL    HW122778   2.318   2.920   6.325
 3633SOL    HW222779   2.432   2.989   6.398
 3634SOL     OW22780   1.873   0.451  17.576
 3634SOL    HW122781   1.938   0.509  17.538
 3634SOL    HW222782   1.807   0.509  17.614
 3635SOL     OW22783   4.604   0.082   3.591
 3635SOL    HW122784   4.609   0.066   3.496
 3635SOL    HW222785   4.564   0.002   3.626
 3636SOL     OW22786   4.128   2.990   7.095
 3636SOL    HW122787   4.099   3.081   7.085
 3636SOL    HW222788   4.219   2.997   7.124
 3637SOL     OW22789   1.233   1.605  19.902
 3637SOL    HW122790   1.286   1.683  19.919
 3637SOL    HW222791   1.179   1.595  19.981
 3638SOL     OW22792   3.707   0.890   3.998
 3638SOL    HW122793   3.746   0.899   4.085
 3638SOL    HW222794   3.654   0.810   4.003
 3639SOL     OW22795   2.039   4.237  20.949
 3639SOL    HW122796   2.028   4.195  21.034
 3639SOL    HW222797   2.111   4.190  20.908
 3640SOL     OW22798   1.077   3.028   3.089
 3640SOL    HW122799   1.127   2.948   3.074
 3640SOL    HW222800   1.019   3.035   3.013
 3641SOL     OW22801   1.127   2.141   4.026
 3641SOL    HW122802   1.100   2.090   4.102
 3641SOL    HW222803   1.066   2.216   4.025
 3642SOL     OW22804   3.444   1.283   6.223
 3642SOL    HW122805   3.448   1.251   6.313
 3642SOL    HW222806   3.518   1.242   6.179
 3643SOL     OW22807   1.390   1.831   6.659
 3643SOL    HW122808   1.390   1.814   6.753
 3643SOL    HW222809   1.429   1.753   6.620
 3644SOL     OW22810   2.989   2.486  20.079
 3644SOL    HW122811   2.897   2.462  20.075
 3644SOL    HW222812   3.008   2.493  20.172
 3645SOL     OW22813   0.145   0.159  20.677
 3645SOL    HW122814   0.131   0.200  20.592
 3645SOL    HW222815   0.200   0.083  20.658
 3646SOL     OW22816   3.884   0.199   1.973
 3646SOL    HW122817   3.809   0.141   1.966
 3646SOL    HW222818   3.949   0.163   1.913
 3647SOL     OW22819   1.200   0.687   1.482
 3647SOL    HW122820   1.131   0.658   1.541
 3647SOL    HW222821   1.279   0.647   1.516
 3648SOL     OW22822   2.887   1.950   5.969
 3648SOL    HW122823   2.876   2.043   5.946
 3648SOL    HW222824   2.822   1.905   5.914
 3649SOL     OW22825   1.179   2.461  19.660
 3649SOL    HW122826   1.234   2.390  19.693
 3649SOL    HW222827   1.091   2.424  19.657
 3650SOL     OW22828   4.390   4.638   4.119
 3650SOL    HW122829   4.421   4.682   4.040
 3650SOL    HW222830   4.381   4.708   4.184
 3651SOL     OW22831   0.045   1.385   0.230
 3651SOL    HW122832   0.118   1.365   0.289
 3651SOL    HW222833   4.762   1.328   0.261
 3652SOL     OW22834   2.687   1.325   5.632
 3652SOL    HW122835   2.752   1.365   5.690
 3652SOL    HW222836   2.609   1.314   5.687
 3653SOL     OW22837   3.654   0.612   8.300
 3653SOL    HW122838   3.667   0.566   8.383
 3653SOL    HW222839   3.611   0.548   8.244
 3654SOL     OW22840   2.922   2.418   3.981
 3654SOL    HW122841   3.000   2.463   4.016
 3654SOL    HW222842   2.888   2.478   3.915
 3655SOL     OW22843   2.426   1.768  18.680
 3655SOL    HW122844   2.459   1.826  18.749
 3655SOL    HW222845   2.341   1.739  18.712
 3656SOL     OW22846   2.283   1.474  16.468
 3656SOL    HW122847   2.194   1.506  16.457
 3656SOL    HW222848   2.273   1.378  16.470
 3657SOL     OW22849   2.863   2.200   5.640
 3657SOL    HW122850   2.809   2.132   5.599
 3657SOL    HW222851   2.812   2.229   5.716
 3658SOL     OW22852   2.922   1.596  16.272
 3658SOL    HW122853   2.861   1.523  16.281
 3658SOL    HW222854   2.985   1.584  16.342
 3659SOL     OW22855   1.282   3.002   3.732
 3659SOL    HW122856   1.309   3.089   3.760
 3659SOL    HW222857   1.197   3.016   3.689
 3660SOL     OW22858   2.461   3.787   1.403
 3660SOL    HW122859   2.490   3.836   1.326
 3660SOL    HW222860   2.368   3.808   1.412
 3661SOL     OW22861   4.220   0.943  16.906
 3661SOL    HW122862   4.274   0.970  16.980
 3661SOL    HW222863   4.203   1.023  16.857
 3662SOL     OW22864   0.071   2.907   5.158
 3662SOL    HW122865   0.103   2.972   5.095
 3662SOL    HW222866   0.059   2.956   5.239
 3663SOL     OW22867   3.531   4.009   4.955
 3663SOL    HW122868   3.580   3.927   4.949
 3663SOL    HW222869   3.451   3.986   5.003
 3664SOL     OW22870   2.357   0.588  18.565
 3664SOL    HW122871   2.350   0.666  18.510
 3664SOL    HW222872   2.435   0.603  18.618
 3665SOL     OW22873   0.599   4.725   3.868
 3665SOL    HW122874   0.584   4.694   3.779
 3665SOL    HW222875   0.668   4.668   3.902
 3666SOL     OW22876   3.276   3.172   4.996
 3666SOL    HW122877   3.220   3.244   5.026
 3666SOL    HW222878   3.345   3.213   4.945
 3667SOL     OW22879   1.503   0.332   4.307
 3667SOL    HW122880   1.529   0.243   4.284
 3667SOL    HW222881   1.578   0.386   4.280
 3668SOL     OW22882   2.706   1.811   2.881
 3668SOL    HW122883   2.628   1.773   2.919
 3668SOL    HW222884   2.713   1.898   2.922
 3669SOL     OW22885   4.011   1.035  15.112
 3669SOL    HW122886   4.087   1.073  15.067
 3669SOL    HW222887   4.049   0.978  15.179
 3670SOL     OW22888   1.220   0.003   1.669
 3670SOL    HW122889   1.270   0.080   1.696
 3670SOL    HW222890   1.215   4.737   1.748
 3671SOL     OW22891   0.644   3.755   0.891
 3671SOL    HW122892   0.635   3.666   0.857
 3671SOL    HW222893   0.643   3.744   0.987
 3672SOL     OW22894   2.223   1.822  16.676
 3672SOL    HW122895   2.190   1.889  16.736
 3672SOL    HW222896   2.145   1.787  16.633
 3673SOL     OW22897   3.319   1.818  18.897
 3673SOL    HW122898   3.248   1.846  18.954
 3673SOL    HW222899   3.303   1.724  18.883
 3674SOL     OW22900   0.841   4.563   3.943
 3674SOL    HW122901   0.904   4.510   3.894
 3674SOL    HW222902   0.891   4.637   3.977
 3675SOL     OW22903   1.951   3.268   4.895
 3675SOL    HW122904   1.918   3.201   4.955
 3675SOL    HW222905   2.008   3.323   4.950
 3676SOL     OW22906   4.445   4.779   1.311
 3676SOL    HW122907   4.388   4.757   1.237
 3676SOL    HW222908   4.387   4.777   1.387
 3677SOL     OW22909   3.561   3.979   1.769
 3677SOL    HW122910   3.600   4.030   1.698
 3677SOL    HW222911   3.558   4.040   1.843
 3678SOL     OW22912   3.773   2.422  19.599
 3678SOL    HW122913   3.712   2.408  19.526
 3678SOL    HW222914   3.748   2.357  19.664
 3679SOL     OW22915   0.906   2.752   2.836
 3679SOL    HW122916   0.840   2.684   2.822
 3679SOL    HW222917   0.876   2.799   2.914
 3680SOL     OW22918   3.010   0.730  20.686
 3680SOL    HW122919   3.044   0.659  20.631
 3680SOL    HW222920   3.077   0.799  20.680
 3681SOL     OW22921   1.756   4.239   0.246
 3681SOL    HW122922   1.705   4.281   0.177
 3681SOL    HW222923   1.777   4.152   0.212
 3682SOL     OW22924   2.002   4.087   1.197
 3682SOL    HW122925   1.914   4.102   1.232
 3682SOL    HW222926   2.057   4.075   1.275
 3683SOL     OW22927   3.412   3.245   0.842
 3683SOL    HW122928   3.473   3.314   0.816
 3683SOL    HW222929   3.333   3.263   0.791
 3684SOL     OW22930   0.678   3.608  17.456
 3684SOL    HW122931   0.702   3.555  17.532
 3684SOL    HW222932   0.755   3.663  17.440
 3685SOL     OW22933   2.158   4.758   5.824
 3685SOL    HW122934   2.145   4.703   5.746
 3685SOL    HW222935   2.252   4.776   5.825
 3686SOL     OW22936   2.942   1.958  15.925
 3686SOL    HW122937   2.909   1.929  16.010
 3686SOL    HW222938   3.009   2.023  15.945
 3687SOL     OW22939   3.881   3.382  20.983
 3687SOL    HW122940   3.935   3.372  20.904
 3687SOL    HW222941   3.894   3.473  21.010
 3688SOL     OW22942   1.380   4.379  17.891
 3688SOL    HW122943   1.429   4.321  17.833
 3688SOL    HW222944   1.305   4.408  17.840
 3689SOL     OW22945   2.592   2.543   4.768
 3689SOL    HW122946   2.544   2.557   4.686
 3689SOL    HW222947   2.544   2.595   4.832
 3690SOL     OW22948   3.970   0.957  20.973
 3690SOL    HW122949   4.019   0.903  20.911
 3690SOL    HW222950   3.910   1.009  20.918
 3691SOL     OW22951   3.824   3.418   2.339
 3691SOL    HW122952   3.822   3.512   2.322
 3691SOL    HW222953   3.901   3.387   2.291
 3692SOL     OW22954   3.206   0.902  19.862
 3692SOL    HW122955   3.199   0.816  19.905
 3692SOL    HW222956   3.297   0.907  19.834
 3693SOL     OW22957   0.238   1.193   0.919
 3693SOL    HW122958   0.245   1.132   0.846
 3693SOL    HW222959   0.148   1.226   0.913
 3694SOL     OW22960   3.989   1.175  18.997
 3694SOL    HW122961   3.944   1.246  19.043
 3694SOL    HW222962   4.052   1.219  18.940
 3695SOL     OW22963   0.790   3.081   5.004
 3695SOL    HW122964   0.783   3.040   5.091
 3695SOL    HW222965   0.702   3.114   4.986
 3696SOL     OW22966   4.608   3.626   0.215
 3696SOL    HW122967   4.561   3.603   0.135
 3696SOL    HW222968   4.590   3.720   0.228
 3697SOL     OW22969   2.606   0.507  15.760
 3697SOL    HW122970   2.693   0.470  15.742
 3697SOL    HW222971   2.616   0.601  15.742
 3698SOL     OW22972   1.843   1.981  15.935
 3698SOL    HW122973   1.915   2.043  15.948
 3698SOL    HW222974   1.792   1.986  16.016
 3699SOL     OW22975   2.573   4.252   5.232
 3699SOL    HW122976   2.499   4.192   5.220
 3699SOL    HW222977   2.534   4.339   5.225
 3700SOL     OW22978   2.911   3.965  19.071
 3700SOL    HW122979   2.906   3.977  18.976
 3700SOL    HW222980   2.827   3.997  19.103
 3701SOL     OW22981   4.332   1.993   1.258
 3701SOL    HW122982   4.389   2.038   1.320
 3701SOL    HW222983   4.367   1.904   1.254
 3702SOL     OW22984   3.826   0.916   5.276
 3702SOL    HW122985   3.879   0.836   5.276
 3702SOL    HW222986   3.884   0.982   5.313
 3703SOL     OW22987   2.273   1.635  19.995
 3703SOL    HW122988   2.261   1.624  20.090
 3703SOL    HW222989   2.210   1.703  19.971
 3704SOL     OW22990   3.424   2.312   5.929
 3704SOL    HW122991   3.348   2.283   5.980
 3704SOL    HW222992   3.499   2.290   5.983
 3705SOL     OW22993   1.540   4.033  19.903
 3705SOL    HW122994   1.451   4.030  19.868
 3705SOL    HW222995   1.570   4.122  19.883
 3706SOL     OW22996   0.845   4.126   4.749
 3706SOL    HW122997   0.818   4.217   4.754
 3706SOL    HW222998   0.852   4.108   4.655
 3707SOL     OW22999   1.146   4.455   3.412
 3707SOL    HW123000   1.134   4.550   3.401
 3707SOL    HW223001   1.232   4.438   3.375
 3708SOL     OW23002   4.690   0.756   0.391
 3708SOL    HW123003   4.594   0.763   0.384
 3708SOL    HW223004   4.705   0.667   0.423
 3709SOL     OW23005   4.101   4.610   9.848
 3709SOL    HW123006   4.167   4.654   9.795
 3709SOL    HW223007   4.139   4.608   9.936
 3710SOL     OW23008   0.502   4.222   4.922
 3710SOL    HW123009   0.569   4.260   4.978
 3710SOL    HW223010   0.459   4.157   4.977
 3711SOL     OW23011   2.196   3.515  18.494
 3711SOL    HW123012   2.117   3.469  18.522
 3711SOL    HW223013   2.233   3.459  18.426
 3712SOL     OW23014   3.577   4.496  17.142
 3712SOL    HW123015   3.586   4.580  17.097
 3712SOL    HW223016   3.594   4.517  17.234
 3713SOL     OW23017   4.222   1.453  20.541
 3713SOL    HW123018   4.250   1.393  20.472
 3713SOL    HW223019   4.217   1.538  20.498
 3714SOL     OW23020   3.419   2.496  20.105
 3714SOL    HW123021   3.454   2.414  20.140
 3714SOL    HW223022   3.338   2.470  20.060
 3715SOL     OW23023   2.996   4.475   3.837
 3715SOL    HW123024   3.082   4.494   3.874
 3715SOL    HW223025   2.986   4.538   3.766
 3716SOL     OW23026   1.344   4.262   6.200
 3716SOL    HW123027   1.288   4.253   6.277
 3716SOL    HW223028   1.387   4.347   6.212
 3717SOL     OW23029   2.771   0.121  16.592
 3717SOL    HW123030   2.799   0.102  16.503
 3717SOL    HW223031   2.850   0.107  16.645
 3718SOL     OW23032   1.332   2.410  16.016
 3718SOL    HW123033   1.391   2.335  16.007
 3718SOL    HW223034   1.390   2.486  16.013
 3719SOL     OW23035   2.165   3.096  20.172
 3719SOL    HW123036   2.186   3.150  20.096
 3719SOL    HW223037   2.159   3.159  20.245
 3720SOL     OW23038   0.699   2.199  16.198
 3720SOL    HW123039   0.744   2.162  16.122
 3720SOL    HW223040   0.690   2.126  16.259
 3721SOL     OW23041   1.387   3.267  12.624
 3721SOL    HW123042   1.370   3.174  12.615
 3721SOL    HW223043   1.445   3.288  12.551
 3722SOL     OW23044   4.557   3.655  20.421
 3722SOL    HW123045   4.469   3.656  20.384
 3722SOL    HW223046   4.544   3.632  20.513
 3723SOL     OW23047   0.179   0.292  19.020
 3723SOL    HW123048   0.261   0.341  19.009
 3723SOL    HW223049   0.201   0.221  19.080
 3724SOL     OW23050   4.374   3.234  16.539
 3724SOL    HW123051   4.315   3.186  16.597
 3724SOL    HW223052   4.448   3.174  16.526
 3725SOL     OW23053   0.512   3.230  18.368
 3725SOL    HW123054   0.579   3.183  18.417
 3725SOL    HW223055   0.555   3.312  18.341
 3726SOL     OW23056   3.655   2.066   8.336
 3726SOL    HW123057   3.584   2.130   8.336
 3726SOL    HW223058   3.700   2.080   8.420
 3727SOL     OW23059   3.383   3.004  18.084
 3727SOL    HW123060   3.349   2.942  18.148
 3727SOL    HW223061   3.383   2.956  18.002
 3728SOL     OW23062   4.622   1.855  19.998
 3728SOL    HW123063   4.579   1.865  20.083
 3728SOL    HW223064   4.661   1.768  20.000
 3729SOL     OW23065   2.682   3.392   2.581
 3729SOL    HW123066   2.649   3.347   2.659
 3729SOL    HW223067   2.648   3.340   2.508
 3730SOL     OW23068   0.942   1.011  21.180
 3730SOL    HW123069   0.985   0.944  21.126
 3730SOL    HW223070   0.927   1.084  21.120
 3731SOL     OW23071   2.255   3.416  18.875
 3731SOL    HW123072   2.237   3.510  18.870
 3731SOL    HW223073   2.173   3.377  18.904
 3732SOL     OW23074   2.381   1.615   3.551
 3732SOL    HW123075   2.455   1.618   3.491
 3732SOL    HW223076   2.346   1.527   3.541
 3733SOL     OW23077   0.965   1.293   0.225
 3733SOL    HW123078   1.054   1.261   0.210
 3733SOL    HW223079   0.957   1.370   0.168
 3734SOL     OW23080   1.902   3.842  19.868
 3734SOL    HW123081   1.907   3.905  19.796
 3734SOL    HW223082   1.883   3.758  19.826
 3735SOL     OW23083   0.693   2.561   0.803
 3735SOL    HW123084   0.656   2.650   0.803
 3735SOL    HW223085   0.784   2.573   0.832
 3736SOL     OW23086   3.040   0.841  17.992
 3736SOL    HW123087   2.959   0.815  18.035
 3736SOL    HW223088   3.105   0.777  18.022
 3737SOL     OW23089   0.449   4.101   4.652
 3737SOL    HW123090   0.356   4.116   4.637
 3737SOL    HW223091   0.461   4.111   4.746
 3738SOL     OW23092   0.390   3.156  19.458
 3738SOL    HW123093   0.442   3.076  19.456
 3738SOL    HW223094   0.301   3.127  19.474
 3739SOL     OW23095   2.674   2.956  14.619
 3739SOL    HW123096   2.743   2.967  14.685
 3739SOL    HW223097   2.702   2.881  14.567
 3740SOL     OW23098   0.259   2.325   7.213
 3740SOL    HW123099   0.316   2.370   7.276
 3740SOL    HW223100   0.296   2.237   7.205
 3741SOL     OW23101   3.879   3.399  14.005
 3741SOL    HW123102   3.963   3.401  13.961
 3741SOL    HW223103   3.851   3.307  14.001
 3742SOL     OW23104   3.730   4.027  15.304
 3742SOL    HW123105   3.788   3.951  15.301
 3742SOL    HW223106   3.674   4.011  15.380
 3743SOL     OW23107   2.984   2.935  15.880
 3743SOL    HW123108   2.930   2.859  15.902
 3743SOL    HW223109   2.950   3.005  15.935
 3744SOL     OW23110   0.846   0.508  16.991
 3744SOL    HW123111   0.888   0.487  16.908
 3744SOL    HW223112   0.860   0.431  17.046
 3745SOL     OW23113   4.335   2.907   2.423
 3745SOL    HW123114   4.317   2.875   2.511
 3745SOL    HW223115   4.391   2.984   2.436
 3746SOL     OW23116   2.328   3.503   5.710
 3746SOL    HW123117   2.246   3.490   5.756
 3746SOL    HW223118   2.366   3.582   5.748
 3747SOL     OW23119   2.666   1.936  19.127
 3747SOL    HW123120   2.597   1.875  19.153
 3747SOL    HW223121   2.745   1.882  19.122
 3748SOL     OW23122   0.714   3.786  15.454
 3748SOL    HW123123   0.769   3.821  15.524
 3748SOL    HW223124   0.727   3.692  15.458
 3749SOL     OW23125   2.546   1.859   3.789
 3749SOL    HW123126   2.476   1.813   3.834
 3749SOL    HW223127   2.571   1.929   3.850
 3750SOL     OW23128   4.692   1.382  20.527
 3750SOL    HW123129   4.758   1.370  20.458
 3750SOL    HW223130   4.684   1.477  20.536
 3751SOL     OW23131   1.352   0.983   2.571
 3751SOL    HW123132   1.329   0.894   2.600
 3751SOL    HW223133   1.371   0.974   2.478
 3752SOL     OW23134   2.335   2.471  18.049
 3752SOL    HW123135   2.396   2.536  18.016
 3752SOL    HW223136   2.248   2.509  18.032
 3753SOL     OW23137   2.663   4.223  14.362
 3753SOL    HW123138   2.699   4.148  14.408
 3753SOL    HW223139   2.574   4.197  14.340
 3754SOL     OW23140   1.454   2.444   5.495
 3754SOL    HW123141   1.515   2.438   5.568
 3754SOL    HW223142   1.369   2.459   5.536
 3755SOL     OW23143   3.920   4.608  13.586
 3755SOL    HW123144   3.890   4.521  13.558
 3755SOL    HW223145   4.009   4.594  13.617
 3756SOL     OW23146   1.854   1.336  15.289
 3756SOL    HW123147   1.892   1.250  15.275
 3756SOL    HW223148   1.798   1.326  15.366
 3757SOL     OW23149   0.837   1.246  18.981
 3757SOL    HW123150   0.811   1.178  19.043
 3757SOL    HW223151   0.854   1.323  19.035
 3758SOL     OW23152   0.316   3.109  15.722
 3758SOL    HW123153   0.300   3.196  15.687
 3758SOL    HW223154   0.390   3.120  15.781
 3759SOL     OW23155   0.060   2.560  20.886
 3759SOL    HW123156   0.091   2.519  20.806
 3759SOL    HW223157   4.786   2.627  20.856
 3760SOL     OW23158   3.573   3.278  18.937
 3760SOL    HW123159   3.607   3.340  19.001
 3760SOL    HW223160   3.638   3.277  18.867
 3761SOL     OW23161   3.109   1.675  19.634
 3761SOL    HW123162   3.156   1.593  19.621
 3761SOL    HW223163   3.141   1.708  19.718
 3762SOL     OW23164   3.214   3.568  18.345
 3762SOL    HW123165   3.208   3.599  18.255
 3762SOL    HW223166   3.214   3.648  18.398
 3763SOL     OW23167   4.776   3.824  17.716
 3763SOL    HW123168   0.049   3.777  17.659
 3763SOL    HW223169   4.706   3.852  17.658
 3764SOL     OW23170   3.611   2.938  18.772
 3764SOL    HW123171   3.575   2.948  18.860
 3764SOL    HW223172   3.564   3.002  18.719
 3765SOL     OW23173   1.365   1.328   5.791
 3765SOL    HW123174   1.446   1.301   5.748
 3765SOL    HW223175   1.296   1.284   5.741
 3766SOL     OW23176   4.784   1.246   0.840
 3766SOL    HW123177   4.781   1.336   0.808
 3766SOL    HW223178   4.697   1.232   0.878
 3767SOL     OW23179   0.783   3.351   6.092
 3767SOL    HW123180   0.744   3.360   6.005
 3767SOL    HW223181   0.877   3.345   6.075
 3768SOL     OW23182   0.193   3.416   4.311
 3768SOL    HW123183   0.194   3.339   4.368
 3768SOL    HW223184   0.245   3.390   4.235
 3769SOL     OW23185   0.846   0.152  14.372
 3769SOL    HW123186   0.770   0.167  14.428
 3769SOL    HW223187   0.854   0.232  14.320
 3770SOL     OW23188   0.726   0.024  20.275
 3770SOL    HW123189   0.719   4.729  20.226
 3770SOL    HW223190   0.811   0.018  20.318
 3771SOL     OW23191   2.466   4.588  18.890
 3771SOL    HW123192   2.495   4.677  18.869
 3771SOL    HW223193   2.512   4.533  18.826
 3772SOL     OW23194   2.511   1.808   6.187
 3772SOL    HW123195   2.515   1.858   6.105
 3772SOL    HW223196   2.555   1.864   6.251
 3773SOL     OW23197   0.121   1.322   2.532
 3773SOL    HW123198   0.080   1.372   2.461
 3773SOL    HW223199   0.201   1.370   2.552
 3774SOL     OW23200   3.744   4.145  17.401
 3774SOL    HW123201   3.711   4.157  17.313
 3774SOL    HW223202   3.670   4.109  17.450
 3775SOL     OW23203   1.327   4.575  20.176
 3775SOL    HW123204   1.290   4.640  20.236
 3775SOL    HW223205   1.347   4.499  20.232
 3776SOL     OW23206   4.331   4.728  18.789
 3776SOL    HW123207   4.361   0.029  18.773
 3776SOL    HW223208   4.285   4.703  18.709
 3777SOL     OW23209   1.264   0.013  20.308
 3777SOL    HW123210   1.289   0.088  20.360
 3777SOL    HW223211   1.244   0.049  20.221
 3778SOL     OW23212   3.775   2.723  16.423
 3778SOL    HW123213   3.743   2.755  16.339
 3778SOL    HW223214   3.843   2.659  16.401
 3779SOL     OW23215   4.021   2.950  17.456
 3779SOL    HW123216   4.068   2.872  17.429
 3779SOL    HW223217   4.022   3.007  17.380
 3780SOL     OW23218   2.954   0.585  18.379
 3780SOL    HW123219   2.940   0.592  18.284
 3780SOL    HW223220   2.885   0.639  18.417
 3781SOL     OW23221   3.753   0.826  18.205
 3781SOL    HW123222   3.815   0.823  18.278
 3781SOL    HW223223   3.679   0.876  18.238
 3782SOL     OW23224   2.417   1.799  17.041
 3782SOL    HW123225   2.356   1.796  17.115
 3782SOL    HW223226   2.368   1.760  16.969
 3783SOL     OW23227   1.555   2.126   0.353
 3783SOL    HW123228   1.583   2.040   0.384
 3783SOL    HW223229   1.541   2.177   0.432
 3784SOL     OW23230   0.233   1.084  18.484
 3784SOL    HW123231   0.186   1.061  18.563
 3784SOL    HW223232   0.325   1.085  18.510
 3785SOL     OW23233   2.559   1.592  17.846
 3785SOL    HW123234   2.637   1.594  17.902
 3785SOL    HW223235   2.529   1.501  17.852
 3786SOL     OW23236   2.589   4.703   2.765
 3786SOL    HW123237   2.563   4.611   2.759
 3786SOL    HW223238   2.540   4.747   2.696
 3787SOL     OW23239   4.775   2.723  18.843
 3787SOL    HW123240   4.779   2.706  18.748
 3787SOL    HW223241   4.765   2.818  18.849
 3788SOL     OW23242   1.105   0.231   0.343
 3788SOL    HW123243   1.145   0.257   0.260
 3788SOL    HW223244   1.043   0.301   0.363
 3789SOL     OW23245   1.301   3.639   4.869
 3789SOL    HW123246   1.353   3.558   4.868
 3789SOL    HW223247   1.361   3.705   4.903
 3790SOL     OW23248   4.566   3.018   2.205
 3790SOL    HW123249   4.490   3.013   2.148
 3790SOL    HW223250   4.534   3.061   2.285
 3791SOL     OW23251   4.409   3.435   6.561
 3791SOL    HW123252   4.379   3.478   6.641
 3791SOL    HW223253   4.460   3.360   6.591
 3792SOL     OW23254   1.372   4.358   2.081
 3792SOL    HW123255   1.311   4.377   2.010
 3792SOL    HW223256   1.343   4.414   2.153
 3793SOL     OW23257   0.917   3.921  16.023
 3793SOL    HW123258   0.842   3.896  15.969
 3793SOL    HW223259   0.961   3.838  16.043
 3794SOL     OW23260   2.628   0.641   4.341
 3794SOL    HW123261   2.554   0.654   4.282
 3794SOL    HW223262   2.588   0.623   4.426
 3795SOL     OW23263   0.460   1.594   4.181
 3795SOL    HW123264   0.460   1.663   4.114
 3795SOL    HW223265   0.370   1.562   4.183
 3796SOL     OW23266   2.017   4.681   3.864
 3796SOL    HW123267   2.083   4.749   3.876
 3796SOL    HW223268   2.055   4.621   3.800
 3797SOL     OW23269   3.202   3.460   5.014
 3797SOL    HW123270   3.223   3.514   4.937
 3797SOL    HW223271   3.279   3.468   5.070
 3798SOL     OW23272   3.163   0.183  16.510
 3798SOL    HW123273   3.248   0.226  16.506
 3798SOL    HW223274   3.183   0.090  16.523
 3799SOL     OW23275   1.465   0.933   4.205
 3799SOL    HW123276   1.513   1.007   4.243
 3799SOL    HW223277   1.406   0.973   4.141
 3800SOL     OW23278   2.789   2.168   4.024
 3800SOL    HW123279   2.854   2.119   4.075
 3800SOL    HW223280   2.840   2.236   3.980
 3801SOL     OW23281   3.842   0.255  15.559
 3801SOL    HW123282   3.823   0.334  15.508
 3801SOL    HW223283   3.907   0.208  15.506
 3802SOL     OW23284   3.522   2.538  20.702
 3802SOL    HW123285   3.495   2.596  20.631
 3802SOL    HW223286   3.614   2.518  20.684
 3803SOL     OW23287   1.014   4.234  13.651
 3803SOL    HW123288   1.078   4.295  13.688
 3803SOL    HW223289   0.930   4.279  13.662
 3804SOL     OW23290   0.956   4.646   2.719
 3804SOL    HW123291   0.883   4.706   2.732
 3804SOL    HW223292   0.948   4.582   2.790
 3805SOL     OW23293   0.140   0.363  15.687
 3805SOL    HW123294   0.049   0.392  15.673
 3805SOL    HW223295   0.183   0.440  15.724
 3806SOL     OW23296   3.188   2.171   5.980
 3806SOL    HW123297   3.248   2.104   5.946
 3806SOL    HW223298   3.169   2.144   6.070
 3807SOL     OW23299   2.236   4.185   3.047
 3807SOL    HW123300   2.269   4.137   3.123
 3807SOL    HW223301   2.298   4.167   2.977
 3808SOL     OW23302   3.838   1.730  12.718
 3808SOL    HW123303   3.772   1.788  12.755
 3808SOL    HW223304   3.802   1.704  12.633
 3809SOL     OW23305   4.141   0.329  15.539
 3809SOL    HW123306   4.076   0.360  15.602
 3809SOL    HW223307   4.098   0.256  15.494
 3810SOL     OW23308   1.746   0.411  17.047
 3810SOL    HW123309   1.815   0.438  17.107
 3810SOL    HW223310   1.787   0.411  16.960
 3811SOL     OW23311   3.283   0.079  13.096
 3811SOL    HW123312   3.300   0.130  13.175
 3811SOL    HW223313   3.267   0.144  13.028
 3812SOL     OW23314   2.997   3.664   1.893
 3812SOL    HW123315   2.921   3.719   1.909
 3812SOL    HW223316   3.053   3.678   1.969
 3813SOL     OW23317   0.856   1.822   0.537
 3813SOL    HW123318   0.786   1.775   0.492
 3813SOL    HW223319   0.901   1.870   0.468
 3814SOL     OW23320   4.502   0.811   0.805
 3814SOL    HW123321   4.419   0.830   0.761
 3814SOL    HW223322   4.519   0.889   0.858
 3815SOL     OW23323   3.530   4.769   4.907
 3815SOL    HW123324   3.578   0.027   4.976
 3815SOL    HW223325   3.490   0.051   4.855
 3816SOL     OW23326   3.157   4.487  11.599
 3816SOL    HW123327   3.084   4.445  11.551
 3816SOL    HW223328   3.173   4.429  11.673
 3817SOL     OW23329   4.658   2.070  17.776
 3817SOL    HW123330   4.615   2.142  17.823
 3817SOL    HW223331   4.676   2.105  17.689
 3818SOL     OW23332   1.754   2.075   8.763
 3818SOL    HW123333   1.709   1.995   8.737
 3818SOL    HW223334   1.791   2.056   8.849
 3819SOL     OW23335   2.309   0.624   0.446
 3819SOL    HW123336   2.392   0.593   0.483
 3819SOL    HW223337   2.256   0.647   0.522
 3820SOL     OW23338   4.226   0.260  16.958
 3820SOL    HW123339   4.317   0.288  16.948
 3820SOL    HW223340   4.203   0.221  16.874
 3821SOL     OW23341   2.488   1.516   6.698
 3821SOL    HW123342   2.435   1.501   6.776
 3821SOL    HW223343   2.510   1.609   6.701
 3822SOL     OW23344   1.283   3.858  18.203
 3822SOL    HW123345   1.223   3.926  18.171
 3822SOL    HW223346   1.250   3.837  18.290
 3823SOL     OW23347   3.553   4.133  18.007
 3823SOL    HW123348   3.470   4.133  17.959
 3823SOL    HW223349   3.620   4.131  17.938
 3824SOL     OW23350   0.767   2.350  17.225
 3824SOL    HW123351   0.849   2.368  17.271
 3824SOL    HW223352   0.793   2.345  17.133
 3825SOL     OW23353   1.356   4.480  15.464
 3825SOL    HW123354   1.445   4.498  15.495
 3825SOL    HW223355   1.300   4.534  15.520
 3826SOL     OW23356   3.248   2.701  14.925
 3826SOL    HW123357   3.231   2.659  15.009
 3826SOL    HW223358   3.244   2.795  14.944
 3827SOL     OW23359   4.618   1.496   5.344
 3827SOL    HW123360   4.650   1.556   5.412
 3827SOL    HW223361   4.646   1.409   5.373
 3828SOL     OW23362   4.318   0.496  15.423
 3828SOL    HW123363   4.257   0.453  15.363
 3828SOL    HW223364   4.307   0.450  15.506
 3829SOL     OW23365   1.122   0.130   6.441
 3829SOL    HW123366   1.069   0.210   6.436
 3829SOL    HW223367   1.212   0.163   6.445
 3830SOL     OW23368   3.408   4.027  20.514
 3830SOL    HW123369   3.401   3.934  20.538
 3830SOL    HW223370   3.318   4.057  20.509
 3831SOL     OW23371   0.148   2.560  20.086
 3831SOL    HW123372   0.212   2.604  20.029
 3831SOL    HW223373   0.133   2.476  20.043
 3832SOL     OW23374   0.751   0.154  16.019
 3832SOL    HW123375   0.703   0.237  16.032
 3832SOL    HW223376   0.832   0.166  16.069
 3833SOL     OW23377   0.290   1.686   3.304
 3833SOL    HW123378   0.236   1.607   3.306
 3833SOL    HW223379   0.232   1.756   3.334
 3834SOL     OW23380   4.725   0.332  19.745
 3834SOL    HW123381   0.030   0.325  19.769
 3834SOL    HW223382   4.690   0.245  19.761
 3835SOL     OW23383   3.673   2.828   2.063
 3835SOL    HW123384   3.677   2.858   2.154
 3835SOL    HW223385   3.652   2.907   2.013
 3836SOL     OW23386   0.434   4.104  17.882
 3836SOL    HW123387   0.353   4.128  17.927
 3836SOL    HW223388   0.438   4.164  17.807
 3837SOL     OW23389   0.602   0.439   4.018
 3837SOL    HW123390   0.626   0.393   4.098
 3837SOL    HW223391   0.570   0.370   3.960
 3838SOL     OW23392   2.057   1.344  18.236
 3838SOL    HW123393   2.128   1.284  18.261
 3838SOL    HW223394   2.087   1.430  18.264
 3839SOL     OW23395   0.920   2.477  15.147
 3839SOL    HW123396   0.858   2.404  15.146
 3839SOL    HW223397   0.866   2.553  15.169
 3840SOL     OW23398   2.289   1.526  16.173
 3840SOL    HW123399   2.283   1.584  16.098
 3840SOL    HW223400   2.346   1.571  16.235
 3841SOL     OW23401   3.907   0.603   4.884
 3841SOL    HW123402   3.827   0.638   4.845
 3841SOL    HW223403   3.978   0.648   4.837
 3842SOL     OW23404   3.942   3.038   3.773
 3842SOL    HW123405   3.987   3.103   3.827
 3842SOL    HW223406   3.933   2.962   3.830
 3843SOL     OW23407   0.992   2.282  17.752
 3843SOL    HW123408   0.971   2.369  17.787
 3843SOL    HW223409   1.006   2.227  17.829
 3844SOL     OW23410   1.731   1.016  15.462
 3844SOL    HW123411   1.720   1.000  15.368
 3844SOL    HW223412   1.646   1.048  15.491
 3845SOL     OW23413   3.507   4.654  20.697
 3845SOL    HW123414   3.572   4.710  20.654
 3845SOL    HW223415   3.479   4.593  20.629
 3846SOL     OW23416   0.286   3.413   1.126
 3846SOL    HW123417   0.285   3.504   1.158
 3846SOL    HW223418   0.193   3.392   1.115
 3847SOL     OW23419   4.099   3.123  18.392
 3847SOL    HW123420   4.023   3.169  18.356
 3847SOL    HW223421   4.171   3.184  18.382
 3848SOL     OW23422   1.154   1.065  16.814
 3848SOL    HW123423   1.125   1.154  16.791
 3848SOL    HW223424   1.082   1.009  16.785
 3849SOL     OW23425   0.466   1.578   2.855
 3849SOL    HW123426   0.554   1.617   2.850
 3849SOL    HW223427   0.480   1.486   2.835
 3850SOL     OW23428   0.062   4.588   3.335
 3850SOL    HW123429   0.016   4.670   3.315
 3850SOL    HW223430   4.781   4.526   3.358
 3851SOL     OW23431   4.769   0.211   0.627
 3851SOL    HW123432   0.076   0.221   0.623
 3851SOL    HW223433   4.740   0.220   0.537
 3852SOL     OW23434   4.053   3.219  12.946
 3852SOL    HW123435   4.002   3.153  12.993
 3852SOL    HW223436   4.034   3.202  12.854
 3853SOL     OW23437   3.007   2.559   1.646
 3853SOL    HW123438   2.928   2.591   1.605
 3853SOL    HW223439   2.979   2.526   1.732
 3854SOL     OW23440   3.497   3.895   0.192
 3854SOL    HW123441   3.497   3.812   0.240
 3854SOL    HW223442   3.439   3.952   0.242
 3855SOL     OW23443   1.357   3.893   1.085
 3855SOL    HW123444   1.444   3.862   1.063
 3855SOL    HW223445   1.343   3.968   1.027
 3856SOL     OW23446   1.338   1.015  14.621
 3856SOL    HW123447   1.334   1.073  14.697
 3856SOL    HW223448   1.398   1.059  14.561
 3857SOL     OW23449   3.475   1.597   5.716
 3857SOL    HW123450   3.442   1.659   5.781
 3857SOL    HW223451   3.543   1.548   5.762
 3858SOL     OW23452   2.820   3.075  15.466
 3858SOL    HW123453   2.797   3.028  15.546
 3858SOL    HW223454   2.850   3.160  15.496
 3859SOL     OW23455   2.646   4.261  14.637
 3859SOL    HW123456   2.635   4.286  14.729
 3859SOL    HW223457   2.558   4.241  14.606
 3860SOL     OW23458   0.219   4.327  17.134
 3860SOL    HW123459   0.247   4.410  17.096
 3860SOL    HW223460   0.245   4.261  17.069
 3861SOL     OW23461   3.670   2.939  14.920
 3861SOL    HW123462   3.710   2.992  14.851
 3861SOL    HW223463   3.589   2.906  14.880
 3862SOL     OW23464   3.229   1.064  19.088
 3862SOL    HW123465   3.227   1.101  19.000
 3862SOL    HW223466   3.190   1.131  19.144
 3863SOL     OW23467   1.454   0.628   2.283
 3863SOL    HW123468   1.397   0.600   2.211
 3863SOL    HW223469   1.425   0.717   2.302
 3864SOL     OW23470   3.549   4.279  19.674
 3864SOL    HW123471   3.565   4.186  19.655
 3864SOL    HW223472   3.590   4.292  19.760
 3865SOL     OW23473   0.213   1.873  18.717
 3865SOL    HW123474   0.132   1.880  18.667
 3865SOL    HW223475   0.202   1.937  18.788
 3866SOL     OW23476   0.793   3.323   0.489
 3866SOL    HW123477   0.819   3.284   0.406
 3866SOL    HW223478   0.863   3.300   0.550
 3867SOL     OW23479   1.679   0.014   1.625
 3867SOL    HW123480   1.774   0.005   1.620
 3867SOL    HW223481   1.651   0.030   1.535
 3868SOL     OW23482   0.225   3.690  15.016
 3868SOL    HW123483   0.280   3.612  15.007
 3868SOL    HW223484   0.161   3.682  14.946
 3869SOL     OW23485   2.485   2.275   5.653
 3869SOL    HW123486   2.511   2.184   5.643
 3869SOL    HW223487   2.553   2.313   5.709
 3870SOL     OW23488   3.745   4.732   3.464
 3870SOL    HW123489   3.759   0.033   3.430
 3870SOL    HW223490   3.704   4.685   3.392
 3871SOL     OW23491   3.163   1.188   2.609
 3871SOL    HW123492   3.135   1.103   2.643
 3871SOL    HW223493   3.081   1.234   2.589
 3872SOL     OW23494   4.567   1.359   4.450
 3872SOL    HW123495   4.533   1.338   4.363
 3872SOL    HW223496   4.526   1.295   4.507
 3873SOL     OW23497   4.269   3.848  18.057
 3873SOL    HW123498   4.256   3.909  18.129
 3873SOL    HW223499   4.261   3.902  17.978
 3874SOL     OW23500   3.882   1.137   8.372
 3874SOL    HW123501   3.957   1.121   8.429
 3874SOL    HW223502   3.849   1.049   8.351
 3875SOL     OW23503   1.463   1.253  20.658
 3875SOL    HW123504   1.501   1.202  20.729
 3875SOL    HW223505   1.422   1.328  20.702
 3876SOL     OW23506   1.076   0.014   0.513
 3876SOL    HW123507   1.083   0.036   0.606
 3876SOL    HW223508   1.056   0.097   0.470
 3877SOL     OW23509   0.854   0.775  15.508
 3877SOL    HW123510   0.908   0.714  15.457
 3877SOL    HW223511   0.918   0.829  15.555
 3878SOL     OW23512   0.113   3.590   2.195
 3878SOL    HW123513   0.102   3.507   2.243
 3878SOL    HW223514   0.195   3.626   2.227
 3879SOL     OW23515   0.007   4.362  14.367
 3879SOL    HW123516   0.077   4.398  14.421
 3879SOL    HW223517   0.040   4.277  14.338
 3880SOL     OW23518   4.013   2.872  16.827
 3880SOL    HW123519   3.946   2.845  16.890
 3880SOL    HW223520   3.966   2.881  16.744
 3881SOL     OW23521   3.089   4.324   3.567
 3881SOL    HW123522   3.068   4.404   3.613
 3881SOL    HW223523   3.026   4.259   3.600
 3882SOL     OW23524   1.708   4.188  15.985
 3882SOL    HW123525   1.637   4.188  15.920
 3882SOL    HW223526   1.694   4.269  16.035
 3883SOL     OW23527   1.988   4.274  18.841
 3883SOL    HW123528   2.077   4.307  18.855
 3883SOL    HW223529   1.995   4.222  18.760
 3884SOL     OW23530   3.862   0.846   1.216
 3884SOL    HW123531   3.857   0.939   1.238
 3884SOL    HW223532   3.802   0.836   1.142
 3885SOL     OW23533   3.035   4.643   1.819
 3885SOL    HW123534   2.942   4.663   1.833
 3885SOL    HW223535   3.076   4.728   1.808
 3886SOL     OW23536   0.555   2.127   1.864
 3886SOL    HW123537   0.578   2.038   1.890
 3886SOL    HW223538   0.533   2.171   1.946
 3887SOL     OW23539   3.389   1.902  17.976
 3887SOL    HW123540   3.335   1.920  17.899
 3887SOL    HW223541   3.334   1.847  18.031
 3888SOL     OW23542   3.213   0.482   5.146
 3888SOL    HW123543   3.302   0.449   5.148
 3888SOL    HW223544   3.219   0.571   5.180
 3889SOL     OW23545   0.956   3.321   3.076
 3889SOL    HW123546   0.976   3.253   3.140
 3889SOL    HW223547   0.924   3.273   2.999
 3890SOL     OW23548   2.594   3.981   1.961
 3890SOL    HW123549   2.672   3.956   1.912
 3890SOL    HW223550   2.523   3.930   1.921
 3891SOL     OW23551   2.660   0.153   1.124
 3891SOL    HW123552   2.599   0.096   1.171
 3891SOL    HW223553   2.723   0.093   1.083
 3892SOL     OW23554   0.517   4.482  15.425
 3892SOL    HW123555   0.432   4.527  15.427
 3892SOL    HW223556   0.499   4.398  15.383
 3893SOL     OW23557   1.685   3.940   4.680
 3893SOL    HW123558   1.659   4.001   4.611
 3893SOL    HW223559   1.623   3.868   4.674
 3894SOL     OW23560   0.748   4.553   7.603
 3894SOL    HW123561   0.684   4.624   7.601
 3894SOL    HW223562   0.826   4.592   7.643
 3895SOL     OW23563   4.070   2.359  18.841
 3895SOL    HW123564   4.132   2.305  18.891
 3895SOL    HW223565   4.125   2.422  18.794
 3896SOL     OW23566   3.784   0.098  14.664
 3896SOL    HW123567   3.820   0.074  14.579
 3896SOL    HW223568   3.826   0.182  14.685
 3897SOL     OW23569   1.984   1.651  21.233
 3897SOL    HW123570   2.020   1.730  21.194
 3897SOL    HW223571   1.989   1.585  21.164
 3898SOL     OW23572   2.179   0.838  13.077
 3898SOL    HW123573   2.091   0.807  13.053
 3898SOL    HW223574   2.186   0.924  13.037
 3899SOL     OW23575   1.552   2.958   1.871
 3899SOL    HW123576   1.642   2.928   1.873
 3899SOL    HW223577   1.500   2.879   1.856
 3900SOL     OW23578   2.281   1.758   5.977
 3900SOL    HW123579   2.269   1.827   5.911
 3900SOL    HW223580   2.197   1.753   6.023
 3901SOL     OW23581   4.243   1.728   1.425
 3901SOL    HW123582   4.170   1.785   1.400
 3901SOL    HW223583   4.204   1.662   1.482
 3902SOL     OW23584   2.552   0.323  16.620
 3902SOL    HW123585   2.537   0.283  16.534
 3902SOL    HW223586   2.633   0.283  16.651
 3903SOL     OW23587   2.733   4.719  17.637
 3903SOL    HW123588   2.753   0.010  17.688
 3903SOL    HW223589   2.735   4.748  17.546
 3904SOL     OW23590   4.774   4.616  14.795
 3904SOL    HW123591   4.768   4.701  14.752
 3904SOL    HW223592   4.691   4.607  14.841
 3905SOL     OW23593   4.224   1.059  17.521
 3905SOL    HW123594   4.155   1.077  17.457
 3905SOL    HW223595   4.196   0.977  17.562
 3906SOL     OW23596   3.826   1.667  19.356
 3906SOL    HW123597   3.809   1.681  19.449
 3906SOL    HW223598   3.746   1.625  19.324
 3907SOL     OW23599   4.643   4.056   5.948
 3907SOL    HW123600   4.674   3.966   5.958
 3907SOL    HW223601   4.670   4.081   5.860
 3908SOL     OW23602   1.474   4.665  20.455
 3908SOL    HW123603   1.407   4.677  20.388
 3908SOL    HW223604   1.526   4.745  20.451
 3909SOL     OW23605   3.519   2.834   4.081
 3909SOL    HW123606   3.496   2.798   3.995
 3909SOL    HW223607   3.502   2.928   4.074
 3910SOL     OW23608   4.079   4.684  17.921
 3910SOL    HW123609   4.028   4.604  17.932
 3910SOL    HW223610   4.153   4.674  17.980
 3911SOL     OW23611   4.521   3.555  19.417
 3911SOL    HW123612   4.607   3.546  19.459
 3911SOL    HW223613   4.462   3.578  19.488
 3912SOL     OW23614   4.218   4.656  18.551
 3912SOL    HW123615   4.248   4.568  18.531
 3912SOL    HW223616   4.122   4.650  18.545
 3913SOL     OW23617   4.314   4.328  18.495
 3913SOL    HW123618   4.307   4.319  18.400
 3913SOL    HW223619   4.357   4.246  18.524
 3914SOL     OW23620   4.158   4.366   6.188
 3914SOL    HW123621   4.242   4.403   6.162
 3914SOL    HW223622   4.181   4.290   6.242
 3915SOL     OW23623   2.251   2.780   7.934
 3915SOL    HW123624   2.220   2.854   7.986
 3915SOL    HW223625   2.185   2.768   7.865
 3916SOL     OW23626   2.103   4.408  14.435
 3916SOL    HW123627   2.046   4.355  14.380
 3916SOL    HW223628   2.190   4.368  14.426
 3917SOL     OW23629   1.475   0.631  21.048
 3917SOL    HW123630   1.525   0.639  21.129
 3917SOL    HW223631   1.417   0.556  21.062
 3918SOL     OW23632   2.420   1.544   5.643
 3918SOL    HW123633   2.371   1.559   5.724
 3918SOL    HW223634   2.480   1.472   5.665
 3919SOL     OW23635   0.894   1.601  17.198
 3919SOL    HW123636   0.824   1.559  17.149
 3919SOL    HW223637   0.850   1.666  17.253
 3920SOL     OW23638   2.560   1.201   6.451
 3920SOL    HW123639   2.554   1.118   6.404
 3920SOL    HW223640   2.484   1.251   6.420
 3921SOL     OW23641   3.411   4.699  20.147
 3921SOL    HW123642   3.396   4.651  20.065
 3921SOL    HW223643   3.335   4.675  20.202
 3922SOL     OW23644   0.347   1.106   1.378
 3922SOL    HW123645   0.400   1.167   1.430
 3922SOL    HW223646   0.361   1.134   1.288
 3923SOL     OW23647   1.112   1.311  17.586
 3923SOL    HW123648   1.117   1.406  17.594
 3923SOL    HW223649   1.028   1.295  17.543
 3924SOL     OW23650   2.238   0.926  16.642
 3924SOL    HW123651   2.332   0.911  16.634
 3924SOL    HW223652   2.213   0.877  16.721
 3925SOL     OW23653   0.954   3.746  17.898
 3925SOL    HW123654   0.866   3.772  17.927
 3925SOL    HW223655   0.968   3.795  17.817
 3926SOL     OW23656   1.232   3.761   0.675
 3926SOL    HW123657   1.203   3.677   0.640
 3926SOL    HW223658   1.234   3.819   0.599
 3927SOL     OW23659   0.169   4.221   2.766
 3927SOL    HW123660   0.151   4.128   2.783
 3927SOL    HW223661   0.245   4.240   2.821
 3928SOL     OW23662   3.228   2.980  18.342
 3928SOL    HW123663   3.135   2.963  18.356
 3928SOL    HW223664   3.268   2.893  18.340
 3929SOL     OW23665   1.180   4.055  17.761
 3929SOL    HW123666   1.250   4.042  17.825
 3929SOL    HW223667   1.119   4.115  17.804
 3930SOL     OW23668   0.569   4.707  19.796
 3930SOL    HW123669   0.551   4.712  19.703
 3930SOL    HW223670   0.520   4.779  19.835
 3931SOL     OW23671   0.471   0.635   6.106
 3931SOL    HW123672   0.486   0.647   6.012
 3931SOL    HW223673   0.384   0.672   6.121
 3932SOL     OW23674   0.488   3.788   6.520
 3932SOL    HW123675   0.492   3.881   6.542
 3932SOL    HW223676   0.573   3.753   6.548
 3933SOL     OW23677   1.333   0.098   2.932
 3933SOL    HW123678   1.251   0.065   2.969
 3933SOL    HW223679   1.400   0.036   2.962
 3934SOL     OW23680   3.891   4.754  16.289
 3934SOL    HW123681   3.971   4.704  16.305
 3934SOL    HW223682   3.916   0.031  16.223
 3935SOL     OW23683   0.787   0.271  10.012
 3935SOL    HW123684   0.741   0.210   9.955
 3935SOL    HW223685   0.872   0.230  10.027
 3936SOL     OW23686   0.822   2.001  14.702
 3936SOL    HW123687   0.861   2.003  14.615
 3936SOL    HW223688   0.831   1.910  14.730
 3937SOL     OW23689   1.503   2.601   5.987
 3937SOL    HW123690   1.582   2.547   5.987
 3937SOL    HW223691   1.440   2.551   5.935
 3938SOL     OW23692   2.506   3.588   6.403
 3938SOL    HW123693   2.600   3.600   6.408
 3938SOL    HW223694   2.495   3.500   6.366
 3939SOL     OW23695   2.228   0.396  18.785
 3939SOL    HW123696   2.304   0.426  18.736
 3939SOL    HW223697   2.257   0.393  18.876
 3940SOL     OW23698   3.421   3.044   2.646
 3940SOL    HW123699   3.405   3.127   2.601
 3940SOL    HW223700   3.452   2.985   2.578
 3941SOL     OW23701   3.307   2.022  17.250
 3941SOL    HW123702   3.400   2.037  17.265
 3941SOL    HW223703   3.287   1.942  17.299
 3942SOL     OW23704   1.790   4.292  20.204
 3942SOL    HW123705   1.713   4.323  20.158
 3942SOL    HW223706   1.824   4.370  20.249
 3943SOL     OW23707   1.658   3.906  20.123
 3943SOL    HW123708   1.619   3.960  20.054
 3943SOL    HW223709   1.639   3.816  20.097
 3944SOL     OW23710   3.184   1.621  17.553
 3944SOL    HW123711   3.112   1.677  17.580
 3944SOL    HW223712   3.237   1.611  17.632
 3945SOL     OW23713   1.608   0.985   2.705
 3945SOL    HW123714   1.516   1.000   2.682
 3945SOL    HW223715   1.619   0.890   2.698
 3946SOL     OW23716   1.001   0.044  18.436
 3946SOL    HW123717   1.053   4.773  18.490
 3946SOL    HW223718   0.922   4.782  18.415
 3947SOL     OW23719   4.242   4.116   8.902
 3947SOL    HW123720   4.309   4.058   8.869
 3947SOL    HW223721   4.209   4.073   8.982
 3948SOL     OW23722   2.449   3.761   9.042
 3948SOL    HW123723   2.454   3.857   9.034
 3948SOL    HW223724   2.526   3.737   9.092
 3949SOL     OW23725   0.370   0.648   5.348
 3949SOL    HW123726   0.455   0.610   5.369
 3949SOL    HW223727   0.310   0.609   5.412
 3950SOL     OW23728   4.014   0.727   5.332
 3950SOL    HW123729   4.038   0.644   5.373
 3950SOL    HW223730   4.095   0.778   5.332
 3951SOL     OW23731   2.501   1.819   4.169
 3951SOL    HW123732   2.478   1.848   4.257
 3951SOL    HW223733   2.593   1.844   4.159
 3952SOL     OW23734   4.211   3.546   5.048
 3952SOL    HW123735   4.234   3.520   5.137
 3952SOL    HW223736   4.215   3.465   4.997
 3953SOL     OW23737   2.493   2.459  20.108
 3953SOL    HW123738   2.408   2.436  20.146
 3953SOL    HW223739   2.472   2.503  20.026
 3954SOL     OW23740   0.179   2.478  16.182
 3954SOL    HW123741   0.248   2.542  16.197
 3954SOL    HW223742   0.164   2.479  16.087
 3955SOL     OW23743   3.726   0.215   4.426
 3955SOL    HW123744   3.739   0.261   4.508
 3955SOL    HW223745   3.789   0.143   4.428
 3956SOL     OW23746   0.369   3.569   1.575
 3956SOL    HW123747   0.279   3.564   1.543
 3956SOL    HW223748   0.402   3.479   1.566
 3957SOL     OW23749   1.671   2.124  19.229
 3957SOL    HW123750   1.670   2.205  19.279
 3957SOL    HW223751   1.726   2.065  19.281
 3958SOL     OW23752   4.621   4.579  15.501
 3958SOL    HW123753   4.564   4.655  15.500
 3958SOL    HW223754   4.680   4.591  15.427
 3959SOL     OW23755   0.195   0.777  16.754
 3959SOL    HW123756   0.245   0.700  16.728
 3959SOL    HW223757   0.131   0.744  16.817
 3960SOL     OW23758   3.590   2.697   2.866
 3960SOL    HW123759   3.552   2.613   2.893
 3960SOL    HW223760   3.593   2.692   2.771
 3961SOL     OW23761   1.368   4.046  17.270
 3961SOL    HW123762   1.305   4.064  17.201
 3961SOL    HW223763   1.342   4.103  17.342
 3962SOL     OW23764   3.363   0.327  20.865
 3962SOL    HW123765   3.391   0.330  20.956
 3962SOL    HW223766   3.407   0.249  20.829
 3963SOL     OW23767   2.180   1.700   2.448
 3963SOL    HW123768   2.204   1.746   2.368
 3963SOL    HW223769   2.203   1.760   2.519
 3964SOL     OW23770   4.459   2.298  15.726
 3964SOL    HW123771   4.494   2.348  15.652
 3964SOL    HW223772   4.524   2.230  15.743
 3965SOL     OW23773   3.796   3.303   0.099
 3965SOL    HW123774   3.833   3.259   0.175
 3965SOL    HW223775   3.866   3.301   0.034
 3966SOL     OW23776   1.005   2.103   2.690
 3966SOL    HW123777   0.928   2.149   2.724
 3966SOL    HW223778   1.019   2.031   2.751
 3967SOL     OW23779   3.379   0.557   1.339
 3967SOL    HW123780   3.448   0.503   1.299
 3967SOL    HW223781   3.422   0.640   1.359
 3968SOL     OW23782   3.265   4.494   1.256
 3968SOL    HW123783   3.281   4.588   1.261
 3968SOL    HW223784   3.349   4.454   1.279
 3969SOL     OW23785   4.223   3.486   2.395
 3969SOL    HW123786   4.246   3.579   2.387
 3969SOL    HW223787   4.161   3.483   2.468
 3970SOL     OW23788   4.664   4.350   4.667
 3970SOL    HW123789   4.641   4.271   4.715
 3970SOL    HW223790   4.598   4.414   4.694
 3971SOL     OW23791   4.491   3.806  17.039
 3971SOL    HW123792   4.579   3.840  17.024
 3971SOL    HW223793   4.443   3.828  16.958
 3972SOL     OW23794   3.604   1.992  16.979
 3972SOL    HW123795   3.584   1.903  17.009
 3972SOL    HW223796   3.520   2.036  16.977
 3973SOL     OW23797   3.903   0.399  19.531
 3973SOL    HW123798   3.943   0.376  19.615
 3973SOL    HW223799   3.959   0.468  19.496
 3974SOL     OW23800   4.609   2.798  16.350
 3974SOL    HW123801   4.559   2.765  16.275
 3974SOL    HW223802   4.546   2.796  16.422
 3975SOL     OW23803   2.094   3.194   0.814
 3975SOL    HW123804   2.116   3.128   0.880
 3975SOL    HW223805   2.007   3.170   0.783
 3976SOL     OW23806   1.953   0.972  17.738
 3976SOL    HW123807   1.899   0.966  17.817
 3976SOL    HW223808   1.895   0.943  17.668
 3977SOL     OW23809   3.394   4.733   2.834
 3977SOL    HW123810   3.389   4.694   2.921
 3977SOL    HW223811   3.479   4.705   2.800
 3978SOL     OW23812   3.731   1.908  18.353
 3978SOL    HW123813   3.739   1.963  18.430
 3978SOL    HW223814   3.646   1.932  18.315
 3979SOL     OW23815   4.232   3.972   1.292
 3979SOL    HW123816   4.244   3.994   1.199
 3979SOL    HW223817   4.320   3.978   1.330
 3980SOL     OW23818   4.260   3.300  20.869
 3980SOL    HW123819   4.283   3.383  20.827
 3980SOL    HW223820   4.342   3.250  20.872
 3981SOL     OW23821   3.830   2.754  15.808
 3981SOL    HW123822   3.821   2.659  15.815
 3981SOL    HW223823   3.917   2.773  15.842
 3982SOL     OW23824   0.761   0.412   5.867
 3982SOL    HW123825   0.747   0.463   5.787
 3982SOL    HW223826   0.738   0.323   5.842
 3983SOL     OW23827   0.929   1.775   3.473
 3983SOL    HW123828   0.837   1.758   3.497
 3983SOL    HW223829   0.978   1.710   3.523
 3984SOL     OW23830   2.301   0.354   5.912
 3984SOL    HW123831   2.277   0.356   5.819
 3984SOL    HW223832   2.232   0.303   5.953
 3985SOL     OW23833   3.699   0.981  15.923
 3985SOL    HW123834   3.606   1.003  15.935
 3985SOL    HW223835   3.745   1.062  15.944
 3986SOL     OW23836   3.794   1.226  16.993
 3986SOL    HW123837   3.747   1.233  17.076
 3986SOL    HW223838   3.732   1.256  16.928
 3987SOL     OW23839   2.201   1.420  20.723
 3987SOL    HW123840   2.219   1.326  20.726
 3987SOL    HW223841   2.254   1.452  20.650
 3988SOL     OW23842   4.196   0.615  18.538
 3988SOL    HW123843   4.191   0.687  18.475
 3988SOL    HW223844   4.247   0.651  18.611
 3989SOL     OW23845   2.189   1.626   4.746
 3989SOL    HW123846   2.200   1.690   4.817
 3989SOL    HW223847   2.226   1.545   4.781
 3990SOL     OW23848   3.238   4.378  18.727
 3990SOL    HW123849   3.331   4.372  18.708
 3990SOL    HW223850   3.229   4.453  18.785
 3991SOL     OW23851   0.913   1.576   2.098
 3991SOL    HW123852   0.940   1.501   2.045
 3991SOL    HW223853   0.827   1.552   2.132
 3992SOL     OW23854   0.539   3.441   4.342
 3992SOL    HW123855   0.469   3.441   4.276
 3992SOL    HW223856   0.575   3.530   4.339
 3993SOL     OW23857   2.741   0.111  15.879
 3993SOL    HW123858   2.810   0.167  15.844
 3993SOL    HW223859   2.727   0.143  15.969
 3994SOL     OW23860   3.909   4.123   5.007
 3994SOL    HW123861   4.002   4.100   5.013
 3994SOL    HW223862   3.877   4.072   4.933
 3995SOL     OW23863   2.151   3.235   5.917
 3995SOL    HW123864   2.219   3.174   5.947
 3995SOL    HW223865   2.085   3.233   5.987
 3996SOL     OW23866   4.677   2.733  20.729
 3996SOL    HW123867   4.750   2.785  20.696
 3996SOL    HW223868   4.599   2.775  20.692
 3997SOL     OW23869   0.691   2.825  19.831
 3997SOL    HW123870   0.724   2.739  19.805
 3997SOL    HW223871   0.769   2.879  19.841
 3998SOL     OW23872   4.574   0.071  17.943
 3998SOL    HW123873   4.557   4.768  17.966
 3998SOL    HW223874   4.649   0.067  17.883
 3999SOL     OW23875   3.625   3.353  19.377
 3999SOL    HW123876   3.683   3.279  19.359
 3999SOL    HW223877   3.544   3.333  19.332
 4000SOL     OW23878   1.186   1.007  19.851
 4000SOL    HW123879   1.152   1.066  19.784
 4000SOL    HW223880   1.264   1.052  19.884
 4001SOL     OW23881   0.778   2.716   0.538
 4001SOL    HW123882   0.765   2.626   0.508
 4001SOL    HW223883   0.806   2.707   0.629
 4002SOL     OW23884   1.583   2.747  14.151
 4002SOL    HW123885   1.519   2.785  14.090
 4002SOL    HW223886   1.601   2.817  14.213
 4003SOL     OW23887   1.747   0.377   1.253
 4003SOL    HW123888   1.734   0.333   1.170
 4003SOL    HW223889   1.768   0.468   1.230
 4004SOL     OW23890   0.935   0.149   5.998
 4004SOL    HW123891   0.886   0.191   5.928
 4004SOL    HW223892   0.937   0.056   5.973
 4005SOL     OW23893   4.623   1.234  16.020
 4005SOL    HW123894   4.564   1.187  16.080
 4005SOL    HW223895   4.623   1.324  16.053
 4006SOL     OW23896   3.885   0.823  20.289
 4006SOL    HW123897   3.958   0.823  20.227
 4006SOL    HW223898   3.918   0.776  20.365
 4007SOL     OW23899   1.158   2.253  18.092
 4007SOL    HW123900   1.141   2.335  18.046
 4007SOL    HW223901   1.166   2.188  18.023
 4008SOL     OW23902   2.797   2.875   0.813
 4008SOL    HW123903   2.831   2.963   0.800
 4008SOL    HW223904   2.757   2.876   0.900
 4009SOL     OW23905   1.078   4.262  20.070
 4009SOL    HW123906   1.033   4.342  20.097
 4009SOL    HW223907   1.150   4.291  20.015
 4010SOL     OW23908   4.595   3.961   5.656
 4010SOL    HW123909   4.552   4.043   5.633
 4010SOL    HW223910   4.688   3.978   5.640
 4011SOL     OW23911   1.263   1.390  17.265
 4011SOL    HW123912   1.274   1.307  17.312
 4011SOL    HW223913   1.352   1.423  17.254
 4012SOL     OW23914   4.027   0.144   2.684
 4012SOL    HW123915   4.019   0.235   2.714
 4012SOL    HW223916   4.004   0.147   2.591
 4013SOL     OW23917   3.182   1.093   5.805
 4013SOL    HW123918   3.091   1.098   5.776
 4013SOL    HW223919   3.183   1.138   5.889
 4014SOL     OW23920   0.724   3.096   5.945
 4014SOL    HW123921   0.721   3.183   5.905
 4014SOL    HW223922   0.809   3.093   5.989
 4015SOL     OW23923   3.875   1.208  15.916
 4015SOL    HW123924   3.903   1.293  15.884
 4015SOL    HW223925   3.940   1.183  15.981
 4016SOL     OW23926   2.190   3.349   7.866
 4016SOL    HW123927   2.224   3.342   7.956
 4016SOL    HW223928   2.097   3.328   7.874
 4017SOL     OW23929   2.089   3.530   4.292
 4017SOL    HW123930   2.058   3.610   4.333
 4017SOL    HW223931   2.185   3.535   4.298
 4018SOL     OW23932   2.746   3.323   5.297
 4018SOL    HW123933   2.734   3.317   5.392
 4018SOL    HW223934   2.834   3.287   5.282
 4019SOL     OW23935   1.162   0.473  11.766
 4019SOL    HW123936   1.238   0.494  11.711
 4019SOL    HW223937   1.087   0.509  11.718
 4020SOL     OW23938   4.405   0.908  20.156
 4020SOL    HW123939   4.315   0.896  20.187
 4020SOL    HW223940   4.423   0.829  20.105
 4021SOL     OW23941   4.267   4.261   2.446
 4021SOL    HW123942   4.350   4.240   2.489
 4021SOL    HW223943   4.216   4.306   2.513
 4022SOL     OW23944   0.579   0.491   2.307
 4022SOL    HW123945   0.510   0.556   2.317
 4022SOL    HW223946   0.544   0.427   2.245
 4023SOL     OW23947   2.321   3.010   4.115
 4023SOL    HW123948   2.319   2.939   4.050
 4023SOL    HW223949   2.264   3.077   4.078
 4024SOL     OW23950   1.707   0.242   1.007
 4024SOL    HW123951   1.685   0.151   1.028
 4024SOL    HW223952   1.658   0.260   0.927
 4025SOL     OW23953   3.743   3.136  20.788
 4025SOL    HW123954   3.803   3.210  20.772
 4025SOL    HW223955   3.736   3.093  20.703
 4026SOL     OW23956   3.014   0.120  16.714
 4026SOL    HW123957   3.062   0.153  16.638
 4026SOL    HW223958   3.059   0.039  16.739
 4027SOL     OW23959   1.472   4.014   4.210
 4027SOL    HW123960   1.377   4.016   4.199
 4027SOL    HW223961   1.488   3.934   4.261
 4028SOL     OW23962   4.696   4.156  17.669
 4028SOL    HW123963   4.612   4.145  17.624
 4028SOL    HW223964   4.746   4.077  17.647
 4029SOL     OW23965   0.555   0.678  18.474
 4029SOL    HW123966   0.587   0.626  18.401
 4029SOL    HW223967   0.611   0.655  18.548
 4030SOL     OW23968   1.674   0.239  16.393
 4030SOL    HW123969   1.759   0.246  16.438
 4030SOL    HW223970   1.679   0.156  16.346
 4031SOL     OW23971   0.094   1.628  16.017
 4031SOL    HW123972   0.092   1.605  15.924
 4031SOL    HW223973   0.108   1.723  16.017
 4032SOL     OW23974   3.047   4.138  17.732
 4032SOL    HW123975   3.039   4.219  17.682
 4032SOL    HW223976   2.960   4.124  17.770
 4033SOL     OW23977   0.215   0.956   0.108
 4033SOL    HW123978   0.262   0.872   0.109
 4033SOL    HW223979   0.128   0.936   0.143
 4034SOL     OW23980   4.483   2.356  13.942
 4034SOL    HW123981   4.471   2.351  14.037
 4034SOL    HW223982   4.577   2.345  13.929
 4035SOL     OW23983   0.815   1.349  18.578
 4035SOL    HW123984   0.849   1.436  18.597
 4035SOL    HW223985   0.730   1.365  18.536
 4036SOL     OW23986   2.408   4.014   2.182
 4036SOL    HW123987   2.444   4.072   2.250
 4036SOL    HW223988   2.476   4.010   2.115
 4037SOL     OW23989   3.605   2.161   3.140
 4037SOL    HW123990   3.665   2.210   3.084
 4037SOL    HW223991   3.647   2.076   3.151
 4038SOL     OW23992   3.551   1.247   0.997
 4038SOL    HW123993   3.459   1.241   0.969
 4038SOL    HW223994   3.558   1.331   1.041
 4039SOL     OW23995   4.242   1.005   5.942
 4039SOL    HW123996   4.209   1.012   5.853
 4039SOL    HW223997   4.293   0.924   5.943
 4040SOL     OW23998   0.585   3.866  12.543
 4040SOL    HW123999   0.541   3.948  12.565
 4040SOL    HW224000   0.580   3.813  12.623
 4041SOL     OW24001   0.841   2.952   0.467
 4041SOL    HW124002   0.811   2.870   0.506
 4041SOL    HW224003   0.844   2.934   0.373
 4042SOL     OW24004   1.935   0.611   4.196
 4042SOL    HW124005   1.955   0.597   4.103
 4042SOL    HW224006   1.908   0.703   4.201
 4043SOL     OW24007   0.694   2.797  21.123
 4043SOL    HW124008   0.651   2.761  21.200
 4043SOL    HW224009   0.635   2.866  21.093
 4044SOL     OW24010   2.888   2.131  17.642
 4044SOL    HW124011   2.969   2.094  17.606
 4044SOL    HW224012   2.908   2.144  17.735
 4045SOL     OW24013   4.372   4.186   2.196
 4045SOL    HW124014   4.343   4.240   2.123
 4045SOL    HW224015   4.359   4.240   2.273
 4046SOL     OW24016   1.296   2.407  11.748
 4046SOL    HW124017   1.296   2.374  11.658
 4046SOL    HW224018   1.310   2.328  11.801
 4047SOL     OW24019   1.908   1.911  18.590
 4047SOL    HW124020   1.966   1.885  18.518
 4047SOL    HW224021   1.963   1.964  18.647
 4048SOL     OW24022   0.658   4.048   7.563
 4048SOL    HW124023   0.628   4.128   7.605
 4048SOL    HW224024   0.716   4.078   7.492
 4049SOL     OW24025   3.566   0.070  19.041
 4049SOL    HW124026   3.569   0.152  19.090
 4049SOL    HW224027   3.497   0.083  18.976
 4050SOL     OW24028   0.133   3.859  16.157
 4050SOL    HW124029   0.076   3.790  16.124
 4050SOL    HW224030   0.110   3.936  16.106
 4051SOL     OW24031   3.778   4.539   4.364
 4051SOL    HW124032   3.684   4.554   4.369
 4051SOL    HW224033   3.787   4.456   4.318
 4052SOL     OW24034   2.661   4.080  15.706
 4052SOL    HW124035   2.588   4.063  15.764
 4052SOL    HW224036   2.701   3.995  15.691
 4053SOL     OW24037   3.629   1.210  17.676
 4053SOL    HW124038   3.560   1.150  17.651
 4053SOL    HW224039   3.689   1.157  17.729
 4054SOL     OW24040   3.376   4.578   2.211
 4054SOL    HW124041   3.298   4.601   2.263
 4054SOL    HW224042   3.449   4.588   2.272
 4055SOL     OW24043   3.126   2.104  21.197
 4055SOL    HW124044   3.044   2.117  21.244
 4055SOL    HW224045   3.166   2.028  21.239
 4056SOL     OW24046   3.169   2.720   1.373
 4056SOL    HW124047   3.186   2.811   1.348
 4056SOL    HW224048   3.209   2.712   1.460
 4057SOL     OW24049   4.572   4.483   2.609
 4057SOL    HW124050   4.554   4.515   2.697
 4057SOL    HW224051   4.597   4.391   2.622
 4058SOL     OW24052   3.688   4.014  16.993
 4058SOL    HW124053   3.756   3.989  17.056
 4058SOL    HW224054   3.686   4.109  16.995
 4059SOL     OW24055   0.418   4.067  12.645
 4059SOL    HW124056   0.383   4.027  12.725
 4059SOL    HW224057   0.431   4.159  12.668
 4060SOL     OW24058   2.822   4.003  13.679
 4060SOL    HW124059   2.780   3.918  13.669
 4060SOL    HW224060   2.883   3.991  13.752
 4061SOL     OW24061   2.169   1.169   6.036
 4061SOL    HW124062   2.211   1.255   6.032
 4061SOL    HW224063   2.239   1.107   6.015
 4062SOL     OW24064   2.082   0.407   5.479
 4062SOL    HW124065   2.056   0.390   5.388
 4062SOL    HW224066   2.060   0.499   5.494
 4063SOL     OW24067   2.685   1.104   5.486
 4063SOL    HW124068   2.644   1.052   5.555
 4063SOL    HW224069   2.713   1.184   5.530
 4064SOL     OW24070   2.800   2.209  15.573
 4064SOL    HW124071   2.830   2.281  15.628
 4064SOL    HW224072   2.790   2.247  15.486
 4065SOL     OW24073   2.041   2.248  16.615
 4065SOL    HW124074   2.095   2.311  16.568
 4065SOL    HW224075   2.012   2.187  16.547
 4066SOL     OW24076   3.836   0.194   4.871
 4066SOL    HW124077   3.861   0.110   4.833
 4066SOL    HW224078   3.903   0.255   4.840
 4067SOL     OW24079   3.068   4.669  16.449
 4067SOL    HW124080   3.102   4.603  16.389
 4067SOL    HW224081   3.025   4.733  16.392
 4068SOL     OW24082   3.794   0.189   3.347
 4068SOL    HW124083   3.838   0.270   3.372
 4068SOL    HW224084   3.726   0.216   3.285
 4069SOL     OW24085   4.537   3.964  17.324
 4069SOL    HW124086   4.442   3.970  17.334
 4069SOL    HW224087   4.549   3.933  17.234
 4070SOL     OW24088   2.450   2.151  18.325
 4070SOL    HW124089   2.442   2.060  18.354
 4070SOL    HW224090   2.436   2.148  18.230
 4071SOL     OW24091   1.934   0.784   3.705
 4071SOL    HW124092   1.869   0.748   3.645
 4071SOL    HW224093   2.014   0.790   3.653
 4072SOL     OW24094   3.678   3.458  20.650
 4072SOL    HW124095   3.652   3.379  20.602
 4072SOL    HW224096   3.758   3.487  20.607
 4073SOL     OW24097   1.405   3.532   1.115
 4073SOL    HW124098   1.484   3.585   1.102
 4073SOL    HW224099   1.400   3.520   1.210
 4074SOL     OW24100   4.551   1.642   4.512
 4074SOL    HW124101   4.561   1.548   4.496
 4074SOL    HW224102   4.463   1.663   4.482
 4075SOL     OW24103   4.325   3.125  17.553
 4075SOL    HW124104   4.363   3.178  17.623
 4075SOL    HW224105   4.248   3.083  17.593
 4076SOL     OW24106   1.500   4.250   7.226
 4076SOL    HW124107   1.563   4.187   7.190
 4076SOL    HW224108   1.468   4.209   7.306
 4077SOL     OW24109   1.710   4.085   7.422
 4077SOL    HW124110   1.799   4.050   7.425
 4077SOL    HW224111   1.703   4.140   7.500
 4078SOL     OW24112   3.476   1.570   4.674
 4078SOL    HW124113   3.454   1.663   4.676
 4078SOL    HW224114   3.461   1.540   4.763
 4079SOL     OW24115   3.982   2.275  17.497
 4079SOL    HW124116   4.045   2.203  17.488
 4079SOL    HW224117   4.024   2.337  17.556
 4080SOL     OW24118   4.554   3.926  20.299
 4080SOL    HW124119   4.525   3.977  20.375
 4080SOL    HW224120   4.542   3.835  20.325
 4081SOL     OW24121   2.975   2.782   3.057
 4081SOL    HW124122   2.904   2.718   3.053
 4081SOL    HW224123   3.053   2.733   3.031
 4082SOL     OW24124   4.412   0.624   0.977
 4082SOL    HW124125   4.327   0.595   0.944
 4082SOL    HW224126   4.438   0.694   0.918
 4083SOL     OW24127   1.865   2.309   6.173
 4083SOL    HW124128   1.939   2.321   6.114
 4083SOL    HW224129   1.795   2.363   6.137
 4084SOL     OW24130   0.833   0.952   4.404
 4084SOL    HW124131   0.852   0.923   4.493
 4084SOL    HW224132   0.791   1.038   4.415
 4085SOL     OW24133   1.976   4.410   3.387
 4085SOL    HW124134   1.972   4.490   3.439
 4085SOL    HW224135   2.039   4.430   3.318
 4086SOL     OW24136   1.690   3.376   4.353
 4086SOL    HW124137   1.647   3.433   4.289
 4086SOL    HW224138   1.742   3.316   4.300
 4087SOL     OW24139   2.029   0.199  18.727
 4087SOL    HW124140   2.102   0.262  18.732
 4087SOL    HW224141   2.037   0.147  18.808
 4088SOL     OW24142   3.610   2.579   7.244
 4088SOL    HW124143   3.642   2.494   7.213
 4088SOL    HW224144   3.601   2.568   7.339
 4089SOL     OW24145   1.873   2.241  15.669
 4089SOL    HW124146   1.870   2.152  15.706
 4089SOL    HW224147   1.791   2.281  15.696
 4090SOL     OW24148   3.688   1.871   4.956
 4090SOL    HW124149   3.717   1.818   4.882
 4090SOL    HW224150   3.615   1.922   4.921
 4091SOL     OW24151   0.493   0.269  19.474
 4091SOL    HW124152   0.534   0.334  19.531
 4091SOL    HW224153   0.519   0.184  19.511
 4092SOL     OW24154   1.003   1.709   4.490
 4092SOL    HW124155   0.950   1.700   4.570
 4092SOL    HW224156   1.092   1.720   4.521
 4093SOL     OW24157   2.539   1.536  17.119
 4093SOL    HW124158   2.500   1.620  17.094
 4093SOL    HW224159   2.633   1.554  17.123
 4094SOL     OW24160   3.351   4.010  13.035
 4094SOL    HW124161   3.310   3.944  13.091
 4094SOL    HW224162   3.285   4.080  13.030
 4095SOL     OW24163   0.364   1.041   2.685
 4095SOL    HW124164   0.391   0.997   2.604
 4095SOL    HW224165   0.269   1.048   2.678
 4096SOL     OW24166   1.251   3.429   4.531
 4096SOL    HW124167   1.245   3.521   4.506
 4096SOL    HW224168   1.240   3.430   4.627
 4097SOL     OW24169   3.836   0.020   0.254
 4097SOL    HW124170   3.815   4.735   0.312
 4097SOL    HW224171   3.795   4.785   0.171
 4098SOL     OW24172   0.550   2.424   0.230
 4098SOL    HW124173   0.455   2.412   0.230
 4098SOL    HW224174   0.573   2.432   0.322
 4099SOL     OW24175   0.978   3.931  11.447
 4099SOL    HW124176   1.012   4.021  11.442
 4099SOL    HW224177   0.989   3.897  11.358
 4100SOL     OW24178   0.844   1.012   0.600
 4100SOL    HW124179   0.777   0.961   0.555
 4100SOL    HW224180   0.922   0.957   0.597
 4101SOL     OW24181   0.262   3.121  19.894
 4101SOL    HW124182   0.341   3.073  19.870
 4101SOL    HW224183   0.233   3.162  19.812
 4102SOL     OW24184   0.976   2.525   6.006
 4102SOL    HW124185   0.982   2.451   6.067
 4102SOL    HW224186   0.931   2.593   6.055
 4103SOL     OW24187   0.764   2.225   0.494
 4103SOL    HW124188   0.712   2.188   0.566
 4103SOL    HW224189   0.835   2.162   0.480
 4104SOL     OW24190   4.398   4.779  17.691
 4104SOL    HW124191   4.354   0.065  17.733
 4104SOL    HW224192   4.413   4.717  17.763
 4105SOL     OW24193   1.780   1.782   3.180
 4105SOL    HW124194   1.844   1.738   3.235
 4105SOL    HW224195   1.713   1.716   3.163
 4106SOL     OW24196   4.361   3.414  18.895
 4106SOL    HW124197   4.452   3.386  18.886
 4106SOL    HW224198   4.330   3.369  18.973
 4107SOL     OW24199   0.661   3.598  15.802
 4107SOL    HW124200   0.738   3.647  15.829
 4107SOL    HW224201   0.587   3.655  15.823
 4108SOL     OW24202   1.581   1.500   6.793
 4108SOL    HW124203   1.501   1.449   6.779
 4108SOL    HW224204   1.628   1.451   6.860
 4109SOL     OW24205   3.267   4.321   5.839
 4109SOL    HW124206   3.262   4.374   5.759
 4109SOL    HW224207   3.330   4.252   5.817
 4110SOL     OW24208   1.865   3.340  19.178
 4110SOL    HW124209   1.855   3.303  19.266
 4110SOL    HW224210   1.777   3.337  19.140
 4111SOL     OW24211   1.652   2.458   2.874
 4111SOL    HW124212   1.726   2.480   2.930
 4111SOL    HW224213   1.662   2.513   2.797
 4112SOL     OW24214   2.621   4.272  12.310
 4112SOL    HW124215   2.641   4.351  12.361
 4112SOL    HW224216   2.550   4.230  12.358
 4113SOL     OW24217   4.364   2.514  20.713
 4113SOL    HW124218   4.405   2.490  20.796
 4113SOL    HW224219   4.403   2.455  20.649
 4114SOL     OW24220   4.232   0.232  14.825
 4114SOL    HW124221   4.296   0.270  14.886
 4114SOL    HW224222   4.169   0.188  14.881
 4115SOL     OW24223   4.504   1.953   6.058
 4115SOL    HW124224   4.520   1.967   5.965
 4115SOL    HW224225   4.516   2.039   6.097
 4116SOL     OW24226   3.625   4.149  14.619
 4116SOL    HW124227   3.709   4.176  14.584
 4116SOL    HW224228   3.575   4.120  14.543
 4117SOL     OW24229   4.297   2.873  14.088
 4117SOL    HW124230   4.325   2.962  14.068
 4117SOL    HW224231   4.374   2.830  14.125
 4118SOL     OW24232   2.263   1.532   1.870
 4118SOL    HW124233   2.205   1.556   1.941
 4118SOL    HW224234   2.337   1.593   1.878
 4119SOL     OW24235   4.174   2.334  16.631
 4119SOL    HW124236   4.111   2.369  16.694
 4119SOL    HW224237   4.121   2.296  16.562
 4120SOL     OW24238   0.848   4.011   4.453
 4120SOL    HW124239   0.847   3.979   4.363
 4120SOL    HW224240   0.761   3.989   4.488
 4121SOL     OW24241   1.897   1.326   1.284
 4121SOL    HW124242   1.903   1.298   1.376
 4121SOL    HW224243   1.811   1.295   1.255
 4122SOL     OW24244   4.741   2.333  19.044
 4122SOL    HW124245   0.042   2.352  19.014
 4122SOL    HW224246   4.698   2.418  19.050
 4123SOL     OW24247   3.905   3.322   6.571
 4123SOL    HW124248   3.820   3.285   6.546
 4123SOL    HW224249   3.905   3.317   6.667
 4124SOL     OW24250   3.868   0.876   2.478
 4124SOL    HW124251   3.850   0.892   2.386
 4124SOL    HW224252   3.910   0.957   2.508
 4125SOL     OW24253   0.058   3.187  20.058
 4125SOL    HW124254   0.082   3.116  20.118
 4125SOL    HW224255   0.129   3.188  19.993
 4126SOL     OW24256   3.415   3.509   4.014
 4126SOL    HW124257   3.357   3.526   4.088
 4126SOL    HW224258   3.403   3.585   3.957
 4127SOL     OW24259   2.772   1.700   7.771
 4127SOL    HW124260   2.832   1.627   7.760
 4127SOL    HW224261   2.732   1.686   7.857
 4128SOL     OW24262   4.620   4.290  16.423
 4128SOL    HW124263   4.686   4.272  16.491
 4128SOL    HW224264   4.597   4.382  16.435
 4129SOL     OW24265   2.054   0.231  20.934
 4129SOL    HW124266   2.028   0.253  21.024
 4129SOL    HW224267   2.129   0.173  20.944
 4130SOL     OW24268   1.316   2.416   5.886
 4130SOL    HW124269   1.280   2.451   5.804
 4130SOL    HW224270   1.255   2.347   5.911
 4131SOL     OW24271   2.078   3.604   1.505
 4131SOL    HW124272   2.053   3.512   1.506
 4131SOL    HW224273   2.012   3.648   1.558
 4132SOL     OW24274   4.392   0.437  13.724
 4132SOL    HW124275   4.415   0.482  13.806
 4132SOL    HW224276   4.379   0.346  13.749
 4133SOL     OW24277   1.124   2.515   5.315
 4133SOL    HW124278   1.169   2.585   5.363
 4133SOL    HW224279   1.156   2.524   5.225
 4134SOL     OW24280   0.296   0.990  17.450
 4134SOL    HW124281   0.379   0.964  17.488
 4134SOL    HW224282   0.260   1.054  17.512
 4135SOL     OW24283   3.889   4.732  14.441
 4135SOL    HW124284   3.797   4.737  14.415
 4135SOL    HW224285   3.929   0.022  14.403
 4136SOL     OW24286   2.492   2.724   2.473
 4136SOL    HW124287   2.423   2.716   2.539
 4136SOL    HW224288   2.514   2.634   2.450
 4137SOL     OW24289   4.204   0.480   3.115
 4137SOL    HW124290   4.184   0.574   3.121
 4137SOL    HW224291   4.119   0.437   3.117
 4138SOL     OW24292   0.975   2.190   1.021
 4138SOL    HW124293   0.935   2.198   0.934
 4138SOL    HW224294   0.970   2.097   1.041
 4139SOL     OW24295   4.215   3.261   1.194
 4139SOL    HW124296   4.159   3.197   1.152
 4139SOL    HW224297   4.178   3.273   1.281
 4140SOL     OW24298   1.221   3.411  18.251
 4140SOL    HW124299   1.233   3.370  18.166
 4140SOL    HW224300   1.307   3.449  18.271
 4141SOL     OW24301   1.615   4.174   3.109
 4141SOL    HW124302   1.652   4.093   3.074
 4141SOL    HW224303   1.660   4.244   3.061
 4142SOL     OW24304   2.731   3.268  19.867
 4142SOL    HW124305   2.779   3.345  19.834
 4142SOL    HW224306   2.641   3.283  19.839
 4143SOL     OW24307   1.164   3.675   3.036
 4143SOL    HW124308   1.221   3.717   3.101
 4143SOL    HW224309   1.137   3.593   3.077
 4144SOL     OW24310   4.550   0.885   5.566
 4144SOL    HW124311   4.497   0.958   5.536
 4144SOL    HW224312   4.634   0.896   5.520
 4145SOL     OW24313   2.447   2.427  16.855
 4145SOL    HW124314   2.379   2.404  16.791
 4145SOL    HW224315   2.401   2.475  16.923
 4146SOL     OW24316   3.565   3.055   3.817
 4146SOL    HW124317   3.589   3.124   3.755
 4146SOL    HW224318   3.472   3.040   3.801
 4147SOL     OW24319   0.004   1.815  14.499
 4147SOL    HW124320   0.001   1.910  14.487
 4147SOL    HW224321   0.043   1.782  14.418
 4148SOL     OW24322   0.322   1.561   3.900
 4148SOL    HW124323   0.294   1.493   3.839
 4148SOL    HW224324   0.241   1.609   3.921
 4149SOL     OW24325   3.320   2.704  15.606
 4149SOL    HW124326   3.262   2.636  15.642
 4149SOL    HW224327   3.280   2.786  15.633
 4150SOL     OW24328   3.830   2.854  17.044
 4150SOL    HW124329   3.803   2.937  17.084
 4150SOL    HW224330   3.888   2.814  17.109
 4151SOL     OW24331   4.404   1.957  17.064
 4151SOL    HW124332   4.481   1.930  17.015
 4151SOL    HW224333   4.437   1.981  17.150
 4152SOL     OW24334   2.999   4.125   5.109
 4152SOL    HW124335   3.037   4.162   5.029
 4152SOL    HW224336   2.937   4.191   5.139
 4153SOL     OW24337   1.302   2.188   3.365
 4153SOL    HW124338   1.357   2.110   3.369
 4153SOL    HW224339   1.216   2.155   3.340
 4154SOL     OW24340   0.227   4.708  14.528
 4154SOL    HW124341   0.231   4.640  14.595
 4154SOL    HW224342   0.315   4.747  14.529
 4155SOL     OW24343   1.954   0.340  14.545
 4155SOL    HW124344   1.964   0.290  14.464
 4155SOL    HW224345   1.931   0.274  14.611
 4156SOL     OW24346   1.934   0.574   3.200
 4156SOL    HW124347   1.845   0.569   3.235
 4156SOL    HW224348   1.959   0.484   3.182
 4157SOL     OW24349   2.026   0.601   2.258
 4157SOL    HW124350   1.976   0.640   2.187
 4157SOL    HW224351   1.975   0.617   2.337
 4158SOL     OW24352   2.491   2.018  16.830
 4158SOL    HW124353   2.480   1.974  16.746
 4158SOL    HW224354   2.502   1.948  16.893
 4159SOL     OW24355   0.982   3.061  17.838
 4159SOL    HW124356   1.013   3.036  17.925
 4159SOL    HW224357   1.023   3.146  17.822
 4160SOL     OW24358   3.727   2.249  16.423
 4160SOL    HW124359   3.647   2.207  16.390
 4160SOL    HW224360   3.729   2.226  16.516
 4161SOL     OW24361   0.192   3.799   6.770
 4161SOL    HW124362   0.187   3.718   6.719
 4161SOL    HW224363   0.251   3.778   6.843
 4162SOL     OW24364   0.876   1.479   1.537
 4162SOL    HW124365   0.884   1.435   1.621
 4162SOL    HW224366   0.796   1.531   1.544
 4163SOL     OW24367   4.212   1.187  16.762
 4163SOL    HW124368   4.184   1.271  16.799
 4163SOL    HW224369   4.151   1.171  16.690
 4164SOL     OW24370   1.166   0.066   5.246
 4164SOL    HW124371   1.187   4.764   5.271
 4164SOL    HW224372   1.216   0.121   5.306
 4165SOL     OW24373   3.197   0.809  19.479
 4165SOL    HW124374   3.135   0.760  19.532
 4165SOL    HW224375   3.147   0.838  19.403
 4166SOL     OW24376   0.625   2.687  17.125
 4166SOL    HW124377   0.700   2.686  17.184
 4166SOL    HW224378   0.550   2.671  17.182
 4167SOL     OW24379   2.698   1.693  15.085
 4167SOL    HW124380   2.690   1.600  15.065
 4167SOL    HW224381   2.639   1.737  15.024
 4168SOL     OW24382   3.266   2.481   0.464
 4168SOL    HW124383   3.287   2.433   0.544
 4168SOL    HW224384   3.333   2.454   0.402
 4169SOL     OW24385   0.634   1.138   0.747
 4169SOL    HW124386   0.712   1.085   0.731
 4169SOL    HW224387   0.565   1.094   0.697
 4170SOL     OW24388   0.823   1.420   3.159
 4170SOL    HW124389   0.846   1.497   3.107
 4170SOL    HW224390   0.885   1.421   3.232
 4171SOL     OW24391   1.297   1.459   0.233
 4171SOL    HW124392   1.345   1.512   0.296
 4171SOL    HW224393   1.238   1.520   0.189
 4172SOL     OW24394   1.195   2.131  15.930
 4172SOL    HW124395   1.205   2.053  15.876
 4172SOL    HW224396   1.285   2.159  15.949
 4173SOL     OW24397   0.888   4.351   1.784
 4173SOL    HW124398   0.803   4.362   1.740
 4173SOL    HW224399   0.936   4.431   1.762
 4174SOL     OW24400   0.694   1.542  16.190
 4174SOL    HW124401   0.764   1.550  16.255
 4174SOL    HW224402   0.664   1.632  16.176
 4175SOL     OW24403   4.103   3.803  21.135
 4175SOL    HW124404   4.152   3.885  21.144
 4175SOL    HW224405   4.039   3.806  21.207
 4176SOL     OW24406   1.619   4.249  16.557
 4176SOL    HW124407   1.650   4.339  16.560
 4176SOL    HW224408   1.697   4.196  16.574
 4177SOL     OW24409   1.159   2.887  16.151
 4177SOL    HW124410   1.118   2.801  16.160
 4177SOL    HW224411   1.169   2.898  16.056
 4178SOL     OW24412   2.103   3.646   0.001
 4178SOL    HW124413   2.033   3.658  21.185
 4178SOL    HW224414   2.058   3.617   0.080
 4179SOL     OW24415   0.537   1.596   0.124
 4179SOL    HW124416   0.550   1.665   0.059
 4179SOL    HW224417   0.545   1.641   0.209
 4180SOL     OW24418   2.219   1.250  15.275
 4180SOL    HW124419   2.276   1.205  15.212
 4180SOL    HW224420   2.272   1.256  15.354
 4181SOL     OW24421   0.016   0.158  15.222
 4181SOL    HW124422   0.109   0.172  15.204
 4181SOL    HW224423   0.012   0.068  15.255
 4182SOL     OW24424   0.420   0.309   4.669
 4182SOL    HW124425   0.374   0.393   4.656
 4182SOL    HW224426   0.470   0.321   4.749
 4183SOL     OW24427   2.258   2.462  20.633
 4183SOL    HW124428   2.316   2.537  20.644
 4183SOL    HW224429   2.286   2.400  20.700
 4184SOL     OW24430   1.123   4.743   3.400
 4184SOL    HW124431   1.095   0.017   3.333
 4184SOL    HW224432   1.218   4.748   3.400
 4185SOL     OW24433   0.123   3.138  16.301
 4185SOL    HW124434   0.125   3.043  16.315
 4185SOL    HW224435   0.194   3.172  16.355
 4186SOL     OW24436   2.654   1.727  16.402
 4186SOL    HW124437   2.635   1.634  16.416
 4186SOL    HW224438   2.739   1.740  16.442
 4187SOL     OW24439   0.301   2.750   6.397
 4187SOL    HW124440   0.281   2.684   6.330
 4187SOL    HW224441   0.394   2.769   6.386
 4188SOL     OW24442   1.275   4.596   1.439
 4188SOL    HW124443   1.218   4.588   1.363
 4188SOL    HW224444   1.233   4.662   1.495
 4189SOL     OW24445   1.956   3.516  17.876
 4189SOL    HW124446   1.968   3.611  17.882
 4189SOL    HW224447   1.866   3.505  17.847
 4190SOL     OW24448   1.456   4.444  21.134
 4190SOL    HW124449   1.551   4.436  21.138
 4190SOL    HW224450   1.440   4.538  21.123
 4191SOL     OW24451   0.877   2.413  19.019
 4191SOL    HW124452   0.894   2.370  19.102
 4191SOL    HW224453   0.964   2.430  18.983
 4192SOL     OW24454   0.553   4.451  18.531
 4192SOL    HW124455   0.559   4.508  18.454
 4192SOL    HW224456   0.641   4.451  18.568
 4193SOL     OW24457   0.700   2.676  17.433
 4193SOL    HW124458   0.689   2.583  17.454
 4193SOL    HW224459   0.790   2.696  17.458
 4194SOL     OW24460   4.665   2.126   4.370
 4194SOL    HW124461   4.685   2.034   4.392
 4194SOL    HW224462   4.733   2.176   4.415
 4195SOL     OW24463   4.149   1.861   5.619
 4195SOL    HW124464   4.123   1.839   5.530
 4195SOL    HW224465   4.173   1.954   5.615
 4196SOL     OW24466   2.012   2.561  17.244
 4196SOL    HW124467   2.094   2.559  17.295
 4196SOL    HW224468   1.964   2.636  17.278
 4197SOL     OW24469   2.763   0.413  19.499
 4197SOL    HW124470   2.694   0.359  19.538
 4197SOL    HW224471   2.807   0.354  19.437
 4198SOL     OW24472   0.582   2.451  16.932
 4198SOL    HW124473   0.520   2.486  16.868
 4198SOL    HW224474   0.584   2.518  17.001
 4199SOL     OW24475   1.254   4.588   3.954
 4199SOL    HW124476   1.184   4.549   4.006
 4199SOL    HW224477   1.211   4.655   3.901
 4200SOL     OW24478   1.497   3.910  14.833
 4200SOL    HW124479   1.575   3.876  14.878
 4200SOL    HW224480   1.472   3.840  14.772
 4201SOL     OW24481   4.080   2.341  17.952
 4201SOL    HW124482   4.001   2.304  17.992
 4201SOL    HW224483   4.082   2.432  17.983
 4202SOL     OW24484   0.370   3.563   7.955
 4202SOL    HW124485   0.457   3.570   7.994
 4202SOL    HW224486   0.351   3.469   7.956
 4203SOL     OW24487   2.698   1.097  14.154
 4203SOL    HW124488   2.773   1.093  14.214
 4203SOL    HW224489   2.654   1.013  14.166
 4204SOL     OW24490   4.728   0.456  16.882
 4204SOL    HW124491   0.021   0.494  16.919
 4204SOL    HW224492   4.757   0.413  16.801
 4205SOL     OW24493   1.680   0.765   5.337
 4205SOL    HW124494   1.675   0.758   5.241
 4205SOL    HW224495   1.672   0.675   5.368
 4206SOL     OW24496   1.745   1.649   1.793
 4206SOL    HW124497   1.768   1.741   1.802
 4206SOL    HW224498   1.706   1.625   1.877
 4207SOL     OW24499   3.770   1.914   3.601
 4207SOL    HW124500   3.738   1.997   3.566
 4207SOL    HW224501   3.765   1.924   3.696
 4208SOL     OW24502   2.156   0.586   3.026
 4208SOL    HW124503   2.065   0.588   3.058
 4208SOL    HW224504   2.166   0.669   2.979
 4209SOL     OW24505   2.550   3.329   1.623
 4209SOL    HW124506   2.586   3.370   1.544
 4209SOL    HW224507   2.536   3.238   1.597
 4210SOL     OW24508   1.768   4.358   3.003
 4210SOL    HW124509   1.773   4.341   2.908
 4210SOL    HW224510   1.841   4.417   3.020
 4211SOL     OW24511   4.656   2.613   2.818
 4211SOL    HW124512   4.572   2.615   2.772
 4211SOL    HW224513   4.639   2.659   2.901
 4212SOL     OW24514   1.555   3.877   5.179
 4212SOL    HW124515   1.613   3.812   5.217
 4212SOL    HW224516   1.593   3.961   5.204
 4213SOL     OW24517   1.119   3.441   4.787
 4213SOL    HW124518   1.180   3.512   4.808
 4213SOL    HW224519   1.164   3.362   4.816
 4214SOL     OW24520   2.789   2.058   1.078
 4214SOL    HW124521   2.882   2.040   1.063
 4214SOL    HW224522   2.787   2.149   1.109
 4215SOL     OW24523   3.199   1.943  15.489
 4215SOL    HW124524   3.280   1.926  15.441
 4215SOL    HW224525   3.144   1.990  15.426
 4216SOL     OW24526   0.294   3.436  16.564
 4216SOL    HW124527   0.224   3.417  16.626
 4216SOL    HW224528   0.248   3.457  16.482
 4217SOL     OW24529   2.447   0.343   4.160
 4217SOL    HW124530   2.388   0.282   4.117
 4217SOL    HW224531   2.441   0.321   4.253
 4218SOL     OW24532   0.753   2.973  17.714
 4218SOL    HW124533   0.833   2.970  17.767
 4218SOL    HW224534   0.781   3.016  17.633
 4219SOL     OW24535   0.685   3.835   3.447
 4219SOL    HW124536   0.606   3.873   3.407
 4219SOL    HW224537   0.700   3.754   3.397
 4220SOL     OW24538   1.370   3.690   2.599
 4220SOL    HW124539   1.356   3.744   2.522
 4220SOL    HW224540   1.441   3.734   2.646
 4221SOL     OW24541   3.209   2.814   3.323
 4221SOL    HW124542   3.254   2.873   3.263
 4221SOL    HW224543   3.225   2.850   3.410
 4222SOL     OW24544   4.324   1.058  19.341
 4222SOL    HW124545   4.329   1.120  19.414
 4222SOL    HW224546   4.235   1.023  19.345
 4223SOL     OW24547   4.720   0.140  12.877
 4223SOL    HW124548   4.767   0.139  12.793
 4223SOL    HW224549   4.787   0.121  12.942
 4224SOL     OW24550   1.914   1.777   4.376
 4224SOL    HW124551   1.913   1.859   4.426
 4224SOL    HW224552   1.939   1.711   4.441
 4225SOL     OW24553   3.638   3.054  15.200
 4225SOL    HW124554   3.591   3.004  15.266
 4225SOL    HW224555   3.641   2.997  15.123
 4226SOL     OW24556   3.206   2.099   6.221
 4226SOL    HW124557   3.265   2.136   6.286
 4226SOL    HW224558   3.231   2.007   6.215
 4227SOL     OW24559   2.087   3.697   6.093
 4227SOL    HW124560   2.165   3.746   6.067
 4227SOL    HW224561   2.013   3.751   6.065
 4228SOL     OW24562   2.269   3.953  17.356
 4228SOL    HW124563   2.322   3.873  17.356
 4228SOL    HW224564   2.199   3.936  17.293
 4229SOL     OW24565   3.652   2.098   4.414
 4229SOL    HW124566   3.695   2.148   4.484
 4229SOL    HW224567   3.680   2.140   4.333
 4230SOL     OW24568   3.263   2.841  19.853
 4230SOL    HW124569   3.210   2.897  19.909
 4230SOL    HW224570   3.336   2.813  19.908
 4231SOL     OW24571   3.262   1.277   1.196
 4231SOL    HW124572   3.331   1.321   1.245
 4231SOL    HW224573   3.270   1.185   1.221
 4232SOL     OW24574   4.054   2.665  19.200
 4232SOL    HW124575   4.063   2.570  19.210
 4232SOL    HW224576   4.144   2.697  19.198
 4233SOL     OW24577   0.473   0.296  20.683
 4233SOL    HW124578   0.544   0.360  20.683
 4233SOL    HW224579   0.496   0.233  20.614
 4234SOL     OW24580   2.225   0.566   3.994
 4234SOL    HW124581   2.130   0.563   3.984
 4234SOL    HW224582   2.249   0.651   3.958
 4235SOL     OW24583   0.984   4.734  20.369
 4235SOL    HW124584   1.069   4.699  20.396
 4235SOL    HW224585   0.926   4.717  20.443
 4236SOL     OW24586   0.970   4.461  17.097
 4236SOL    HW124587   0.882   4.423  17.092
 4236SOL    HW224588   1.017   4.407  17.160
 4237SOL     OW24589   0.647   4.207   2.017
 4237SOL    HW124590   0.661   4.301   2.006
 4237SOL    HW224591   0.700   4.184   2.093
 4238SOL     OW24592   3.369   3.463  18.847
 4238SOL    HW124593   3.438   3.401  18.872
 4238SOL    HW224594   3.352   3.443  18.755
 4239SOL     OW24595   4.024   1.390  18.432
 4239SOL    HW124596   4.028   1.465  18.490
 4239SOL    HW224597   3.941   1.347  18.454
 4240SOL     OW24598   2.361   3.879  20.113
 4240SOL    HW124599   2.409   3.834  20.182
 4240SOL    HW224600   2.287   3.920  20.159
 4241SOL     OW24601   1.765   0.892  17.559
 4241SOL    HW124602   1.677   0.927  17.565
 4241SOL    HW224603   1.759   0.823  17.493
 4242SOL     OW24604   3.957   2.924   4.046
 4242SOL    HW124605   3.930   2.860   4.112
 4242SOL    HW224606   3.888   2.990   4.048
 4243SOL     OW24607   1.585   3.147   3.563
 4243SOL    HW124608   1.604   3.147   3.469
 4243SOL    HW224609   1.567   3.055   3.584
 4244SOL     OW24610   2.950   0.642  17.623
 4244SOL    HW124611   3.006   0.651  17.546
 4244SOL    HW224612   2.865   0.614  17.587
 4245SOL     OW24613   1.883   0.360  16.802
 4245SOL    HW124614   1.963   0.309  16.798
 4245SOL    HW224615   1.885   0.416  16.725
 4246SOL     OW24616   2.951   2.643   6.728
 4246SOL    HW124617   2.938   2.610   6.639
 4246SOL    HW224618   2.877   2.702   6.742
 4247SOL     OW24619   2.035   0.218   2.219
 4247SOL    HW124620   2.044   0.286   2.285
 4247SOL    HW224621   2.086   0.144   2.253
 4248SOL     OW24622   3.689   0.378   4.181
 4248SOL    HW124623   3.662   0.329   4.258
 4248SOL    HW224624   3.609   0.392   4.131
 4249SOL     OW24625   1.596   4.552  14.478
 4249SOL    HW124626   1.604   4.460  14.451
 4249SOL    HW224627   1.577   4.600  14.397
 4250SOL     OW24628   1.716   3.961   1.144
 4250SOL    HW124629   1.646   3.898   1.129
 4250SOL    HW224630   1.725   4.008   1.060
 4251SOL     OW24631   1.078   2.714  19.986
 4251SOL    HW124632   0.990   2.745  19.963
 4251SOL    HW224633   1.111   2.779  20.048
 4252SOL     OW24634   3.090   3.413  17.989
 4252SOL    HW124635   3.069   3.352  18.060
 4252SOL    HW224636   3.022   3.399  17.924
 4253SOL     OW24637   3.615   3.289   5.186
 4253SOL    HW124638   3.657   3.210   5.218
 4253SOL    HW224639   3.688   3.351   5.173
 4254SOL     OW24640   2.562   2.549  15.782
 4254SOL    HW124641   2.491   2.485  15.779
 4254SOL    HW224642   2.599   2.548  15.694
 4255SOL     OW24643   4.117   4.367  19.325
 4255SOL    HW124644   4.183   4.394  19.260
 4255SOL    HW224645   4.092   4.449  19.368
 4256SOL     OW24646   0.151   2.934  14.917
 4256SOL    HW124647   0.149   2.847  14.877
 4256SOL    HW224648   0.076   2.935  14.976
 4257SOL     OW24649   2.232   2.686  14.605
 4257SOL    HW124650   2.304   2.623  14.596
 4257SOL    HW224651   2.275   2.769  14.625
 4258SOL     OW24652   4.565   3.706   2.714
 4258SOL    HW124653   4.520   3.621   2.711
 4258SOL    HW224654   4.658   3.683   2.709
 4259SOL     OW24655   2.424   2.812  16.857
 4259SOL    HW124656   2.508   2.786  16.895
 4259SOL    HW224657   2.358   2.768  16.910
 4260SOL     OW24658   0.813   2.117   4.280
 4260SOL    HW124659   0.888   2.058   4.283
 4260SOL    HW224660   0.836   2.183   4.215
 4261SOL     OW24661   3.000   2.704   0.850
 4261SOL    HW124662   3.023   2.655   0.771
 4261SOL    HW224663   2.917   2.745   0.829
 4262SOL     OW24664   2.940   0.962  19.471
 4262SOL    HW124665   2.853   0.930  19.444
 4262SOL    HW224666   2.951   0.929  19.560
 4263SOL     OW24667   2.875   2.715  18.659
 4263SOL    HW124668   2.818   2.662  18.714
 4263SOL    HW224669   2.816   2.776  18.613
 4264SOL     OW24670   2.134   3.608  17.029
 4264SOL    HW124671   2.219   3.582  16.993
 4264SOL    HW224672   2.077   3.617  16.952
 4265SOL     OW24673   4.458   0.710  13.354
 4265SOL    HW124674   4.458   0.671  13.267
 4265SOL    HW224675   4.390   0.778  13.350
 4266SOL     OW24676   0.692   0.849  17.976
 4266SOL    HW124677   0.777   0.806  17.978
 4266SOL    HW224678   0.660   0.843  18.066
 4267SOL     OW24679   3.968   0.046   2.433
 4267SOL    HW124680   3.881   0.059   2.395
 4267SOL    HW224681   4.006   4.763   2.382
 4268SOL     OW24682   2.281   2.266   2.988
 4268SOL    HW124683   2.268   2.171   2.990
 4268SOL    HW224684   2.196   2.303   3.010
 4269SOL     OW24685   3.678   4.679   4.101
 4269SOL    HW124686   3.638   4.711   4.182
 4269SOL    HW224687   3.645   4.738   4.033
 4270SOL     OW24688   2.968   2.363   6.924
 4270SOL    HW124689   2.968   2.407   6.838
 4270SOL    HW224690   2.876   2.361   6.949
 4271SOL     OW24691   2.801   3.848  19.831
 4271SOL    HW124692   2.849   3.806  19.903
 4271SOL    HW224693   2.713   3.863  19.866
 4272SOL     OW24694   2.057   1.911   2.863
 4272SOL    HW124695   2.018   1.832   2.900
 4272SOL    HW224696   2.113   1.879   2.792
 4273SOL     OW24697   2.797   1.946   6.970
 4273SOL    HW124698   2.761   1.891   6.900
 4273SOL    HW224699   2.789   1.893   7.049
 4274SOL     OW24700   2.778   4.495   3.039
 4274SOL    HW124701   2.792   4.566   3.101
 4274SOL    HW224702   2.866   4.471   3.010
 4275SOL     OW24703   3.715   1.454   6.301
 4275SOL    HW124704   3.672   1.524   6.251
 4275SOL    HW224705   3.740   1.389   6.235
 4276SOL     OW24706   1.229   1.825   1.492
 4276SOL    HW124707   1.245   1.767   1.567
 4276SOL    HW224708   1.314   1.866   1.474
 4277SOL     OW24709   0.869   4.180   3.309
 4277SOL    HW124710   0.942   4.121   3.324
 4277SOL    HW224711   0.847   4.214   3.395
 4278SOL     OW24712   0.592   1.865   1.871
 4278SOL    HW124713   0.530   1.792   1.875
 4278SOL    HW224714   0.673   1.831   1.908
 4279SOL     OW24715   2.332   2.774  16.127
 4279SOL    HW124716   2.418   2.809  16.152
 4279SOL    HW224717   2.329   2.786  16.032
 4280SOL     OW24718   0.916   0.304   5.471
 4280SOL    HW124719   0.895   0.390   5.505
 4280SOL    HW224720   0.928   0.318   5.377
 4281SOL     OW24721   4.737   3.861  13.756
 4281SOL    HW124722   4.661   3.804  13.767
 4281SOL    HW224723   4.711   3.923  13.687
 4282SOL     OW24724   4.060   1.469  16.394
 4282SOL    HW124725   4.093   1.483  16.305
 4282SOL    HW224726   4.125   1.512  16.450
 4283SOL     OW24727   3.612   1.637   0.535
 4283SOL    HW124728   3.676   1.628   0.464
 4283SOL    HW224729   3.527   1.639   0.491
 4284SOL     OW24730   3.993   1.405  17.069
 4284SOL    HW124731   3.940   1.339  17.024
 4284SOL    HW224732   4.056   1.434  17.003
 4285SOL     OW24733   0.230   2.159   2.094
 4285SOL    HW124734   0.320   2.191   2.083
 4285SOL    HW224735   0.185   2.231   2.138
 4286SOL     OW24736   3.645   2.532   0.988
 4286SOL    HW124737   3.577   2.526   0.922
 4286SOL    HW224738   3.599   2.559   1.068
 4287SOL     OW24739   0.156   0.877   1.747
 4287SOL    HW124740   0.201   0.845   1.669
 4287SOL    HW224741   0.064   0.853   1.733
 4288SOL     OW24742   0.013   3.972   3.953
 4288SOL    HW124743   0.012   3.948   3.860
 4288SOL    HW224744   4.711   3.999   3.972
 4289SOL     OW24745   3.357   1.104   1.571
 4289SOL    HW124746   3.282   1.047   1.554
 4289SOL    HW224747   3.428   1.044   1.593
 4290SOL     OW24748   2.454   2.930   2.907
 4290SOL    HW124749   2.463   3.000   2.972
 4290SOL    HW224750   2.434   2.852   2.959
 4291SOL     OW24751   2.773   0.309   2.774
 4291SOL    HW124752   2.811   0.340   2.692
 4291SOL    HW224753   2.811   0.223   2.787
 4292SOL     OW24754   3.665   0.235   1.660
 4292SOL    HW124755   3.584   0.185   1.651
 4292SOL    HW224756   3.667   0.293   1.584
 4293SOL     OW24757   2.285   3.800  15.912
 4293SOL    HW124758   2.200   3.806  15.869
 4293SOL    HW224759   2.267   3.756  15.995
 4294SOL     OW24760   0.097   3.193  16.017
 4294SOL    HW124761   0.088   3.178  16.111
 4294SOL    HW224762   0.103   3.105  15.980
 4295SOL     OW24763   2.660   0.401  20.307
 4295SOL    HW124764   2.707   0.482  20.290
 4295SOL    HW224765   2.628   0.373  20.221
 4296SOL     OW24766   1.469   2.322  15.543
 4296SOL    HW124767   1.463   2.413  15.513
 4296SOL    HW224768   1.536   2.324  15.612
 4297SOL     OW24769   2.953   1.215   1.653
 4297SOL    HW124770   2.940   1.124   1.680
 4297SOL    HW224771   2.895   1.226   1.577
 4298SOL     OW24772   0.465   0.985  20.302
 4298SOL    HW124773   0.517   0.972  20.381
 4298SOL    HW224774   0.420   0.902  20.290
 4299SOL     OW24775   0.712   1.877  19.286
 4299SOL    HW124776   0.704   1.858  19.192
 4299SOL    HW224777   0.631   1.921  19.309
 4300SOL     OW24778   2.344   3.576   4.328
 4300SOL    HW124779   2.389   3.492   4.339
 4300SOL    HW224780   2.403   3.640   4.368
 4301SOL     OW24781   3.987   3.929   2.841
 4301SOL    HW124782   4.046   3.928   2.766
 4301SOL    HW224783   3.919   3.993   2.817
 4302SOL     OW24784   1.939   1.592  19.800
 4302SOL    HW124785   1.974   1.503  19.793
 4302SOL    HW224786   1.994   1.634  19.866
 4303SOL     OW24787   3.786   2.070  20.230
 4303SOL    HW124788   3.849   2.141  20.218
 4303SOL    HW224789   3.776   2.062  20.325
 4304SOL     OW24790   3.669   2.688  16.672
 4304SOL    HW124791   3.613   2.613  16.653
 4304SOL    HW224792   3.707   2.712  16.587
 4305SOL     OW24793   3.940   3.778  19.510
 4305SOL    HW124794   3.982   3.751  19.428
 4305SOL    HW224795   3.891   3.700  19.539
 4306SOL     OW24796   3.404   4.693   4.606
 4306SOL    HW124797   3.309   4.690   4.604
 4306SOL    HW224798   3.425   4.727   4.693
 4307SOL     OW24799   1.106   1.464   4.819
 4307SOL    HW124800   1.152   1.516   4.752
 4307SOL    HW224801   1.164   1.391   4.838
 4308SOL     OW24802   1.536   4.378  13.363
 4308SOL    HW124803   1.442   4.366  13.351
 4308SOL    HW224804   1.546   4.471  13.382
 4309SOL     OW24805   3.950   1.363  19.419
 4309SOL    HW124806   3.921   1.454  19.425
 4309SOL    HW224807   3.981   1.354  19.329
 4310SOL     OW24808   3.729   4.431   4.931
 4310SOL    HW124809   3.799   4.430   4.996
 4310SOL    HW224810   3.657   4.476   4.975
 4311SOL     OW24811   2.110   1.812   1.706
 4311SOL    HW124812   2.082   1.793   1.617
 4311SOL    HW224813   2.196   1.853   1.697
 4312SOL     OW24814   3.584   2.848   6.274
 4312SOL    HW124815   3.646   2.919   6.294
 4312SOL    HW224816   3.578   2.847   6.179
 4313SOL     OW24817   3.236   1.055  15.983
 4313SOL    HW124818   3.211   1.090  16.068
 4313SOL    HW224819   3.153   1.038  15.938
 4314SOL     OW24820   4.659   0.601   1.994
 4314SOL    HW124821   4.599   0.653   1.940
 4314SOL    HW224822   4.605   0.570   2.067
 4315SOL     OW24823   0.987   4.201   1.409
 4315SOL    HW124824   0.919   4.182   1.472
 4315SOL    HW224825   0.990   4.124   1.352
 4316SOL     OW24826   2.721   3.190  18.356
 4316SOL    HW124827   2.681   3.155  18.436
 4316SOL    HW224828   2.762   3.115  18.314
 4317SOL     OW24829   1.831   1.305  21.042
 4317SOL    HW124830   1.921   1.275  21.054
 4317SOL    HW224831   1.783   1.228  21.012
 4318SOL     OW24832   3.342   3.794  11.707
 4318SOL    HW124833   3.426   3.756  11.682
 4318SOL    HW224834   3.323   3.857  11.637
 4319SOL     OW24835   3.967   0.397   7.579
 4319SOL    HW124836   3.944   0.345   7.656
 4319SOL    HW224837   4.060   0.381   7.565
 4320SOL     OW24838   3.571   0.788  17.322
 4320SOL    HW124839   3.595   0.704  17.283
 4320SOL    HW224840   3.476   0.792  17.312
 4321SOL     OW24841   2.373   0.752   2.672
 4321SOL    HW124842   2.318   0.788   2.742
 4321SOL    HW224843   2.340   0.793   2.592
 4322SOL     OW24844   3.794   2.720  15.538
 4322SOL    HW124845   3.791   2.728  15.633
 4322SOL    HW224846   3.876   2.673  15.520
 4323SOL     OW24847   1.128   1.270   3.961
 4323SOL    HW124848   1.143   1.365   3.961
 4323SOL    HW224849   1.034   1.260   3.975
 4324SOL     OW24850   3.965   0.172  16.148
 4324SOL    HW124851   3.989   0.205  16.061
 4324SOL    HW224852   3.905   0.237  16.183
 4325SOL     OW24853   2.828   3.345   1.992
 4325SOL    HW124854   2.907   3.357   1.939
 4325SOL    HW224855   2.807   3.252   1.984
 4326SOL     OW24856   1.878   4.755   3.168
 4326SOL    HW124857   1.884   4.695   3.093
 4326SOL    HW224858   1.964   4.750   3.210
 4327SOL     OW24859   0.149   3.490   1.885
 4327SOL    HW124860   0.235   3.531   1.886
 4327SOL    HW224861   0.115   3.502   1.974
 4328SOL     OW24862   2.319   2.208  16.721
 4328SOL    HW124863   2.379   2.173  16.788
 4328SOL    HW224864   2.239   2.157  16.732
 4329SOL     OW24865   3.051   3.694   0.910
 4329SOL    HW124866   3.070   3.770   0.855
 4329SOL    HW224867   3.079   3.721   0.997
 4330SOL     OW24868   3.394   1.788   3.586
 4330SOL    HW124869   3.406   1.869   3.535
 4330SOL    HW224870   3.299   1.773   3.583
 4331SOL     OW24871   3.909   4.701   2.913
 4331SOL    HW124872   3.823   4.733   2.939
 4331SOL    HW224873   3.897   4.665   2.825
 4332SOL     OW24874   4.484   4.344  19.221
 4332SOL    HW124875   4.519   4.414  19.276
 4332SOL    HW224876   4.403   4.380  19.185
 4333SOL     OW24877   2.358   0.617  15.270
 4333SOL    HW124878   2.400   0.572  15.344
 4333SOL    HW224879   2.342   0.705  15.302
 4334SOL     OW24880   3.533   2.496   4.153
 4334SOL    HW124881   3.464   2.440   4.118
 4334SOL    HW224882   3.583   2.524   4.076
 4335SOL     OW24883   2.843   0.698  18.147
 4335SOL    HW124884   2.756   0.675  18.181
 4335SOL    HW224885   2.849   0.651  18.064
 4336SOL     OW24886   1.844   1.168  18.033
 4336SOL    HW124887   1.906   1.240  18.020
 4336SOL    HW224888   1.770   1.190  17.976
 4337SOL     OW24889   3.638   1.643  18.396
 4337SOL    HW124890   3.696   1.716  18.416
 4337SOL    HW224891   3.551   1.675  18.419
 4338SOL     OW24892   2.016   1.344  15.630
 4338SOL    HW124893   2.099   1.315  15.593
 4338SOL    HW224894   2.009   1.436  15.605
 4339SOL     OW24895   4.699   3.869  19.520
 4339SOL    HW124896   4.736   3.821  19.594
 4339SOL    HW224897   4.604   3.856  19.527
 4340SOL     OW24898   2.684   4.285  14.093
 4340SOL    HW124899   2.762   4.336  14.072
 4340SOL    HW224900   2.685   4.277  14.188
 4341SOL     OW24901   4.468   1.875   5.521
 4341SOL    HW124902   4.406   1.808   5.494
 4341SOL    HW224903   4.459   1.945   5.456
 4342SOL     OW24904   4.269   2.031   0.728
 4342SOL    HW124905   4.288   1.938   0.740
 4342SOL    HW224906   4.354   2.074   0.725
 4343SOL     OW24907   3.467   0.082  20.860
 4343SOL    HW124908   3.473   0.020  20.788
 4343SOL    HW224909   3.468   0.027  20.939
 4344SOL     OW24910   3.758   3.670  15.965
 4344SOL    HW124911   3.707   3.714  16.032
 4344SOL    HW224912   3.836   3.724  15.954
 4345SOL     OW24913   3.442   2.497   6.194
 4345SOL    HW124914   3.418   2.481   6.103
 4345SOL    HW224915   3.510   2.564   6.190
 4346SOL     OW24916   2.054   4.108   5.889
 4346SOL    HW124917   2.008   4.066   5.815
 4346SOL    HW224918   1.986   4.158   5.933
 4347SOL     OW24919   1.040   4.238   5.950
 4347SOL    HW124920   1.124   4.271   5.920
 4347SOL    HW224921   0.981   4.249   5.876
 4348SOL     OW24922   2.465   1.770   7.738
 4348SOL    HW124923   2.441   1.806   7.823
 4348SOL    HW224924   2.501   1.845   7.690
 4349SOL     OW24925   2.982   1.767   3.144
 4349SOL    HW124926   3.013   1.847   3.101
 4349SOL    HW224927   2.975   1.790   3.236
 4350SOL     OW24928   2.185   4.560   6.549
 4350SOL    HW124929   2.180   4.603   6.464
 4350SOL    HW224930   2.219   4.472   6.529
 4351SOL     OW24931   1.084   0.732   3.328
 4351SOL    HW124932   1.168   0.771   3.351
 4351SOL    HW224933   1.030   0.744   3.406
 4352SOL     OW24934   2.614   1.479  20.952
 4352SOL    HW124935   2.608   1.487  21.048
 4352SOL    HW224936   2.524   1.489  20.922
 4353SOL     OW24937   2.920   2.813  17.452
 4353SOL    HW124938   2.908   2.908  17.457
 4353SOL    HW224939   2.900   2.792  17.361
 4354SOL     OW24940   3.806   1.434  15.170
 4354SOL    HW124941   3.744   1.420  15.242
 4354SOL    HW224942   3.878   1.374  15.189
 4355SOL     OW24943   1.552   4.045   5.397
 4355SOL    HW124944   1.505   4.076   5.475
 4355SOL    HW224945   1.640   4.083   5.406
 4356SOL     OW24946   2.925   0.991   0.857
 4356SOL    HW124947   2.986   0.980   0.930
 4356SOL    HW224948   2.842   0.957   0.890
 4357SOL     OW24949   4.024   3.518   7.326
 4357SOL    HW124950   4.058   3.608   7.328
 4357SOL    HW224951   4.001   3.500   7.417
 4358SOL     OW24952   1.521   2.120  19.680
 4358SOL    HW124953   1.598   2.161  19.640
 4358SOL    HW224954   1.483   2.067  19.609
 4359SOL     OW24955   2.319   1.461   0.998
 4359SOL    HW124956   2.237   1.510   1.005
 4359SOL    HW224957   2.348   1.451   1.089
 4360SOL     OW24958   1.834   0.204  18.519
 4360SOL    HW124959   1.864   0.258  18.446
 4360SOL    HW224960   1.910   0.196  18.576
 4361SOL     OW24961   0.550   4.104  16.197
 4361SOL    HW124962   0.522   4.068  16.113
 4361SOL    HW224963   0.593   4.031  16.241
 4362SOL     OW24964   0.863   4.090   3.812
 4362SOL    HW124965   0.887   4.183   3.803
 4362SOL    HW224966   0.895   4.050   3.731
 4363SOL     OW24967   3.640   3.956  15.568
 4363SOL    HW124968   3.690   3.980  15.646
 4363SOL    HW224969   3.653   3.862  15.560
 4364SOL     OW24970   4.465   0.891  15.960
 4364SOL    HW124971   4.552   0.877  15.923
 4364SOL    HW224972   4.473   0.974  16.008
 4365SOL     OW24973   1.352   4.424  20.892
 4365SOL    HW124974   1.395   4.403  20.975
 4365SOL    HW224975   1.421   4.414  20.826
 4366SOL     OW24976   2.643   4.057   6.050
 4366SOL    HW124977   2.637   3.962   6.051
 4366SOL    HW224978   2.687   4.078   5.968
 4367SOL     OW24979   4.020   3.470   7.640
 4367SOL    HW124980   4.024   3.535   7.711
 4367SOL    HW224981   4.104   3.479   7.594
 4368SOL     OW24982   2.875   2.427  16.890
 4368SOL    HW124983   2.864   2.485  16.814
 4368SOL    HW224984   2.853   2.340  16.858
 4369SOL     OW24985   4.253   2.148   5.577
 4369SOL    HW124986   4.296   2.127   5.494
 4369SOL    HW224987   4.208   2.231   5.561
 4370SOL     OW24988   0.923   3.516  19.467
 4370SOL    HW124989   0.926   3.565  19.384
 4370SOL    HW224990   0.979   3.440  19.452
 4371SOL     OW24991   1.479   4.118   2.567
 4371SOL    HW124992   1.427   4.083   2.638
 4371SOL    HW224993   1.469   4.055   2.496
 4372SOL     OW24994   2.891   2.107   6.520
 4372SOL    HW124995   2.824   2.151   6.571
 4372SOL    HW224996   2.882   2.014   6.544
 4373SOL     OW24997   1.776   0.222   3.382
 4373SOL    HW124998   1.845   0.284   3.358
 4373SOL    HW224999   1.725   0.212   3.302
 4374SOL     OW25000   0.485   3.742  15.964
 4374SOL    HW125001   0.440   3.680  16.021
 4374SOL    HW225002   0.464   3.828  16.001
 4375SOL     OW25003   1.121   4.112  19.390
 4375SOL    HW125004   1.095   4.095  19.480
 4375SOL    HW225005   1.134   4.025  19.352
 4376SOL     OW25006   1.858   0.112  19.446
 4376SOL    HW125007   1.849   0.170  19.371
 4376SOL    HW225008   1.942   0.136  19.485
 4377SOL     OW25009   4.545   0.117   3.957
 4377SOL    HW125010   4.456   0.150   3.952
 4377SOL    HW225011   4.544   0.039   3.900
 4378SOL     OW25012   2.536   0.492  20.821
 4378SOL    HW125013   2.492   0.559  20.873
 4378SOL    HW225014   2.492   0.410  20.844
 4379SOL     OW25015   2.372   0.888  17.856
 4379SOL    HW125016   2.284   0.919  17.878
 4379SOL    HW225017   2.388   0.922  17.768
 4380SOL     OW25018   3.491   2.594   0.699
 4380SOL    HW125019   3.557   2.565   0.635
 4380SOL    HW225020   3.438   2.516   0.715
 4381SOL     OW25021   1.618   1.243  18.930
 4381SOL    HW125022   1.710   1.263  18.913
 4381SOL    HW225023   1.571   1.278  18.854
 4382SOL     OW25024   3.226   0.552  18.290
 4382SOL    HW125025   3.147   0.566  18.343
 4382SOL    HW225026   3.236   0.456  18.287
 4383SOL     OW25027   2.707   4.239   5.842
 4383SOL    HW125028   2.798   4.227   5.813
 4383SOL    HW225029   2.699   4.333   5.857
 4384SOL     OW25030   3.229   3.263   6.883
 4384SOL    HW125031   3.148   3.218   6.860
 4384SOL    HW225032   3.217   3.290   6.974
 4385SOL     OW25033   3.403   1.623  20.877
 4385SOL    HW125034   3.375   1.550  20.933
 4385SOL    HW225035   3.454   1.581  20.808
 4386SOL     OW25036   1.481   3.884  14.407
 4386SOL    HW125037   1.430   3.953  14.363
 4386SOL    HW225038   1.562   3.928  14.433
 4387SOL     OW25039   2.421   4.099  17.204
 4387SOL    HW125040   2.515   4.095  17.221
 4387SOL    HW225041   2.383   4.036  17.266
 4388SOL     OW25042   4.144   1.837   3.044
 4388SOL    HW125043   4.062   1.881   3.025
 4388SOL    HW225044   4.211   1.904   3.031
 4389SOL     OW25045   0.104   2.279  19.969
 4389SOL    HW125046   0.064   2.268  19.883
 4389SOL    HW225047   0.041   2.242  20.030
 4390SOL     OW25048   0.944   0.919   1.672
 4390SOL    HW125049   0.937   0.853   1.742
 4390SOL    HW225050   0.873   0.980   1.690
 4391SOL     OW25051   0.891   2.103   3.073
 4391SOL    HW125052   0.881   2.017   3.112
 4391SOL    HW225053   0.983   2.107   3.046
 4392SOL     OW25054   3.710   3.781  20.407
 4392SOL    HW125055   3.664   3.859  20.377
 4392SOL    HW225056   3.660   3.708  20.372
 4393SOL     OW25057   4.735   1.023   6.375
 4393SOL    HW125058   4.659   1.008   6.431
 4393SOL    HW225059   4.743   1.119   6.370
 4394SOL     OW25060   1.361   0.721  18.352
 4394SOL    HW125061   1.384   0.757  18.437
 4394SOL    HW225062   1.265   0.714  18.354
 4395SOL     OW25063   1.499   3.242   0.344
 4395SOL    HW125064   1.404   3.245   0.346
 4395SOL    HW225065   1.526   3.284   0.426
 4396SOL     OW25066   4.378   3.135   3.977
 4396SOL    HW125067   4.349   3.219   3.941
 4396SOL    HW225068   4.455   3.158   4.031
 4397SOL     OW25069   1.217   1.459  14.105
 4397SOL    HW125070   1.216   1.457  14.201
 4397SOL    HW225071   1.220   1.552  14.083
 4398SOL     OW25072   4.521   0.673  17.088
 4398SOL    HW125073   4.468   0.723  17.150
 4398SOL    HW225074   4.560   0.603  17.141
 4399SOL     OW25075   2.764   4.642   4.305
 4399SOL    HW125076   2.787   4.648   4.212
 4399SOL    HW225077   2.739   4.550   4.318
 4400SOL     OW25078   2.936   3.587   4.026
 4400SOL    HW125079   2.890   3.618   3.947
 4400SOL    HW225080   2.916   3.653   4.092
 4401SOL     OW25081   1.734   2.867   5.042
 4401SOL    HW125082   1.782   2.788   5.015
 4401SOL    HW225083   1.643   2.836   5.052
 4402SOL     OW25084   0.007   1.867  15.677
 4402SOL    HW125085   0.032   1.850  15.586
 4402SOL    HW225086   0.005   1.780  15.717
 4403SOL     OW25087   0.245   4.075  13.650
 4403SOL    HW125088   0.228   4.084  13.556
 4403SOL    HW225089   0.317   4.012  13.655
 4404SOL     OW25090   1.832   1.979  17.533
 4404SOL    HW125091   1.806   1.899  17.488
 4404SOL    HW225092   1.781   1.979  17.614
 4405SOL     OW25093   3.675   0.954   5.037
 4405SOL    HW125094   3.732   0.941   5.113
 4405SOL    HW225095   3.633   1.039   5.053
 4406SOL     OW25096   2.762   3.459  14.533
 4406SOL    HW125097   2.840   3.404  14.542
 4406SOL    HW225098   2.693   3.410  14.577
 4407SOL     OW25099   2.301   1.312  20.204
 4407SOL    HW125100   2.229   1.251  20.218
 4407SOL    HW225101   2.380   1.257  20.206
 4408SOL     OW25102   0.159   0.834   2.904
 4408SOL    HW125103   0.243   0.877   2.887
 4408SOL    HW225104   0.171   0.792   2.989
 4409SOL     OW25105   1.847   0.461   4.930
 4409SOL    HW125106   1.931   0.463   4.883
 4409SOL    HW225107   1.866   0.506   5.012
 4410SOL     OW25108   3.184   4.698   1.569
 4410SOL    HW125109   3.090   4.692   1.584
 4410SOL    HW225110   3.193   4.703   1.474
 4411SOL     OW25111   4.180   0.489   0.885
 4411SOL    HW125112   4.129   0.512   0.963
 4411SOL    HW225113   4.118   0.497   0.813
 4412SOL     OW25114   2.410   3.090  17.654
 4412SOL    HW125115   2.388   3.067  17.745
 4412SOL    HW225116   2.446   3.009  17.618
 4413SOL     OW25117   0.849   3.546  16.824
 4413SOL    HW125118   0.768   3.496  16.826
 4413SOL    HW225119   0.916   3.482  16.799
 4414SOL     OW25120   3.310   3.488  21.199
 4414SOL    HW125121   3.294   3.510   0.043
 4414SOL    HW225122   3.363   3.408  21.202
 4415SOL     OW25123   3.450   2.776  14.267
 4415SOL    HW125124   3.433   2.786  14.174
 4415SOL    HW225125   3.501   2.695  14.274
 4416SOL     OW25126   1.238   4.297  16.754
 4416SOL    HW125127   1.327   4.324  16.732
 4416SOL    HW225128   1.194   4.379  16.780
 4417SOL     OW25129   2.332   3.449  14.896
 4417SOL    HW125130   2.358   3.534  14.860
 4417SOL    HW225131   2.386   3.439  14.975
 4418SOL     OW25132   1.649   1.611   4.206
 4418SOL    HW125133   1.723   1.550   4.214
 4418SOL    HW225134   1.680   1.691   4.247
 4419SOL     OW25135   0.876   1.816  15.926
 4419SOL    HW125136   0.812   1.747  15.907
 4419SOL    HW225137   0.881   1.818  16.021
 4420SOL     OW25138   1.919   3.671   3.825
 4420SOL    HW125139   1.997   3.670   3.880
 4420SOL    HW225140   1.949   3.637   3.740
 4421SOL     OW25141   3.745   0.329   2.942
 4421SOL    HW125142   3.733   0.310   2.849
 4421SOL    HW225143   3.792   0.412   2.944
 4422SOL     OW25144   4.356   3.649  16.311
 4422SOL    HW125145   4.394   3.578  16.364
 4422SOL    HW225146   4.329   3.714  16.375
 4423SOL     OW25147   2.360   4.346  20.822
 4423SOL    HW125148   2.411   4.420  20.854
 4423SOL    HW225149   2.271   4.381  20.812
 4424SOL     OW25150   3.296   4.678   4.053
 4424SOL    HW125151   3.335   4.765   4.067
 4424SOL    HW225152   3.338   4.622   4.117
 4425SOL     OW25153   1.995   4.088   4.940
 4425SOL    HW125154   2.067   4.146   4.963
 4425SOL    HW225155   1.978   4.106   4.847
 4426SOL     OW25156   3.601   4.747  17.000
 4426SOL    HW125157   3.540   4.764  16.928
 4426SOL    HW225158   3.643   0.045  17.016
 4427SOL     OW25159   1.527   0.729   3.721
 4427SOL    HW125160   1.522   0.637   3.744
 4427SOL    HW225161   1.549   0.773   3.804
 4428SOL     OW25162   2.987   4.473   0.657
 4428SOL    HW125163   2.986   4.560   0.697
 4428SOL    HW225164   2.970   4.414   0.730
 4429SOL     OW25165   1.410   1.641   5.355
 4429SOL    HW125166   1.364   1.723   5.333
 4429SOL    HW225167   1.498   1.669   5.379
 4430SOL     OW25168   0.790   2.149  20.760
 4430SOL    HW125169   0.714   2.198  20.793
 4430SOL    HW225170   0.798   2.176  20.669
 4431SOL     OW25171   3.757   0.582  18.878
 4431SOL    HW125172   3.810   0.630  18.942
 4431SOL    HW225173   3.747   0.495  18.915
 4432SOL     OW25174   2.132   1.295  16.745
 4432SOL    HW125175   2.177   1.286  16.661
 4432SOL    HW225176   2.181   1.238  16.804
 4433SOL     OW25177   1.987   1.777   5.759
 4433SOL    HW125178   1.920   1.711   5.748
 4433SOL    HW225179   1.986   1.798   5.852
 4434SOL     OW25180   3.249   2.969  19.619
 4434SOL    HW125181   3.335   2.971  19.576
 4434SOL    HW225182   3.265   2.923  19.701
 4435SOL     OW25183   2.471   3.261   4.256
 4435SOL    HW125184   2.459   3.196   4.188
 4435SOL    HW225185   2.386   3.266   4.300
 4436SOL     OW25186   3.509   1.570  13.814
 4436SOL    HW125187   3.512   1.613  13.728
 4436SOL    HW225188   3.586   1.604  13.860
 4437SOL     OW25189   2.297   3.388  17.634
 4437SOL    HW125190   2.236   3.399  17.562
 4437SOL    HW225191   2.338   3.303  17.617
 4438SOL     OW25192   4.144   3.803   1.996
 4438SOL    HW125193   4.164   3.858   2.072
 4438SOL    HW225194   4.093   3.731   2.032
 4439SOL     OW25195   0.322   0.258   7.208
 4439SOL    HW125196   0.414   0.231   7.208
 4439SOL    HW225197   0.279   0.194   7.265
 4440SOL     OW25198   1.333   1.689  16.675
 4440SOL    HW125199   1.371   1.776  16.665
 4440SOL    HW225200   1.375   1.636  16.607
 4441SOL     OW25201   3.383   1.525   4.960
 4441SOL    HW125202   3.303   1.473   4.953
 4441SOL    HW225203   3.453   1.461   4.971
 4442SOL     OW25204   1.257   4.391   4.925
 4442SOL    HW125205   1.272   4.394   4.831
 4442SOL    HW225206   1.212   4.308   4.940
 4443SOL     OW25207   0.261   1.820   2.562
 4443SOL    HW125208   0.184   1.877   2.567
 4443SOL    HW225209   0.263   1.790   2.471
 4444SOL     OW25210   1.124   0.540   0.722
 4444SOL    HW125211   1.084   0.595   0.790
 4444SOL    HW225212   1.117   0.451   0.756
 4445SOL     OW25213   2.600   0.189   2.164
 4445SOL    HW125214   2.510   0.219   2.179
 4445SOL    HW225215   2.599   0.156   2.075
 4446SOL     OW25216   4.081   3.493  18.379
 4446SOL    HW125217   4.153   3.473  18.319
 4446SOL    HW225218   4.009   3.521  18.322
 4447SOL     OW25219   4.070   0.096   6.851
 4447SOL    HW125220   4.026   0.014   6.875
 4447SOL    HW225221   4.163   0.075   6.853
 4448SOL     OW25222   0.822   3.809  17.241
 4448SOL    HW125223   0.833   3.904  17.236
 4448SOL    HW225224   0.894   3.779  17.297
 4449SOL     OW25225   2.628   0.141   5.146
 4449SOL    HW125226   2.708   0.089   5.157
 4449SOL    HW225227   2.559   0.076   5.136
 4450SOL     OW25228   0.269   0.542   4.281
 4450SOL    HW125229   0.322   0.586   4.348
 4450SOL    HW225230   0.218   0.477   4.330
 4451SOL     OW25231   2.891   0.440   1.044
 4451SOL    HW125232   2.865   0.391   1.123
 4451SOL    HW225233   2.852   0.527   1.056
 4452SOL     OW25234   4.684   2.902  15.065
 4452SOL    HW125235   4.648   2.956  15.136
 4452SOL    HW225236   4.610   2.887  15.006
 4453SOL     OW25237   1.519   0.912   1.860
 4453SOL    HW125238   1.440   0.902   1.806
 4453SOL    HW225239   1.488   0.902   1.950
 4454SOL     OW25240   1.398   4.050  17.907
 4454SOL    HW125241   1.452   4.115  17.953
 4454SOL    HW225242   1.434   3.966  17.933
 4455SOL     OW25243   2.962   0.422   1.460
 4455SOL    HW125244   2.933   0.370   1.534
 4455SOL    HW225245   2.884   0.436   1.407
 4456SOL     OW25246   4.783   3.418   6.847
 4456SOL    HW125247   0.044   3.472   6.910
 4456SOL    HW225248   4.734   3.480   6.794
 4457SOL     OW25249   1.182   0.509  20.272
 4457SOL    HW125250   1.182   0.604  20.258
 4457SOL    HW225251   1.168   0.472  20.185
 4458SOL     OW25252   0.738   0.900  18.695
 4458SOL    HW125253   0.764   0.992  18.695
 4458SOL    HW225254   0.695   0.887  18.779
 4459SOL     OW25255   4.294   2.456  15.906
 4459SOL    HW125256   4.339   2.412  15.834
 4459SOL    HW225257   4.279   2.386  15.971
 4460SOL     OW25258   2.868   0.949   1.649
 4460SOL    HW125259   2.857   0.869   1.599
 4460SOL    HW225260   2.779   0.981   1.663
 4461SOL     OW25261   4.020   2.354   4.370
 4461SOL    HW125262   4.016   2.430   4.428
 4461SOL    HW225263   3.939   2.356   4.321
 4462SOL     OW25264   3.480   0.570  20.311
 4462SOL    HW125265   3.565   0.552  20.269
 4462SOL    HW225266   3.494   0.653  20.357
 4463SOL     OW25267   1.391   1.902  20.583
 4463SOL    HW125268   1.332   1.942  20.647
 4463SOL    HW225269   1.410   1.973  20.521
 4464SOL     OW25270   3.882   2.056   5.691
 4464SOL    HW125271   3.940   1.993   5.649
 4464SOL    HW225272   3.821   2.082   5.622
 4465SOL     OW25273   0.694   3.051   2.437
 4465SOL    HW125274   0.700   3.115   2.365
 4465SOL    HW225275   0.751   3.087   2.505
 4466SOL     OW25276   2.470   4.259   3.553
 4466SOL    HW125277   2.389   4.264   3.502
 4466SOL    HW225278   2.442   4.277   3.643
 4467SOL     OW25279   1.028   1.694   5.925
 4467SOL    HW125280   0.975   1.659   5.997
 4467SOL    HW225281   1.055   1.617   5.875
 4468SOL     OW25282   2.465   4.719   2.388
 4468SOL    HW125283   2.505   0.016   2.409
 4468SOL    HW225284   2.411   4.698   2.464
 4469SOL     OW25285   2.902   1.035   1.285
 4469SOL    HW125286   2.809   1.050   1.269
 4469SOL    HW225287   2.945   1.112   1.247
 4470SOL     OW25288   3.035   4.127   2.628
 4470SOL    HW125289   3.044   4.222   2.621
 4470SOL    HW225290   3.076   4.105   2.711
 4471SOL     OW25291   2.331   0.792  17.196
 4471SOL    HW125292   2.350   0.868  17.143
 4471SOL    HW225293   2.417   0.753  17.215
 4472SOL     OW25294   3.955   2.033   6.499
 4472SOL    HW125295   3.928   2.062   6.586
 4472SOL    HW225296   3.969   1.939   6.509
 4473SOL     OW25297   2.118   0.945  19.898
 4473SOL    HW125298   2.059   1.010  19.936
 4473SOL    HW225299   2.104   0.866  19.950
 4474SOL     OW25300   0.097   1.509  15.234
 4474SOL    HW125301   0.002   1.497  15.235
 4474SOL    HW225302   0.118   1.528  15.143
 4475SOL     OW25303   0.901   3.470  15.984
 4475SOL    HW125304   0.980   3.521  16.006
 4475SOL    HW225305   0.905   3.459  15.889
 4476SOL     OW25306   1.118   2.320   2.581
 4476SOL    HW125307   1.087   2.232   2.602
 4476SOL    HW225308   1.209   2.308   2.554
 4477SOL     OW25309   1.104   4.759   0.797
 4477SOL    HW125310   1.043   4.687   0.780
 4477SOL    HW225311   1.132   4.746   0.887
 4478SOL     OW25312   0.735   4.353  17.045
 4478SOL    HW125313   0.747   4.283  16.981
 4478SOL    HW225314   0.688   4.312  17.118
 4479SOL     OW25315   3.203   2.045  20.949
 4479SOL    HW125316   3.169   2.098  21.022
 4479SOL    HW225317   3.131   1.986  20.928
 4480SOL     OW25318   1.449   0.674   5.569
 4480SOL    HW125319   1.506   0.598   5.557
 4480SOL    HW225320   1.507   0.749   5.562
 4481SOL     OW25321   2.678   0.899   0.918
 4481SOL    HW125322   2.654   0.848   0.841
 4481SOL    HW225323   2.594   0.921   0.959
 4482SOL     OW25324   4.643   1.928   4.705
 4482SOL    HW125325   4.699   1.901   4.632
 4482SOL    HW225326   4.596   1.848   4.729
 4483SOL     OW25327   1.042   3.477  21.021
 4483SOL    HW125328   0.968   3.523  20.982
 4483SOL    HW225329   1.063   3.527  21.100
 4484SOL     OW25330   0.707   0.189   3.683
 4484SOL    HW125331   0.670   0.101   3.678
 4484SOL    HW225332   0.639   0.245   3.644
 4485SOL     OW25333   1.884   2.147   0.557
 4485SOL    HW125334   1.832   2.227   0.557
 4485SOL    HW225335   1.839   2.089   0.496
 4486SOL     OW25336   1.401   4.383   3.017
 4486SOL    HW125337   1.479   4.357   3.066
 4486SOL    HW225338   1.396   4.322   2.944
 4487SOL     OW25339   1.350   0.355   2.848
 4487SOL    HW125340   1.394   0.403   2.918
 4487SOL    HW225341   1.354   0.263   2.877
 4488SOL     OW25342   0.918   4.571   0.046
 4488SOL    HW125343   0.914   4.538  21.204
 4488SOL    HW225344   0.991   4.524   0.086
 4489SOL     OW25345   2.637   1.761   3.562
 4489SOL    HW125346   2.663   1.670   3.576
 4489SOL    HW225347   2.593   1.786   3.643
 4490SOL     OW25348   4.230   3.082   0.284
 4490SOL    HW125349   4.264   3.170   0.299
 4490SOL    HW225350   4.136   3.094   0.270
 4491SOL     OW25351   0.405   2.372   1.312
 4491SOL    HW125352   0.481   2.348   1.259
 4491SOL    HW225353   0.347   2.296   1.306
 4492SOL     OW25354   3.052   4.095  16.769
 4492SOL    HW125355   3.130   4.142  16.801
 4492SOL    HW225356   3.080   4.004  16.763
 4493SOL     OW25357   2.729   2.793   5.141
 4493SOL    HW125358   2.735   2.813   5.048
 4493SOL    HW225359   2.702   2.702   5.144
 4494SOL     OW25360   0.347   0.024   5.020
 4494SOL    HW125361   0.398   4.730   5.022
 4494SOL    HW225362   0.297   0.018   4.938
 4495SOL     OW25363   2.124   2.069  20.102
 4495SOL    HW125364   2.123   2.150  20.051
 4495SOL    HW225365   2.031   2.052  20.121
 4496SOL     OW25366   1.075   1.753   3.991
 4496SOL    HW125367   0.998   1.760   3.935
 4496SOL    HW225368   1.040   1.726   4.076
 4497SOL     OW25369   0.654   4.262   4.540
 4497SOL    HW125370   0.595   4.336   4.555
 4497SOL    HW225371   0.607   4.187   4.578
 4498SOL     OW25372   0.156   1.628   5.824
 4498SOL    HW125373   0.250   1.614   5.834
 4498SOL    HW225374   0.148   1.719   5.796
 4499SOL     OW25375   2.602   4.055   2.632
 4499SOL    HW125376   2.660   3.982   2.610
 4499SOL    HW225377   2.651   4.107   2.695
 4500SOL     OW25378   1.589   3.561   4.170
 4500SOL    HW125379   1.645   3.618   4.118
 4500SOL    HW225380   1.540   3.510   4.105
 4501SOL     OW25381   0.351   0.586  17.716
 4501SOL    HW125382   0.315   0.582  17.805
 4501SOL    HW225383   0.291   0.532  17.664
 4502SOL     OW25384   3.296   0.739   4.354
 4502SOL    HW125385   3.256   0.685   4.422
 4502SOL    HW225386   3.343   0.806   4.402
 4503SOL     OW25387   2.778   1.786  19.703
 4503SOL    HW125388   2.842   1.857  19.697
 4503SOL    HW225389   2.814   1.715  19.650
 4504SOL     OW25390   0.647   2.837   0.865
 4504SOL    HW125391   0.570   2.811   0.917
 4504SOL    HW225392   0.691   2.903   0.918
 4505SOL     OW25393   4.269   3.020  18.707
 4505SOL    HW125394   4.264   3.103  18.660
 4505SOL    HW225395   4.233   3.039  18.794
 4506SOL     OW25396   0.380   3.304  18.792
 4506SOL    HW125397   0.309   3.363  18.765
 4506SOL    HW225398   0.380   3.308  18.888
 4507SOL     OW25399   1.096   2.239   5.351
 4507SOL    HW125400   1.035   2.219   5.422
 4507SOL    HW225401   1.080   2.332   5.332
 4508SOL     OW25402   4.564   0.646  16.193
 4508SOL    HW125403   4.582   0.738  16.211
 4508SOL    HW225404   4.619   0.598  16.254
 4509SOL     OW25405   2.852   0.525   3.425
 4509SOL    HW125406   2.757   0.531   3.433
 4509SOL    HW225407   2.877   0.602   3.374
 4510SOL     OW25408   2.992   2.759  17.025
 4510SOL    HW125409   2.958   2.724  17.107
 4510SOL    HW225410   2.987   2.854  17.035
 4511SOL     OW25411   0.941   1.686   4.242
 4511SOL    HW125412   0.845   1.685   4.250
 4511SOL    HW225413   0.973   1.695   4.332
 4512SOL     OW25414   3.036   2.110   6.975
 4512SOL    HW125415   2.954   2.062   6.962
 4512SOL    HW225416   3.014   2.201   6.956
 4513SOL     OW25417   3.120   4.181  17.100
 4513SOL    HW125418   3.121   4.276  17.085
 4513SOL    HW225419   3.212   4.156  17.094
 4514SOL     OW25420   0.261   2.782   1.972
 4514SOL    HW125421   0.311   2.839   1.915
 4514SOL    HW225422   0.175   2.776   1.931
 4515SOL     OW25423   4.115   3.128  15.111
 4515SOL    HW125424   4.148   3.173  15.188
 4515SOL    HW225425   4.021   3.146  15.111
 4516SOL     OW25426   0.226   4.385   7.224
 4516SOL    HW125427   0.302   4.442   7.218
 4516SOL    HW225428   0.163   4.421   7.162
 4517SOL     OW25429   4.525   0.297  18.062
 4517SOL    HW125430   4.526   0.216  18.010
 4517SOL    HW225431   4.617   0.314  18.082
 4518SOL     OW25432   1.547   0.629   6.189
 4518SOL    HW125433   1.553   0.725   6.186
 4518SOL    HW225434   1.454   0.611   6.183
 4519SOL     OW25435   1.372   2.119   3.867
 4519SOL    HW125436   1.285   2.133   3.904
 4519SOL    HW225437   1.357   2.102   3.774
 4520SOL     OW25438   0.104   1.285  16.392
 4520SOL    HW125439   0.077   1.221  16.326
 4520SOL    HW225440   0.048   1.267  16.467
 4521SOL     OW25441   0.314   4.556   0.700
 4521SOL    HW125442   0.317   4.651   0.711
 4521SOL    HW225443   0.394   4.535   0.651
 4522SOL     OW25444   2.118   2.554   0.594
 4522SOL    HW125445   2.130   2.500   0.672
 4522SOL    HW225446   2.201   2.601   0.583
 4523SOL     OW25447   3.108   3.075   5.672
 4523SOL    HW125448   3.080   3.023   5.748
 4523SOL    HW225449   3.098   3.016   5.598
 4524SOL     OW25450   0.501   2.313   5.546
 4524SOL    HW125451   0.542   2.287   5.628
 4524SOL    HW225452   0.536   2.401   5.529
 4525SOL     OW25453   1.825   2.673   2.902
 4525SOL    HW125454   1.856   2.737   2.967
 4525SOL    HW225455   1.902   2.619   2.883
 4526SOL     OW25456   2.971   2.221   3.149
 4526SOL    HW125457   2.938   2.137   3.181
 4526SOL    HW225458   2.894   2.278   3.147
 4527SOL     OW25459   0.123   3.083  19.491
 4527SOL    HW125460   0.104   3.023  19.563
 4527SOL    HW225461   0.095   3.036  19.412
 4528SOL     OW25462   3.615   3.506  12.521
 4528SOL    HW125463   3.602   3.474  12.431
 4528SOL    HW225464   3.675   3.443  12.560
 4529SOL     OW25465   0.597   0.691  17.510
 4529SOL    HW125466   0.671   0.631  17.519
 4529SOL    HW225467   0.528   0.638  17.471
 4530SOL     OW25468   2.382   1.666   3.125
 4530SOL    HW125469   2.441   1.623   3.064
 4530SOL    HW225470   2.294   1.643   3.094
 4531SOL     OW25471   3.413   0.313   0.250
 4531SOL    HW125472   3.469   0.346   0.320
 4531SOL    HW225473   3.473   0.288   0.180
 4532SOL     OW25474   2.951   1.134   6.709
 4532SOL    HW125475   2.949   1.207   6.771
 4532SOL    HW225476   2.865   1.134   6.668
 4533SOL     OW25477   2.544   3.636   3.953
 4533SOL    HW125478   2.630   3.669   3.927
 4533SOL    HW225479   2.535   3.552   3.908
 4534SOL     OW25480   1.493   0.804   1.474
 4534SOL    HW125481   1.482   0.725   1.527
 4534SOL    HW225482   1.406   0.844   1.471
 4535SOL     OW25483   3.074   2.420  17.105
 4535SOL    HW125484   3.089   2.497  17.159
 4535SOL    HW225485   3.023   2.451  17.031
 4536SOL     OW25486   2.977   3.386   2.501
 4536SOL    HW125487   2.895   3.388   2.552
 4536SOL    HW225488   3.001   3.294   2.498
 4537SOL     OW25489   2.250   0.949  16.097
 4537SOL    HW125490   2.160   0.923  16.120
 4537SOL    HW225491   2.239   1.012  16.026
 4538SOL     OW25492   3.380   0.406   6.823
 4538SOL    HW125493   3.317   0.345   6.786
 4538SOL    HW225494   3.329   0.463   6.881
 4539SOL     OW25495   0.992   3.096  16.721
 4539SOL    HW125496   0.946   3.130  16.645
 4539SOL    HW225497   1.035   3.016  16.690
 4540SOL     OW25498   2.593   2.147   1.348
 4540SOL    HW125499   2.584   2.093   1.269
 4540SOL    HW225500   2.559   2.092   1.418
 4541SOL     OW25501   2.266   3.800   2.119
 4541SOL    HW125502   2.300   3.790   2.030
 4541SOL    HW225503   2.303   3.883   2.149
 4542SOL     OW25504   0.476   3.063  13.796
 4542SOL    HW125505   0.439   3.147  13.770
 4542SOL    HW225506   0.571   3.077  13.796
 4543SOL     OW25507   1.285   3.491   2.210
 4543SOL    HW125508   1.365   3.467   2.164
 4543SOL    HW225509   1.284   3.434   2.287
 4544SOL     OW25510   2.532   4.691  17.971
 4544SOL    HW125511   2.492   4.756  17.914
 4544SOL    HW225512   2.584   4.636  17.912
 4545SOL     OW25513   2.661   4.786  18.668
 4545SOL    HW125514   2.603   0.040  18.604
 4545SOL    HW225515   2.749   0.025  18.641
 4546SOL     OW25516   3.092   0.057  21.220
 4546SOL    HW125517   3.062   0.035  21.132
 4546SOL    HW225518   3.185   0.032  21.221
 4547SOL     OW25519   3.494   0.555  21.028
 4547SOL    HW125520   3.561   0.521  20.969
 4547SOL    HW225521   3.433   0.602  20.972
 4548SOL     OW25522   1.444   2.814   2.461
 4548SOL    HW125523   1.526   2.863   2.465
 4548SOL    HW225524   1.383   2.864   2.515
 4549SOL     OW25525   1.853   3.181  19.400
 4549SOL    HW125526   1.855   3.095  19.358
 4549SOL    HW225527   1.909   3.172  19.477
 4550SOL     OW25528   0.372   0.116  13.496
 4550SOL    HW125529   0.340   0.188  13.551
 4550SOL    HW225530   0.434   0.157  13.436
 4551SOL     OW25531   0.239   1.523  17.847
 4551SOL    HW125532   0.183   1.554  17.919
 4551SOL    HW225533   0.325   1.561  17.866
 4552SOL     OW25534   3.090   0.159   6.474
 4552SOL    HW125535   3.100   0.181   6.381
 4552SOL    HW225536   3.100   0.063   6.476
 4553SOL     OW25537   4.007   1.565  15.721
 4553SOL    HW125538   4.078   1.548  15.783
 4553SOL    HW225539   4.051   1.566  15.635
 4554SOL     OW25540   0.593   1.209   1.624
 4554SOL    HW125541   0.596   1.296   1.586
 4554SOL    HW225542   0.501   1.184   1.622
 4555SOL     OW25543   1.675   0.051  18.745
 4555SOL    HW125544   1.766   0.044  18.716
 4555SOL    HW225545   1.633   4.760  18.708
 4556SOL     OW25546   2.403   1.513  18.221
 4556SOL    HW125547   2.447   1.528  18.305
 4556SOL    HW225548   2.370   1.599  18.196
 4557SOL     OW25549   2.332   1.371  21.024
 4557SOL    HW125550   2.257   1.430  21.017
 4557SOL    HW225551   2.338   1.350  21.117
 4558SOL     OW25552   1.978   2.303  18.198
 4558SOL    HW125553   1.942   2.280  18.283
 4558SOL    HW225554   1.941   2.389  18.177
 4559SOL     OW25555   3.638   1.801  20.198
 4559SOL    HW125556   3.700   1.788  20.269
 4559SOL    HW225557   3.676   1.871  20.144
 4560SOL     OW25558   3.826   1.105   7.943
 4560SOL    HW125559   3.743   1.110   7.990
 4560SOL    HW225560   3.838   1.012   7.925
 4561SOL     OW25561   3.184   2.842   6.761
 4561SOL    HW125562   3.188   2.813   6.670
 4561SOL    HW225563   3.091   2.836   6.784
 4562SOL     OW25564   1.545   3.800   2.771
 4562SOL    HW125565   1.639   3.813   2.761
 4562SOL    HW225566   1.535   3.760   2.857
 4563SOL     OW25567   2.769   4.060   5.300
 4563SOL    HW125568   2.701   4.114   5.259
 4563SOL    HW225569   2.851   4.092   5.262
 4564SOL     OW25570   1.276   0.197   2.202
 4564SOL    HW125571   1.246   0.130   2.264
 4564SOL    HW225572   1.240   0.169   2.118
 4565SOL     OW25573   1.923   4.289  19.773
 4565SOL    HW125574   2.000   4.248  19.734
 4565SOL    HW225575   1.906   4.238  19.853
 4566SOL     OW25576   0.274   0.982   1.962
 4566SOL    HW125577   0.233   0.949   1.882
 4566SOL    HW225578   0.218   0.949   2.032
 4567SOL     OW25579   3.240   1.909  15.852
 4567SOL    HW125580   3.326   1.898  15.811
 4567SOL    HW225581   3.195   1.826  15.836
 4568SOL     OW25582   3.205   0.594  16.858
 4568SOL    HW125583   3.255   0.660  16.811
 4568SOL    HW225584   3.185   0.527  16.792
 4569SOL     OW25585   1.503   3.701   3.630
 4569SOL    HW125586   1.415   3.696   3.591
 4569SOL    HW225587   1.519   3.795   3.642
 4570SOL     OW25588   2.396   1.794   0.795
 4570SOL    HW125589   2.454   1.719   0.806
 4570SOL    HW225590   2.342   1.794   0.874
 4571SOL     OW25591   3.889   1.720   3.925
 4571SOL    HW125592   3.923   1.686   4.008
 4571SOL    HW225593   3.897   1.648   3.863
 4572SOL     OW25594   0.723   2.560   1.228
 4572SOL    HW125595   0.801   2.545   1.282
 4572SOL    HW225596   0.701   2.474   1.193
 4573SOL     OW25597   3.057   2.938   5.926
 4573SOL    HW125598   3.116   2.899   5.991
 4573SOL    HW225599   3.037   3.025   5.962
 4574SOL     OW25600   1.406   2.651   2.222
 4574SOL    HW125601   1.417   2.664   2.316
 4574SOL    HW225602   1.323   2.604   2.214
 4575SOL     OW25603   1.048   0.141  20.699
 4575SOL    HW125604   0.965   0.184  20.677
 4575SOL    HW225605   1.022   0.064  20.750
 4576SOL     OW25606   1.710   0.767  20.391
 4576SOL    HW125607   1.616   0.781  20.404
 4576SOL    HW225608   1.744   0.753  20.479
 4577SOL     OW25609   1.645   4.473  15.543
 4577SOL    HW125610   1.655   4.546  15.604
 4577SOL    HW225611   1.733   4.436  15.535
 4578SOL     OW25612   2.850   0.814  14.573
 4578SOL    HW125613   2.892   0.734  14.604
 4578SOL    HW225614   2.922   0.873  14.553
 4579SOL     OW25615   3.345   1.397   0.708
 4579SOL    HW125616   3.333   1.351   0.792
 4579SOL    HW225617   3.318   1.334   0.642
 4580SOL     OW25618   2.228   3.952   5.486
 4580SOL    HW125619   2.284   4.030   5.483
 4580SOL    HW225620   2.290   3.878   5.489
 4581SOL     OW25621   3.665   3.154   6.584
 4581SOL    HW125622   3.656   3.082   6.647
 4581SOL    HW225623   3.586   3.206   6.597
 4582SOL     OW25624   0.823   1.491  13.949
 4582SOL    HW125625   0.837   1.408  13.995
 4582SOL    HW225626   0.730   1.510  13.963
 4583SOL     OW25627   4.447   4.122  17.579
 4583SOL    HW125628   4.425   4.213  17.599
 4583SOL    HW225629   4.378   4.071  17.622
 4584SOL     OW25630   4.028   4.208  16.665
 4584SOL    HW125631   4.019   4.123  16.707
 4584SOL    HW225632   4.089   4.256  16.721
 4585SOL     OW25633   2.495   2.623   5.312
 4585SOL    HW125634   2.427   2.685   5.340
 4585SOL    HW225635   2.494   2.555   5.379
 4586SOL     OW25636   1.549   0.062  13.899
 4586SOL    HW125637   1.530   4.776  13.840
 4586SOL    HW225638   1.475   0.121  13.889
 4587SOL     OW25639   1.754   3.847  21.154
 4587SOL    HW125640   1.685   3.821  21.215
 4587SOL    HW225641   1.722   3.822  21.068
 4588SOL     OW25642   1.672   4.325  14.048
 4588SOL    HW125643   1.721   4.395  14.004
 4588SOL    HW225644   1.600   4.371  14.092
 4589SOL     OW25645   3.342   4.531  19.089
 4589SOL    HW125646   3.324   4.606  19.145
 4589SOL    HW225647   3.435   4.512  19.103
 4590SOL     OW25648   0.450   0.230   3.676
 4590SOL    HW125649   0.453   0.213   3.770
 4590SOL    HW225650   0.443   0.143   3.636
 4591SOL     OW25651   0.052   3.671  18.100
 4591SOL    HW125652   0.120   3.611  18.070
 4591SOL    HW225653   0.067   3.751  18.049
 4592SOL     OW25654   0.064   2.080   0.788
 4592SOL    HW125655   0.086   1.994   0.826
 4592SOL    HW225656   0.089   2.143   0.855
 4593SOL     OW25657   2.607   4.374  14.863
 4593SOL    HW125658   2.596   4.343  14.953
 4593SOL    HW225659   2.649   4.460  14.873
 4594SOL     OW25660   0.636   2.583   3.424
 4594SOL    HW125661   0.596   2.669   3.441
 4594SOL    HW225662   0.698   2.571   3.496
 4595SOL     OW25663   3.141   0.386  17.423
 4595SOL    HW125664   3.107   0.345  17.502
 4595SOL    HW225665   3.096   0.340  17.351
 4596SOL     OW25666   2.270   0.533  19.307
 4596SOL    HW125667   2.314   0.581  19.236
 4596SOL    HW225668   2.255   0.600  19.374
 4597SOL     OW25669   1.734   0.875  19.190
 4597SOL    HW125670   1.793   0.837  19.125
 4597SOL    HW225671   1.766   0.841  19.274
 4598SOL     OW25672   2.889   2.623   0.079
 4598SOL    HW125673   2.971   2.590   0.117
 4598SOL    HW225674   2.909   2.637  21.235
 4599SOL     OW25675   4.443   2.928   3.488
 4599SOL    HW125676   4.416   2.919   3.579
 4599SOL    HW225677   4.395   3.003   3.455
 4600SOL     OW25678   2.465   4.469  17.442
 4600SOL    HW125679   2.436   4.558  17.462
 4600SOL    HW225680   2.484   4.430  17.528
 4601SOL     OW25681   0.002   2.648   0.458
 4601SOL    HW125682   0.011   2.651   0.363
 4601SOL    HW225683   0.001   2.554   0.479
 4602SOL     OW25684   0.716   3.570   1.627
 4602SOL    HW125685   0.655   3.643   1.634
 4602SOL    HW225686   0.673   3.507   1.570
 4603SOL     OW25687   1.336   3.701   5.321
 4603SOL    HW125688   1.313   3.755   5.397
 4603SOL    HW225689   1.377   3.761   5.260
 4604SOL     OW25690   2.829   0.049   3.774
 4604SOL    HW125691   2.868   0.127   3.733
 4604SOL    HW225692   2.896   0.019   3.835
 4605SOL     OW25693   2.384   0.873   8.765
 4605SOL    HW125694   2.346   0.795   8.805
 4605SOL    HW225695   2.458   0.840   8.715
 4606SOL     OW25696   0.178   0.619   0.526
 4606SOL    HW125697   0.220   0.618   0.612
 4606SOL    HW225698   0.248   0.600   0.464
 4607SOL     OW25699   1.558   1.961  16.763
 4607SOL    HW125700   1.568   2.034  16.702
 4607SOL    HW225701   1.633   1.968  16.822
 4608SOL     OW25702   3.684   4.396  14.173
 4608SOL    HW125703   3.676   4.399  14.078
 4608SOL    HW225704   3.761   4.449  14.193
 4609SOL     OW25705   3.657   0.081  20.594
 4609SOL    HW125706   3.680   0.173  20.583
 4609SOL    HW225707   3.621   0.055  20.509
 4610SOL     OW25708   3.865   0.062  20.806
 4610SOL    HW125709   3.814   0.055  20.725
 4610SOL    HW225710   3.955   0.074  20.777
 4611SOL     OW25711   0.502   0.537  15.937
 4611SOL    HW125712   0.575   0.506  15.991
 4611SOL    HW225713   0.466   0.458  15.897
 4612SOL     OW25714   0.042   0.659   4.141
 4612SOL    HW125715   0.013   0.569   4.125
 4612SOL    HW225716   0.124   0.649   4.190
 4613SOL     OW25717   0.142   0.347   4.452
 4613SOL    HW125718   0.086   0.288   4.502
 4613SOL    HW225719   0.193   0.393   4.519
 4614SOL     OW25720   4.451   1.990   0.461
 4614SOL    HW125721   4.483   2.005   0.550
 4614SOL    HW225722   4.520   2.025   0.405
 4615SOL     OW25723   0.666   4.635  13.184
 4615SOL    HW125724   0.588   4.585  13.160
 4615SOL    HW225725   0.716   4.641  13.103
 4616SOL     OW25726   0.860   1.399   0.964
 4616SOL    HW125727   0.947   1.422   0.931
 4616SOL    HW225728   0.821   1.483   0.988
 4617SOL     OW25729   4.773   4.160   1.566
 4617SOL    HW125730   4.740   4.125   1.483
 4617SOL    HW225731   0.029   4.086   1.608
 4618SOL     OW25732   1.929   4.411  15.481
 4618SOL    HW125733   1.978   4.447  15.407
 4618SOL    HW225734   1.937   4.316  15.472
 4619SOL     OW25735   1.766   2.536   6.470
 4619SOL    HW125736   1.729   2.612   6.427
 4619SOL    HW225737   1.857   2.559   6.488
 4620SOL     OW25738   3.944   3.261   0.319
 4620SOL    HW125739   4.015   3.315   0.354
 4620SOL    HW225740   3.900   3.226   0.397
 4621SOL     OW25741   3.355   1.210  18.078
 4621SOL    HW125742   3.304   1.279  18.035
 4621SOL    HW225743   3.401   1.256  18.148
 4622SOL     OW25744   2.010   4.734  16.760
 4622SOL    HW125745   2.021   4.674  16.834
 4622SOL    HW225746   2.043   4.685  16.684
 4623SOL     OW25747   4.283   1.774   0.827
 4623SOL    HW125748   4.332   1.711   0.775
 4623SOL    HW225749   4.211   1.723   0.865
 4624SOL     OW25750   0.758   3.254  19.514
 4624SOL    HW125751   0.791   3.171  19.481
 4624SOL    HW225752   0.818   3.320  19.479
 4625SOL     OW25753   1.792   3.247   0.563
 4625SOL    HW125754   1.775   3.189   0.637
 4625SOL    HW225755   1.882   3.277   0.575
 4626SOL     OW25756   3.112   1.471   3.542
 4626SOL    HW125757   3.175   1.401   3.560
 4626SOL    HW225758   3.058   1.436   3.471
 4627SOL     OW25759   0.849   4.739   3.440
 4627SOL    HW125760   0.820   4.749   3.350
 4627SOL    HW225761   0.944   4.733   3.435
 4628SOL     OW25762   3.419   1.389   5.955
 4628SOL    HW125763   3.361   1.334   6.008
 4628SOL    HW225764   3.373   1.473   5.949
 4629SOL     OW25765   4.543   2.939  18.281
 4629SOL    HW125766   4.581   2.871  18.225
 4629SOL    HW225767   4.448   2.930  18.269
 4630SOL     OW25768   1.099   3.499  17.939
 4630SOL    HW125769   1.048   3.579  17.924
 4630SOL    HW225770   1.068   3.437  17.873
 4631SOL     OW25771   3.257   0.556   2.339
 4631SOL    HW125772   3.200   0.632   2.348
 4631SOL    HW225773   3.327   0.585   2.281
 4632SOL     OW25774   4.402   1.818  15.764
 4632SOL    HW125775   4.335   1.849  15.702
 4632SOL    HW225776   4.406   1.886  15.831
 4633SOL     OW25777   0.589   4.482   9.111
 4633SOL    HW125778   0.605   4.417   9.180
 4633SOL    HW225779   0.507   4.524   9.136
 4634SOL     OW25780   2.869   3.721  16.130
 4634SOL    HW125781   2.912   3.654  16.182
 4634SOL    HW225782   2.811   3.766  16.191
 4635SOL     OW25783   4.733   0.889   0.168
 4635SOL    HW125784   4.726   0.836   0.247
 4635SOL    HW225785   4.684   0.968   0.187
 4636SOL     OW25786   0.255   4.211   5.738
 4636SOL    HW125787   0.265   4.171   5.824
 4636SOL    HW225788   0.267   4.305   5.754
 4637SOL     OW25789   0.518   2.299   2.949
 4637SOL    HW125790   0.575   2.277   3.023
 4637SOL    HW225791   0.483   2.215   2.919
 4638SOL     OW25792   3.697   3.100   1.049
 4638SOL    HW125793   3.672   3.180   1.095
 4638SOL    HW225794   3.617   3.048   1.047
 4639SOL     OW25795   2.460   4.500  19.178
 4639SOL    HW125796   2.458   4.520  19.084
 4639SOL    HW225797   2.454   4.585  19.221
 4640SOL     OW25798   4.648   0.443   4.014
 4640SOL    HW125799   4.670   0.384   4.086
 4640SOL    HW225800   4.553   0.440   4.009
 4641SOL     OW25801   1.945   0.713   8.536
 4641SOL    HW125802   1.940   0.744   8.445
 4641SOL    HW225803   1.931   0.618   8.529
 4642SOL     OW25804   2.337   2.799  18.196
 4642SOL    HW125805   2.315   2.707  18.181
 4642SOL    HW225806   2.322   2.841  18.111
 4643SOL     OW25807   1.050   0.633   1.238
 4643SOL    HW125808   1.029   0.724   1.256
 4643SOL    HW225809   1.100   0.604   1.314
 4644SOL     OW25810   1.231   3.894   2.041
 4644SOL    HW125811   1.202   3.958   2.106
 4644SOL    HW225812   1.163   3.827   2.042
 4645SOL     OW25813   2.351   4.493  16.522
 4645SOL    HW125814   2.340   4.402  16.497
 4645SOL    HW225815   2.414   4.528  16.459
 4646SOL     OW25816   0.598   3.328  21.180
 4646SOL    HW125817   0.676   3.290  21.221
 4646SOL    HW225818   0.632   3.403  21.130
 4647SOL     OW25819   0.621   1.155   8.997
 4647SOL    HW125820   0.655   1.114   8.917
 4647SOL    HW225821   0.689   1.140   9.062
 4648SOL     OW25822   3.714   2.035   7.221
 4648SOL    HW125823   3.776   2.060   7.153
 4648SOL    HW225824   3.759   1.967   7.271
 4649SOL     OW25825   1.544   0.030   1.083
 4649SOL    HW125826   1.543   0.019   1.178
 4649SOL    HW225827   1.457   0.064   1.061
 4650SOL     OW25828   0.910   0.985   4.127
 4650SOL    HW125829   0.949   0.911   4.080
 4650SOL    HW225830   0.870   0.945   4.205
 4651SOL     OW25831   4.276   2.186  16.066
 4651SOL    HW125832   4.296   2.186  16.160
 4651SOL    HW225833   4.182   2.168  16.062
 4652SOL     OW25834   4.709   1.197   5.034
 4652SOL    HW125835   4.740   1.287   5.042
 4652SOL    HW225836   4.619   1.200   5.069
 4653SOL     OW25837   2.338   4.475   5.903
 4653SOL    HW125838   2.363   4.497   5.813
 4653SOL    HW225839   2.382   4.541   5.956
 4654SOL     OW25840   3.378   3.348  15.452
 4654SOL    HW125841   3.369   3.254  15.438
 4654SOL    HW225842   3.472   3.364  15.449
 4655SOL     OW25843   0.477   2.947   1.435
 4655SOL    HW125844   0.521   2.892   1.370
 4655SOL    HW225845   0.419   3.003   1.383
 4656SOL     OW25846   4.621   1.786  19.355
 4656SOL    HW125847   4.541   1.802  19.303
 4656SOL    HW225848   4.687   1.764  19.290
 4657SOL     OW25849   1.065   2.698   4.115
 4657SOL    HW125850   1.151   2.705   4.155
 4657SOL    HW225851   1.004   2.703   4.189
 4658SOL     OW25852   0.862   4.592   0.482
 4658SOL    HW125853   0.927   4.662   0.488
 4658SOL    HW225854   0.909   4.518   0.446
 4659SOL     OW25855   3.645   3.504  19.142
 4659SOL    HW125856   3.650   3.480  19.235
 4659SOL    HW225857   3.579   3.573  19.138
 4660SOL     OW25858   0.078   3.084   2.256
 4660SOL    HW125859   4.779   3.048   2.234
 4660SOL    HW225860   0.126   3.010   2.291
 4661SOL     OW25861   1.347   4.355   4.668
 4661SOL    HW125862   1.431   4.360   4.623
 4661SOL    HW225863   1.296   4.291   4.617
 4662SOL     OW25864   0.959   4.663  17.278
 4662SOL    HW125865   0.960   4.616  17.195
 4662SOL    HW225866   0.866   4.675  17.298
 4663SOL     OW25867   3.172   2.770   0.505
 4663SOL    HW125868   3.226   2.695   0.480
 4663SOL    HW225869   3.225   2.817   0.569
 4664SOL     OW25870   4.016   1.411   3.553
 4664SOL    HW125871   4.020   1.388   3.646
 4664SOL    HW225872   3.922   1.423   3.536
 4665SOL     OW25873   0.737   4.468  14.334
 4665SOL    HW125874   0.739   4.425  14.248
 4665SOL    HW225875   0.722   4.560  14.314
 4666SOL     OW25876   2.780   0.104   3.107
 4666SOL    HW125877   2.776   0.026   3.163
 4666SOL    HW225878   2.838   0.164   3.155
 4667SOL     OW25879   2.629   0.005   0.051
 4667SOL    HW125880   2.596   0.028  21.212
 4667SOL    HW225881   2.718   0.041   0.054
 4668SOL     OW25882   0.037   4.495  14.050
 4668SOL    HW125883   0.078   4.410  14.032
 4668SOL    HW225884   0.092   4.534  14.118
 4669SOL     OW25885   1.331   1.202   6.052
 4669SOL    HW125886   1.298   1.190   5.963
 4669SOL    HW225887   1.254   1.227   6.103
 4670SOL     OW25888   1.307   0.059  13.211
 4670SOL    HW125889   1.275   0.062  13.302
 4670SOL    HW225890   1.327   0.150  13.190
 4671SOL     OW25891   0.937   4.373  12.995
 4671SOL    HW125892   1.027   4.404  12.988
 4671SOL    HW225893   0.884   4.449  12.971
 4672SOL     OW25894   4.103   4.299   4.667
 4672SOL    HW125895   4.114   4.248   4.748
 4672SOL    HW225896   4.014   4.280   4.639
 4673SOL     OW25897   2.463   1.315   1.864
 4673SOL    HW125898   2.374   1.341   1.886
 4673SOL    HW225899   2.489   1.256   1.935
 4674SOL     OW25900   3.708   3.757   4.819
 4674SOL    HW125901   3.778   3.701   4.785
 4674SOL    HW225902   3.741   3.846   4.809
 4675SOL     OW25903   3.169   0.990   3.457
 4675SOL    HW125904   3.152   0.899   3.482
 4675SOL    HW225905   3.183   0.988   3.363
 4676SOL     OW25906   0.878   3.673  20.876
 4676SOL    HW125907   0.875   3.751  20.932
 4676SOL    HW225908   0.964   3.677  20.834
 4677SOL     OW25909   0.883   4.098  17.194
 4677SOL    HW125910   0.927   4.116  17.111
 4677SOL    HW225911   0.935   4.144  17.259
 4678SOL     OW25912   0.820   1.737  19.474
 4678SOL    HW125913   0.795   1.799  19.405
 4678SOL    HW225914   0.748   1.742  19.538
 4679SOL     OW25915   4.226   2.008  17.833
 4679SOL    HW125916   4.247   2.026  17.925
 4679SOL    HW225917   4.132   1.989  17.833
 4680SOL     OW25918   3.413   4.192   5.579
 4680SOL    HW125919   3.420   4.281   5.543
 4680SOL    HW225920   3.321   4.168   5.567
 4681SOL     OW25921   2.664   3.955  20.508
 4681SOL    HW125922   2.626   3.874  20.474
 4681SOL    HW225923   2.603   4.023  20.479
 4682SOL     OW25924   1.816   3.956   4.318
 4682SOL    HW125925   1.740   3.900   4.335
 4682SOL    HW225926   1.889   3.896   4.307
 4683SOL     OW25927   3.245   3.483   0.235
 4683SOL    HW125928   3.152   3.506   0.234
 4683SOL    HW225929   3.265   3.471   0.328
 4684SOL     OW25930   3.245   4.099  20.216
 4684SOL    HW125931   3.241   4.003  20.216
 4684SOL    HW225932   3.164   4.126  20.173
 4685SOL     OW25933   0.270   1.984  17.993
 4685SOL    HW125934   0.301   1.895  18.012
 4685SOL    HW225935   0.177   1.973  17.971
 4686SOL     OW25936   4.281   0.581  18.159
 4686SOL    HW125937   4.366   0.596  18.119
 4686SOL    HW225938   4.294   0.507  18.218
 4687SOL     OW25939   4.516   1.730   4.823
 4687SOL    HW125940   4.529   1.643   4.786
 4687SOL    HW225941   4.422   1.735   4.843
 4688SOL     OW25942   3.913   4.315   5.499
 4688SOL    HW125943   3.855   4.268   5.561
 4688SOL    HW225944   3.929   4.252   5.429
 4689SOL     OW25945   1.927   0.267  14.217
 4689SOL    HW125946   1.938   0.173  14.206
 4689SOL    HW225947   1.835   0.278  14.242
 4690SOL     OW25948   1.940   2.186  20.643
 4690SOL    HW125949   1.891   2.238  20.706
 4690SOL    HW225950   1.971   2.249  20.578
 4691SOL     OW25951   0.841   1.788   3.876
 4691SOL    HW125952   0.776   1.858   3.876
 4691SOL    HW225953   0.791   1.708   3.890
 4692SOL     OW25954   3.219   2.618   6.017
 4692SOL    HW125955   3.241   2.582   5.931
 4692SOL    HW225956   3.125   2.604   6.027
 4693SOL     OW25957   1.544   3.080  15.734
 4693SOL    HW125958   1.512   3.164  15.768
 4693SOL    HW225959   1.599   3.045  15.804
 4694SOL     OW25960   4.736   4.330  17.867
 4694SOL    HW125961   4.707   4.290  17.785
 4694SOL    HW225962   4.709   4.267  17.934
 4695SOL     OW25963   2.255   1.216  18.314
 4695SOL    HW125964   2.348   1.216  18.335
 4695SOL    HW225965   2.217   1.148  18.371
 4696SOL     OW25966   3.124   3.567   5.722
 4696SOL    HW125967   3.095   3.529   5.639
 4696SOL    HW225968   3.156   3.491   5.772
 4697SOL     OW25969   2.339   3.720  20.761
 4697SOL    HW125970   2.373   3.759  20.681
 4697SOL    HW225971   2.414   3.717  20.820
 4698SOL     OW25972   1.098   1.961   5.987
 4698SOL    HW125973   1.061   1.882   5.947
 4698SOL    HW225974   1.136   1.929   6.069
 4699SOL     OW25975   1.160   2.669  18.213
 4699SOL    HW125976   1.115   2.674  18.297
 4699SOL    HW225977   1.250   2.696  18.233
 4700SOL     OW25978   3.027   3.383   1.829
 4700SOL    HW125979   3.117   3.376   1.795
 4700SOL    HW225980   3.012   3.477   1.837
 4701SOL     OW25981   2.409   2.098  20.996
 4701SOL    HW125982   2.350   2.098  21.071
 4701SOL    HW225983   2.371   2.162  20.935
 4702SOL     OW25984   2.493   4.649   6.311
 4702SOL    HW125985   2.488   4.647   6.215
 4702SOL    HW225986   2.407   4.680   6.339
 4703SOL     OW25987   0.087   1.999   0.520
 4703SOL    HW125988   0.074   2.027   0.611
 4703SOL    HW225989   0.155   1.932   0.525
 4704SOL     OW25990   2.488   0.577   1.572
 4704SOL    HW125991   2.413   0.519   1.587
 4704SOL    HW225992   2.482   0.642   1.642
 4705SOL     OW25993   3.745   1.565   2.117
 4705SOL    HW125994   3.708   1.643   2.076
 4705SOL    HW225995   3.823   1.597   2.162
 4706SOL     OW25996   4.167   1.419   8.168
 4706SOL    HW125997   4.187   1.489   8.106
 4706SOL    HW225998   4.204   1.449   8.251
 4707SOL     OW25999   1.487   2.708   6.256
 4707SOL    HW126000   1.558   2.772   6.253
 4707SOL    HW226001   1.495   2.659   6.174
 4708SOL     OW26002   3.893   0.300   1.161
 4708SOL    HW126003   3.922   0.242   1.232
 4708SOL    HW226004   3.935   0.265   1.082
 4709SOL     OW26005   3.886   1.479   5.715
 4709SOL    HW126006   3.920   1.565   5.739
 4709SOL    HW226007   3.808   1.468   5.769
 4710SOL     OW26008   1.383   0.329  13.137
 4710SOL    HW126009   1.422   0.382  13.068
 4710SOL    HW226010   1.379   0.387  13.213
 4711SOL     OW26011   4.710   4.003  17.019
 4711SOL    HW126012   0.016   3.982  17.020
 4711SOL    HW226013   4.703   4.085  16.972
 4712SOL     OW26014   2.967   1.778   0.223
 4712SOL    HW126015   2.992   1.865   0.255
 4712SOL    HW226016   2.980   1.721   0.298
 4713SOL     OW26017   0.939   3.528   0.987
 4713SOL    HW126018   1.027   3.544   0.954
 4713SOL    HW226019   0.893   3.486   0.913
 4714SOL     OW26020   1.848   0.611  15.870
 4714SOL    HW126021   1.844   0.560  15.951
 4714SOL    HW226022   1.844   0.703  15.899
 4715SOL     OW26023   0.535   0.073  20.489
 4715SOL    HW126024   0.600   0.042  20.425
 4715SOL    HW226025   0.470   0.119  20.437
 4716SOL     OW26026   3.220   4.680   7.245
 4716SOL    HW126027   3.274   4.602   7.262
 4716SOL    HW226028   3.267   4.727   7.176
 4717SOL     OW26029   2.350   2.714   8.313
 4717SOL    HW126030   2.335   2.621   8.328
 4717SOL    HW226031   2.403   2.717   8.233
 4718SOL     OW26032   2.453   0.635  18.871
 4718SOL    HW126033   2.397   0.704  18.906
 4718SOL    HW226034   2.495   0.597  18.949
 4719SOL     OW26035   1.371   2.943   6.402
 4719SOL    HW126036   1.283   2.980   6.400
 4719SOL    HW226037   1.362   2.856   6.363
 4720SOL     OW26038   4.047   3.378  16.913
 4720SOL    HW126039   3.977   3.384  16.848
 4720SOL    HW226040   4.011   3.420  16.992
 4721SOL     OW26041   4.272   4.470  19.139
 4721SOL    HW126042   4.277   4.444  19.047
 4721SOL    HW226043   4.251   4.563  19.137
 4722SOL     OW26044   0.142   2.394   2.236
 4722SOL    HW126045   0.148   2.408   2.330
 4722SOL    HW226046   0.060   2.434   2.210
 4723SOL     OW26047   0.420   3.046  14.851
 4723SOL    HW126048   0.361   2.983  14.892
 4723SOL    HW226049   0.489   3.060  14.915
 4724SOL     OW26050   0.152   1.755  14.277
 4724SOL    HW126051   0.091   1.736  14.206
 4724SOL    HW226052   0.199   1.673  14.291
 4725SOL     OW26053   0.774   2.030  16.417
 4725SOL    HW126054   0.831   2.090  16.464
 4725SOL    HW226055   0.730   1.979  16.485
 4726SOL     OW26056   3.578   1.565  20.064
 4726SOL    HW126057   3.595   1.650  20.104
 4726SOL    HW226058   3.578   1.503  20.138
 4727SOL     OW26059   0.001   0.130   0.142
 4727SOL    HW126060   4.769   0.221   0.164
 4727SOL    HW226061   0.043   0.095   0.221
 4728SOL     OW26062   0.747   4.510   5.381
 4728SOL    HW126063   0.678   4.571   5.406
 4728SOL    HW226064   0.789   4.551   5.305
 4729SOL     OW26065   4.066   0.726   0.576
 4729SOL    HW126066   4.075   0.631   0.587
 4729SOL    HW226067   4.124   0.764   0.641
 4730SOL     OW26068   4.605   0.884   7.350
 4730SOL    HW126069   4.515   0.909   7.369
 4730SOL    HW226070   4.657   0.956   7.385
 4731SOL     OW26071   0.451   4.046  15.945
 4731SOL    HW126072   0.458   4.141  15.946
 4731SOL    HW226073   0.357   4.029  15.945
 4732SOL     OW26074   1.700   3.532   0.428
 4732SOL    HW126075   1.632   3.524   0.495
 4732SOL    HW226076   1.770   3.475   0.458
 4733SOL     OW26077   2.696   2.282   0.195
 4733SOL    HW126078   2.608   2.255   0.171
 4733SOL    HW226079   2.741   2.294   0.112
 4734SOL     OW26080   1.665   2.841  19.239
 4734SOL    HW126081   1.576   2.823  19.271
 4734SOL    HW226082   1.669   2.799  19.153
 4735SOL     OW26083   1.431   1.993   7.213
 4735SOL    HW126084   1.435   1.999   7.118
 4735SOL    HW226085   1.369   2.062   7.239
 4736SOL     OW26086   3.581   4.733   8.024
 4736SOL    HW126087   3.646   4.763   7.961
 4736SOL    HW226088   3.497   4.762   7.988
 4737SOL     OW26089   2.716   3.942  18.124
 4737SOL    HW126090   2.645   3.920  18.064
 4737SOL    HW226091   2.783   3.875  18.107
 4738SOL     OW26092   2.253   4.769   1.533
 4738SOL    HW126093   2.248   4.693   1.592
 4738SOL    HW226094   2.299   0.048   1.585
 4739SOL     OW26095   1.369   2.549  21.030
 4739SOL    HW126096   1.379   2.467  21.080
 4739SOL    HW226097   1.436   2.606  21.067
 4740SOL     OW26098   2.773   4.378   2.404
 4740SOL    HW126099   2.850   4.336   2.441
 4740SOL    HW226100   2.766   4.461   2.451
 4741SOL     OW26101   0.850   4.375  15.937
 4741SOL    HW126102   0.869   4.386  16.030
 4741SOL    HW226103   0.772   4.428  15.921
 4742SOL     OW26104   2.199   2.813   2.265
 4742SOL    HW126105   2.120   2.772   2.231
 4742SOL    HW226106   2.205   2.897   2.220
 4743SOL     OW26107   2.357   2.553   5.586
 4743SOL    HW126108   2.425   2.487   5.598
 4743SOL    HW226109   2.396   2.634   5.618
 4744SOL     OW26110   1.609   4.426  20.453
 4744SOL    HW126111   1.702   4.442  20.435
 4744SOL    HW226112   1.570   4.513  20.455
 4745SOL     OW26113   0.469   3.039  16.629
 4745SOL    HW126114   0.513   2.956  16.647
 4745SOL    HW226115   0.473   3.087  16.711
 4746SOL     OW26116   1.027   0.997  18.013
 4746SOL    HW126117   1.008   0.936  18.084
 4746SOL    HW226118   1.111   1.037  18.039
 4747SOL     OW26119   1.447   0.419  20.235
 4747SOL    HW126120   1.357   0.418  20.270
 4747SOL    HW226121   1.436   0.421  20.140
 4748SOL     OW26122   4.561   4.671   2.136
 4748SOL    HW126123   4.591   4.587   2.170
 4748SOL    HW226124   4.571   4.732   2.209
 4749SOL     OW26125   1.308   0.534  16.223
 4749SOL    HW126126   1.257   0.458  16.253
 4749SOL    HW226127   1.397   0.501  16.213
 4750SOL     OW26128   4.393   1.260   3.313
 4750SOL    HW126129   4.342   1.279   3.234
 4750SOL    HW226130   4.392   1.341   3.362
 4751SOL     OW26131   2.636   3.930   0.513
 4751SOL    HW126132   2.672   4.017   0.533
 4751SOL    HW226133   2.545   3.947   0.487
 4752SOL     OW26134   1.226   2.750   5.447
 4752SOL    HW126135   1.311   2.784   5.476
 4752SOL    HW226136   1.196   2.812   5.381
 4753SOL     OW26137   1.392   0.473  15.447
 4753SOL    HW126138   1.385   0.498  15.355
 4753SOL    HW226139   1.484   0.487  15.469
 4754SOL     OW26140   3.113   0.358   2.459
 4754SOL    HW126141   3.181   0.415   2.424
 4754SOL    HW226142   3.160   0.296   2.516
 4755SOL     OW26143   2.489   4.586   0.142
 4755SOL    HW126144   2.550   4.511   0.142
 4755SOL    HW226145   2.546   4.662   0.133
 4756SOL     OW26146   4.243   0.193  15.764
 4756SOL    HW126147   4.206   0.263  15.710
 4756SOL    HW226148   4.303   0.238  15.824
 4757SOL     OW26149   4.317   0.909   3.608
 4757SOL    HW126150   4.344   0.848   3.675
 4757SOL    HW226151   4.367   0.989   3.626
 4758SOL     OW26152   4.414   2.377   3.201
 4758SOL    HW126153   4.365   2.375   3.283
 4758SOL    HW226154   4.423   2.470   3.180
 4759SOL     OW26155   1.532   1.007  17.510
 4759SOL    HW126156   1.536   0.993  17.415
 4759SOL    HW226157   1.450   1.054  17.524
 4760SOL     OW26158   3.201   0.114   8.749
 4760SOL    HW126159   3.283   0.068   8.730
 4760SOL    HW226160   3.133   0.053   8.724
 4761SOL     OW26161   1.068   1.295   8.539
 4761SOL    HW126162   0.997   1.355   8.565
 4761SOL    HW226163   1.025   1.210   8.528
 4762SOL     OW26164   4.240   3.330  11.252
 4762SOL    HW126165   4.181   3.288  11.189
 4762SOL    HW226166   4.185   3.393  11.299
 4763SOL     OW26167   3.823   0.342   9.937
 4763SOL    HW126168   3.733   0.312   9.949
 4763SOL    HW226169   3.843   0.390  10.018
 4764SOL     OW26170   3.789   0.653  11.532
 4764SOL    HW126171   3.706   0.607  11.547
 4764SOL    HW226172   3.823   0.672  11.620
 4765SOL     OW26173   4.460   0.244   8.183
 4765SOL    HW126174   4.408   0.305   8.131
 4765SOL    HW226175   4.513   0.299   8.239
 4766SOL     OW26176   4.568   0.132   8.772
 4766SOL    HW126177   4.528   0.126   8.686
 4766SOL    HW226178   4.619   0.052   8.781
 4767SOL     OW26179   3.627   2.381  10.233
 4767SOL    HW126180   3.616   2.436  10.156
 4767SOL    HW226181   3.650   2.442  10.303
 4768SOL     OW26182   4.303   0.682   9.363
 4768SOL    HW126183   4.265   0.731   9.436
 4768SOL    HW226184   4.231   0.675   9.300
 4769SOL     OW26185   4.298   4.740   9.695
 4769SOL    HW126186   4.250   4.739   9.613
 4769SOL    HW226187   4.368   4.675   9.683
 4770SOL     OW26188   3.263   1.409  11.450
 4770SOL    HW126189   3.253   1.326  11.496
 4770SOL    HW226190   3.304   1.387  11.367
 4771SOL     OW26191   4.009   1.500  10.692
 4771SOL    HW126192   4.087   1.444  10.690
 4771SOL    HW226193   4.030   1.573  10.633
 4772SOL     OW26194   0.131   0.656   8.426
 4772SOL    HW126195   0.197   0.596   8.461
 4772SOL    HW226196   0.057   0.649   8.486
 4773SOL     OW26197   3.682   0.828   9.419
 4773SOL    HW126198   3.695   0.912   9.375
 4773SOL    HW226199   3.744   0.769   9.376
 4774SOL     OW26200   3.278   4.272   8.908
 4774SOL    HW126201   3.243   4.343   8.962
 4774SOL    HW226202   3.201   4.235   8.865
 4775SOL     OW26203   3.690   2.133  10.198
 4775SOL    HW126204   3.651   2.094  10.276
 4775SOL    HW226205   3.678   2.227  10.210
 4776SOL     OW26206   0.764   4.118  12.909
 4776SOL    HW126207   0.807   4.204  12.914
 4776SOL    HW226208   0.830   4.056  12.942
 4777SOL     OW26209   2.926   0.697  12.442
 4777SOL    HW126210   2.854   0.634  12.431
 4777SOL    HW226211   2.889   0.780  12.411
 4778SOL     OW26212   0.135   0.411  11.142
 4778SOL    HW126213   0.102   0.460  11.217
 4778SOL    HW226214   0.179   0.335  11.180
 4779SOL     OW26215   2.842   1.725  12.370
 4779SOL    HW126216   2.787   1.792  12.327
 4779SOL    HW226217   2.922   1.772  12.393
 4780SOL     OW26218   4.309   1.466  12.332
 4780SOL    HW126219   4.351   1.551  12.340
 4780SOL    HW226220   4.350   1.412  12.399
 4781SOL     OW26221   3.678   2.644  10.110
 4781SOL    HW126222   3.654   2.591  10.034
 4781SOL    HW226223   3.595   2.660  10.155
 4782SOL     OW26224   3.246   0.847  13.844
 4782SOL    HW126225   3.186   0.914  13.811
 4782SOL    HW226226   3.242   0.855  13.939
 4783SOL     OW26227   3.465   2.060  11.114
 4783SOL    HW126228   3.373   2.033  11.120
 4783SOL    HW226229   3.471   2.104  11.030
 4784SOL     OW26230   0.816   1.028  10.863
 4784SOL    HW126231   0.761   1.036  10.941
 4784SOL    HW226232   0.776   1.087  10.799
 4785SOL     OW26233   3.773   0.470  11.944
 4785SOL    HW126234   3.825   0.440  12.019
 4785SOL    HW226235   3.834   0.521  11.891
 4786SOL     OW26236   3.661   1.063  12.217
 4786SOL    HW126237   3.600   1.137  12.216
 4786SOL    HW226238   3.615   0.994  12.171
 4787SOL     OW26239   4.024   1.018  11.624
 4787SOL    HW126240   3.932   1.031  11.647
 4787SOL    HW226241   4.032   1.057  11.537
 4788SOL     OW26242   3.654   2.842  12.260
 4788SOL    HW126243   3.583   2.831  12.197
 4788SOL    HW226244   3.624   2.795  12.338
 4789SOL     OW26245   0.001   0.061  11.514
 4789SOL    HW126246   4.753   4.764  11.540
 4789SOL    HW226247   4.713   0.119  11.512
 4790SOL     OW26248   3.297   0.568  12.627
 4790SOL    HW126249   3.365   0.617  12.672
 4790SOL    HW226250   3.215   0.612  12.652
 4791SOL     OW26251   3.030   0.403  10.459
 4791SOL    HW126252   2.963   0.347  10.419
 4791SOL    HW226253   3.016   0.393  10.553
 4792SOL     OW26254   2.536   2.711  11.299
 4792SOL    HW126255   2.528   2.764  11.379
 4792SOL    HW226256   2.627   2.683  11.298
 4793SOL     OW26257   3.394   2.156  11.368
 4793SOL    HW126258   3.436   2.104  11.299
 4793SOL    HW226259   3.467   2.195  11.416
 4794SOL     OW26260   3.726   0.049  11.032
 4794SOL    HW126261   3.813   0.062  11.070
 4794SOL    HW226262   3.739   4.770  10.965
 4795SOL     OW26263   2.500   2.486  13.044
 4795SOL    HW126264   2.504   2.406  12.992
 4795SOL    HW226265   2.408   2.496  13.067
 4796SOL     OW26266   1.613   3.278  15.102
 4796SOL    HW126267   1.592   3.349  15.163
 4796SOL    HW226268   1.627   3.202  15.158
 4797SOL     OW26269   1.826   4.589  17.068
 4797SOL    HW126270   1.813   4.666  17.124
 4797SOL    HW226271   1.790   4.615  16.983
 4798SOL     OW26272   0.925   3.167  20.026
 4798SOL    HW126273   0.966   3.174  20.112
 4798SOL    HW226274   0.892   3.255  20.008
 4799SOL     OW26275   3.070   0.333  13.779
 4799SOL    HW126276   3.030   0.420  13.772
 4799SOL    HW226277   3.018   0.288  13.846
 4800SOL     OW26278   0.414   1.535  19.223
 4800SOL    HW126279   0.434   1.478  19.148
 4800SOL    HW226280   0.497   1.542  19.271
 4801SOL     OW26281   0.653   1.603  15.145
 4801SOL    HW126282   0.737   1.578  15.183
 4801SOL    HW226283   0.602   1.637  15.218
 4802SOL     OW26284   1.198   1.517  14.361
 4802SOL    HW126285   1.225   1.599  14.402
 4802SOL    HW226286   1.104   1.529  14.343
 4803SOL     OW26287   1.327   2.045   1.130
 4803SOL    HW126288   1.311   2.094   1.049
 4803SOL    HW226289   1.291   2.102   1.199
 4804SOL     OW26290   2.562   2.351  19.542
 4804SOL    HW126291   2.613   2.320  19.467
 4804SOL    HW226292   2.628   2.373  19.608
 4805SOL     OW26293   3.367   2.960  20.657
 4805SOL    HW126294   3.338   3.013  20.731
 4805SOL    HW226295   3.390   3.024  20.590
 4806SOL     OW26296   2.646   4.522   3.866
 4806SOL    HW126297   2.691   4.438   3.868
 4806SOL    HW226298   2.703   4.581   3.916
 4807SOL     OW26299   1.672   4.642  18.228
 4807SOL    HW126300   1.631   4.715  18.181
 4807SOL    HW226301   1.719   4.683  18.300
 4808SOL     OW26302   1.235   1.915  12.195
 4808SOL    HW126303   1.154   1.894  12.148
 4808SOL    HW226304   1.294   1.843  12.175
 4809SOL     OW26305   4.595   0.251   4.767
 4809SOL    HW126306   4.616   0.339   4.738
 4809SOL    HW226307   4.631   0.194   4.699
 4810SOL     OW26308   1.134   4.304   2.446
 4810SOL    HW126309   1.096   4.284   2.361
 4810SOL    HW226310   1.109   4.231   2.503
 4811SOL     OW26311   4.139   3.040   2.279
 4811SOL    HW126312   4.198   2.982   2.327
 4811SOL    HW226313   4.197   3.097   2.228
 4812SOL     OW26314   0.959   1.625   0.673
 4812SOL    HW126315   0.919   1.697   0.624
 4812SOL    HW226316   1.002   1.572   0.607
 4813SOL     OW26317   0.295   0.501  19.709
 4813SOL    HW126318   0.387   0.514  19.687
 4813SOL    HW226319   0.248   0.530  19.630
 4814SOL     OW26320   2.834   1.146   3.746
 4814SOL    HW126321   2.858   1.067   3.794
 4814SOL    HW226322   2.756   1.178   3.790
 4815SOL     OW26323   0.791   2.835   2.223
 4815SOL    HW126324   0.874   2.882   2.234
 4815SOL    HW226325   0.770   2.803   2.311
 4816SOL     OW26326   4.354   0.844  15.712
 4816SOL    HW126327   4.385   0.921  15.665
 4816SOL    HW226328   4.357   0.869  15.805
 4817SOL     OW26329   4.585   3.138   4.699
 4817SOL    HW126330   4.606   3.134   4.605
 4817SOL    HW226331   4.498   3.177   4.703
 4818SOL     OW26332   3.458   1.886  15.317
 4818SOL    HW126333   3.444   1.907  15.224
 4818SOL    HW226334   3.541   1.839  15.319
 4819SOL     OW26335   3.238   2.419  15.896
 4819SOL    HW126336   3.198   2.406  15.810
 4819SOL    HW226337   3.196   2.497  15.931
 4820SOL     OW26338   3.871   2.653   7.933
 4820SOL    HW126339   3.915   2.622   7.853
 4820SOL    HW226340   3.781   2.672   7.905
 4821SOL     OW26341   3.533   4.209   0.951
 4821SOL    HW126342   3.527   4.139   0.887
 4821SOL    HW226343   3.486   4.177   1.027
 4822SOL     OW26344   0.285   3.987   1.230
 4822SOL    HW126345   0.351   3.917   1.232
 4822SOL    HW226346   0.279   4.012   1.138
 4823SOL     OW26347   2.532   1.547  20.008
 4823SOL    HW126348   2.561   1.612  20.071
 4823SOL    HW226349   2.441   1.569  19.991
 4824SOL     OW26350   1.264   0.862   6.399
 4824SOL    HW126351   1.278   0.796   6.467
 4824SOL    HW226352   1.190   0.829   6.348
 4825SOL     OW26353   4.379   4.700  11.536
 4825SOL    HW126354   4.289   4.685  11.564
 4825SOL    HW226355   4.378   4.785  11.493
 4826SOL     OW26356   3.090   4.197  20.887
 4826SOL    HW126357   3.040   4.203  20.969
 4826SOL    HW226358   3.117   4.105  20.881
 4827SOL     OW26359   0.677   1.257  17.935
 4827SOL    HW126360   0.767   1.277  17.961
 4827SOL    HW226361   0.635   1.225  18.015
 4828SOL     OW26362   1.658   3.333   5.332
 4828SOL    HW126363   1.746   3.368   5.344
 4828SOL    HW226364   1.654   3.257   5.392
 4829SOL     OW26365   1.720   1.446  21.243
 4829SOL    HW126366   1.756   1.391  21.173
 4829SOL    HW226367   1.784   1.438   0.066
 4830SOL     OW26368   2.504   2.892   1.367
 4830SOL    HW126369   2.595   2.889   1.340
 4830SOL    HW226370   2.483   2.801   1.390
 4831SOL     OW26371   2.919   2.896  13.044
 4831SOL    HW126372   2.991   2.959  13.045
 4831SOL    HW226373   2.863   2.922  13.116
 4832SOL     OW26374   4.300   2.062  18.547
 4832SOL    HW126375   4.208   2.035  18.557
 4832SOL    HW226376   4.295   2.151  18.512
 4833SOL     OW26377   1.903   0.546  16.518
 4833SOL    HW126378   1.870   0.471  16.469
 4833SOL    HW226379   1.999   0.540  16.510
 4834SOL     OW26380   2.466   4.513  16.110
 4834SOL    HW126381   2.503   4.496  16.197
 4834SOL    HW226382   2.519   4.459  16.051
 4835SOL     OW26383   3.500   2.403   5.296
 4835SOL    HW126384   3.498   2.483   5.349
 4835SOL    HW226385   3.411   2.369   5.299
 4836SOL     OW26386   1.286   1.346  20.125
 4836SOL    HW126387   1.311   1.314  20.038
 4836SOL    HW226388   1.192   1.363  20.117
 4837SOL     OW26389   1.934   1.400  18.510
 4837SOL    HW126390   2.008   1.350  18.544
 4837SOL    HW226391   1.903   1.350  18.435
 4838SOL     OW26392   4.294   0.641   3.472
 4838SOL    HW126393   4.274   0.734   3.481
 4838SOL    HW226394   4.389   0.638   3.459
 4839SOL     OW26395   1.869   0.845   2.387
 4839SOL    HW126396   1.798   0.789   2.418
 4839SOL    HW226397   1.825   0.918   2.342
 4840SOL     OW26398   1.063   2.380   1.199
 4840SOL    HW126399   1.020   2.305   1.157
 4840SOL    HW226400   1.108   2.425   1.128
 4841SOL     OW26401   2.436   0.014   0.823
 4841SOL    HW126402   2.514   0.057   0.788
 4841SOL    HW226403   2.375   0.085   0.841
 4842SOL     OW26404   0.433   1.870  16.716
 4842SOL    HW126405   0.396   1.852  16.802
 4842SOL    HW226406   0.372   1.831  16.655
 4843SOL     OW26407   0.140   3.958   2.948
 4843SOL    HW126408   0.175   3.871   2.929
 4843SOL    HW226409   0.173   3.979   3.035
 4844SOL     OW26410   2.170   3.131   0.199
 4844SOL    HW126411   2.125   3.194   0.254
 4844SOL    HW226412   2.165   3.048   0.247
 4845SOL     OW26413   4.332   4.714  19.360
 4845SOL    HW126414   4.417   4.669  19.358
 4845SOL    HW226415   4.306   4.720  19.268
 4846SOL     OW26416   0.292   4.600   5.305
 4846SOL    HW126417   0.343   4.606   5.225
 4846SOL    HW226418   0.220   4.542   5.283
 4847SOL     OW26419   0.618   1.341   0.046
 4847SOL    HW126420   0.546   1.322  21.233
 4847SOL    HW226421   0.599   1.429   0.079
 4848SOL     OW26422   1.234   0.800   5.509
 4848SOL    HW126423   1.235   0.766   5.419
 4848SOL    HW226424   1.303   0.752   5.554
 4849SOL     OW26425   2.706   4.223   7.273
 4849SOL    HW126426   2.697   4.308   7.229
 4849SOL    HW226427   2.792   4.190   7.245
 4850SOL     OW26428   2.386   3.487   8.049
 4850SOL    HW126429   2.376   3.577   8.020
 4850SOL    HW226430   2.455   3.451   7.993
 4851SOL     OW26431   1.810   2.086   2.056
 4851SOL    HW126432   1.896   2.051   2.034
 4851SOL    HW226433   1.786   2.140   1.980
 4852SOL     OW26434   0.940   1.220  15.989
 4852SOL    HW126435   0.983   1.250  16.069
 4852SOL    HW226436   0.932   1.125  16.002
 4853SOL     OW26437   3.458   4.237  16.290
 4853SOL    HW126438   3.412   4.153  16.281
 4853SOL    HW226439   3.488   4.238  16.381
 4854SOL     OW26440   2.905   2.582  18.969
 4854SOL    HW126441   2.845   2.508  18.960
 4854SOL    HW226442   2.849   2.659  18.967
 4855SOL     OW26443   0.113   2.897  19.995
 4855SOL    HW126444   0.183   2.833  19.998
 4855SOL    HW226445   0.153   2.975  19.958
 4856SOL     OW26446   3.179   3.884  19.485
 4856SOL    HW126447   3.246   3.949  19.506
 4856SOL    HW226448   3.178   3.880  19.390
 4857SOL     OW26449   1.667   2.519   0.381
 4857SOL    HW126450   1.750   2.529   0.428
 4857SOL    HW226451   1.607   2.483   0.446
 4858SOL     OW26452   0.418   1.044   5.147
 4858SOL    HW126453   0.471   0.998   5.213
 4858SOL    HW226454   0.353   1.092   5.198
 4859SOL     OW26455   3.433   4.420   2.904
 4859SOL    HW126456   3.376   4.347   2.931
 4859SOL    HW226457   3.449   4.405   2.811
 4860SOL     OW26458   4.270   3.289  15.772
 4860SOL    HW126459   4.240   3.198  15.769
 4860SOL    HW226460   4.206   3.337  15.721
 4861SOL     OW26461   2.551   3.365   0.109
 4861SOL    HW126462   2.587   3.449   0.081
 4861SOL    HW226463   2.467   3.387   0.149
 4862SOL     OW26464   4.252   3.456   6.326
 4862SOL    HW126465   4.300   3.519   6.272
 4862SOL    HW226466   4.314   3.431   6.395
 4863SOL     OW26467   1.009   2.002   2.416
 4863SOL    HW126468   1.004   2.043   2.502
 4863SOL    HW226469   0.965   1.918   2.426
 4864SOL     OW26470   0.735   0.515   3.004
 4864SOL    HW126471   0.691   0.496   3.087
 4864SOL    HW226472   0.671   0.565   2.954
 4865SOL     OW26473   0.641   4.571   1.228
 4865SOL    HW126474   0.574   4.618   1.178
 4865SOL    HW226475   0.685   4.639   1.279
 4866SOL     OW26476   0.549   0.362   4.903
 4866SOL    HW126477   0.637   0.329   4.922
 4866SOL    HW226478   0.562   0.455   4.883
 4867SOL     OW26479   3.492   1.701  19.136
 4867SOL    HW126480   3.544   1.632  19.094
 4867SOL    HW226481   3.422   1.720  19.074
 4868SOL     OW26482   1.771   2.908   3.764
 4868SOL    HW126483   1.728   2.876   3.843
 4868SOL    HW226484   1.699   2.927   3.703
 4869SOL     OW26485   4.580   0.667  20.640
 4869SOL    HW126486   4.657   0.624  20.601
 4869SOL    HW226487   4.616   0.718  20.712
 4870SOL     OW26488   1.673   0.087   5.267
 4870SOL    HW126489   1.599   0.058   5.215
 4870SOL    HW226490   1.741   0.109   5.203
 4871SOL     OW26491   1.386   0.253   1.486
 4871SOL    HW126492   1.461   0.311   1.494
 4871SOL    HW226493   1.329   0.276   1.560
 4872SOL     OW26494   4.473   0.772  21.236
 4872SOL    HW126495   4.404   0.819   0.034
 4872SOL    HW226496   4.520   0.839  21.186
 4873SOL     OW26497   0.173   0.701   3.148
 4873SOL    HW126498   0.222   0.620   3.134
 4873SOL    HW226499   0.083   0.678   3.127
 4874SOL     OW26500   4.049   0.485  14.089
 4874SOL    HW126501   4.097   0.487  14.172
 4874SOL    HW226502   3.957   0.480  14.114
 4875SOL     OW26503   0.245   2.175  16.013
 4875SOL    HW126504   0.167   2.215  16.051
 4875SOL    HW226505   0.317   2.234  16.036
 4876SOL     OW26506   2.206   4.195  15.478
 4876SOL    HW126507   2.244   4.211  15.564
 4876SOL    HW226508   2.116   4.169  15.497
 4877SOL     OW26509   0.616   2.559   6.929
 4877SOL    HW126510   0.551   2.628   6.943
 4877SOL    HW226511   0.564   2.481   6.908
 4878SOL     OW26512   2.286   3.505   8.675
 4878SOL    HW126513   2.365   3.452   8.678
 4878SOL    HW226514   2.227   3.465   8.738
 4879SOL     OW26515   3.606   4.291  13.403
 4879SOL    HW126516   3.663   4.227  13.359
 4879SOL    HW226517   3.526   4.292  13.350
 4880SOL     OW26518   1.353   4.063  16.095
 4880SOL    HW126519   1.371   4.118  16.171
 4880SOL    HW226520   1.433   4.068  16.042
 4881SOL     OW26521   1.338   2.516  20.756
 4881SOL    HW126522   1.336   2.510  20.851
 4881SOL    HW226523   1.316   2.428  20.726
 4882SOL     OW26524   1.494   2.650   0.182
 4882SOL    HW126525   1.535   2.640   0.095
 4882SOL    HW226526   1.560   2.617   0.243
 4883SOL     OW26527   3.246   2.804   0.094
 4883SOL    HW126528   3.258   2.753   0.014
 4883SOL    HW226529   3.235   2.894   0.064
 4884SOL     OW26530   4.292   1.659   5.139
 4884SOL    HW126531   4.231   1.723   5.103
 4884SOL    HW226532   4.366   1.711   5.171
 4885SOL     OW26533   3.559   2.691   5.032
 4885SOL    HW126534   3.542   2.632   4.959
 4885SOL    HW226535   3.509   2.770   5.011
 4886SOL     OW26536   2.083   3.313  17.144
 4886SOL    HW126537   2.082   3.270  17.059
 4886SOL    HW226538   2.173   3.345  17.154
 4887SOL     OW26539   2.159   2.969   6.205
 4887SOL    HW126540   2.116   2.884   6.195
 4887SOL    HW226541   2.088   3.033   6.194
 4888SOL     OW26542   3.233   4.528   5.628
 4888SOL    HW126543   3.177   4.566   5.559
 4888SOL    HW226544   3.206   4.573   5.708
 4889SOL     OW26545   0.645   3.283  18.713
 4889SOL    HW126546   0.657   3.232  18.633
 4889SOL    HW226547   0.554   3.267  18.739
 4890SOL     OW26548   2.886   1.115  20.214
 4890SOL    HW126549   2.826   1.109  20.140
 4890SOL    HW226550   2.938   1.193  20.196
 4891SOL     OW26551   3.886   2.058   5.987
 4891SOL    HW126552   3.888   2.151   5.963
 4891SOL    HW226553   3.862   2.013   5.906
 4892SOL     OW26554   2.864   0.355  18.001
 4892SOL    HW126555   2.834   0.413  17.931
 4892SOL    HW226556   2.859   0.267  17.963
 4893SOL     OW26557   3.112   4.180   1.607
 4893SOL    HW126558   3.044   4.125   1.567
 4893SOL    HW226559   3.077   4.204   1.692
 4894SOL     OW26560   1.135   0.638  18.690
 4894SOL    HW126561   1.142   0.732  18.704
 4894SOL    HW226562   1.120   0.629  18.595
 4895SOL     OW26563   2.438   1.878  20.509
 4895SOL    HW126564   2.493   1.800  20.515
 4895SOL    HW226565   2.489   1.947  20.552
 4896SOL     OW26566   0.080   2.350  15.357
 4896SOL    HW126567   0.171   2.377  15.348
 4896SOL    HW226568   0.038   2.421  15.406
 4897SOL     OW26569   0.870   1.894   0.015
 4897SOL    HW126570   0.841   1.811  21.224
 4897SOL    HW226571   0.960   1.904  21.232
 4898SOL     OW26572   0.056   1.344  17.311
 4898SOL    HW126573   0.035   1.283  17.382
 4898SOL    HW226574   0.086   1.424  17.355
 4899SOL     OW26575   2.086   0.842  18.333
 4899SOL    HW126576   2.031   0.914  18.302
 4899SOL    HW226577   2.032   0.764  18.323
 4900SOL     OW26578   2.549   3.082  18.878
 4900SOL    HW126579   2.504   3.137  18.942
 4900SOL    HW226580   2.625   3.048  18.925
 4901SOL     OW26581   1.413   4.551  16.800
 4901SOL    HW126582   1.459   4.615  16.746
 4901SOL    HW226583   1.354   4.603  16.855
 4902SOL     OW26584   2.196   3.437   6.162
 4902SOL    HW126585   2.187   3.519   6.113
 4902SOL    HW226586   2.124   3.439   6.225
 4903SOL     OW26587   0.534   2.083  17.447
 4903SOL    HW126588   0.615   2.071  17.398
 4903SOL    HW226589   0.559   2.139  17.521
 4904SOL     OW26590   1.070   1.678   2.288
 4904SOL    HW126591   1.103   1.766   2.268
 4904SOL    HW226592   1.019   1.653   2.211
 4905SOL     OW26593   3.872   3.017  19.055
 4905SOL    HW126594   3.814   3.089  19.078
 4905SOL    HW226595   3.880   2.966  19.136
 4906SOL     OW26596   2.621   1.846   5.374
 4906SOL    HW126597   2.549   1.890   5.330
 4906SOL    HW226598   2.691   1.842   5.308
 4907SOL     OW26599   2.097   1.775  20.543
 4907SOL    HW126600   2.137   1.846  20.493
 4907SOL    HW226601   2.007   1.771  20.510
 4908SOL     OW26602   1.728   3.817  20.470
 4908SOL    HW126603   1.786   3.742  20.474
 4908SOL    HW226604   1.778   3.884  20.423
 4909SOL     OW26605   3.344   2.730   3.870
 4909SOL    HW126606   3.361   2.639   3.849
 4909SOL    HW226607   3.249   2.738   3.873
 4910SOL     OW26608   0.884   4.526  13.347
 4910SOL    HW126609   0.961   4.575  13.316
 4910SOL    HW226610   0.813   4.556  13.289
 4911SOL     OW26611   3.512   0.699  19.314
 4911SOL    HW126612   3.482   0.746  19.236
 4911SOL    HW226613   3.569   0.630  19.280
 4912SOL     OW26614   3.739   4.593   0.470
 4912SOL    HW126615   3.702   4.512   0.506
 4912SOL    HW226616   3.822   4.603   0.517
 4913SOL     OW26617   4.671   2.742  19.915
 4913SOL    HW126618   4.588   2.769  19.956
 4913SOL    HW226619   4.736   2.803  19.949
 4914SOL     OW26620   3.437   2.979   0.949
 4914SOL    HW126621   3.419   2.944   0.862
 4914SOL    HW226622   3.413   3.071   0.943
 4915SOL     OW26623   4.093   3.664   3.707
 4915SOL    HW126624   4.176   3.700   3.675
 4915SOL    HW226625   4.115   3.627   3.793
 4916SOL     OW26626   4.519   1.450   5.876
 4916SOL    HW126627   4.446   1.399   5.912
 4916SOL    HW226628   4.480   1.502   5.807
 4917SOL     OW26629   1.241   1.814  17.272
 4917SOL    HW126630   1.301   1.780  17.206
 4917SOL    HW226631   1.175   1.746  17.283
 4918SOL     OW26632   0.451   3.796  17.027
 4918SOL    HW126633   0.476   3.735  17.096
 4918SOL    HW226634   0.515   3.868  17.033
 4919SOL     OW26635   0.961   0.487  13.933
 4919SOL    HW126636   0.956   0.569  13.981
 4919SOL    HW226637   1.027   0.502  13.865
 4920SOL     OW26638   1.992   0.851   3.338
 4920SOL    HW126639   2.037   0.856   3.422
 4920SOL    HW226640   1.991   0.758   3.317
 4921SOL     OW26641   4.549   0.616   5.075
 4921SOL    HW126642   4.605   0.680   5.119
 4921SOL    HW226643   4.519   0.558   5.145
 4922SOL     OW26644   4.720   0.951  18.953
 4922SOL    HW126645   4.625   0.948  18.963
 4922SOL    HW226646   4.743   1.040  18.981
 4923SOL     OW26647   2.814   4.507  15.591
 4923SOL    HW126648   2.742   4.446  15.605
 4923SOL    HW226649   2.821   4.556  15.673
 4924SOL     OW26650   2.213   2.659  19.503
 4924SOL    HW126651   2.169   2.666  19.588
 4924SOL    HW226652   2.273   2.733  19.500
 4925SOL     OW26653   1.021   2.298  15.796
 4925SOL    HW126654   1.064   2.285  15.712
 4925SOL    HW226655   1.066   2.239  15.856
 4926SOL     OW26656   0.191   1.582  19.675
 4926SOL    HW126657   0.156   1.670  19.664
 4926SOL    HW226658   0.286   1.594  19.680
 4927SOL     OW26659   0.376   1.755  19.801
 4927SOL    HW126660   0.383   1.849  19.821
 4927SOL    HW226661   0.394   1.712  19.885
 4928SOL     OW26662   0.961   0.139  18.012
 4928SOL    HW126663   1.024   0.152  18.083
 4928SOL    HW226664   0.959   0.044  18.000
 4929SOL     OW26665   0.326   1.066  18.103
 4929SOL    HW126666   0.314   1.099  18.014
 4929SOL    HW226667   0.421   1.067  18.116
 4930SOL     OW26668   3.236   3.660   4.774
 4930SOL    HW126669   3.184   3.625   4.702
 4930SOL    HW226670   3.178   3.720   4.820
 4931SOL     OW26671   2.401   3.269   2.027
 4931SOL    HW126672   2.369   3.326   1.957
 4931SOL    HW226673   2.419   3.329   2.099
 4932SOL     OW26674   3.733   2.215   2.271
 4932SOL    HW126675   3.642   2.206   2.300
 4932SOL    HW226676   3.753   2.130   2.230
 4933SOL     OW26677   0.163   2.136  14.544
 4933SOL    HW126678   0.197   2.049  14.565
 4933SOL    HW226679   0.070   2.132  14.569
 4934SOL     OW26680   4.385   0.828  20.890
 4934SOL    HW126681   4.480   0.838  20.886
 4934SOL    HW226682   4.352   0.915  20.910
 4935SOL     OW26683   3.146   3.936   2.862
 4935SOL    HW126684   3.176   3.925   2.952
 4935SOL    HW226685   3.085   3.864   2.848
 4936SOL     OW26686   4.735   1.400   1.446
 4936SOL    HW126687   4.664   1.414   1.382
 4936SOL    HW226688   4.733   1.306   1.463
 4937SOL     OW26689   0.968   0.181   4.941
 4937SOL    HW126690   0.961   0.151   4.850
 4937SOL    HW226691   1.059   0.209   4.950
 4938SOL     OW26692   3.397   2.479   0.086
 4938SOL    HW126693   3.434   2.441   0.006
 4938SOL    HW226694   3.436   2.567   0.091
 4939SOL     OW26695   4.483   0.993   6.499
 4939SOL    HW126696   4.409   0.983   6.559
 4939SOL    HW226697   4.444   1.028   6.418
 4940SOL     OW26698   3.897   0.521   4.271
 4940SOL    HW126699   3.856   0.562   4.347
 4940SOL    HW226700   3.830   0.463   4.235
 4941SOL     OW26701   4.646   2.584  19.023
 4941SOL    HW126702   4.633   2.652  19.089
 4941SOL    HW226703   4.700   2.626  18.956
 4942SOL     OW26704   4.039   0.102   7.618
 4942SOL    HW126705   4.049   0.007   7.611
 4942SOL    HW226706   4.123   0.137   7.589
 4943SOL     OW26707   3.950   0.621  17.619
 4943SOL    HW126708   4.010   0.563  17.573
 4943SOL    HW226709   3.915   0.679  17.551
 4944SOL     OW26710   0.881   0.930   3.775
 4944SOL    HW126711   0.824   0.888   3.839
 4944SOL    HW226712   0.837   1.012   3.754
 4945SOL     OW26713   2.912   1.050  20.659
 4945SOL    HW126714   2.998   1.092  20.668
 4945SOL    HW226715   2.861   1.111  20.606
 4946SOL     OW26716   2.470   2.949  20.009
 4946SOL    HW126717   2.420   2.952  19.927
 4946SOL    HW226718   2.404   2.958  20.078
 4947SOL     OW26719   0.541   1.402   3.178
 4947SOL    HW126720   0.528   1.496   3.168
 4947SOL    HW226721   0.632   1.388   3.151
 4948SOL     OW26722   4.333   3.321   4.302
 4948SOL    HW126723   4.293   3.239   4.332
 4948SOL    HW226724   4.410   3.293   4.253
 4949SOL     OW26725   2.480   3.441   0.413
 4949SOL    HW126726   2.414   3.493   0.367
 4949SOL    HW226727   2.438   3.356   0.427
 4950SOL     OW26728   1.597   0.188  15.676
 4950SOL    HW126729   1.603   0.283  15.673
 4950SOL    HW226730   1.684   0.158  15.650
 4951SOL     OW26731   1.651   1.019   7.904
 4951SOL    HW126732   1.653   1.013   7.808
 4951SOL    HW226733   1.705   1.095   7.924
 4952SOL     OW26734   2.219   1.266   3.638
 4952SOL    HW126735   2.301   1.255   3.685
 4952SOL    HW226736   2.239   1.329   3.569
 4953SOL     OW26737   4.408   4.160   3.374
 4953SOL    HW126738   4.396   4.132   3.283
 4953SOL    HW226739   4.473   4.230   3.369
 4954SOL     OW26740   3.946   3.233  15.945
 4954SOL    HW126741   3.866   3.181  15.956
 4954SOL    HW226742   4.002   3.206  16.018
 4955SOL     OW26743   3.947   4.209  19.831
 4955SOL    HW126744   3.940   4.161  19.748
 4955SOL    HW226745   4.014   4.161  19.880
 4956SOL     OW26746   3.658   3.003   4.982
 4956SOL    HW126747   3.671   3.073   4.918
 4956SOL    HW226748   3.589   2.948   4.944
 4957SOL     OW26749   0.935   1.147  17.182
 4957SOL    HW126750   0.889   1.097  17.115
 4957SOL    HW226751   0.970   1.223  17.136
 4958SOL     OW26752   2.868   0.092  18.536
 4958SOL    HW126753   2.894   0.182  18.513
 4958SOL    HW226754   2.891   0.040  18.458
 4959SOL     OW26755   2.867   0.447  21.030
 4959SOL    HW126756   2.864   0.475  20.938
 4959SOL    HW226757   2.826   0.519  21.077
 4960SOL     OW26758   3.289   0.669   0.335
 4960SOL    HW126759   3.231   0.705   0.402
 4960SOL    HW226760   3.236   0.606   0.288
 4961SOL     OW26761   2.961   3.208   6.004
 4961SOL    HW126762   2.935   3.262   5.929
 4961SOL    HW226763   3.047   3.243   6.029
 4962SOL     OW26764   0.042   0.254   8.519
 4962SOL    HW126765   0.075   0.255   8.429
 4962SOL    HW226766   4.739   0.225   8.510
 4963SOL     OW26767   2.927   0.955   3.898
 4963SOL    HW126768   2.994   0.898   3.861
 4963SOL    HW226769   2.971   1.001   3.970
 4964SOL     OW26770   1.655   1.832  18.649
 4964SOL    HW126771   1.741   1.868  18.632
 4964SOL    HW226772   1.653   1.750  18.600
 4965SOL     OW26773   1.221   4.728   2.317
 4965SOL    HW126774   1.160   4.779   2.370
 4965SOL    HW226775   1.165   4.688   2.249
 4966SOL     OW26776   1.621   2.252   3.459
 4966SOL    HW126777   1.641   2.299   3.378
 4966SOL    HW226778   1.692   2.276   3.518
 4967SOL     OW26779   3.648   1.052   6.835
 4967SOL    HW126780   3.699   1.118   6.882
 4967SOL    HW226781   3.692   0.969   6.857
 4968SOL     OW26782   3.055   4.193   4.409
 4968SOL    HW126783   3.093   4.253   4.473
 4968SOL    HW226784   3.048   4.244   4.329
 4969SOL     OW26785   1.300   1.707   4.576
 4969SOL    HW126786   1.292   1.788   4.628
 4969SOL    HW226787   1.388   1.710   4.539
 4970SOL     OW26788   3.673   1.541  14.922
 4970SOL    HW126789   3.753   1.562  14.874
 4970SOL    HW226790   3.703   1.494  14.999
 4971SOL     OW26791   3.563   0.891  16.605
 4971SOL    HW126792   3.565   0.872  16.511
 4971SOL    HW226793   3.632   0.835  16.642
 4972SOL     OW26794   3.410   2.636  14.516
 4972SOL    HW126795   3.380   2.637  14.425
 4972SOL    HW226796   3.492   2.586  14.513
 4973SOL     OW26797   4.297   4.480   0.030
 4973SOL    HW126798   4.254   4.538   0.093
 4973SOL    HW226799   4.390   4.494   0.045
 4974SOL     OW26800   2.704   3.486   0.984
 4974SOL    HW126801   2.647   3.430   0.931
 4974SOL    HW226802   2.751   3.426   1.042
 4975SOL     OW26803   2.071   4.770  13.565
 4975SOL    HW126804   2.122   0.022  13.495
 4975SOL    HW226805   2.101   4.679  13.568
 4976SOL     OW26806   1.523   1.272  14.123
 4976SOL    HW126807   1.442   1.250  14.076
 4976SOL    HW226808   1.501   1.261  14.215
 4977SOL     OW26809   3.887   2.620   1.334
 4977SOL    HW126810   3.844   2.684   1.277
 4977SOL    HW226811   3.953   2.579   1.278
 4978SOL     OW26812   2.954   2.047   0.603
 4978SOL    HW126813   2.919   2.117   0.547
 4978SOL    HW226814   3.048   2.045   0.581
 4979SOL     OW26815   1.694   2.794   2.701
 4979SOL    HW126816   1.745   2.769   2.778
 4979SOL    HW226817   1.604   2.775   2.726
 4980SOL     OW26818   2.520   1.780   6.564
 4980SOL    HW126819   2.425   1.775   6.560
 4980SOL    HW226820   2.550   1.699   6.521
 4981SOL     OW26821   4.707   1.545  16.367
 4981SOL    HW126822   4.741   1.462  16.399
 4981SOL    HW226823   4.778   1.607  16.381
 4982SOL     OW26824   3.672   1.599  16.760
 4982SOL    HW126825   3.680   1.612  16.854
 4982SOL    HW226826   3.579   1.581  16.746
 4983SOL     OW26827   1.731   4.384   1.592
 4983SOL    HW126828   1.773   4.463   1.558
 4983SOL    HW226829   1.652   4.416   1.635
 4984SOL     OW26830   1.769   4.747   1.352
 4984SOL    HW126831   1.785   4.768   1.260
 4984SOL    HW226832   1.675   4.762   1.364
 4985SOL     OW26833   4.443   4.351   1.424
 4985SOL    HW126834   4.459   4.264   1.461
 4985SOL    HW226835   4.375   4.336   1.358
 4986SOL     OW26836   4.248   0.857   5.340
 4986SOL    HW126837   4.269   0.924   5.405
 4986SOL    HW226838   4.324   0.799   5.341
 4987SOL     OW26839   4.519   0.181   3.212
 4987SOL    HW126840   4.460   0.168   3.138
 4987SOL    HW226841   4.486   0.259   3.256
 4988SOL     OW26842   1.097   0.301  15.480
 4988SOL    HW126843   1.184   0.333  15.457
 4988SOL    HW226844   1.099   0.208  15.457
 4989SOL     OW26845   4.727   0.896  21.120
 4989SOL    HW126846   4.709   0.989  21.104
 4989SOL    HW226847   4.720   0.888  21.215
 4990SOL     OW26848   4.026   0.142  14.302
 4990SOL    HW126849   3.973   0.098  14.236
 4990SOL    HW226850   4.086   0.197  14.252
 4991SOL     OW26851   3.235   3.884  17.542
 4991SOL    HW126852   3.329   3.896  17.527
 4991SOL    HW226853   3.193   3.948  17.484
 4992SOL     OW26854   0.837   2.490  15.842
 4992SOL    HW126855   0.841   2.483  15.937
 4992SOL    HW226856   0.907   2.432  15.811
 4993SOL     OW26857   3.112   2.341   6.649
 4993SOL    HW126858   3.040   2.382   6.600
 4993SOL    HW226859   3.157   2.414   6.691
 4994SOL     OW26860   2.217   4.002   1.750
 4994SOL    HW126861   2.150   4.043   1.805
 4994SOL    HW226862   2.251   3.931   1.804
 4995SOL     OW26863   1.313   1.929  16.875
 4995SOL    HW126864   1.267   2.011  16.896
 4995SOL    HW226865   1.396   1.958  16.837
 4996SOL     OW26866   2.850   1.470   7.904
 4996SOL    HW126867   2.834   1.521   7.983
 4996SOL    HW226868   2.940   1.491   7.878
 4997SOL     OW26869   4.174   4.381   4.411
 4997SOL    HW126870   4.105   4.333   4.366
 4997SOL    HW226871   4.140   4.397   4.499
 4998SOL     OW26872   3.215   4.678  16.717
 4998SOL    HW126873   3.160   4.646  16.645
 4998SOL    HW226874   3.260   4.600  16.750
 4999SOL     OW26875   3.717   2.470   7.505
 4999SOL    HW126876   3.781   2.530   7.541
 4999SOL    HW226877   3.766   2.389   7.489
 5000SOL     OW26878   2.565   3.762   4.406
 5000SOL    HW126879   2.543   3.765   4.499
 5000SOL    HW226880   2.577   3.854   4.381
 5001SOL     OW26881   2.551   1.035  20.501
 5001SOL    HW126882   2.598   1.118  20.493
 5001SOL    HW226883   2.459   1.060  20.508
 5002SOL     OW26884   2.362   2.399   1.950
 5002SOL    HW126885   2.372   2.444   1.866
 5002SOL    HW226886   2.347   2.469   2.013
 5003SOL     OW26887   3.684   0.559   5.299
 5003SOL    HW126888   3.649   0.648   5.289
 5003SOL    HW226889   3.769   0.561   5.255
 5004SOL     OW26890   0.957   0.663  15.975
 5004SOL    HW126891   1.034   0.693  15.927
 5004SOL    HW226892   0.978   0.572  15.999
 5005SOL     OW26893   0.190   4.143  19.587
 5005SOL    HW126894   0.282   4.143  19.560
 5005SOL    HW226895   0.141   4.155  19.505
 5006SOL     OW26896   0.430   3.938  19.053
 5006SOL    HW126897   0.386   3.863  19.012
 5006SOL    HW226898   0.414   4.011  18.993
 5007SOL     OW26899   0.053   3.359  16.927
 5007SOL    HW126900   0.119   3.290  16.933
 5007SOL    HW226901   0.100   3.433  16.888
 5008SOL     OW26902   1.649   2.022   4.882
 5008SOL    HW126903   1.698   2.103   4.896
 5008SOL    HW226904   1.563   2.051   4.853
 5009SOL     OW26905   3.899   0.630   2.238
 5009SOL    HW126906   3.872   0.721   2.235
 5009SOL    HW226907   3.817   0.581   2.251
 5010SOL     OW26908   2.135   2.424  14.638
 5010SOL    HW126909   2.208   2.421  14.700
 5010SOL    HW226910   2.152   2.502  14.585
 5011SOL     OW26911   2.862   3.724  16.840
 5011SOL    HW126912   2.779   3.678  16.827
 5011SOL    HW226913   2.892   3.695  16.926
 5012SOL     OW26914   1.065   0.092   2.502
 5012SOL    HW126915   1.040   0.185   2.496
 5012SOL    HW226916   0.993   0.051   2.551
 5013SOL     OW26917   1.981   1.174   3.684
 5013SOL    HW126918   1.979   1.115   3.759
 5013SOL    HW226919   2.074   1.194   3.671
 5014SOL     OW26920   3.535   0.392  19.412
 5014SOL    HW126921   3.504   0.407  19.501
 5014SOL    HW226922   3.458   0.406  19.357
 5015SOL     OW26923   2.938   1.854  20.673
 5015SOL    HW126924   3.014   1.795  20.667
 5015SOL    HW226925   2.943   1.890  20.762
 5016SOL     OW26926   0.435   1.688   5.831
 5016SOL    HW126927   0.485   1.656   5.755
 5016SOL    HW226928   0.439   1.784   5.822
 5017SOL     OW26929   0.198   3.172  21.205
 5017SOL    HW126930   0.194   3.124  21.122
 5017SOL    HW226931   0.250   3.115   0.014
 5018SOL     OW26932   1.586   1.700   5.840
 5018SOL    HW126933   1.492   1.695   5.822
 5018SOL    HW226934   1.600   1.791   5.865
 5019SOL     OW26935   3.114   3.445  15.448
 5019SOL    HW126936   3.149   3.527  15.484
 5019SOL    HW226937   3.192   3.393  15.427
 5020SOL     OW26938   3.378   3.932  16.608
 5020SOL    HW126939   3.401   3.886  16.527
 5020SOL    HW226940   3.463   3.957  16.646
 5021SOL     OW26941   4.342   4.303   1.699
 5021SOL    HW126942   4.256   4.276   1.668
 5021SOL    HW226943   4.354   4.391   1.664
 5022SOL     OW26944   1.095   3.675   2.168
 5022SOL    HW126945   1.020   3.618   2.184
 5022SOL    HW226946   1.171   3.623   2.193
 5023SOL     OW26947   0.427   2.156  16.731
 5023SOL    HW126948   0.444   2.064  16.751
 5023SOL    HW226949   0.505   2.203  16.761
 5024SOL     OW26950   2.196   0.290   2.851
 5024SOL    HW126951   2.108   0.301   2.888
 5024SOL    HW226952   2.230   0.379   2.844
 5025SOL     OW26953   2.426   4.037  19.353
 5025SOL    HW126954   2.335   4.037  19.382
 5025SOL    HW226955   2.448   3.944  19.344
 5026SOL     OW26956   1.389   1.597  20.667
 5026SOL    HW126957   1.451   1.561  20.730
 5026SOL    HW226958   1.338   1.661  20.717
 5027SOL     OW26959   0.792   4.064  17.615
 5027SOL    HW126960   0.714   4.033  17.570
 5027SOL    HW226961   0.779   4.038  17.707
 5028SOL     OW26962   4.307   1.512  19.571
 5028SOL    HW126963   4.242   1.530  19.639
 5028SOL    HW226964   4.377   1.575  19.588
 5029SOL     OW26965   2.176   0.788  14.037
 5029SOL    HW126966   2.173   0.744  13.952
 5029SOL    HW226967   2.234   0.734  14.090
 5030SOL     OW26968   2.828   4.206  19.367
 5030SOL    HW126969   2.796   4.288  19.405
 5030SOL    HW226970   2.916   4.227  19.334
 5031SOL     OW26971   4.600   0.097   4.357
 5031SOL    HW126972   4.512   0.104   4.323
 5031SOL    HW226973   4.623   0.004   4.347
 5032SOL     OW26974   2.913   3.037  18.889
 5032SOL    HW126975   2.890   3.122  18.926
 5032SOL    HW226976   2.913   2.978  18.964
 5033SOL     OW26977   1.972   0.493   0.648
 5033SOL    HW126978   1.877   0.490   0.650
 5033SOL    HW226979   1.999   0.439   0.722
 5034SOL     OW26980   0.989   1.362   0.539
 5034SOL    HW126981   1.010   1.314   0.459
 5034SOL    HW226982   1.042   1.319   0.607
 5035SOL     OW26983   2.273   0.835  18.932
 5035SOL    HW126984   2.301   0.908  18.876
 5035SOL    HW226985   2.241   0.877  19.011
 5036SOL     OW26986   0.361   3.902  14.173
 5036SOL    HW126987   0.384   3.817  14.209
 5036SOL    HW226988   0.393   3.900  14.083
 5037SOL     OW26989   3.738   3.734   6.218
 5037SOL    HW126990   3.767   3.771   6.135
 5037SOL    HW226991   3.803   3.667   6.239
 5038SOL     OW26992   2.463   3.871   6.250
 5038SOL    HW126993   2.488   3.779   6.250
 5038SOL    HW226994   2.540   3.917   6.283
 5039SOL     OW26995   3.179   2.647  14.662
 5039SOL    HW126996   3.259   2.654  14.609
 5039SOL    HW226997   3.203   2.683  14.747
 5040SOL     OW26998   2.890   3.932  20.229
 5040SOL    HW126999   2.806   3.957  20.193
 5040SOL    HW227000   2.893   3.973  20.315
 5041SOL     OW27001   1.728   4.461  21.139
 5041SOL    HW127002   1.733   4.482  21.045
 5041SOL    HW227003   1.766   4.374  21.146
 5042SOL     OW27004   4.478   0.011   5.449
 5042SOL    HW127005   4.497   4.710   5.420
 5042SOL    HW227006   4.561   0.058   5.437
 5043SOL     OW27007   4.766   0.129  17.735
 5043SOL    HW127008   4.777   0.147  17.641
 5043SOL    HW227009   4.766   0.034  17.742
 5044SOL     OW27010   0.833   1.031   5.259
 5044SOL    HW127011   0.793   1.118   5.265
 5044SOL    HW227012   0.895   1.039   5.187
 5045SOL     OW27013   2.612   0.631   1.334
 5045SOL    HW127014   2.691   0.683   1.348
 5045SOL    HW227015   2.578   0.615   1.421
 5046SOL     OW27016   2.307   3.353   5.339
 5046SOL    HW127017   2.387   3.396   5.371
 5046SOL    HW227018   2.285   3.401   5.259
 5047SOL     OW27019   4.688   3.225   7.735
 5047SOL    HW127020   4.705   3.136   7.704
 5047SOL    HW227021   4.659   3.213   7.826
 5048SOL     OW27022   3.117   3.421  20.577
 5048SOL    HW127023   3.195   3.418  20.633
 5048SOL    HW227024   3.139   3.364  20.503
 5049SOL     OW27025   1.510   2.805   4.388
 5049SOL    HW127026   1.585   2.772   4.439
 5049SOL    HW227027   1.538   2.890   4.356
 5050SOL     OW27028   1.238   0.628  15.645
 5050SOL    HW127029   1.316   0.579  15.620
 5050SOL    HW227030   1.166   0.584  15.600
 5051SOL     OW27031   3.349   0.663  14.468
 5051SOL    HW127032   3.283   0.624  14.410
 5051SOL    HW227033   3.305   0.739  14.506
 5052SOL     OW27034   2.199   0.109   8.903
 5052SOL    HW127035   2.225   0.044   8.969
 5052SOL    HW227036   2.270   0.174   8.904
 5053SOL     OW27037   3.131   3.787  12.162
 5053SOL    HW127038   3.143   3.869  12.115
 5053SOL    HW227039   3.201   3.730  12.129
 5054SOL     OW27040   0.231   2.139   1.558
 5054SOL    HW127041   0.307   2.196   1.568
 5054SOL    HW227042   0.196   2.161   1.471
 5055SOL     OW27043   2.787   1.644  13.648
 5055SOL    HW127044   2.744   1.635  13.563
 5055SOL    HW227045   2.763   1.564  13.695
 5056SOL     OW27046   2.992   3.029  17.152
 5056SOL    HW127047   3.061   2.979  17.196
 5056SOL    HW227048   2.960   3.090  17.218
 5057SOL     OW27049   3.479   2.062   4.861
 5057SOL    HW127050   3.403   2.110   4.895
 5057SOL    HW227051   3.554   2.106   4.901
 5058SOL     OW27052   1.232   0.414  19.751
 5058SOL    HW127053   1.228   0.324  19.718
 5058SOL    HW227054   1.303   0.412  19.816
 5059SOL     OW27055   4.027   0.165  19.434
 5059SOL    HW127056   4.113   0.184  19.470
 5059SOL    HW227057   3.982   0.250  19.432
 5060SOL     OW27058   4.512   3.208  15.102
 5060SOL    HW127059   4.512   3.140  15.168
 5060SOL    HW227060   4.604   3.221  15.080
 5061SOL     OW27061   3.738   4.293   4.216
 5061SOL    HW127062   3.652   4.255   4.232
 5061SOL    HW227063   3.732   4.331   4.128
 5062SOL     OW27064   2.289   1.132   5.545
 5062SOL    HW127065   2.219   1.068   5.553
 5062SOL    HW227066   2.352   1.107   5.612
 5063SOL     OW27067   1.399   3.789  15.553
 5063SOL    HW127068   1.384   3.753  15.641
 5063SOL    HW227069   1.316   3.777  15.508
 5064SOL     OW27070   4.630   4.629   0.895
 5064SOL    HW127071   4.672   4.715   0.889
 5064SOL    HW227072   4.692   4.570   0.851
 5065SOL     OW27073   1.877   2.697   4.046
 5065SOL    HW127074   1.826   2.772   4.079
 5065SOL    HW227075   1.812   2.642   4.002
 5066SOL     OW27076   0.851   1.705  12.833
 5066SOL    HW127077   0.926   1.713  12.891
 5066SOL    HW227078   0.878   1.748  12.752
 5067SOL     OW27079   3.967   2.616   3.202
 5067SOL    HW127080   3.889   2.670   3.197
 5067SOL    HW227081   4.038   2.677   3.220
 5068SOL     OW27082   0.416   4.208  14.117
 5068SOL    HW127083   0.409   4.113  14.114
 5068SOL    HW227084   0.349   4.240  14.056
 5069SOL     OW27085   4.491   1.317   6.759
 5069SOL    HW127086   4.566   1.258   6.770
 5069SOL    HW227087   4.441   1.278   6.688
 5070SOL     OW27088   3.559   3.314  20.934
 5070SOL    HW127089   3.630   3.368  20.969
 5070SOL    HW227090   3.599   3.261  20.866
 5071SOL     OW27091   2.182   4.684   6.307
 5071SOL    HW127092   2.222   4.764   6.273
 5071SOL    HW227093   2.105   4.670   6.252
 5072SOL     OW27094   0.922   4.005   6.551
 5072SOL    HW127095   0.940   4.023   6.643
 5072SOL    HW227096   0.944   3.913   6.539
 5073SOL     OW27097   3.557   1.442  20.706
 5073SOL    HW127098   3.585   1.350  20.699
 5073SOL    HW227099   3.485   1.451  20.644
 5074SOL     OW27100   2.757   2.873   4.611
 5074SOL    HW127101   2.852   2.876   4.623
 5074SOL    HW227102   2.744   2.816   4.535
 5075SOL     OW27103   0.850   2.632  20.619
 5075SOL    HW127104   0.793   2.697  20.660
 5075SOL    HW227105   0.881   2.578  20.691
 5076SOL     OW27106   0.669   4.117  13.806
 5076SOL    HW127107   0.645   4.205  13.835
 5076SOL    HW227108   0.649   4.117  13.712
 5077SOL     OW27109   3.502   3.023  14.450
 5077SOL    HW127110   3.423   3.076  14.450
 5077SOL    HW227111   3.481   2.949  14.392
 5078SOL     OW27112   1.885   2.715  17.486
 5078SOL    HW127113   1.835   2.773  17.428
 5078SOL    HW227114   1.839   2.631  17.481
 5079SOL     OW27115   1.840   1.737  18.253
 5079SOL    HW127116   1.862   1.729  18.161
 5079SOL    HW227117   1.924   1.753  18.297
 5080SOL     OW27118   2.589   1.155   1.287
 5080SOL    HW127119   2.559   1.082   1.233
 5080SOL    HW227120   2.512   1.212   1.294
 5081SOL     OW27121   4.629   2.328   1.416
 5081SOL    HW127122   4.638   2.313   1.322
 5081SOL    HW227123   4.636   2.423   1.426
 5082SOL     OW27124   1.720   3.028  17.778
 5082SOL    HW127125   1.757   3.072  17.702
 5082SOL    HW227126   1.655   2.968  17.742
 5083SOL     OW27127   3.088   3.848   3.380
 5083SOL    HW127128   3.020   3.797   3.424
 5083SOL    HW227129   3.112   3.795   3.304
 5084SOL     OW27130   3.957   4.716  17.564
 5084SOL    HW127131   3.894   4.674  17.622
 5084SOL    HW227132   3.954   4.663  17.484
 5085SOL     OW27133   2.222   3.130   7.732
 5085SOL    HW127134   2.214   3.135   7.637
 5085SOL    HW227135   2.189   3.214   7.764
 5086SOL     OW27136   4.673   2.400  16.371
 5086SOL    HW127137   4.681   2.466  16.440
 5086SOL    HW227138   4.761   2.366  16.359
 5087SOL     OW27139   1.328   2.228   4.243
 5087SOL    HW127140   1.363   2.184   4.321
 5087SOL    HW227141   1.372   2.186   4.170
 5088SOL     OW27142   0.791   3.553   3.293
 5088SOL    HW127143   0.769   3.508   3.374
 5088SOL    HW227144   0.855   3.495   3.250
 5089SOL     OW27145   3.364   2.909  16.675
 5089SOL    HW127146   3.300   2.870  16.735
 5089SOL    HW227147   3.447   2.867  16.698
 5090SOL     OW27148   0.684   0.898  16.701
 5090SOL    HW127149   0.620   0.860  16.641
 5090SOL    HW227150   0.685   0.838  16.775
 5091SOL     OW27151   0.691   2.861  18.996
 5091SOL    HW127152   0.743   2.914  19.057
 5091SOL    HW227153   0.601   2.873  19.024
 5092SOL     OW27154   2.103   0.028   0.706
 5092SOL    HW127155   2.111   4.761   0.628
 5092SOL    HW227156   2.123   0.117   0.676
 5093SOL     OW27157   3.251   1.441  17.314
 5093SOL    HW127158   3.315   1.448  17.385
 5093SOL    HW227159   3.166   1.443  17.357
 5094SOL     OW27160   0.290   0.533  20.156
 5094SOL    HW127161   0.369   0.508  20.108
 5094SOL    HW227162   0.266   0.455  20.205
 5095SOL     OW27163   0.702   0.580  16.373
 5095SOL    HW127164   0.655   0.608  16.452
 5095SOL    HW227165   0.776   0.641  16.367
 5096SOL     OW27166   0.845   3.022  14.034
 5096SOL    HW127167   0.889   2.941  14.059
 5096SOL    HW227168   0.914   3.078  14.000
 5097SOL     OW27169   0.747   3.576  14.933
 5097SOL    HW127170   0.684   3.639  14.900
 5097SOL    HW227171   0.713   3.491  14.905
 5098SOL     OW27172   1.308   3.721  16.089
 5098SOL    HW127173   1.308   3.803  16.138
 5098SOL    HW227174   1.375   3.667  16.132
 5099SOL     OW27175   4.275   1.129   1.912
 5099SOL    HW127176   4.217   1.202   1.933
 5099SOL    HW227177   4.329   1.162   1.840
 5100SOL     OW27178   3.997   0.576  18.743
 5100SOL    HW127179   4.003   0.536  18.656
 5100SOL    HW227180   3.904   0.572  18.765
 5101SOL     OW27181   3.945   1.441   6.579
 5101SOL    HW127182   4.010   1.450   6.510
 5101SOL    HW227183   3.906   1.354   6.564
 5102SOL     OW27184   1.322   1.090   1.187
 5102SOL    HW127185   1.416   1.075   1.203
 5102SOL    HW227186   1.281   1.007   1.210
 5103SOL     OW27187   0.611   0.912   3.927
 5103SOL    HW127188   0.568   0.986   3.970
 5103SOL    HW227189   0.572   0.835   3.969
 5104SOL     OW27190   0.508   0.693   4.554
 5104SOL    HW127191   0.473   0.778   4.529
 5104SOL    HW227192   0.587   0.683   4.501
 5105SOL     OW27193   0.221   2.407   3.440
 5105SOL    HW127194   0.270   2.369   3.366
 5105SOL    HW227195   0.174   2.333   3.478
 5106SOL     OW27196   0.288   1.961  13.854
 5106SOL    HW127197   0.367   2.003  13.821
 5106SOL    HW227198   0.220   1.989  13.793
 5107SOL     OW27199   2.443   1.892  18.434
 5107SOL    HW127200   2.438   1.852  18.521
 5107SOL    HW227201   2.506   1.837  18.387
 5108SOL     OW27202   3.151   4.121   3.343
 5108SOL    HW127203   3.070   4.167   3.323
 5108SOL    HW227204   3.125   4.030   3.355
 5109SOL     OW27205   4.009   1.299   1.940
 5109SOL    HW127206   4.067   1.310   1.865
 5109SOL    HW227207   4.056   1.339   2.013
 5110SOL     OW27208   4.234   3.070   4.350
 5110SOL    HW127209   4.274   2.986   4.373
 5110SOL    HW227210   4.146   3.047   4.319
 5111SOL     OW27211   0.432   3.918   2.873
 5111SOL    HW127212   0.439   3.874   2.787
 5111SOL    HW227213   0.464   4.007   2.857
 5112SOL     OW27214   1.543   3.938   0.493
 5112SOL    HW127215   1.561   4.032   0.487
 5112SOL    HW227216   1.451   3.931   0.468
 5113SOL     OW27217   2.332   1.543  20.517
 5113SOL    HW127218   2.256   1.580  20.471
 5113SOL    HW227219   2.402   1.606  20.501
 5114SOL     OW27220   4.608   1.478   0.474
 5114SOL    HW127221   4.578   1.495   0.563
 5114SOL    HW227222   4.658   1.556   0.450
 5115SOL     OW27223   4.060   1.830   0.300
 5115SOL    HW127224   4.092   1.918   0.322
 5115SOL    HW227225   4.036   1.835   0.208
 5116SOL     OW27226   2.715   3.968   4.245
 5116SOL    HW127227   2.712   4.006   4.157
 5116SOL    HW227228   2.784   3.901   4.239
 5117SOL     OW27229   3.427   3.272   2.433
 5117SOL    HW127230   3.522   3.266   2.446
 5117SOL    HW227231   3.411   3.366   2.421
 5118SOL     OW27232   3.354   4.160  16.805
 5118SOL    HW127233   3.370   4.156  16.899
 5118SOL    HW227234   3.425   4.108  16.767
 5119SOL     OW27235   1.307   4.735   6.042
 5119SOL    HW127236   1.237   4.716   6.105
 5119SOL    HW227237   1.274   0.022   5.992
 5120SOL     OW27238   4.752   2.668   5.185
 5120SOL    HW127239   4.786   2.757   5.172
 5120SOL    HW227240   4.677   2.662   5.126
 5121SOL     OW27241   1.067   1.320  16.729
 5121SOL    HW127242   1.068   1.304  16.635
 5121SOL    HW227243   1.119   1.400  16.741
 5122SOL     OW27244   2.988   3.578   0.664
 5122SOL    HW127245   2.934   3.653   0.637
 5122SOL    HW227246   3.010   3.597   0.755
 5123SOL     OW27247   4.022   1.019  19.945
 5123SOL    HW127248   4.008   1.113  19.943
 5123SOL    HW227249   3.943   0.982  19.905
 5124SOL     OW27250   4.581   0.143  14.758
 5124SOL    HW127251   4.586   0.117  14.666
 5124SOL    HW227252   4.562   0.062  14.805
 5125SOL     OW27253   2.687   4.502  18.132
 5125SOL    HW127254   2.685   4.409  18.109
 5125SOL    HW227255   2.596   4.531  18.123
 5126SOL     OW27256   3.735   2.857   1.234
 5126SOL    HW127257   3.802   2.875   1.300
 5126SOL    HW227258   3.755   2.918   1.163
 5127SOL     OW27259   1.094   1.319  16.197
 5127SOL    HW127260   1.079   1.411  16.174
 5127SOL    HW227261   1.189   1.311  16.202
 5128SOL     OW27262   3.629   0.127   5.143
 5128SOL    HW127263   3.592   0.214   5.132
 5128SOL    HW227264   3.645   0.118   5.236
 5129SOL     OW27265   3.880   2.062   5.276
 5129SOL    HW127266   3.805   2.020   5.317
 5129SOL    HW227267   3.865   2.051   5.182
 5130SOL     OW27268   1.122   4.129   4.907
 5130SOL    HW127269   1.044   4.115   4.853
 5130SOL    HW227270   1.173   4.049   4.896
 5131SOL     OW27271   4.759   0.411  21.044
 5131SOL    HW127272   4.720   0.453  21.121
 5131SOL    HW227273   0.057   0.452  21.035
 5132SOL     OW27274   2.043   1.727  19.184
 5132SOL    HW127275   2.071   1.707  19.274
 5132SOL    HW227276   2.124   1.753  19.139
 5133SOL     OW27277   3.627   1.700   6.900
 5133SOL    HW127278   3.611   1.794   6.911
 5133SOL    HW227279   3.688   1.678   6.970
 5134SOL     OW27280   3.300   4.518  17.129
 5134SOL    HW127281   3.392   4.495  17.115
 5134SOL    HW227282   3.297   4.552  17.218
 5135SOL     OW27283   3.343   2.631  18.834
 5135SOL    HW127284   3.251   2.659  18.838
 5135SOL    HW227285   3.382   2.665  18.915
 5136SOL     OW27286   3.145   0.335   0.136
 5136SOL    HW127287   3.237   0.329   0.160
 5136SOL    HW227288   3.120   0.424   0.159
 5137SOL     OW27289   3.285   1.010   1.247
 5137SOL    HW127290   3.231   0.989   1.324
 5137SOL    HW227291   3.347   0.937   1.241
 5138SOL     OW27292   3.305   1.291   6.681
 5138SOL    HW127293   3.336   1.353   6.747
 5138SOL    HW227294   3.239   1.339   6.632
 5139SOL     OW27295   1.726   1.667   6.098
 5139SOL    HW127296   1.656   1.703   6.152
 5139SOL    HW227297   1.680   1.625   6.025
 5140SOL     OW27298   2.968   0.043  19.039
 5140SOL    HW127299   2.887   4.788  19.011
 5140SOL    HW227300   3.002   0.083  18.960
 5141SOL     OW27301   1.159   3.608   1.446
 5141SOL    HW127302   1.217   3.532   1.453
 5141SOL    HW227303   1.211   3.673   1.398
 5142SOL     OW27304   0.416   2.392   5.850
 5142SOL    HW127305   0.469   2.317   5.823
 5142SOL    HW227306   0.471   2.438   5.914
 5143SOL     OW27307   2.826   1.997  14.091
 5143SOL    HW127308   2.753   1.964  14.144
 5143SOL    HW227309   2.836   2.088  14.118
 5144SOL     OW27310   3.034   2.317   2.311
 5144SOL    HW127311   3.062   2.304   2.221
 5144SOL    HW227312   3.004   2.231   2.340
 5145SOL     OW27313   0.221   3.478  19.406
 5145SOL    HW127314   0.288   3.457  19.341
 5145SOL    HW227315   0.266   3.534  19.470
 5146SOL     OW27316   1.404   4.108  11.217
 5146SOL    HW127317   1.316   4.107  11.179
 5146SOL    HW227318   1.389   4.123  11.310
 5147SOL     OW27319   1.887   1.455  17.846
 5147SOL    HW127320   1.803   1.451  17.800
 5147SOL    HW227321   1.949   1.416  17.785
 5148SOL     OW27322   3.136   3.153  17.910
 5148SOL    HW127323   3.151   3.070  17.956
 5148SOL    HW227324   3.069   3.197  17.962
 5149SOL     OW27325   4.408   2.477  18.901
 5149SOL    HW127326   4.486   2.507  18.949
 5149SOL    HW227327   4.416   2.519  18.815
 5150SOL     OW27328   4.488   4.198   5.534
 5150SOL    HW127329   4.393   4.200   5.530
 5150SOL    HW227330   4.511   4.256   5.607
 5151SOL     OW27331   3.471   3.837   2.831
 5151SOL    HW127332   3.488   3.758   2.882
 5151SOL    HW227333   3.549   3.891   2.845
 5152SOL     OW27334   0.671   3.839  14.858
 5152SOL    HW127335   0.585   3.835  14.900
 5152SOL    HW227336   0.726   3.889  14.918
 5153SOL     OW27337   0.777   3.070   7.973
 5153SOL    HW127338   0.773   3.067   7.877
 5153SOL    HW227339   0.869   3.083   7.992
 5154SOL     OW27340   2.306   3.104   8.942
 5154SOL    HW127341   2.309   3.198   8.926
 5154SOL    HW227342   2.394   3.073   8.923
 5155SOL     OW27343   1.132   0.528  17.399
 5155SOL    HW127344   1.112   0.593  17.467
 5155SOL    HW227345   1.093   0.564  17.319
 5156SOL     OW27346   0.430   1.569  20.842
 5156SOL    HW127347   0.501   1.616  20.798
 5156SOL    HW227348   0.457   1.477  20.839
 5157SOL     OW27349   1.188   4.269  20.752
 5157SOL    HW127350   1.246   4.194  20.738
 5157SOL    HW227351   1.238   4.329  20.807
 5158SOL     OW27352   1.148   1.591  12.209
 5158SOL    HW127353   1.237   1.617  12.185
 5158SOL    HW227354   1.095   1.669  12.191
 5159SOL     OW27355   4.295   2.603   6.023
 5159SOL    HW127356   4.378   2.601   5.977
 5159SOL    HW227357   4.267   2.512   6.027
 5160SOL     OW27358   3.652   2.127  20.868
 5160SOL    HW127359   3.708   2.145  20.793
 5160SOL    HW227360   3.695   2.173  20.941
 5161SOL     OW27361   0.949   2.188  18.376
 5161SOL    HW127362   0.928   2.126  18.445
 5161SOL    HW227363   0.870   2.241  18.367
 5162SOL     OW27364   1.226   0.696  20.886
 5162SOL    HW127365   1.265   0.620  20.842
 5162SOL    HW227366   1.290   0.719  20.954
 5163SOL     OW27367   1.699   0.607  17.796
 5163SOL    HW127368   1.692   0.682  17.736
 5163SOL    HW227369   1.609   0.574  17.804
 5164SOL     OW27370   0.575   3.905   1.241
 5164SOL    HW127371   0.537   3.879   1.325
 5164SOL    HW227372   0.667   3.922   1.260
 5165SOL     OW27373   1.327   0.527   0.182
 5165SOL    HW127374   1.263   0.456   0.191
 5165SOL    HW227375   1.287   0.602   0.226
 5166SOL     OW27376   3.850   2.305   0.125
 5166SOL    HW127377   3.874   2.390   0.161
 5166SOL    HW227378   3.778   2.274   0.181
 5167SOL     OW27379   3.114   3.206  15.984
 5167SOL    HW127380   3.131   3.210  15.890
 5167SOL    HW227381   3.172   3.138  16.017
 5168SOL     OW27382   3.045   3.191  16.931
 5168SOL    HW127383   2.979   3.175  16.864
 5168SOL    HW227384   3.024   3.128  17.000
 5169SOL     OW27385   2.791   1.207   8.012
 5169SOL    HW127386   2.728   1.277   8.031
 5169SOL    HW227387   2.876   1.250   8.016
 5170SOL     OW27388   1.686   4.064   6.008
 5170SOL    HW127389   1.736   4.145   6.004
 5170SOL    HW227390   1.676   4.046   6.101
 5171SOL     OW27391   1.311   1.582   3.290
 5171SOL    HW127392   1.381   1.517   3.301
 5171SOL    HW227393   1.332   1.625   3.207
 5172SOL     OW27394   4.450   0.792   1.853
 5172SOL    HW127395   4.372   0.748   1.885
 5172SOL    HW227396   4.430   0.885   1.861
 5173SOL     OW27397   2.489   2.119   6.685
 5173SOL    HW127398   2.451   2.164   6.609
 5173SOL    HW227399   2.583   2.135   6.678
 5174SOL     OW27400   0.931   3.497   4.399
 5174SOL    HW127401   0.894   3.413   4.372
 5174SOL    HW227402   0.926   3.496   4.494
 5175SOL     OW27403   2.770   4.449  19.482
 5175SOL    HW127404   2.748   4.454  19.575
 5175SOL    HW227405   2.729   4.526  19.443
 5176SOL     OW27406   3.713   0.841  21.033
 5176SOL    HW127407   3.716   0.769  21.096
 5176SOL    HW227408   3.805   0.860  21.015
 5177SOL     OW27409   4.484   3.531  21.036
 5177SOL    HW127410   4.444   3.458  21.084
 5177SOL    HW227411   4.493   3.601  21.101
 5178SOL     OW27412   0.802   3.232  20.796
 5178SOL    HW127413   0.724   3.288  20.792
 5178SOL    HW227414   0.779   3.155  20.745
 5179SOL     OW27415   3.231   1.273   7.039
 5179SOL    HW127416   3.275   1.354   7.013
 5179SOL    HW227417   3.301   1.208   7.041
 5180SOL     OW27418   0.273   4.018   0.974
 5180SOL    HW127419   0.367   4.003   0.959
 5180SOL    HW227420   0.246   4.073   0.901
 5181SOL     OW27421   4.761   4.443   5.658
 5181SOL    HW127422   0.027   4.486   5.725
 5181SOL    HW227423   0.004   4.352   5.658
 5182SOL     OW27424   4.525   3.574   0.797
 5182SOL    HW127425   4.430   3.577   0.786
 5182SOL    HW227426   4.546   3.481   0.795
 5183SOL     OW27427   4.770   1.369  12.118
 5183SOL    HW127428   4.708   1.303  12.148
 5183SOL    HW227429   0.067   1.341  12.153
 5184SOL     OW27430   0.875   0.269  11.047
 5184SOL    HW127431   0.895   0.231  10.961
 5184SOL    HW227432   0.932   0.346  11.053
 5185SOL     OW27433   3.308   1.802   6.994
 5185SOL    HW127434   3.389   1.852   7.000
 5185SOL    HW227435   3.255   1.849   6.929
 5186SOL     OW27436   4.771   1.969  20.957
 5186SOL    HW127437   4.760   1.881  20.992
 5186SOL    HW227438   4.683   2.007  20.957
 5187SOL     OW27439   4.715   0.722  15.497
 5187SOL    HW127440   4.636   0.713  15.445
 5187SOL    HW227441   4.769   0.784  15.447
 5188SOL     OW27442   0.757   2.487  20.967
 5188SOL    HW127443   0.830   2.473  20.906
 5188SOL    HW227444   0.791   2.456  21.051
 5189SOL     OW27445   2.728   0.432  19.011
 5189SOL    HW127446   2.707   0.386  18.929
 5189SOL    HW227447   2.790   0.500  18.985
 5190SOL     OW27448   1.802   3.470  20.000
 5190SOL    HW127449   1.726   3.431  19.957
 5190SOL    HW227450   1.877   3.439  19.950
 5191SOL     OW27451   1.662   1.921   6.687
 5191SOL    HW127452   1.630   1.996   6.738
 5191SOL    HW227453   1.583   1.884   6.648
 5192SOL     OW27454   3.639   2.742  11.920
 5192SOL    HW127455   3.674   2.725  11.832
 5192SOL    HW227456   3.603   2.830  11.914
 5193SOL     OW27457   3.036   2.014  19.424
 5193SOL    HW127458   2.976   2.009  19.498
 5193SOL    HW227459   3.118   1.978  19.457
 5194SOL     OW27460   0.567   0.259   5.443
 5194SOL    HW127461   0.588   0.214   5.361
 5194SOL    HW227462   0.598   0.349   5.430
 5195SOL     OW27463   0.405   1.756  20.089
 5195SOL    HW127464   0.387   1.850  20.089
 5195SOL    HW227465   0.328   1.717  20.130
 5196SOL     OW27466   0.039   3.383   5.211
 5196SOL    HW127467   0.041   3.478   5.199
 5196SOL    HW227468   4.751   3.354   5.160
 5197SOL     OW27469   1.369   1.879   4.096
 5197SOL    HW127470   1.347   1.790   4.124
 5197SOL    HW227471   1.292   1.908   4.047
 5198SOL     OW27472   0.457   3.590  15.174
 5198SOL    HW127473   0.487   3.658  15.114
 5198SOL    HW227474   0.416   3.638  15.246
 5199SOL     OW27475   1.872   0.813  16.500
 5199SOL    HW127476   1.890   0.720  16.493
 5199SOL    HW227477   1.777   0.820  16.490
 5200SOL     OW27478   1.987   3.584   2.616
 5200SOL    HW127479   2.003   3.612   2.526
 5200SOL    HW227480   1.936   3.504   2.607
 5201SOL     OW27481   0.467   3.319   1.788
 5201SOL    HW127482   0.533   3.263   1.829
 5201SOL    HW227483   0.498   3.331   1.698
 5202SOL     OW27484   0.459   1.758  18.646
 5202SOL    HW127485   0.512   1.795  18.716
 5202SOL    HW227486   0.375   1.803  18.652
 5203SOL     OW27487   3.310   3.556   1.213
 5203SOL    HW127488   3.370   3.618   1.172
 5203SOL    HW227489   3.265   3.515   1.140
 5204SOL     OW27490   0.713   0.845  19.563
 5204SOL    HW127491   0.777   0.914  19.582
 5204SOL    HW227492   0.720   0.785  19.638
 5205SOL     OW27493   3.107   1.940   8.512
 5205SOL    HW127494   3.153   2.003   8.457
 5205SOL    HW227495   3.171   1.915   8.579
 5206SOL     OW27496   4.565   4.453   7.902
 5206SOL    HW127497   4.562   4.488   7.992
 5206SOL    HW227498   4.648   4.406   7.898
 5207SOL     OW27499   3.613   3.226  20.497
 5207SOL    HW127500   3.647   3.136  20.496
 5207SOL    HW227501   3.533   3.221  20.444
 5208SOL     OW27502   0.363   1.698  16.237
 5208SOL    HW127503   0.371   1.604  16.217
 5208SOL    HW227504   0.425   1.740  16.177
 5209SOL     OW27505   1.348   0.344  18.957
 5209SOL    HW127506   1.292   0.367  18.884
 5209SOL    HW227507   1.402   0.422  18.972
 5210SOL     OW27508   3.780   2.340   3.412
 5210SOL    HW127509   3.811   2.314   3.325
 5210SOL    HW227510   3.704   2.283   3.428
 5211SOL     OW27511   3.715   0.426   3.618
 5211SOL    HW127512   3.670   0.475   3.549
 5211SOL    HW227513   3.737   0.493   3.683
 5212SOL     OW27514   1.694   2.871   4.116
 5212SOL    HW127515   1.632   2.810   4.076
 5212SOL    HW227516   1.638   2.939   4.154
 5213SOL     OW27517   3.167   1.620   0.783
 5213SOL    HW127518   3.234   1.559   0.751
 5213SOL    HW227519   3.150   1.591   0.873
 5214SOL     OW27520   3.182   4.513  16.241
 5214SOL    HW127521   3.123   4.542  16.172
 5214SOL    HW227522   3.269   4.527  16.206
 5215SOL     OW27523   1.971   4.492   2.755
 5215SOL    HW127524   1.974   4.579   2.717
 5215SOL    HW227525   1.904   4.446   2.704
 5216SOL     OW27526   2.350   4.675  16.763
 5216SOL    HW127527   2.393   4.659  16.679
 5216SOL    HW227528   2.351   4.589  16.806
 5217SOL     OW27529   0.526   2.549  19.986
 5217SOL    HW127530   0.564   2.546  19.898
 5217SOL    HW227531   0.482   2.464  19.996
 5218SOL     OW27532   0.502   4.054   3.877
 5218SOL    HW127533   0.431   4.043   3.941
 5218SOL    HW227534   0.471   4.008   3.799
 5219SOL     OW27535   3.029   4.127  13.508
 5219SOL    HW127536   3.062   4.163  13.591
 5219SOL    HW227537   2.954   4.073  13.533
 5220SOL     OW27538   0.509   2.677   1.313
 5220SOL    HW127539   0.469   2.614   1.374
 5220SOL    HW227540   0.593   2.637   1.289
 5221SOL     OW27541   0.222   3.492  14.684
 5221SOL    HW127542   0.265   3.469  14.766
 5221SOL    HW227543   0.137   3.526  14.711
 5222SOL     OW27544   3.407   1.244   2.333
 5222SOL    HW127545   3.373   1.231   2.245
 5222SOL    HW227546   3.442   1.333   2.332
 5223SOL     OW27547   4.465   2.274   2.130
 5223SOL    HW127548   4.513   2.231   2.200
 5223SOL    HW227549   4.507   2.359   2.120
 5224SOL     OW27550   1.284   4.393   3.655
 5224SOL    HW127551   1.255   4.388   3.564
 5224SOL    HW227552   1.361   4.450   3.653
 5225SOL     OW27553   3.340   1.233  16.470
 5225SOL    HW127554   3.332   1.187  16.554
 5225SOL    HW227555   3.428   1.272  16.473
 5226SOL     OW27556   1.611   0.386   1.520
 5226SOL    HW127557   1.653   0.372   1.434
 5226SOL    HW227558   1.680   0.368   1.583
 5227SOL     OW27559   0.804   2.896   3.055
 5227SOL    HW127560   0.784   2.873   3.145
 5227SOL    HW227561   0.728   2.946   3.026
 5228SOL     OW27562   3.379   4.132  14.717
 5228SOL    HW127563   3.459   4.084  14.737
 5228SOL    HW227564   3.408   4.222  14.701
 5229SOL     OW27565   2.699   1.758   6.767
 5229SOL    HW127566   2.671   1.775   6.677
 5229SOL    HW227567   2.790   1.730   6.759
 5230SOL     OW27568   1.480   1.907  18.393
 5230SOL    HW127569   1.488   1.992  18.351
 5230SOL    HW227570   1.521   1.918  18.478
 5231SOL     OW27571   4.338   2.158  19.549
 5231SOL    HW127572   4.289   2.226  19.503
 5231SOL    HW227573   4.401   2.125  19.484
 5232SOL     OW27574   2.262   0.014  15.742
 5232SOL    HW127575   2.239   0.101  15.709
 5232SOL    HW227576   2.205   4.742  15.693
 5233SOL     OW27577   2.935   0.353   5.111
 5233SOL    HW127578   3.015   0.400   5.090
 5233SOL    HW227579   2.919   0.297   5.034
 5234SOL     OW27580   4.232   3.975   5.725
 5234SOL    HW127581   4.263   4.030   5.653
 5234SOL    HW227582   4.227   3.887   5.688
 5235SOL     OW27583   1.254   1.226   5.308
 5235SOL    HW127584   1.186   1.210   5.373
 5235SOL    HW227585   1.334   1.193   5.349
 5236SOL     OW27586   3.458   2.449   2.952
 5236SOL    HW127587   3.458   2.452   3.048
 5236SOL    HW227588   3.420   2.364   2.930
 5237SOL     OW27589   1.889   4.527  18.624
 5237SOL    HW127590   1.817   4.534  18.686
 5237SOL    HW227591   1.926   4.440  18.640
 5238SOL     OW27592   2.651   4.065   1.481
 5238SOL    HW127593   2.591   4.128   1.520
 5238SOL    HW227594   2.595   4.011   1.425
 5239SOL     OW27595   1.946   2.750  14.591
 5239SOL    HW127596   2.038   2.726  14.576
 5239SOL    HW227597   1.909   2.756  14.503
 5240SOL     OW27598   4.054   0.587  18.020
 5240SOL    HW127599   4.007   0.667  17.999
 5240SOL    HW227600   4.141   0.617  18.047
 5241SOL     OW27601   2.535   3.913   1.159
 5241SOL    HW127602   2.464   3.965   1.123
 5241SOL    HW227603   2.609   3.930   1.101
 5242SOL     OW27604   1.669   0.644   9.633
 5242SOL    HW127605   1.612   0.567   9.625
 5242SOL    HW227606   1.707   0.654   9.546
 5243SOL     OW27607   0.120   1.540   4.572
 5243SOL    HW127608   0.140   1.543   4.478
 5243SOL    HW227609   0.079   1.454   4.585
 5244SOL     OW27610   3.475   2.530  14.923
 5244SOL    HW127611   3.428   2.457  14.882
 5244SOL    HW227612   3.413   2.603  14.921
 5245SOL     OW27613   1.049   4.361   5.344
 5245SOL    HW127614   1.038   4.412   5.264
 5245SOL    HW227615   1.139   4.328   5.339
 5246SOL     OW27616   2.665   1.302   0.831
 5246SOL    HW127617   2.675   1.210   0.852
 5246SOL    HW227618   2.663   1.305   0.736
 5247SOL     OW27619   2.691   4.646  19.099
 5247SOL    HW127620   2.639   4.580  19.144
 5247SOL    HW227621   2.761   4.597  19.055
 5248SOL     OW27622   0.508   4.183   1.171
 5248SOL    HW127623   0.518   4.091   1.195
 5248SOL    HW227624   0.416   4.203   1.190
 5249SOL     OW27625   3.715   1.303   3.094
 5249SOL    HW127626   3.696   1.293   3.001
 5249SOL    HW227627   3.786   1.240   3.111
 5250SOL     OW27628   1.399   2.168  20.379
 5250SOL    HW127629   1.360   2.119  20.307
 5250SOL    HW227630   1.365   2.257  20.368
 5251SOL     OW27631   3.629   3.413  17.913
 5251SOL    HW127632   3.539   3.397  17.941
 5251SOL    HW227633   3.683   3.360  17.972
 5252SOL     OW27634   1.143   2.445   4.284
 5252SOL    HW127635   1.196   2.366   4.279
 5252SOL    HW227636   1.145   2.469   4.377
 5253SOL     OW27637   1.792   0.596   1.094
 5253SOL    HW127638   1.820   0.662   1.031
 5253SOL    HW227639   1.719   0.636   1.140
 5254SOL     OW27640   3.163   3.885  15.344
 5254SOL    HW127641   3.082   3.933  15.329
 5254SOL    HW227642   3.214   3.943  15.401
 5255SOL     OW27643   4.458   1.626   7.858
 5255SOL    HW127644   4.495   1.625   7.770
 5255SOL    HW227645   4.487   1.543   7.897
 5256SOL     OW27646   3.700   1.133   4.818
 5256SOL    HW127647   3.746   1.057   4.855
 5256SOL    HW227648   3.770   1.193   4.793
 5257SOL     OW27649   4.669   4.615  15.808
 5257SOL    HW127650   4.608   4.556  15.765
 5257SOL    HW227651   4.752   4.602  15.762
 5258SOL     OW27652   1.837   3.943   3.042
 5258SOL    HW127653   1.867   4.016   2.989
 5258SOL    HW227654   1.849   3.866   2.986
 5259SOL     OW27655   0.655   0.739  12.598
 5259SOL    HW127656   0.681   0.805  12.533
 5259SOL    HW227657   0.699   0.659  12.571
 5260SOL     OW27658   3.463   0.290   7.237
 5260SOL    HW127659   3.397   0.349   7.200
 5260SOL    HW227660   3.536   0.294   7.175
 5261SOL     OW27661   2.268   0.117  13.389
 5261SOL    HW127662   2.256   0.065  13.310
 5261SOL    HW227663   2.322   0.062  13.446
 5262SOL     OW27664   1.791   3.038  15.895
 5262SOL    HW127665   1.855   3.106  15.872
 5262SOL    HW227666   1.763   3.061  15.984
 5263SOL     OW27667   3.011   4.242   1.840
 5263SOL    HW127668   3.004   4.147   1.843
 5263SOL    HW227669   2.989   4.270   1.929
 5264SOL     OW27670   1.549   1.146   5.564
 5264SOL    HW127671   1.535   1.221   5.506
 5264SOL    HW227672   1.468   1.095   5.557
 5265SOL     OW27673   0.240   3.206   3.679
 5265SOL    HW127674   0.172   3.263   3.643
 5265SOL    HW227675   0.204   3.179   3.764
 5266SOL     OW27676   3.572   2.099  17.344
 5266SOL    HW127677   3.627   2.021  17.341
 5266SOL    HW227678   3.630   2.169  17.373
 5267SOL     OW27679   4.060   0.694  15.149
 5267SOL    HW127680   4.059   0.634  15.074
 5267SOL    HW227681   4.020   0.645  15.220
 5268SOL     OW27682   2.461   4.396  17.752
 5268SOL    HW127683   2.548   4.428  17.778
 5268SOL    HW227684   2.470   4.301  17.752
 5269SOL     OW27685   1.572   0.026  18.051
 5269SOL    HW127686   1.566   0.121  18.041
 5269SOL    HW227687   1.561   4.779  17.962
 5270SOL     OW27688   2.315   0.609  20.386
 5270SOL    HW127689   2.252   0.600  20.458
 5270SOL    HW227690   2.294   0.537  20.327
 5271SOL     OW27691   4.074   3.764  20.365
 5271SOL    HW127692   4.008   3.766  20.434
 5271SOL    HW227693   4.146   3.817  20.398
 5272SOL     OW27694   3.611   3.098   2.868
 5272SOL    HW127695   3.548   3.093   2.796
 5272SOL    HW227696   3.688   3.052   2.835
 5273SOL     OW27697   2.225   3.196   5.644
 5273SOL    HW127698   2.316   3.192   5.673
 5273SOL    HW227699   2.176   3.225   5.722
 5274SOL     OW27700   3.970   2.525   7.649
 5274SOL    HW127701   4.063   2.540   7.669
 5274SOL    HW227702   3.965   2.431   7.629
 5275SOL     OW27703   2.696   0.686  14.848
 5275SOL    HW127704   2.729   0.774  14.868
 5275SOL    HW227705   2.634   0.700  14.776
 5276SOL     OW27706   1.671   1.461  16.835
 5276SOL    HW127707   1.743   1.427  16.782
 5276SOL    HW227708   1.631   1.383  16.873
 5277SOL     OW27709   1.400   2.505  19.259
 5277SOL    HW127710   1.480   2.502  19.208
 5277SOL    HW227711   1.350   2.428  19.232
 5278SOL     OW27712   1.251   0.921   3.416
 5278SOL    HW127713   1.276   0.980   3.487
 5278SOL    HW227714   1.171   0.959   3.381
 5279SOL     OW27715   4.147   2.939   6.727
 5279SOL    HW127716   4.207   2.870   6.756
 5279SOL    HW227717   4.176   3.017   6.774
 5280SOL     OW27718   3.606   1.458  19.320
 5280SOL    HW127719   3.560   1.464  19.403
 5280SOL    HW227720   3.588   1.369  19.288
 5281SOL     OW27721   0.970   1.814  12.338
 5281SOL    HW127722   0.907   1.759  12.384
 5281SOL    HW227723   0.943   1.810  12.246
 5282SOL     OW27724   1.857   1.351  16.679
 5282SOL    HW127725   1.941   1.332  16.720
 5282SOL    HW227726   1.842   1.276  16.620
 5283SOL     OW27727   2.528   0.669   5.132
 5283SOL    HW127728   2.609   0.646   5.177
 5283SOL    HW227729   2.530   0.764   5.125
 5284SOL     OW27730   1.707   1.497   2.707
 5284SOL    HW127731   1.767   1.572   2.700
 5284SOL    HW227732   1.634   1.520   2.650
 5285SOL     OW27733   3.109   3.884  18.283
 5285SOL    HW127734   3.203   3.896  18.267
 5285SOL    HW227735   3.105   3.833  18.364
 5286SOL     OW27736   0.357   3.048  17.459
 5286SOL    HW127737   0.408   2.992  17.517
 5286SOL    HW227738   0.290   2.991  17.422
 5287SOL     OW27739   2.636   0.190   2.486
 5287SOL    HW127740   2.624   0.280   2.456
 5287SOL    HW227741   2.593   0.187   2.572
 5288SOL     OW27742   0.096   3.642  13.969
 5288SOL    HW127743   0.125   3.664  14.057
 5288SOL    HW227744   0.002   3.657  13.970
 5289SOL     OW27745   4.119   0.597  20.643
 5289SOL    HW127746   4.211   0.580  20.665
 5289SOL    HW227747   4.070   0.537  20.698
 5290SOL     OW27748   3.373   3.777   0.602
 5290SOL    HW127749   3.426   3.715   0.652
 5290SOL    HW227750   3.347   3.729   0.524
 5291SOL     OW27751   2.705   3.554  15.464
 5291SOL    HW127752   2.650   3.632  15.471
 5291SOL    HW227753   2.767   3.574  15.393
 5292SOL     OW27754   0.819   0.064   6.393
 5292SOL    HW127755   0.784   4.786   6.333
 5292SOL    HW227756   0.914   0.050   6.392
 5293SOL     OW27757   4.258   1.140   4.585
 5293SOL    HW127758   4.281   1.188   4.665
 5293SOL    HW227759   4.339   1.097   4.558
 5294SOL     OW27760   2.520   4.464   2.256
 5294SOL    HW127761   2.600   4.413   2.241
 5294SOL    HW227762   2.550   4.542   2.304
 5295SOL     OW27763   0.486   2.893   5.153
 5295SOL    HW127764   0.433   2.858   5.081
 5295SOL    HW227765   0.422   2.916   5.220
 5296SOL     OW27766   1.514   0.172  19.444
 5296SOL    HW127767   1.579   0.105  19.424
 5296SOL    HW227768   1.449   0.164  19.374
 5297SOL     OW27769   3.490   4.263  18.784
 5297SOL    HW127770   3.581   4.293  18.785
 5297SOL    HW227771   3.441   4.334  18.826
 5298SOL     OW27772   1.902   0.846   5.869
 5298SOL    HW127773   1.843   0.798   5.811
 5298SOL    HW227774   1.981   0.791   5.873
 5299SOL     OW27775   2.141   2.429  20.108
 5299SOL    HW127776   2.064   2.390  20.150
 5299SOL    HW227777   2.204   2.440  20.179
 5300SOL     OW27778   1.021   2.338  19.261
 5300SOL    HW127779   0.969   2.258  19.249
 5300SOL    HW227780   1.112   2.310  19.255
 5301SOL     OW27781   1.242   0.117  20.037
 5301SOL    HW127782   1.330   0.147  20.014
 5301SOL    HW227783   1.208   0.080  19.955
 5302SOL     OW27784   2.346   1.892  13.629
 5302SOL    HW127785   2.263   1.924  13.663
 5302SOL    HW227786   2.412   1.925  13.690
 5303SOL     OW27787   2.941   3.736  18.815
 5303SOL    HW127788   2.874   3.668  18.808
 5303SOL    HW227789   2.955   3.746  18.909
 5304SOL     OW27790   3.834   3.335   1.603
 5304SOL    HW127791   3.759   3.290   1.641
 5304SOL    HW227792   3.910   3.291   1.641
 5305SOL     OW27793   0.219   0.395   5.876
 5305SOL    HW127794   0.202   0.413   5.969
 5305SOL    HW227795   0.224   0.482   5.836
 5306SOL     OW27796   4.438   0.688  19.993
 5306SOL    HW127797   4.345   0.670  19.981
 5306SOL    HW227798   4.478   0.665  19.909
 5307SOL     OW27799   1.423   3.400   4.822
 5307SOL    HW127800   1.503   3.416   4.773
 5307SOL    HW227801   1.436   3.316   4.864
 5308SOL     OW27802   4.232   2.867   3.114
 5308SOL    HW127803   4.286   2.946   3.118
 5308SOL    HW227804   4.159   2.891   3.057
 5309SOL     OW27805   0.527   1.404  15.035
 5309SOL    HW127806   0.583   1.475  15.066
 5309SOL    HW227807   0.462   1.393  15.104
 5310SOL     OW27808   0.423   2.136   9.608
 5310SOL    HW127809   0.489   2.170   9.547
 5310SOL    HW227810   0.395   2.053   9.569
 5311SOL     OW27811   1.294   0.526   5.872
 5311SOL    HW127812   1.361   0.486   5.928
 5311SOL    HW227813   1.315   0.494   5.784
 5312SOL     OW27814   0.505   3.711   4.145
 5312SOL    HW127815   0.454   3.775   4.194
 5312SOL    HW227816   0.596   3.731   4.165
 5313SOL     OW27817   3.801   3.676   1.136
 5313SOL    HW127818   3.854   3.751   1.108
 5313SOL    HW227819   3.822   3.665   1.228
 5314SOL     OW27820   2.593   4.503  16.357
 5314SOL    HW127821   2.657   4.431  16.364
 5314SOL    HW227822   2.603   4.552  16.438
 5315SOL     OW27823   4.441   0.855  17.304
 5315SOL    HW127824   4.380   0.927  17.293
 5315SOL    HW227825   4.404   0.803  17.375
 5316SOL     OW27826   1.663   3.974  18.708
 5316SOL    HW127827   1.677   4.061  18.672
 5316SOL    HW227828   1.689   3.914  18.638
 5317SOL     OW27829   4.418   4.514  19.782
 5317SOL    HW127830   4.387   4.602  19.804
 5317SOL    HW227831   4.391   4.501  19.691
 5318SOL     OW27832   3.045   0.639  12.673
 5318SOL    HW127833   2.996   0.660  12.594
 5318SOL    HW227834   2.988   0.579  12.721
 5319SOL     OW27835   0.247   4.298   4.399
 5319SOL    HW127836   0.304   4.221   4.391
 5319SOL    HW227837   0.204   4.287   4.484
 5320SOL     OW27838   1.630   2.353  15.768
 5320SOL    HW127839   1.569   2.332  15.839
 5320SOL    HW227840   1.677   2.431  15.799
 5321SOL     OW27841   1.959   0.652   5.101
 5321SOL    HW127842   2.026   0.686   5.160
 5321SOL    HW227843   1.981   0.688   5.015
 5322SOL     OW27844   4.411   4.422   8.340
 5322SOL    HW127845   4.424   4.331   8.313
 5322SOL    HW227846   4.461   4.473   8.277
 5323SOL     OW27847   3.963   2.871   1.042
 5323SOL    HW127848   3.973   2.963   1.066
 5323SOL    HW227849   3.938   2.873   0.949
 5324SOL     OW27850   1.316   1.507   6.894
 5324SOL    HW127851   1.324   1.530   6.801
 5324SOL    HW227852   1.238   1.452   6.899
 5325SOL     OW27853   3.274   4.631  13.998
 5325SOL    HW127854   3.273   4.679  13.915
 5325SOL    HW227855   3.182   4.621  14.022
 5326SOL     OW27856   4.174   1.332   1.719
 5326SOL    HW127857   4.267   1.349   1.705
 5326SOL    HW227858   4.141   1.303   1.635
 5327SOL     OW27859   3.502   1.759  19.618
 5327SOL    HW127860   3.574   1.697  19.626
 5327SOL    HW227861   3.544   1.845  19.614
 5328SOL     OW27862   3.150   0.896   1.481
 5328SOL    HW127863   3.110   0.817   1.517
 5328SOL    HW227864   3.076   0.953   1.460
 5329SOL     OW27865   2.172   0.020   1.280
 5329SOL    HW127866   2.204   0.019   1.370
 5329SOL    HW227867   2.246   4.776   1.228
 5330SOL     OW27868   1.769   1.120   2.918
 5330SOL    HW127869   1.766   1.087   3.008
 5330SOL    HW227870   1.708   1.063   2.870
 5331SOL     OW27871   3.140   1.304  19.216
 5331SOL    HW127872   3.064   1.363  19.212
 5331SOL    HW227873   3.116   1.239  19.281
 5332SOL     OW27874   1.758   1.842   2.777
 5332SOL    HW127875   1.722   1.931   2.778
 5332SOL    HW227876   1.833   1.847   2.718
 5333SOL     OW27877   3.478   0.959  18.277
 5333SOL    HW127878   3.390   0.966  18.242
 5333SOL    HW227879   3.471   0.898  18.350
 5334SOL     OW27880   1.036   3.084   3.580
 5334SOL    HW127881   1.058   3.107   3.489
 5334SOL    HW227882   0.991   2.999   3.572
 5335SOL     OW27883   2.695   3.885  18.617
 5335SOL    HW127884   2.764   3.947  18.594
 5335SOL    HW227885   2.613   3.931  18.599
 5336SOL     OW27886   1.450   2.122  18.262
 5336SOL    HW127887   1.532   2.142  18.217
 5336SOL    HW227888   1.382   2.136  18.196
 5337SOL     OW27889   2.884   0.545  16.422
 5337SOL    HW127890   2.941   0.494  16.479
 5337SOL    HW227891   2.852   0.482  16.358
 5338SOL     OW27892   2.079   1.339  19.692
 5338SOL    HW127893   2.115   1.410  19.639
 5338SOL    HW227894   2.138   1.332  19.767
 5339SOL     OW27895   2.809   3.113  21.113
 5339SOL    HW127896   2.822   3.043  21.178
 5339SOL    HW227897   2.820   3.194  21.163
 5340SOL     OW27898   4.394   3.470   8.231
 5340SOL    HW127899   4.371   3.519   8.152
 5340SOL    HW227900   4.467   3.519   8.269
 5341SOL     OW27901   1.717   2.013  20.549
 5341SOL    HW127902   1.638   2.035  20.598
 5341SOL    HW227903   1.787   2.062  20.594
 5342SOL     OW27904   0.274   3.925   3.654
 5342SOL    HW127905   0.321   3.841   3.653
 5342SOL    HW227906   0.337   3.988   3.620
 5343SOL     OW27907   1.446   0.148   0.209
 5343SOL    HW127908   1.400   0.119   0.131
 5343SOL    HW227909   1.525   0.095   0.211
 5344SOL     OW27910   2.608   0.759  21.175
 5344SOL    HW127911   2.519   0.756  21.140
 5344SOL    HW227912   2.602   0.712   0.010
 5345SOL     OW27913   1.816   1.700  15.925
 5345SOL    HW127914   1.853   1.788  15.919
 5345SOL    HW227915   1.891   1.642  15.915
 5346SOL     OW27916   0.317   1.556  18.839
 5346SOL    HW127917   0.380   1.580  18.771
 5346SOL    HW227918   0.257   1.631  18.843
 5347SOL     OW27919   0.645   4.086   6.030
 5347SOL    HW127920   0.662   4.179   6.042
 5347SOL    HW227921   0.552   4.076   6.050
 5348SOL     OW27922   1.771   1.608   5.657
 5348SOL    HW127923   1.791   1.668   5.585
 5348SOL    HW227924   1.687   1.640   5.691
 5349SOL     OW27925   1.075   1.662  19.511
 5349SOL    HW127926   1.072   1.577  19.555
 5349SOL    HW227927   0.984   1.688  19.502
 5350SOL     OW27928   3.152   0.957   0.998
 5350SOL    HW127929   3.192   0.870   1.003
 5350SOL    HW227930   3.176   0.999   1.081
 5351SOL     OW27931   3.702   2.259  19.226
 5351SOL    HW127932   3.755   2.308  19.163
 5351SOL    HW227933   3.621   2.240  19.179
 5352SOL     OW27934   2.910   0.009  20.796
 5352SOL    HW127935   2.979   0.046  20.851
 5352SOL    HW227936   2.836   0.069  20.807
 5353SOL     OW27937   4.435   1.687  18.832
 5353SOL    HW127938   4.391   1.616  18.785
 5353SOL    HW227939   4.528   1.665  18.825
 5354SOL     OW27940   4.628   1.525   3.618
 5354SOL    HW127941   4.588   1.555   3.537
 5354SOL    HW227942   4.555   1.518   3.680
 5355SOL     OW27943   3.853   0.065  19.006
 5355SOL    HW127944   3.898   4.769  18.997
 5355SOL    HW227945   3.769   0.043  19.048
 5356SOL     OW27946   1.016   0.319   4.386
 5356SOL    HW127947   1.084   0.258   4.414
 5356SOL    HW227948   1.059   0.404   4.382
 5357SOL     OW27949   0.660   1.744   3.501
 5357SOL    HW127950   0.639   1.798   3.576
 5357SOL    HW227951   0.646   1.654   3.531
 5358SOL     OW27952   2.977   0.977   0.208
 5358SOL    HW127953   2.938   0.890   0.200
 5358SOL    HW227954   2.981   0.992   0.303
 5359SOL     OW27955   0.661   3.268   5.222
 5359SOL    HW127956   0.652   3.269   5.127
 5359SOL    HW227957   0.572   3.284   5.254
 5360SOL     OW27958   4.083   2.919   4.679
 5360SOL    HW127959   4.015   2.868   4.723
 5360SOL    HW227960   4.051   2.928   4.589
 5361SOL     OW27961   2.755   1.888   0.714
 5361SOL    HW127962   2.827   1.945   0.685
 5361SOL    HW227963   2.705   1.942   0.776
 5362SOL     OW27964   4.071   1.004   3.521
 5362SOL    HW127965   4.147   0.966   3.566
 5362SOL    HW227966   4.048   1.081   3.574
 5363SOL     OW27967   0.960   2.844  20.206
 5363SOL    HW127968   0.898   2.916  20.219
 5363SOL    HW227969   1.041   2.886  20.179
 5364SOL     OW27970   0.606   0.220   0.947
 5364SOL    HW127971   0.605   0.125   0.937
 5364SOL    HW227972   0.560   0.236   1.029
 5365SOL     OW27973   1.239   4.085   1.259
 5365SOL    HW127974   1.287   4.019   1.211
 5365SOL    HW227975   1.263   4.168   1.217
 5366SOL     OW27976   2.694   2.515  18.722
 5366SOL    HW127977   2.729   2.439  18.675
 5366SOL    HW227978   2.603   2.492  18.740
 5367SOL     OW27979   1.198   3.546   0.915
 5367SOL    HW127980   1.275   3.545   0.972
 5367SOL    HW227981   1.201   3.632   0.873
 5368SOL     OW27982   4.596   2.692   0.887
 5368SOL    HW127983   4.600   2.762   0.952
 5368SOL    HW227984   4.514   2.708   0.840
 5369SOL     OW27985   3.116   3.225  17.379
 5369SOL    HW127986   3.138   3.225  17.472
 5369SOL    HW227987   3.199   3.235  17.334
 5370SOL     OW27988   2.407   2.170  20.041
 5370SOL    HW127989   2.483   2.188  20.097
 5370SOL    HW227990   2.346   2.124  20.099
 5371SOL     OW27991   1.082   3.179  13.970
 5371SOL    HW127992   1.174   3.201  13.982
 5371SOL    HW227993   1.051   3.240  13.903
 5372SOL     OW27994   2.615   2.895   6.154
 5372SOL    HW127995   2.665   2.973   6.132
 5372SOL    HW227996   2.577   2.915   6.240
 5373SOL     OW27997   3.913   1.751   6.575
 5373SOL    HW127998   3.961   1.674   6.605
 5373SOL    HW227999   3.822   1.722   6.568
 5374SOL     OW28000   4.718   0.877   4.009
 5374SOL    HW128001   4.714   0.874   3.913
 5374SOL    HW228002   4.751   0.791   4.034
 5375SOL     OW28003   0.142   2.263   8.484
 5375SOL    HW128004   0.167   2.355   8.488
 5375SOL    HW228005   0.172   2.226   8.567
 5376SOL     OW28006   3.894   2.281  15.664
 5376SOL    HW128007   3.840   2.233  15.602
 5376SOL    HW228008   3.962   2.218  15.689
 5377SOL     OW28009   1.466   1.512   4.891
 5377SOL    HW128010   1.540   1.529   4.832
 5377SOL    HW228011   1.421   1.597   4.897
 5378SOL     OW28012   4.431   3.811  19.569
 5378SOL    HW128013   4.362   3.827  19.633
 5378SOL    HW228014   4.422   3.883  19.506
 5379SOL     OW28015   3.094   4.679  13.066
 5379SOL    HW128016   3.019   4.704  13.120
 5379SOL    HW228017   3.147   4.758  13.061
 5380SOL     OW28018   1.479   0.158   3.732
 5380SOL    HW128019   1.509   0.241   3.770
 5380SOL    HW228020   1.400   0.182   3.684
 5381SOL     OW28021   1.017   2.694  18.463
 5381SOL    HW128022   1.048   2.636  18.532
 5381SOL    HW228023   1.050   2.780  18.487
 5382SOL     OW28024   2.724   3.033   3.599
 5382SOL    HW128025   2.807   3.072   3.570
 5382SOL    HW228026   2.658   3.091   3.562
 5383SOL     OW28027   1.303   3.049   4.234
 5383SOL    HW128028   1.249   3.082   4.306
 5383SOL    HW228029   1.239   3.018   4.169
 5384SOL     OW28030   3.479   1.171   0.252
 5384SOL    HW128031   3.458   1.078   0.245
 5384SOL    HW228032   3.573   1.173   0.267
 5385SOL     OW28033   4.005   0.990   6.137
 5385SOL    HW128034   3.991   1.024   6.049
 5385SOL    HW228035   4.002   0.895   6.126
 5386SOL     OW28036   2.429   1.053   3.650
 5386SOL    HW128037   2.483   0.982   3.615
 5386SOL    HW228038   2.481   1.090   3.721
 5387SOL     OW28039   1.168   4.607  15.587
 5387SOL    HW128040   1.117   4.670  15.536
 5387SOL    HW228041   1.106   4.537  15.608
 5388SOL     OW28042   4.511   3.789   3.318
 5388SOL    HW128043   4.528   3.830   3.233
 5388SOL    HW228044   4.445   3.845   3.359
 5389SOL     OW28045   4.689   4.337   2.936
 5389SOL    HW128046   4.780   4.308   2.942
 5389SOL    HW228047   4.673   4.385   3.016
 5390SOL     OW28048   2.877   3.087   6.547
 5390SOL    HW128049   2.856   3.170   6.507
 5390SOL    HW228050   2.972   3.091   6.562
 5391SOL     OW28051   3.196   2.396   4.441
 5391SOL    HW128052   3.291   2.407   4.437
 5391SOL    HW228053   3.183   2.303   4.461
 5392SOL     OW28054   3.622   2.312  12.637
 5392SOL    HW128055   3.554   2.364  12.594
 5392SOL    HW228056   3.579   2.228  12.656
 5393SOL     OW28057   0.104   0.568   1.761
 5393SOL    HW128058   0.155   0.518   1.825
 5393SOL    HW228059   0.046   0.622   1.814
 5394SOL     OW28060   0.746   0.163   4.558
 5394SOL    HW128061   0.829   0.120   4.579
 5394SOL    HW228062   0.769   0.256   4.552
 5395SOL     OW28063   0.278   2.342   0.310
 5395SOL    HW128064   0.278   2.313   0.402
 5395SOL    HW228065   0.228   2.276   0.264
 5396SOL     OW28066   0.340   2.423   3.699
 5396SOL    HW128067   0.324   2.420   3.605
 5396SOL    HW228068   0.254   2.435   3.738
 5397SOL     OW28069   1.988   3.088   4.659
 5397SOL    HW128070   1.975   3.159   4.722
 5397SOL    HW228071   2.083   3.079   4.653
 5398SOL     OW28072   3.541   0.156  18.033
 5398SOL    HW128073   3.533   0.134  17.940
 5398SOL    HW228074   3.451   0.163  18.065
 5399SOL     OW28075   0.388   2.082   1.037
 5399SOL    HW128076   0.359   2.047   0.953
 5399SOL    HW228077   0.475   2.046   1.050
 5400SOL     OW28078   2.278   3.793   3.711
 5400SOL    HW128079   2.227   3.772   3.789
 5400SOL    HW228080   2.359   3.830   3.745
 5401SOL     OW28081   1.389   4.604   0.323
 5401SOL    HW128082   1.377   4.680   0.379
 5401SOL    HW228083   1.476   4.614   0.286
 5402SOL     OW28084   1.498   4.138  16.327
 5402SOL    HW128085   1.519   4.204  16.393
 5402SOL    HW228086   1.498   4.056  16.376
 5403SOL     OW28087   4.703   2.087  17.449
 5403SOL    HW128088   4.771   2.151  17.469
 5403SOL    HW228089   4.620   2.132  17.466
 5404SOL     OW28090   3.503   3.665   3.442
 5404SOL    HW128091   3.474   3.637   3.355
 5404SOL    HW228092   3.448   3.741   3.462
 5405SOL     OW28093   2.980   1.798   2.355
 5405SOL    HW128094   2.999   1.708   2.383
 5405SOL    HW228095   3.019   1.853   2.423
 5406SOL     OW28096   4.421   1.486   3.086
 5406SOL    HW128097   4.502   1.485   3.033
 5406SOL    HW228098   4.355   1.522   3.027
 5407SOL     OW28099   4.381   0.852  18.699
 5407SOL    HW128100   4.316   0.920  18.680
 5407SOL    HW228101   4.465   0.893  18.678
 5408SOL     OW28102   0.553   1.128   3.233
 5408SOL    HW128103   0.607   1.129   3.312
 5408SOL    HW228104   0.546   1.221   3.208
 5409SOL     OW28105   0.813   1.507  11.862
 5409SOL    HW128106   0.867   1.464  11.795
 5409SOL    HW228107   0.817   1.600  11.840
 5410SOL     OW28108   2.017   3.618  16.048
 5410SOL    HW128109   1.985   3.705  16.068
 5410SOL    HW228110   2.032   3.619  15.954
 5411SOL     OW28111   4.758   4.260   2.535
 5411SOL    HW128112   0.026   4.259   2.613
 5411SOL    HW228113   0.014   4.201   2.473
 5412SOL     OW28114   3.347   3.637  13.124
 5412SOL    HW128115   3.283   3.683  13.178
 5412SOL    HW228116   3.309   3.638  13.036
 5413SOL     OW28117   1.582   3.353  19.804
 5413SOL    HW128118   1.537   3.282  19.757
 5413SOL    HW228119   1.511   3.402  19.846
 5414SOL     OW28120   2.800   0.715  19.040
 5414SOL    HW128121   2.756   0.749  18.962
 5414SOL    HW228122   2.742   0.738  19.113
 5415SOL     OW28123   4.128   0.549   5.497
 5415SOL    HW128124   4.131   0.495   5.576
 5415SOL    HW228125   4.220   0.570   5.479
 5416SOL     OW28126   1.573   4.286  17.728
 5416SOL    HW128127   1.594   4.335  17.648
 5416SOL    HW228128   1.636   4.214  17.729
 5417SOL     OW28129   0.205   0.727  17.902
 5417SOL    HW128130   0.259   0.785  17.848
 5417SOL    HW228131   0.160   0.785  17.963
 5418SOL     OW28132   2.745   1.504  19.001
 5418SOL    HW128133   2.840   1.518  19.006
 5418SOL    HW228134   2.711   1.540  19.083
 5419SOL     OW28135   2.140   1.407   3.150
 5419SOL    HW128136   2.157   1.487   3.100
 5419SOL    HW228137   2.108   1.345   3.085
 5420SOL     OW28138   0.626   1.352  20.936
 5420SOL    HW128139   0.567   1.320  21.004
 5420SOL    HW228140   0.640   1.277  20.879
 5421SOL     OW28141   0.262   0.617  15.734
 5421SOL    HW128142   0.193   0.636  15.797
 5421SOL    HW228143   0.308   0.700  15.722
 5422SOL     OW28144   3.085   2.054   4.125
 5422SOL    HW128145   3.076   1.960   4.107
 5422SOL    HW228146   3.155   2.082   4.066
 5423SOL     OW28147   3.969   1.235   3.792
 5423SOL    HW128148   4.003   1.181   3.863
 5423SOL    HW228149   3.897   1.184   3.755
 5424SOL     OW28150   0.844   3.866  13.887
 5424SOL    HW128151   0.825   3.951  13.848
 5424SOL    HW228152   0.776   3.808  13.852
 5425SOL     OW28153   1.661   0.647  18.709
 5425SOL    HW128154   1.735   0.684  18.661
 5425SOL    HW228155   1.670   0.552  18.698
 5426SOL     OW28156   1.233   3.844  19.308
 5426SOL    HW128157   1.298   3.774  19.305
 5426SOL    HW228158   1.234   3.882  19.220
 5427SOL     OW28159   1.981   2.061  19.151
 5427SOL    HW128160   2.026   2.104  19.079
 5427SOL    HW228161   1.910   2.012  19.110
 5428SOL     OW28162   1.924   2.262   0.865
 5428SOL    HW128163   1.901   2.239   0.775
 5428SOL    HW228164   2.019   2.275   0.863
 5429SOL     OW28165   2.232   4.651  21.006
 5429SOL    HW128166   2.208   4.618  21.092
 5429SOL    HW228167   2.233   4.747  21.016
 5430SOL     OW28168   1.902   0.393   5.694
 5430SOL    HW128169   1.944   0.419   5.776
 5430SOL    HW228170   1.972   0.395   5.629
 5431SOL     OW28171   4.330   2.143   1.932
 5431SOL    HW128172   4.388   2.151   1.856
 5431SOL    HW228173   4.377   2.186   2.003
 5432SOL     OW28174   0.086   0.051  18.506
 5432SOL    HW128175   0.094   0.117  18.575
 5432SOL    HW228176   0.042   0.096  18.434
 5433SOL     OW28177   4.657   0.890   2.300
 5433SOL    HW128178   4.576   0.862   2.343
 5433SOL    HW228179   4.655   0.985   2.302
 5434SOL     OW28180   0.862   1.226   4.018
 5434SOL    HW128181   0.889   1.145   4.061
 5434SOL    HW228182   0.786   1.201   3.966
 5435SOL     OW28183   1.605   2.042   0.011
 5435SOL    HW128184   1.547   1.984  21.209
 5435SOL    HW228185   1.572   2.038   0.100
 5436SOL     OW28186   2.745   0.857  16.860
 5436SOL    HW128187   2.744   0.818  16.773
 5436SOL    HW228188   2.822   0.818  16.903
 5437SOL     OW28189   2.175   1.611  19.408
 5437SOL    HW128190   2.094   1.567  19.434
 5437SOL    HW228191   2.200   1.662  19.485
 5438SOL     OW28192   0.516   0.780   0.126
 5438SOL    HW128193   0.531   0.735   0.043
 5438SOL    HW228194   0.575   0.856   0.123
 5439SOL     OW28195   3.264   4.048   7.542
 5439SOL    HW128196   3.258   4.027   7.448
 5439SOL    HW228197   3.175   4.068   7.567
 5440SOL     OW28198   0.893   1.134   0.953
 5440SOL    HW128199   0.937   1.123   0.868
 5440SOL    HW228200   0.889   1.229   0.966
 5441SOL     OW28201   3.929   1.607   4.996
 5441SOL    HW128202   3.983   1.529   4.983
 5441SOL    HW228203   3.897   1.629   4.909
 5442SOL     OW28204   2.366   0.318  19.496
 5442SOL    HW128205   2.341   0.248  19.436
 5442SOL    HW228206   2.372   0.396  19.441
 5443SOL     OW28207   2.750   3.829   3.183
 5443SOL    HW128208   2.708   3.914   3.199
 5443SOL    HW228209   2.685   3.765   3.212
 5444SOL     OW28210   3.899   1.930   2.971
 5444SOL    HW128211   3.953   2.006   2.949
 5444SOL    HW228212   3.861   1.902   2.888
 5445SOL     OW28213   0.302   4.442   3.276
 5445SOL    HW128214   0.217   4.477   3.302
 5445SOL    HW228215   0.353   4.441   3.357
 5446SOL     OW28216   2.047   3.975  13.783
 5446SOL    HW128217   2.004   3.974  13.698
 5446SOL    HW228218   1.989   4.029  13.838
 5447SOL     OW28219   2.921   0.440   4.776
 5447SOL    HW128220   2.846   0.406   4.728
 5447SOL    HW228221   2.890   0.447   4.867
 5448SOL     OW28222   4.234   4.747  19.093
 5448SOL    HW128223   4.265   0.045  19.124
 5448SOL    HW228224   4.258   4.744  19.001
 5449SOL     OW28225   0.018   2.690   1.820
 5449SOL    HW128226   0.031   2.785   1.818
 5449SOL    HW228227   0.075   2.656   1.751
 5450SOL     OW28228   2.011   3.664   0.563
 5450SOL    HW128229   2.082   3.721   0.591
 5450SOL    HW228230   1.931   3.711   0.588
 5451SOL     OW28231   1.615   3.302  19.076
 5451SOL    HW128232   1.550   3.299  19.146
 5451SOL    HW228233   1.564   3.293  18.996
 5452SOL     OW28234   3.664   2.756   5.270
 5452SOL    HW128235   3.641   2.740   5.178
 5452SOL    HW228236   3.594   2.812   5.303
 5453SOL     OW28237   0.663   4.165  19.687
 5453SOL    HW128238   0.731   4.108  19.722
 5453SOL    HW228239   0.696   4.254  19.702
 5454SOL     OW28240   1.062   1.565  16.128
 5454SOL    HW128241   1.108   1.647  16.112
 5454SOL    HW228242   0.995   1.560  16.060
 5455SOL     OW28243   0.973   4.209  21.115
 5455SOL    HW128244   0.962   4.284  21.056
 5455SOL    HW228245   1.068   4.203  21.129
 5456SOL     OW28246   2.480   2.725   8.067
 5456SOL    HW128247   2.398   2.735   8.018
 5456SOL    HW228248   2.534   2.798   8.036
 5457SOL     OW28249   1.616   3.501   2.518
 5457SOL    HW128250   1.589   3.518   2.609
 5457SOL    HW228251   1.540   3.457   2.479
 5458SOL     OW28252   1.336   0.374  21.091
 5458SOL    HW128253   1.303   0.313  21.156
 5458SOL    HW228254   1.307   0.339  21.007
 5459SOL     OW28255   3.556   0.242   3.757
 5459SOL    HW128256   3.469   0.282   3.753
 5459SOL    HW228257   3.609   0.296   3.698
 5460SOL     OW28258   2.869   1.187   4.291
 5460SOL    HW128259   2.814   1.155   4.220
 5460SOL    HW228260   2.936   1.119   4.301
 5461SOL     OW28261   0.026   0.602   6.483
 5461SOL    HW128262   4.721   0.606   6.506
 5461SOL    HW228263   0.032   0.528   6.423
 5462SOL     OW28264   4.187   3.726   4.007
 5462SOL    HW128265   4.276   3.695   3.989
 5462SOL    HW228266   4.158   3.672   4.081
 5463SOL     OW28267   4.476   1.385   1.326
 5463SOL    HW128268   4.397   1.334   1.347
 5463SOL    HW228269   4.463   1.412   1.235
 5464SOL     OW28270   2.720   3.781   5.971
 5464SOL    HW128271   2.815   3.773   5.972
 5464SOL    HW228272   2.696   3.780   5.878
 5465SOL     OW28273   1.595   4.421   4.525
 5465SOL    HW128274   1.641   4.481   4.465
 5465SOL    HW228275   1.562   4.351   4.468
 5466SOL     OW28276   1.916   0.061   5.757
 5466SOL    HW128277   1.916   0.048   5.662
 5466SOL    HW228278   1.990   0.009   5.788
 5467SOL     OW28279   2.147   1.891  18.446
 5467SOL    HW128280   2.229   1.871  18.399
 5467SOL    HW228281   2.165   1.974  18.490
 5468SOL     OW28282   1.095   1.387  20.850
 5468SOL    HW128283   1.006   1.404  20.881
 5468SOL    HW228284   1.107   1.449  20.778
 5469SOL     OW28285   1.659   4.685   3.317
 5469SOL    HW128286   1.688   4.594   3.313
 5469SOL    HW228287   1.722   4.732   3.263
 5470SOL     OW28288   1.262   3.201   1.258
 5470SOL    HW128289   1.325   3.267   1.287
 5470SOL    HW228290   1.197   3.250   1.207
 5471SOL     OW28291   4.353   1.837  14.225
 5471SOL    HW128292   4.442   1.862  14.248
 5471SOL    HW228293   4.362   1.751  14.185
 5472SOL     OW28294   1.702   4.178  20.828
 5472SOL    HW128295   1.783   4.208  20.787
 5472SOL    HW228296   1.635   4.237  20.795
 5473SOL     OW28297   4.657   3.273   3.406
 5473SOL    HW128298   4.711   3.236   3.337
 5473SOL    HW228299   4.602   3.338   3.361
 5474SOL     OW28300   2.056   0.212   5.952
 5474SOL    HW128301   1.992   0.283   5.959
 5474SOL    HW228302   2.009   0.142   5.906
 5475SOL     OW28303   0.909   1.204  15.170
 5475SOL    HW128304   0.965   1.186  15.095
 5475SOL    HW228305   0.891   1.118  15.208
 5476SOL     OW28306   1.046   3.554  20.280
 5476SOL    HW128307   1.111   3.551  20.351
 5476SOL    HW228308   0.968   3.513  20.317
 5477SOL     OW28309   3.697   1.168  15.640
 5477SOL    HW128310   3.733   1.205  15.721
 5477SOL    HW228311   3.636   1.235  15.609
 5478SOL     OW28312   4.153   3.851  19.683
 5478SOL    HW128313   4.125   3.832  19.773
 5478SOL    HW228314   4.077   3.831  19.630
 5479SOL     OW28315   1.270   2.274   0.402
 5479SOL    HW128316   1.244   2.270   0.309
 5479SOL    HW228317   1.196   2.315   0.445
 5480SOL     OW28318   3.848   1.894   9.707
 5480SOL    HW128319   3.937   1.863   9.690
 5480SOL    HW228320   3.857   1.952   9.782
 5481SOL     OW28321   4.131   4.577  21.062
 5481SOL    HW128322   4.181   4.567  21.143
 5481SOL    HW228323   4.040   4.571  21.089
 5482SOL     OW28324   1.903   2.545  20.952
 5482SOL    HW128325   1.904   2.452  20.972
 5482SOL    HW228326   1.945   2.551  20.866
 5483SOL     OW28327   2.379   1.411  14.315
 5483SOL    HW128328   2.467   1.440  14.337
 5483SOL    HW228329   2.380   1.317  14.332
 5484SOL     OW28330   3.207   4.017   0.970
 5484SOL    HW128331   3.253   3.961   1.033
 5484SOL    HW228332   3.137   4.058   1.022
 5485SOL     OW28333   3.470   0.456   2.521
 5485SOL    HW128334   3.436   0.373   2.554
 5485SOL    HW228335   3.396   0.498   2.478
 5486SOL     OW28336   2.858   3.353   4.333
 5486SOL    HW128337   2.921   3.334   4.402
 5486SOL    HW228338   2.798   3.278   4.333
 5487SOL     OW28339   4.510   1.800   1.024
 5487SOL    HW128340   4.490   1.737   1.092
 5487SOL    HW228341   4.432   1.801   0.968
 5488SOL     OW28342   0.170   2.421  19.442
 5488SOL    HW128343   0.088   2.390  19.404
 5488SOL    HW228344   0.143   2.478  19.514
 5489SOL     OW28345   3.816   3.121   0.515
 5489SOL    HW128346   3.774   3.036   0.517
 5489SOL    HW228347   3.833   3.142   0.607
 5490SOL     OW28348   2.298   3.251   0.436
 5490SOL    HW128349   2.321   3.159   0.431
 5490SOL    HW228350   2.217   3.254   0.486
 5491SOL     OW28351   2.940   1.309   5.290
 5491SOL    HW128352   2.967   1.285   5.378
 5491SOL    HW228353   2.940   1.405   5.290
 5492SOL     OW28354   4.089   0.060  21.111
 5492SOL    HW128355   4.172   0.094  21.078
 5492SOL    HW228356   4.087   4.756  21.084
 5493SOL     OW28357   0.235   0.050  17.164
 5493SOL    HW128358   0.216   0.142  17.180
 5493SOL    HW228359   0.207   0.005  17.244
 5494SOL     OW28360   1.311   4.278  17.439
 5494SOL    HW128361   1.398   4.313  17.420
 5494SOL    HW228362   1.298   4.295  17.532
 5495SOL     OW28363   2.729   2.243   6.707
 5495SOL    HW128364   2.733   2.254   6.802
 5495SOL    HW228365   2.707   2.330   6.674
 5496SOL     OW28366   0.924   3.931   2.768
 5496SOL    HW128367   0.834   3.898   2.763
 5496SOL    HW228368   0.974   3.858   2.803
 5497SOL     OW28369   4.757   1.607   5.539
 5497SOL    HW128370   0.003   1.689   5.573
 5497SOL    HW228371   4.753   1.549   5.615
 5498SOL     OW28372   4.371   3.647  17.246
 5498SOL    HW128373   4.436   3.580  17.266
 5498SOL    HW228374   4.423   3.718  17.206
 5499SOL     OW28375   0.175   1.154  17.618
 5499SOL    HW128376   0.164   1.244  17.588
 5499SOL    HW228377   0.195   1.163  17.712
 5500SOL     OW28378   1.020   2.837  15.868
 5500SOL    HW128379   0.926   2.854  15.871
 5500SOL    HW228380   1.054   2.899  15.803
 5501SOL     OW28381   0.933   2.903  16.515
 5501SOL    HW128382   0.885   2.842  16.571
 5501SOL    HW228383   0.865   2.945  16.461
 5502SOL     OW28384   3.716   2.128  15.495
 5502SOL    HW128385   3.635   2.159  15.533
 5502SOL    HW228386   3.713   2.158  15.404
 5503SOL     OW28387   3.755   1.890  18.043
 5503SOL    HW128388   3.670   1.855  18.070
 5503SOL    HW228389   3.789   1.823  17.983
 5504SOL     OW28390   0.185   4.536  16.768
 5504SOL    HW128391   0.256   4.471  16.763
 5504SOL    HW228392   0.189   4.568  16.858
 5505SOL     OW28393   4.740   3.859   3.408
 5505SOL    HW128394   4.768   3.938   3.362
 5505SOL    HW228395   4.650   3.845   3.381
 5506SOL     OW28396   2.952   0.748   0.380
 5506SOL    HW128397   3.012   0.787   0.444
 5506SOL    HW228398   2.868   0.789   0.397
 5507SOL     OW28399   0.907   4.377   6.150
 5507SOL    HW128400   0.948   4.311   6.093
 5507SOL    HW228401   0.888   4.330   6.231
 5508SOL     OW28402   1.915   2.819  20.985
 5508SOL    HW128403   1.922   2.725  21.000
 5508SOL    HW228404   1.886   2.854  21.069
 5509SOL     OW28405   4.690   3.909   4.670
 5509SOL    HW128406   4.678   3.895   4.576
 5509SOL    HW228407   4.776   3.874   4.689
 5510SOL     OW28408   4.486   2.671  17.203
 5510SOL    HW128409   4.420   2.688  17.271
 5510SOL    HW228410   4.560   2.633  17.250
 5511SOL     OW28411   0.339   1.147   1.693
 5511SOL    HW128412   0.349   1.073   1.753
 5511SOL    HW228413   0.268   1.199   1.732
 5512SOL     OW28414   3.024   1.643  19.343
 5512SOL    HW128415   3.081   1.680  19.411
 5512SOL    HW228416   3.084   1.622  19.271
 5513SOL     OW28417   3.801   2.914   9.213
 5513SOL    HW128418   3.845   2.830   9.210
 5513SOL    HW228419   3.715   2.899   9.173
 5514SOL     OW28420   3.041   0.454  19.906
 5514SOL    HW128421   2.947   0.452  19.925
 5514SOL    HW228422   3.061   0.367  19.872
 5515SOL     OW28423   3.041   3.374  18.815
 5515SOL    HW128424   3.067   3.292  18.772
 5515SOL    HW228425   2.992   3.421  18.749
 5516SOL     OW28426   2.434   1.376   5.401
 5516SOL    HW128427   2.475   1.346   5.482
 5516SOL    HW228428   2.347   1.335   5.401
 5517SOL     OW28429   3.767   1.014  19.808
 5517SOL    HW128430   3.737   0.928  19.780
 5517SOL    HW228431   3.795   1.057  19.728
 5518SOL     OW28432   0.380   2.423  17.619
 5518SOL    HW128433   0.459   2.448  17.572
 5518SOL    HW228434   0.348   2.505  17.657
 5519SOL     OW28435   4.318   4.478  14.165
 5519SOL    HW128436   4.267   4.503  14.242
 5519SOL    HW228437   4.297   4.385  14.152
 5520SOL     OW28438   3.786   3.949   0.260
 5520SOL    HW128439   3.755   3.922   0.347
 5520SOL    HW228440   3.720   3.917   0.199
 5521SOL     OW28441   3.999   2.943   2.976
 5521SOL    HW128442   3.990   2.993   2.895
 5521SOL    HW228443   3.910   2.910   2.993
 5522SOL     OW28444   4.605   2.201   3.109
 5522SOL    HW128445   4.540   2.270   3.123
 5522SOL    HW228446   4.681   2.247   3.074
 5523SOL     OW28447   3.052   2.562   2.461
 5523SOL    HW128448   2.996   2.536   2.534
 5523SOL    HW228449   3.060   2.484   2.407
 5524SOL     OW28450   2.236   1.878  17.540
 5524SOL    HW128451   2.289   1.910  17.613
 5524SOL    HW228452   2.172   1.820  17.580
 5525SOL     OW28453   3.173   0.071   7.479
 5525SOL    HW128454   3.161   0.142   7.417
 5525SOL    HW228455   3.170   4.779   7.426
 5526SOL     OW28456   3.103   2.513  17.843
 5526SOL    HW128457   3.152   2.567  17.904
 5526SOL    HW228458   3.044   2.573  17.798
 5527SOL     OW28459   3.136   1.041  20.909
 5527SOL    HW128460   3.189   1.010  20.982
 5527SOL    HW228461   3.198   1.084  20.851
 5528SOL     OW28462   3.513   1.408  21.201
 5528SOL    HW128463   3.445   1.394   0.020
 5528SOL    HW228464   3.579   1.342  21.220
 5529SOL     OW28465   0.791   1.474   4.475
 5529SOL    HW128466   0.742   1.537   4.423
 5529SOL    HW228467   0.828   1.525   4.546
 5530SOL     OW28468   0.891   0.661   2.802
 5530SOL    HW128469   0.923   0.587   2.750
 5530SOL    HW228470   0.893   0.630   2.893
 5531SOL     OW28471   2.860   2.061   2.290
 5531SOL    HW128472   2.897   1.973   2.288
 5531SOL    HW228473   2.795   2.061   2.219
 5532SOL     OW28474   2.762   1.179  17.284
 5532SOL    HW128475   2.700   1.239  17.325
 5532SOL    HW228476   2.715   1.095  17.281
 5533SOL     OW28477   3.135   3.148   3.291
 5533SOL    HW128478   3.146   3.081   3.224
 5533SOL    HW228479   3.220   3.153   3.335
 5534SOL     OW28480   1.272   0.700  13.054
 5534SOL    HW128481   1.237   0.620  13.015
 5534SOL    HW228482   1.356   0.673  13.092
 5535SOL     OW28483   4.445   0.744   4.828
 5535SOL    HW128484   4.446   0.723   4.921
 5535SOL    HW228485   4.430   0.661   4.784
 5536SOL     OW28486   1.958   4.319  12.438
 5536SOL    HW128487   1.901   4.350  12.368
 5536SOL    HW228488   2.044   4.311  12.396
 5537SOL     OW28489   3.918   4.312  16.447
 5537SOL    HW128490   3.925   4.261  16.527
 5537SOL    HW228491   3.984   4.275  16.389
 5538SOL     OW28492   1.159   1.378  21.130
 5538SOL    HW128493   1.116   1.372  21.044
 5538SOL    HW228494   1.211   1.298  21.136
 5539SOL     OW28495   3.479   0.634  15.293
 5539SOL    HW128496   3.427   0.578  15.235
 5539SOL    HW228497   3.570   0.618  15.268
 5540SOL     OW28498   0.879   2.688  14.814
 5540SOL    HW128499   0.810   2.687  14.880
 5540SOL    HW228500   0.842   2.740  14.742
 5541SOL     OW28501   3.849   3.534   3.648
 5541SOL    HW128502   3.926   3.592   3.644
 5541SOL    HW228503   3.874   3.465   3.709
 5542SOL     OW28504   3.347   1.316   3.243
 5542SOL    HW128505   3.294   1.303   3.322
 5542SOL    HW228506   3.286   1.353   3.180
 5543SOL     OW28507   2.467   4.011  15.892
 5543SOL    HW128508   2.528   3.998  15.965
 5543SOL    HW228509   2.405   3.939  15.900
 5544SOL     OW28510   1.191   0.900   0.853
 5544SOL    HW128511   1.169   0.959   0.781
 5544SOL    HW228512   1.194   0.956   0.930
 5545SOL     OW28513   4.452   1.805  16.157
 5545SOL    HW128514   4.452   1.809  16.253
 5545SOL    HW228515   4.440   1.712  16.137
 5546SOL     OW28516   1.903   2.369  15.374
 5546SOL    HW128517   1.937   2.314  15.443
 5546SOL    HW228518   1.814   2.390  15.401
 5547SOL     OW28519   2.903   1.793   8.176
 5547SOL    HW128520   2.938   1.704   8.170
 5547SOL    HW228521   2.980   1.849   8.177
 5548SOL     OW28522   4.660   2.965   3.341
 5548SOL    HW128523   4.738   2.956   3.397
 5548SOL    HW228524   4.586   2.957   3.402
 5549SOL     OW28525   0.276   1.094  20.554
 5549SOL    HW128526   0.350   1.034  20.549
 5549SOL    HW228527   0.199   1.037  20.550
 5550SOL     OW28528   3.849   4.047  20.687
 5550SOL    HW128529   3.828   4.103  20.613
 5550SOL    HW228530   3.809   4.091  20.762
 5551SOL     OW28531   3.840   3.982   4.771
 5551SOL    HW128532   3.925   3.977   4.727
 5551SOL    HW228533   3.776   3.984   4.700
 5552SOL     OW28534   4.452   1.110   6.232
 5552SOL    HW128535   4.508   1.105   6.155
 5552SOL    HW228536   4.380   1.050   6.213
 5553SOL     OW28537   4.533   4.548  16.447
 5553SOL    HW128538   4.445   4.558  16.484
 5553SOL    HW228539   4.590   4.593  16.508
 5554SOL     OW28540   3.596   4.543   0.014
 5554SOL    HW128541   3.581   4.581   0.101
 5554SOL    HW228542   3.515   4.495  21.242
 5555SOL     OW28543   0.331   4.699   4.461
 5555SOL    HW128544   0.243   4.712   4.427
 5555SOL    HW228545   0.354   4.783   4.501
 5556SOL     OW28546   2.811   1.912  20.245
 5556SOL    HW128547   2.837   1.925  20.337
 5556SOL    HW228548   2.869   1.842  20.214
 5557SOL     OW28549   3.972   2.048  19.655
 5557SOL    HW128550   3.917   2.107  19.603
 5557SOL    HW228551   4.026   2.107  19.707
 5558SOL     OW28552   1.479   3.809  17.161
 5558SOL    HW128553   1.431   3.892  17.161
 5558SOL    HW228554   1.425   3.749  17.109
 5559SOL     OW28555   0.198   1.439  17.579
 5559SOL    HW128556   0.138   1.513  17.578
 5559SOL    HW228557   0.253   1.453  17.655
 5560SOL     OW28558   4.421   4.784   4.776
 5560SOL    HW128559   4.408   0.052   4.852
 5560SOL    HW228560   4.506   4.741   4.791
 5561SOL     OW28561   0.315   3.312   4.887
 5561SOL    HW128562   0.302   3.316   4.792
 5561SOL    HW228563   0.231   3.283   4.922
 5562SOL     OW28564   2.089   2.602   5.741
 5562SOL    HW128565   2.135   2.570   5.664
 5562SOL    HW228566   2.007   2.638   5.706
 5563SOL     OW28567   1.181   3.474   3.271
 5563SOL    HW128568   1.155   3.436   3.355
 5563SOL    HW228569   1.232   3.405   3.228
 5564SOL     OW28570   2.711   3.985  17.600
 5564SOL    HW128571   2.727   4.040  17.523
 5564SOL    HW228572   2.784   4.004  17.659
 5565SOL     OW28573   0.700   0.740   2.625
 5565SOL    HW128574   0.766   0.718   2.691
 5565SOL    HW228575   0.738   0.709   2.542
 5566SOL     OW28576   1.007   0.537  18.167
 5566SOL    HW128577   1.039   0.508  18.082
 5566SOL    HW228578   0.929   0.485  18.183
 5567SOL     OW28579   2.619   4.042  18.868
 5567SOL    HW128580   2.611   3.963  18.921
 5567SOL    HW228581   2.709   4.040  18.835
 5568SOL     OW28582   0.074   4.770   3.767
 5568SOL    HW128583   0.091   0.076   3.755
 5568SOL    HW228584   0.068   4.758   3.861
 5569SOL     OW28585   3.296   0.762   5.926
 5569SOL    HW128586   3.206   0.753   5.893
 5569SOL    HW228587   3.335   0.676   5.914
 5570SOL     OW28588   0.131   3.873   4.279
 5570SOL    HW128589   0.164   3.814   4.346
 5570SOL    HW228590   0.209   3.903   4.232
 5571SOL     OW28591   3.585   0.492   1.129
 5571SOL    HW128592   3.588   0.471   1.035
 5571SOL    HW228593   3.670   0.462   1.163
 5572SOL     OW28594   2.278   3.385  19.481
 5572SOL    HW128595   2.215   3.348  19.419
 5572SOL    HW228596   2.223   3.425  19.549
 5573SOL     OW28597   3.203   2.188   7.214
 5573SOL    HW128598   3.140   2.171   7.144
 5573SOL    HW228599   3.282   2.216   7.168
 5574SOL     OW28600   2.599   0.170   3.835
 5574SOL    HW128601   2.637   0.243   3.884
 5574SOL    HW228602   2.671   0.108   3.824
 5575SOL     OW28603   3.967   3.188  19.264
 5575SOL    HW128604   3.937   3.192  19.355
 5575SOL    HW228605   3.939   3.103  19.233
 5576SOL     OW28606   0.253   1.895  19.291
 5576SOL    HW128607   0.184   1.836  19.259
 5576SOL    HW228608   0.219   1.929  19.374
 5577SOL     OW28609   1.762   0.412   4.271
 5577SOL    HW128610   1.824   0.480   4.245
 5577SOL    HW228611   1.810   0.330   4.261
 5578SOL     OW28612   4.509   1.665  20.166
 5578SOL    HW128613   4.523   1.718  20.245
 5578SOL    HW228614   4.498   1.575  20.199
 5579SOL     OW28615   3.813   1.398  17.324
 5579SOL    HW128616   3.873   1.418  17.253
 5579SOL    HW228617   3.787   1.307  17.309
 5580SOL     OW28618   3.395   2.069   4.085
 5580SOL    HW128619   3.380   2.034   4.172
 5580SOL    HW228620   3.435   1.997   4.037
 5581SOL     OW28621   0.068   0.324  16.665
 5581SOL    HW128622   0.051   0.243  16.617
 5581SOL    HW228623   0.119   0.377  16.605
 5582SOL     OW28624   1.656   1.416  12.937
 5582SOL    HW128625   1.566   1.416  12.903
 5582SOL    HW228626   1.651   1.367  13.019
 5583SOL     OW28627   1.506   4.633  13.730
 5583SOL    HW128628   1.542   4.637  13.642
 5583SOL    HW228629   1.412   4.650  13.719
 5584SOL     OW28630   0.512   2.925  19.474
 5584SOL    HW128631   0.597   2.885  19.457
 5584SOL    HW228632   0.449   2.854  19.465
 5585SOL     OW28633   2.116   4.326   5.239
 5585SOL    HW128634   2.137   4.394   5.174
 5585SOL    HW228635   2.134   4.244   5.195
 5586SOL     OW28636   4.384   0.847   2.279
 5586SOL    HW128637   4.413   0.758   2.256
 5586SOL    HW228638   4.291   0.838   2.298
 5587SOL     OW28639   4.687   3.417  19.778
 5587SOL    HW128640   4.601   3.423  19.736
 5587SOL    HW228641   4.746   3.464  19.719
 5588SOL     OW28642   2.258   2.790  17.381
 5588SOL    HW128643   2.225   2.852  17.445
 5588SOL    HW228644   2.278   2.843  17.304
 5589SOL     OW28645   3.173   1.066   1.888
 5589SOL    HW128646   3.263   1.036   1.881
 5589SOL    HW228647   3.179   1.153   1.926
 5590SOL     OW28648   3.412   1.103  17.465
 5590SOL    HW128649   3.413   1.016  17.505
 5590SOL    HW228650   3.322   1.115  17.436
 5591SOL     OW28651   3.838   0.311  17.732
 5591SOL    HW128652   3.821   0.332  17.824
 5591SOL    HW228653   3.933   0.297  17.728
 5592SOL     OW28654   3.761   3.731   2.384
 5592SOL    HW128655   3.735   3.802   2.442
 5592SOL    HW228656   3.840   3.695   2.424
 5593SOL     OW28657   2.535   1.343  18.912
 5593SOL    HW128658   2.473   1.415  18.906
 5593SOL    HW228659   2.621   1.385  18.919
 5594SOL     OW28660   1.441   1.445   6.324
 5594SOL    HW128661   1.531   1.476   6.321
 5594SOL    HW228662   1.443   1.370   6.384
 5595SOL     OW28663   4.089   2.657   4.967
 5595SOL    HW128664   4.023   2.719   4.935
 5595SOL    HW228665   4.064   2.642   5.059
 5596SOL     OW28666   0.749   2.397   6.142
 5596SOL    HW128667   0.823   2.417   6.199
 5596SOL    HW228668   0.724   2.308   6.165
 5597SOL     OW28669   2.385   2.895  14.725
 5597SOL    HW128670   2.372   2.959  14.795
 5597SOL    HW228671   2.453   2.933  14.669
 5598SOL     OW28672   1.181   4.007  20.078
 5598SOL    HW128673   1.149   4.096  20.065
 5598SOL    HW228674   1.109   3.961  20.121
 5599SOL     OW28675   4.360   0.406   3.932
 5599SOL    HW128676   4.301   0.430   3.861
 5599SOL    HW228677   4.334   0.317   3.957
 5600SOL     OW28678   3.692   2.904   2.331
 5600SOL    HW128679   3.769   2.878   2.381
 5600SOL    HW228680   3.618   2.875   2.384
 5601SOL     OW28681   4.357   2.826   4.701
 5601SOL    HW128682   4.267   2.852   4.683
 5601SOL    HW228683   4.395   2.809   4.614
 5602SOL     OW28684   0.861   4.652   0.761
 5602SOL    HW128685   0.828   4.622   0.676
 5602SOL    HW228686   0.826   4.589   0.824
 5603SOL     OW28687   3.266   1.034   4.866
 5603SOL    HW128688   3.330   1.021   4.797
 5603SOL    HW228689   3.277   0.957   4.923
 5604SOL     OW28690   1.515   3.723   4.638
 5604SOL    HW128691   1.531   3.630   4.624
 5604SOL    HW228692   1.483   3.729   4.728
 5605SOL     OW28693   2.970   0.358  18.533
 5605SOL    HW128694   2.962   0.432  18.472
 5605SOL    HW228695   2.932   0.389  18.615
 5606SOL     OW28696   1.815   3.038  16.707
 5606SOL    HW128697   1.896   3.082  16.681
 5606SOL    HW228698   1.760   3.039  16.628
 5607SOL     OW28699   1.433   1.240   5.004
 5607SOL    HW128700   1.440   1.332   5.030
 5607SOL    HW228701   1.428   1.241   4.909
 5608SOL     OW28702   4.425   0.021   5.961
 5608SOL    HW128703   4.470   4.734   5.922
 5608SOL    HW228704   4.353   0.041   5.901
 5609SOL     OW28705   3.118   4.170  13.783
 5609SOL    HW128706   3.086   4.100  13.840
 5609SOL    HW228707   3.077   4.249  13.817
 5610SOL     OW28708   1.377   1.603   4.174
 5610SOL    HW128709   1.338   1.516   4.187
 5610SOL    HW228710   1.471   1.589   4.186
 5611SOL     OW28711   2.383   0.690   5.507
 5611SOL    HW128712   2.439   0.632   5.455
 5611SOL    HW228713   2.297   0.682   5.468
 5612SOL     OW28714   2.229   2.114   1.042
 5612SOL    HW128715   2.254   2.080   0.956
 5612SOL    HW228716   2.272   2.057   1.105
 5613SOL     OW28717   1.443   2.883   3.925
 5613SOL    HW128718   1.417   2.926   3.843
 5613SOL    HW228719   1.368   2.898   3.984
 5614SOL     OW28720   3.585   3.097  19.239
 5614SOL    HW128721   3.514   3.102  19.175
 5614SOL    HW228722   3.635   3.019  19.215
 5615SOL     OW28723   4.318   3.278  15.288
 5615SOL    HW128724   4.369   3.359  15.293
 5615SOL    HW228725   4.382   3.211  15.265
 5616SOL     OW28726   4.056   4.255   0.522
 5616SOL    HW128727   3.992   4.283   0.588
 5616SOL    HW228728   4.113   4.331   0.510
 5617SOL     OW28729   1.595   4.291   1.235
 5617SOL    HW128730   1.655   4.361   1.209
 5617SOL    HW228731   1.650   4.230   1.283
 5618SOL     OW28732   2.277   0.304  17.688
 5618SOL    HW128733   2.260   0.398  17.680
 5618SOL    HW228734   2.259   0.269  17.601
 5619SOL     OW28735   1.360   3.098  19.988
 5619SOL    HW128736   1.446   3.080  20.028
 5619SOL    HW228737   1.362   3.192  19.969
 5620SOL     OW28738   0.835   4.222   6.365
 5620SOL    HW128739   0.837   4.139   6.413
 5620SOL    HW228740   0.745   4.254   6.377
 5621SOL     OW28741   4.604   3.248   6.621
 5621SOL    HW128742   4.650   3.197   6.554
 5621SOL    HW228743   4.636   3.214   6.704
 5622SOL     OW28744   0.043   1.829  15.428
 5622SOL    HW128745   0.123   1.819  15.377
 5622SOL    HW228746   0.012   1.917  15.406
 5623SOL     OW28747   2.397   2.016   2.039
 5623SOL    HW128748   2.434   2.101   2.063
 5623SOL    HW228749   2.316   2.037   1.992
 5624SOL     OW28750   1.296   2.180   0.820
 5624SOL    HW128751   1.369   2.153   0.765
 5624SOL    HW228752   1.337   2.228   0.892
 5625SOL     OW28753   2.008   2.911  20.513
 5625SOL    HW128754   1.934   2.932  20.456
 5625SOL    HW228755   2.064   2.989  20.509
 5626SOL     OW28756   1.193   1.327  15.177
 5626SOL    HW128757   1.190   1.410  15.131
 5626SOL    HW228758   1.106   1.288  15.163
 5627SOL     OW28759   1.286   3.367  17.186
 5627SOL    HW128760   1.219   3.312  17.145
 5627SOL    HW228761   1.246   3.454  17.192
 5628SOL     OW28762   3.983   4.209  15.531
 5628SOL    HW128763   4.009   4.215  15.623
 5628SOL    HW228764   4.020   4.126  15.501
 5629SOL     OW28765   1.794   3.404   2.951
 5629SOL    HW128766   1.777   3.477   3.009
 5629SOL    HW228767   1.731   3.337   2.976
 5630SOL     OW28768   3.363   2.353   0.696
 5630SOL    HW128769   3.397   2.268   0.669
 5630SOL    HW228770   3.352   2.346   0.791
 5631SOL     OW28771   0.048   3.410   2.884
 5631SOL    HW128772   0.141   3.407   2.864
 5631SOL    HW228773   0.018   3.494   2.848
 5632SOL     OW28774   4.667   2.638   4.046
 5632SOL    HW128775   4.631   2.605   3.963
 5632SOL    HW228776   4.603   2.702   4.076
 5633SOL     OW28777   2.872   3.077  17.412
 5633SOL    HW128778   2.794   3.107  17.459
 5633SOL    HW228779   2.941   3.138  17.437
 5634SOL     OW28780   0.173   1.809  17.730
 5634SOL    HW128781   0.148   1.730  17.681
 5634SOL    HW228782   0.135   1.796  17.817
 5635SOL     OW28783   1.630   1.895   4.261
 5635SOL    HW128784   1.552   1.896   4.205
 5635SOL    HW228785   1.680   1.971   4.233
 5636SOL     OW28786   0.312   4.144  15.095
 5636SOL    HW128787   0.360   4.172  15.017
 5636SOL    HW228788   0.226   4.184  15.085
 5637SOL     OW28789   2.667   1.449   2.229
 5637SOL    HW128790   2.659   1.401   2.312
 5637SOL    HW228791   2.699   1.535   2.254
 5638SOL     OW28792   1.588   4.169   4.398
 5638SOL    HW128793   1.669   4.162   4.349
 5638SOL    HW228794   1.520   4.142   4.337
 5639SOL     OW28795   4.410   1.890  19.099
 5639SOL    HW128796   4.479   1.955  19.083
 5639SOL    HW228797   4.351   1.898  19.024
 5640SOL     OW28798   2.603   2.840  16.178
 5640SOL    HW128799   2.628   2.930  16.195
 5640SOL    HW228800   2.655   2.814  16.102
 5641SOL     OW28801   2.419   2.361   4.855
 5641SOL    HW128802   2.337   2.400   4.824
 5641SOL    HW228803   2.486   2.428   4.839
 5642SOL     OW28804   3.145   2.852   6.165
 5642SOL    HW128805   3.063   2.830   6.209
 5642SOL    HW228806   3.172   2.770   6.124
 5643SOL     OW28807   4.647   4.351  15.274
 5643SOL    HW128808   4.577   4.389  15.221
 5643SOL    HW228809   4.605   4.278  15.320
 5644SOL     OW28810   2.057   1.475  20.956
 5644SOL    HW128811   2.115   1.433  20.893
 5644SOL    HW228812   2.050   1.566  20.926
 5645SOL     OW28813   3.241   4.596   5.919
 5645SOL    HW128814   3.183   4.564   5.988
 5645SOL    HW228815   3.328   4.563   5.942
 5646SOL     OW28816   2.207   2.109  18.567
 5646SOL    HW128817   2.157   2.185  18.596
 5646SOL    HW228818   2.298   2.132  18.587
 5647SOL     OW28819   1.579   4.067  14.067
 5647SOL    HW128820   1.561   4.039  13.977
 5647SOL    HW228821   1.606   4.158  14.058
 5648SOL     OW28822   2.014   2.733   1.599
 5648SOL    HW128823   2.017   2.654   1.545
 5648SOL    HW228824   2.042   2.704   1.686
 5649SOL     OW28825   2.162   2.126   2.213
 5649SOL    HW128826   2.162   2.123   2.118
 5649SOL    HW228827   2.222   2.057   2.240
 5650SOL     OW28828   4.018   0.947   2.790
 5650SOL    HW128829   4.064   0.978   2.867
 5650SOL    HW228830   4.041   1.009   2.721
 5651SOL     OW28831   3.559   2.744   6.578
 5651SOL    HW128832   3.611   2.672   6.543
 5651SOL    HW228833   3.511   2.778   6.502
 5652SOL     OW28834   3.637   1.705   3.328
 5652SOL    HW128835   3.646   1.610   3.316
 5652SOL    HW228836   3.689   1.725   3.406
 5653SOL     OW28837   3.011   0.590  19.505
 5653SOL    HW128838   2.952   0.519  19.478
 5653SOL    HW228839   3.085   0.545  19.545
 5654SOL     OW28840   3.735   2.108   9.106
 5654SOL    HW128841   3.796   2.157   9.161
 5654SOL    HW228842   3.788   2.076   9.033
 5655SOL     OW28843   0.559   0.593  21.127
 5655SOL    HW128844   0.629   0.572  21.188
 5655SOL    HW228845   0.524   0.508  21.100
 5656SOL     OW28846   3.443   3.994   6.218
 5656SOL    HW128847   3.511   3.947   6.266
 5656SOL    HW228848   3.429   4.074   6.268
 5657SOL     OW28849   3.938   2.320  12.456
 5657SOL    HW128850   3.906   2.410  12.458
 5657SOL    HW228851   3.890   2.279  12.384
 5658SOL     OW28852   1.506   3.846  16.425
 5658SOL    HW128853   1.519   3.822  16.517
 5658SOL    HW228854   1.427   3.798  16.399
 5659SOL     OW28855   3.460   1.486   2.136
 5659SOL    HW128856   3.429   1.506   2.047
 5659SOL    HW228857   3.549   1.522   2.139
 5660SOL     OW28858   3.537   1.442  19.592
 5660SOL    HW128859   3.474   1.508  19.621
 5660SOL    HW228860   3.527   1.370  19.654
 5661SOL     OW28861   4.401   4.352  15.100
 5661SOL    HW128862   4.323   4.339  15.047
 5661SOL    HW228863   4.474   4.329  15.043
 5662SOL     OW28864   0.726   2.067   4.542
 5662SOL    HW128865   0.741   2.080   4.448
 5662SOL    HW228866   0.666   2.138   4.566
 5663SOL     OW28867   1.901   3.136   3.868
 5663SOL    HW128868   1.848   3.214   3.851
 5663SOL    HW228869   1.855   3.065   3.822
 5664SOL     OW28870   3.624   3.850  17.272
 5664SOL    HW128871   3.648   3.825  17.183
 5664SOL    HW228872   3.693   3.814  17.328
 5665SOL     OW28873   2.764   3.795   1.795
 5665SOL    HW128874   2.763   3.796   1.699
 5665SOL    HW228875   2.731   3.709   1.819
 5666SOL     OW28876   4.549   0.131  16.124
 5666SOL    HW128877   4.574   0.121  16.032
 5666SOL    HW228878   4.623   0.096  16.173
 5667SOL     OW28879   3.873   1.647   0.402
 5667SOL    HW128880   3.951   1.702   0.392
 5667SOL    HW228881   3.863   1.605   0.316
 5668SOL     OW28882   1.342   1.695   0.356
 5668SOL    HW128883   1.407   1.663   0.419
 5668SOL    HW228884   1.333   1.789   0.376
 5669SOL     OW28885   4.319   3.522  19.980
 5669SOL    HW128886   4.362   3.438  19.964
 5669SOL    HW228887   4.230   3.499  20.005
 5670SOL     OW28888   3.827   3.270  18.210
 5670SOL    HW128889   3.776   3.259  18.291
 5670SOL    HW228890   3.860   3.359  18.214
 5671SOL     OW28891   4.748   2.357   0.463
 5671SOL    HW128892   4.659   2.371   0.496
 5671SOL    HW228893   0.016   2.371   0.539
 5672SOL     OW28894   3.863   1.843   2.689
 5672SOL    HW128895   3.897   1.849   2.600
 5672SOL    HW228896   3.821   1.757   2.693
 5673SOL     OW28897   1.085   2.033  20.453
 5673SOL    HW128898   1.026   2.051  20.380
 5673SOL    HW228899   1.135   1.956  20.424
 5674SOL     OW28900   3.256   2.089  18.381
 5674SOL    HW128901   3.308   2.111  18.458
 5674SOL    HW228902   3.166   2.112  18.405
 5675SOL     OW28903   3.414   2.631  17.626
 5675SOL    HW128904   3.478   2.649  17.558
 5675SOL    HW228905   3.337   2.682  17.601
 5676SOL     OW28906   1.904   0.327   3.787
 5676SOL    HW128907   1.878   0.236   3.771
 5676SOL    HW228908   1.895   0.370   3.702
 5677SOL     OW28909   3.290   1.672  17.817
 5677SOL    HW128910   3.217   1.733  17.828
 5677SOL    HW228911   3.368   1.727  17.819
 5678SOL     OW28912   4.495   3.643  19.802
 5678SOL    HW128913   4.457   3.677  19.721
 5678SOL    HW228914   4.419   3.613  19.852
 5679SOL     OW28915   0.378   0.030  19.024
 5679SOL    HW128916   0.424   4.777  19.097
 5679SOL    HW228917   0.288   0.000  19.032
 5680SOL     OW28918   3.716   0.293  18.919
 5680SOL    HW128919   3.792   0.238  18.939
 5680SOL    HW228920   3.660   0.238  18.865
 5681SOL     OW28921   2.383   0.838  20.644
 5681SOL    HW128922   2.438   0.819  20.568
 5681SOL    HW228923   2.432   0.904  20.694
 5682SOL     OW28924   4.347   1.556   5.673
 5682SOL    HW128925   4.340   1.634   5.728
 5682SOL    HW228926   4.308   1.582   5.590
 5683SOL     OW28927   4.246   0.479   1.317
 5683SOL    HW128928   4.290   0.397   1.295
 5683SOL    HW228929   4.310   0.547   1.295
 5684SOL     OW28930   4.465   0.348  16.621
 5684SOL    HW128931   4.412   0.392  16.686
 5684SOL    HW228932   4.490   0.416  16.559
 5685SOL     OW28933   0.548   0.867   5.330
 5685SOL    HW128934   0.486   0.797   5.351
 5685SOL    HW228935   0.629   0.822   5.309
 5686SOL     OW28936   2.956   0.714   3.250
 5686SOL    HW128937   2.894   0.768   3.201
 5686SOL    HW228938   3.034   0.769   3.259
 5687SOL     OW28939   1.362   1.271  16.226
 5687SOL    HW128940   1.411   1.224  16.294
 5687SOL    HW228941   1.429   1.315  16.174
 5688SOL     OW28942   0.707   0.973   0.061
 5688SOL    HW128943   0.726   0.992   0.152
 5688SOL    HW228944   0.790   0.987   0.015
 5689SOL     OW28945   0.740   3.775  16.975
 5689SOL    HW128946   0.775   3.769  17.064
 5689SOL    HW228947   0.788   3.709  16.926
 5690SOL     OW28948   4.675   0.436  12.933
 5690SOL    HW128949   4.690   0.344  12.955
 5690SOL    HW228950   4.599   0.434  12.874
 5691SOL     OW28951   3.166   2.677   5.532
 5691SOL    HW128952   3.085   2.728   5.525
 5691SOL    HW228953   3.197   2.668   5.442
 5692SOL     OW28954   2.402   4.136   5.478
 5692SOL    HW128955   2.426   4.122   5.570
 5692SOL    HW228956   2.448   4.216   5.454
 5693SOL     OW28957   2.957   4.140  16.015
 5693SOL    HW128958   3.044   4.168  16.040
 5693SOL    HW228959   2.950   4.162  15.922
 5694SOL     OW28960   2.217   2.550  21.129
 5694SOL    HW128961   2.149   2.581  21.189
 5694SOL    HW228962   2.236   2.626  21.074
 5695SOL     OW28963   2.912   3.112   1.604
 5695SOL    HW128964   2.859   3.063   1.667
 5695SOL    HW228965   3.001   3.107   1.638
 5696SOL     OW28966   2.654   1.360  19.454
 5696SOL    HW128967   2.566   1.394  19.472
 5696SOL    HW228968   2.711   1.409  19.513
 5697SOL     OW28969   1.753   0.758  15.518
 5697SOL    HW128970   1.736   0.849  15.494
 5697SOL    HW228971   1.677   0.710  15.483
 5698SOL     OW28972   1.192   4.248  19.816
 5698SOL    HW128973   1.235   4.304  19.751
 5698SOL    HW228974   1.212   4.159  19.788
 5699SOL     OW28975   1.354   3.023  18.209
 5699SOL    HW128976   1.424   3.088  18.205
 5699SOL    HW228977   1.372   2.964  18.135
 5700SOL     OW28978   4.260   1.244   2.669
 5700SOL    HW128979   4.340   1.253   2.721
 5700SOL    HW228980   4.195   1.296   2.717
 5701SOL     OW28981   1.164   2.565   2.287
 5701SOL    HW128982   1.104   2.557   2.361
 5701SOL    HW228983   1.110   2.546   2.211
 5702SOL     OW28984   1.243   2.999   5.274
 5702SOL    HW128985   1.205   3.063   5.334
 5702SOL    HW228986   1.321   3.042   5.239
 5703SOL     OW28987   2.504   4.712  20.735
 5703SOL    HW128988   2.505   4.624  20.772
 5703SOL    HW228989   2.543   4.702  20.648
 5704SOL     OW28990   2.248   0.606   4.811
 5704SOL    HW128991   2.338   0.624   4.839
 5704SOL    HW228992   2.209   0.693   4.799
 5705SOL     OW28993   0.038   2.903  17.408
 5705SOL    HW128994   0.045   2.809  17.393
 5705SOL    HW228995   0.058   2.914  17.501
 5706SOL     OW28996   0.555   2.779  16.770
 5706SOL    HW128997   0.490   2.813  16.832
 5706SOL    HW228998   0.504   2.756  16.692
 5707SOL     OW28999   3.206   4.166   0.748
 5707SOL    HW129000   3.157   4.119   0.681
 5707SOL    HW229001   3.233   4.099   0.810
 5708SOL     OW29002   2.124   1.701  13.893
 5708SOL    HW129003   2.195   1.761  13.872
 5708SOL    HW229004   2.053   1.725  13.834
 5709SOL     OW29005   0.159   2.243  17.511
 5709SOL    HW129006   0.204   2.160  17.521
 5709SOL    HW229007   0.218   2.307  17.552
 5710SOL     OW29008   1.102   0.333  16.242
 5710SOL    HW129009   1.096   0.350  16.148
 5710SOL    HW229010   1.013   0.342  16.274
 5711SOL     OW29011   4.703   3.151  19.823
 5711SOL    HW129012   4.695   3.242  19.797
 5711SOL    HW229013   4.721   3.154  19.917
 5712SOL     OW29014   1.764   1.977  16.945
 5712SOL    HW129015   1.781   2.071  16.938
 5712SOL    HW229016   1.831   1.944  17.004
 5713SOL     OW29017   2.500   3.745  20.300
 5713SOL    HW129018   2.584   3.700  20.316
 5713SOL    HW229019   2.434   3.677  20.311
 5714SOL     OW29020   1.234   0.757   0.314
 5714SOL    HW129021   1.306   0.819   0.303
 5714SOL    HW229022   1.160   0.800   0.271
 5715SOL     OW29023   2.345   2.623  15.157
 5715SOL    HW129024   2.318   2.583  15.240
 5715SOL    HW229025   2.312   2.713  15.163
 5716SOL     OW29026   3.169   4.151   5.503
 5716SOL    HW129027   3.122   4.233   5.515
 5716SOL    HW229028   3.103   4.083   5.515
 5717SOL     OW29029   3.050   2.100  14.437
 5717SOL    HW129030   3.134   2.143  14.456
 5717SOL    HW229031   3.024   2.061  14.521
 5718SOL     OW29032   2.955   1.929  20.954
 5718SOL    HW129033   2.912   2.010  20.982
 5718SOL    HW229034   2.970   1.881  21.035
 5719SOL     OW29035   1.477   2.253   0.603
 5719SOL    HW129036   1.507   2.344   0.612
 5719SOL    HW229037   1.387   2.262   0.569
 5720SOL     OW29038   4.152   1.862  19.507
 5720SOL    HW129039   4.157   1.931  19.440
 5720SOL    HW229040   4.073   1.884  19.558
 5721SOL     OW29041   4.613   4.784   2.936
 5721SOL    HW129042   4.557   4.732   2.878
 5721SOL    HW229043   4.565   4.787   3.019
 5722SOL     OW29044   2.668   2.797  15.400
 5722SOL    HW129045   2.692   2.822  15.489
 5722SOL    HW229046   2.740   2.831  15.346
 5723SOL     OW29047   0.663   4.576  20.147
 5723SOL    HW129048   0.574   4.540  20.141
 5723SOL    HW229049   0.708   4.539  20.071
 5724SOL     OW29050   1.208   2.074  17.852
 5724SOL    HW129051   1.115   2.052  17.841
 5724SOL    HW229052   1.252   1.989  17.855
 5725SOL     OW29053   3.099   4.327   1.131
 5725SOL    HW129054   3.137   4.411   1.157
 5725SOL    HW229055   3.112   4.270   1.207
 5726SOL     OW29056   2.222   4.299  12.336
 5726SOL    HW129057   2.215   4.394  12.325
 5726SOL    HW229058   2.206   4.264  12.249
 5727SOL     OW29059   2.655   4.230   0.445
 5727SOL    HW129060   2.642   4.311   0.494
 5727SOL    HW229061   2.745   4.204   0.465
 5728SOL     OW29062   4.338   1.272   6.018
 5728SOL    HW129063   4.392   1.251   6.094
 5728SOL    HW229064   4.307   1.188   5.986
 5729SOL     OW29065   2.028   0.814  15.325
 5729SOL    HW129066   2.080   0.893  15.339
 5729SOL    HW229067   1.954   0.822  15.386
 5730SOL     OW29068   4.291   3.537  20.330
 5730SOL    HW129069   4.258   3.529  20.419
 5730SOL    HW229070   4.349   3.462  20.318
 5731SOL     OW29071   3.463   1.352  15.473
 5731SOL    HW129072   3.405   1.428  15.484
 5731SOL    HW229073   3.410   1.278  15.503
 5732SOL     OW29074   0.380   4.723   1.129
 5732SOL    HW129075   0.343   4.781   1.062
 5732SOL    HW229076   0.356   4.635   1.101
 5733SOL     OW29077   2.864   2.520  18.454
 5733SOL    HW129078   2.866   2.586  18.523
 5733SOL    HW229079   2.914   2.447  18.489
 5734SOL     OW29080   0.313   3.712   2.407
 5734SOL    HW129081   0.313   3.616   2.399
 5734SOL    HW229082   0.400   3.738   2.376
 5735SOL     OW29083   1.716   0.121   4.805
 5735SOL    HW129084   1.675   0.208   4.801
 5735SOL    HW229085   1.715   0.090   4.715
 5736SOL     OW29086   3.046   3.053   2.614
 5736SOL    HW129087   3.001   3.119   2.667
 5736SOL    HW229088   3.100   3.005   2.677
 5737SOL     OW29089   2.767   1.706  17.137
 5737SOL    HW129090   2.841   1.657  17.173
 5737SOL    HW229091   2.779   1.795  17.170
 5738SOL     OW29092   0.494   0.947  17.012
 5738SOL    HW129093   0.410   0.968  17.052
 5738SOL    HW229094   0.557   0.952  17.084
 5739SOL     OW29095   0.120   2.427   5.575
 5739SOL    HW129096   0.215   2.420   5.574
 5739SOL    HW229097   0.096   2.412   5.667
 5740SOL     OW29098   4.718   3.392  18.336
 5740SOL    HW129099   4.738   3.329  18.267
 5740SOL    HW229100   0.016   3.429  18.360
 5741SOL     OW29101   2.325   2.257  19.434
 5741SOL    HW129102   2.401   2.312  19.450
 5741SOL    HW229103   2.250   2.314  19.453
 5742SOL     OW29104   4.375   0.780   1.576
 5742SOL    HW129105   4.281   0.789   1.593
 5742SOL    HW229106   4.409   0.733   1.652
 5743SOL     OW29107   3.667   3.473   5.951
 5743SOL    HW129108   3.751   3.431   5.971
 5743SOL    HW229109   3.687   3.532   5.878
 5744SOL     OW29110   1.586   0.991  15.212
 5744SOL    HW129111   1.541   1.074  15.194
 5744SOL    HW229112   1.673   1.002  15.173
 5745SOL     OW29113   2.318   1.221   2.946
 5745SOL    HW129114   2.231   1.240   2.981
 5745SOL    HW229115   2.368   1.192   3.022
 5746SOL     OW29116   1.549   4.508   3.617
 5746SOL    HW129117   1.610   4.562   3.667
 5746SOL    HW229118   1.602   4.435   3.586
 5747SOL     OW29119   2.044   4.626   6.916
 5747SOL    HW129120   2.005   4.669   6.840
 5747SOL    HW229121   2.116   4.684   6.942
 5748SOL     OW29122   3.507   0.414   5.155
 5748SOL    HW129123   3.550   0.421   5.070
 5748SOL    HW229124   3.558   0.471   5.213
 5749SOL     OW29125   3.126   0.284  20.657
 5749SOL    HW129126   3.139   0.365  20.707
 5749SOL    HW229127   3.045   0.247  20.691
 5750SOL     OW29128   1.684   1.112  20.469
 5750SOL    HW129129   1.668   1.026  20.508
 5750SOL    HW229130   1.612   1.166  20.500
 5751SOL     OW29131   3.186   0.601   6.952
 5751SOL    HW129132   3.095   0.630   6.950
 5751SOL    HW229133   3.225   0.645   7.027
 5752SOL     OW29134   2.973   4.492  20.414
 5752SOL    HW129135   3.067   4.484  20.428
 5752SOL    HW229136   2.940   4.535  20.492
 5753SOL     OW29137   0.419   3.466   2.838
 5753SOL    HW129138   0.501   3.452   2.886
 5753SOL    HW229139   0.374   3.535   2.887
 5754SOL     OW29140   2.397   2.464  18.338
 5754SOL    HW129141   2.420   2.372  18.350
 5754SOL    HW229142   2.360   2.469  18.250
 5755SOL     OW29143   4.685   2.139  20.074
 5755SOL    HW129144   4.658   2.073  20.011
 5755SOL    HW229145   4.654   2.106  20.159
 5756SOL     OW29146   2.034   2.625  16.676
 5756SOL    HW129147   1.970   2.692  16.698
 5756SOL    HW229148   2.029   2.562  16.748
 5757SOL     OW29149   4.725   1.165  15.699
 5757SOL    HW129150   4.762   1.159  15.787
 5757SOL    HW229151   4.772   1.238  15.659
 5758SOL     OW29152   2.888   0.762  15.928
 5758SOL    HW129153   2.795   0.771  15.948
 5758SOL    HW229154   2.920   0.698  15.992
 5759SOL     OW29155   3.853   4.777  18.710
 5759SOL    HW129156   3.876   0.039  18.788
 5759SOL    HW229157   3.870   4.686  18.732
 5760SOL     OW29158   3.222   0.473  20.223
 5760SOL    HW129159   3.315   0.493  20.236
 5760SOL    HW229160   3.211   0.386  20.262
 5761SOL     OW29161   1.503   3.970   6.960
 5761SOL    HW129162   1.562   4.017   7.020
 5761SOL    HW229163   1.553   3.893   6.933
 5762SOL     OW29164   3.363   3.002   3.175
 5762SOL    HW129165   3.453   3.018   3.204
 5762SOL    HW229166   3.356   3.049   3.092
 5763SOL     OW29167   2.187   0.856   1.048
 5763SOL    HW129168   2.269   0.808   1.045
 5763SOL    HW229169   2.164   0.861   1.141
 5764SOL     OW29170   0.403   2.320  15.531
 5764SOL    HW129171   0.480   2.324  15.588
 5764SOL    HW229172   0.379   2.227  15.530
 5765SOL     OW29173   0.859   3.854  21.090
 5765SOL    HW129174   0.794   3.874  21.157
 5765SOL    HW229175   0.881   3.939  21.052
 5766SOL     OW29176   1.940   2.885   5.721
 5766SOL    HW129177   1.904   2.862   5.635
 5766SOL    HW229178   1.907   2.974   5.737
 5767SOL     OW29179   3.051   1.282  16.123
 5767SOL    HW129180   2.987   1.248  16.061
 5767SOL    HW229181   3.053   1.376  16.107
 5768SOL     OW29182   0.751   2.164   1.345
 5768SOL    HW129183   0.694   2.125   1.412
 5768SOL    HW229184   0.692   2.181   1.271
 5769SOL     OW29185   2.974   3.046   3.974
 5769SOL    HW129186   2.987   3.141   3.967
 5769SOL    HW229187   2.882   3.036   3.997
 5770SOL     OW29188   2.080   0.973   2.496
 5770SOL    HW129189   2.012   0.919   2.455
 5770SOL    HW229190   2.162   0.930   2.473
 5771SOL     OW29191   3.660   1.866  13.592
 5771SOL    HW129192   3.640   1.956  13.620
 5771SOL    HW229193   3.756   1.866  13.583
 5772SOL     OW29194   1.492   1.405  18.289
 5772SOL    HW129195   1.520   1.341  18.354
 5772SOL    HW229196   1.572   1.425  18.239
 5773SOL     OW29197   3.084   2.582   3.238
 5773SOL    HW129198   3.116   2.650   3.297
 5773SOL    HW229199   3.136   2.592   3.159
 5774SOL     OW29200   4.289   3.405   3.949
 5774SOL    HW129201   4.331   3.414   3.863
 5774SOL    HW229202   4.313   3.486   3.995
 5775SOL     OW29203   4.678   1.412  20.969
 5775SOL    HW129204   4.668   1.417  21.064
 5775SOL    HW229205   4.647   1.496  20.937
 5776SOL     OW29206   0.454   0.814  18.137
 5776SOL    HW129207   0.474   0.867  18.214
 5776SOL    HW229208   0.378   0.858  18.098
 5777SOL     OW29209   2.707   1.519   3.663
 5777SOL    HW129210   2.685   1.465   3.739
 5777SOL    HW229211   2.747   1.457   3.601
 5778SOL     OW29212   4.194   2.301  20.047
 5778SOL    HW129213   4.214   2.234  19.981
 5778SOL    HW229214   4.279   2.341  20.066
 5779SOL     OW29215   1.949   4.177  19.420
 5779SOL    HW129216   1.867   4.214  19.387
 5779SOL    HW229217   1.999   4.253  19.449
 5780SOL     OW29218   0.099   2.840   3.471
 5780SOL    HW129219   0.040   2.835   3.546
 5780SOL    HW229220   0.067   2.773   3.411
 5781SOL     OW29221   2.870   0.351   1.713
 5781SOL    HW129222   2.955   0.375   1.750
 5781SOL    HW229223   2.814   0.426   1.732
 5782SOL     OW29224   0.280   0.963   0.773
 5782SOL    HW129225   0.199   0.915   0.754
 5782SOL    HW229226   0.339   0.897   0.810
 5783SOL     OW29227   3.351   4.588  20.991
 5783SOL    HW129228   3.369   4.497  21.017
 5783SOL    HW229229   3.385   4.595  20.902
 5784SOL     OW29230   4.159   3.282   7.247
 5784SOL    HW129231   4.157   3.219   7.318
 5784SOL    HW229232   4.105   3.355   7.279
 5785SOL     OW29233   2.089   1.271  17.708
 5785SOL    HW129234   2.035   1.198  17.739
 5785SOL    HW229235   2.066   1.279  17.615
 5786SOL     OW29236   2.930   0.980   2.250
 5786SOL    HW129237   2.962   0.908   2.304
 5786SOL    HW229238   2.905   0.938   2.168
 5787SOL     OW29239   0.908   4.222   1.062
 5787SOL    HW129240   0.949   4.183   1.138
 5787SOL    HW229241   0.815   4.227   1.084
 5788SOL     OW29242   0.683   3.433   2.923
 5788SOL    HW129243   0.720   3.521   2.933
 5788SOL    HW229244   0.751   3.382   2.880
 5789SOL     OW29245   3.159   2.222   5.682
 5789SOL    HW129246   3.064   2.234   5.676
 5789SOL    HW229247   3.175   2.195   5.772
 5790SOL     OW29248   4.355   3.352   0.847
 5790SOL    HW129249   4.265   3.348   0.816
 5790SOL    HW229250   4.349   3.380   0.938
 5791SOL     OW29251   3.178   2.135  15.141
 5791SOL    HW129252   3.132   2.066  15.189
 5791SOL    HW229253   3.255   2.092  15.105
 5792SOL     OW29254   4.108   2.506   1.675
 5792SOL    HW129255   4.131   2.539   1.588
 5792SOL    HW229256   4.055   2.576   1.714
 5793SOL     OW29257   3.890   0.872   7.179
 5793SOL    HW129258   3.849   0.928   7.246
 5793SOL    HW229259   3.977   0.910   7.166
 5794SOL     OW29260   1.440   2.812  19.405
 5794SOL    HW129261   1.471   2.876  19.469
 5794SOL    HW229262   1.345   2.814  19.414
 5795SOL     OW29263   0.675   4.636  17.385
 5795SOL    HW129264   0.651   4.714  17.434
 5795SOL    HW229265   0.648   4.654  17.295
 5796SOL     OW29266   4.222   3.016  16.358
 5796SOL    HW129267   4.145   3.010  16.414
 5796SOL    HW229268   4.271   2.936  16.375
 5797SOL     OW29269   2.758   4.751  16.896
 5797SOL    HW129270   2.677   0.005  16.868
 5797SOL    HW229271   2.791   4.706  16.818
 5798SOL     OW29272   1.228   1.772  16.050
 5798SOL    HW129273   1.213   1.818  16.132
 5798SOL    HW229274   1.238   1.841  15.984
 5799SOL     OW29275   2.889   0.573   3.879
 5799SOL    HW129276   2.856   0.572   3.969
 5799SOL    HW229277   2.835   0.637   3.834
 5800SOL     OW29278   0.260   0.512   4.624
 5800SOL    HW129279   0.236   0.536   4.713
 5800SOL    HW229280   0.324   0.577   4.597
 5801SOL     OW29281   3.174   4.017  12.047
 5801SOL    HW129282   3.166   4.088  12.111
 5801SOL    HW229283   3.113   4.041  11.978
 5802SOL     OW29284   3.606   4.017  16.715
 5802SOL    HW129285   3.688   4.016  16.664
 5802SOL    HW229286   3.634   3.997  16.804
 5803SOL     OW29287   2.726   3.370  15.183
 5803SOL    HW129288   2.684   3.404  15.104
 5803SOL    HW229289   2.805   3.423  15.192
 5804SOL     OW29290   3.894   4.467   6.814
 5804SOL    HW129291   3.807   4.508   6.807
 5804SOL    HW229292   3.939   4.492   6.733
 5805SOL     OW29293   3.068   1.180  19.444
 5805SOL    HW129294   3.100   1.180  19.535
 5805SOL    HW229295   2.999   1.114  19.443
 5806SOL     OW29296   4.006   1.332   5.221
 5806SOL    HW129297   4.010   1.263   5.286
 5806SOL    HW229298   3.964   1.405   5.266
 5807SOL     OW29299   1.584   1.282   2.021
 5807SOL    HW129300   1.599   1.322   2.107
 5807SOL    HW229301   1.650   1.323   1.965
 5808SOL     OW29302   2.922   2.780   6.283
 5808SOL    HW129303   2.900   2.690   6.303
 5808SOL    HW229304   2.854   2.832   6.325
 5809SOL     OW29305   4.614   1.081   0.296
 5809SOL    HW129306   4.599   1.078   0.391
 5809SOL    HW229307   4.600   1.173   0.272
 5810SOL     OW29308   3.161   2.338   3.000
 5810SOL    HW129309   3.236   2.281   2.990
 5810SOL    HW229310   3.111   2.300   3.073
 5811SOL     OW29311   1.837   3.724   6.345
 5811SOL    HW129312   1.814   3.672   6.268
 5811SOL    HW229313   1.930   3.707   6.359
 5812SOL     OW29314   2.708   4.250   3.155
 5812SOL    HW129315   2.739   4.334   3.120
 5812SOL    HW229316   2.786   4.208   3.190
 5813SOL     OW29317   1.903   1.431  19.080
 5813SOL    HW129318   1.872   1.351  19.122
 5813SOL    HW229319   1.884   1.418  18.987
 5814SOL     OW29320   0.601   0.063   0.666
 5814SOL    HW129321   0.678   0.063   0.723
 5814SOL    HW229322   0.636   0.067   0.577
 5815SOL     OW29323   0.511   4.164   4.339
 5815SOL    HW129324   0.525   4.208   4.256
 5815SOL    HW229325   0.573   4.205   4.399
 5816SOL     OW29326   2.587   1.716  20.226
 5816SOL    HW129327   2.669   1.755  20.256
 5816SOL    HW229328   2.529   1.791  20.211
 5817SOL     OW29329   1.288   1.094   4.086
 5817SOL    HW129330   1.238   1.097   4.168
 5817SOL    HW229331   1.248   1.160   4.031
 5818SOL     OW29332   2.810   2.287   1.915
 5818SOL    HW129333   2.786   2.376   1.889
 5818SOL    HW229334   2.746   2.263   1.982
 5819SOL     OW29335   1.394   2.753  16.412
 5819SOL    HW129336   1.409   2.847  16.423
 5819SOL    HW229337   1.307   2.737  16.449
 5820SOL     OW29338   3.987   2.654   5.233
 5820SOL    HW129339   3.933   2.585   5.271
 5820SOL    HW229340   3.960   2.733   5.280
 5821SOL     OW29341   0.283   4.484  15.774
 5821SOL    HW129342   0.191   4.481  15.748
 5821SOL    HW229343   0.305   4.577  15.775
 5822SOL     OW29344   1.883   2.060   4.503
 5822SOL    HW129345   1.930   2.144   4.499
 5822SOL    HW229346   1.814   2.068   4.437
 5823SOL     OW29347   0.732   0.482  16.049
 5823SOL    HW129348   0.785   0.469  16.128
 5823SOL    HW229349   0.793   0.520  15.986
 5824SOL     OW29350   1.790   4.111   0.615
 5824SOL    HW129351   1.738   4.192   0.615
 5824SOL    HW229352   1.876   4.138   0.582
 5825SOL     OW29353   3.850   3.686  18.852
 5825SOL    HW129354   3.778   3.708  18.911
 5825SOL    HW229355   3.894   3.770  18.836
 5826SOL     OW29356   1.824   0.015   0.811
 5826SOL    HW129357   1.908   0.026   0.767
 5826SOL    HW229358   1.758   0.030   0.743
 5827SOL     OW29359   3.563   1.295  16.764
 5827SOL    HW129360   3.488   1.237  16.774
 5827SOL    HW229361   3.569   1.312  16.670
 5828SOL     OW29362   2.116   4.413  15.839
 5828SOL    HW129363   2.142   4.441  15.927
 5828SOL    HW229364   2.103   4.495  15.791
 5829SOL     OW29365   1.240   2.902  20.145
 5829SOL    HW129366   1.284   2.957  20.080
 5829SOL    HW229367   1.259   2.945  20.229
 5830SOL     OW29368   1.318   3.403   1.579
 5830SOL    HW129369   1.377   3.328   1.591
 5830SOL    HW229370   1.303   3.437   1.667
 5831SOL     OW29371   1.703   4.568   5.494
 5831SOL    HW129372   1.645   4.562   5.418
 5831SOL    HW229373   1.645   4.588   5.567
 5832SOL     OW29374   2.689   1.426   6.548
 5832SOL    HW129375   2.644   1.352   6.506
 5832SOL    HW229376   2.636   1.446   6.625
 5833SOL     OW29377   0.022   3.350   3.181
 5833SOL    HW129378   4.776   3.432   3.216
 5833SOL    HW229379   0.025   3.363   3.086
 5834SOL     OW29380   4.781   0.857  20.382
 5834SOL    HW129381   4.722   0.922  20.345
 5834SOL    HW229382   0.005   0.883  20.473
 5835SOL     OW29383   3.901   0.687   2.667
 5835SOL    HW129384   3.968   0.738   2.713
 5835SOL    HW229385   3.891   0.731   2.583
 5836SOL     OW29386   0.234   2.794   6.712
 5836SOL    HW129387   0.148   2.827   6.686
 5836SOL    HW229388   0.274   2.764   6.630
 5837SOL     OW29389   1.193   4.412  17.696
 5837SOL    HW129390   1.121   4.382  17.639
 5837SOL    HW229391   1.249   4.463  17.638
 5838SOL     OW29392   2.094   1.853  14.380
 5838SOL    HW129393   2.045   1.929  14.350
 5838SOL    HW229394   2.171   1.849  14.323
 5839SOL     OW29395   4.705   0.879  17.639
 5839SOL    HW129396   4.631   0.940  17.630
 5839SOL    HW229397   4.734   0.888  17.730
 5840SOL     OW29398   2.034   0.255  19.847
 5840SOL    HW129399   2.066   0.345  19.844
 5840SOL    HW229400   1.964   0.256  19.912
 5841SOL     OW29401   3.286   0.668  21.246
 5841SOL    HW129402   3.233   0.700  21.173
 5841SOL    HW229403   3.369   0.642  21.205
 5842SOL     OW29404   0.869   1.741   5.588
 5842SOL    HW129405   0.818   1.674   5.542
 5842SOL    HW229406   0.958   1.706   5.589
 5843SOL     OW29407   1.918   1.287  20.450
 5843SOL    HW129408   1.861   1.210  20.459
 5843SOL    HW229409   1.885   1.348  20.515
 5844SOL     OW29410   3.323   2.948   3.527
 5844SOL    HW129411   3.321   3.042   3.509
 5844SOL    HW229412   3.281   2.939   3.612
 5845SOL     OW29413   2.834   0.420  15.708
 5845SOL    HW129414   2.879   0.469  15.639
 5845SOL    HW229415   2.865   0.330  15.697
 5846SOL     OW29416   1.846   2.259  18.477
 5846SOL    HW129417   1.823   2.300  18.560
 5846SOL    HW229418   1.789   2.182  18.472
 5847SOL     OW29419   2.105   2.600   6.403
 5847SOL    HW129420   2.107   2.664   6.475
 5847SOL    HW229421   2.084   2.517   6.446
 5848SOL     OW29422   2.428   0.451   3.754
 5848SOL    HW129423   2.376   0.510   3.809
 5848SOL    HW229424   2.501   0.424   3.810
 5849SOL     OW29425   0.674   4.620  15.214
 5849SOL    HW129426   0.631   4.692  15.260
 5849SOL    HW229427   0.617   4.545  15.228
 5850SOL     OW29428   0.414   2.544  18.868
 5850SOL    HW129429   0.383   2.621  18.819
 5850SOL    HW229430   0.508   2.540  18.851
 5851SOL     OW29431   2.041   3.828   6.603
 5851SOL    HW129432   2.126   3.786   6.585
 5851SOL    HW229433   2.063   3.918   6.625
 5852SOL     OW29434   0.557   3.066  17.235
 5852SOL    HW129435   0.634   3.017  17.265
 5852SOL    HW229436   0.489   3.045  17.300
 5853SOL     OW29437   4.083   4.688   1.696
 5853SOL    HW129438   3.993   4.656   1.706
 5853SOL    HW229439   4.088   4.764   1.754
 5854SOL     OW29440   0.660   1.565  19.338
 5854SOL    HW129441   0.726   1.616  19.385
 5854SOL    HW229442   0.648   1.487  19.392
 5855SOL     OW29443   3.037   1.547  14.841
 5855SOL    HW129444   3.120   1.550  14.795
 5855SOL    HW229445   3.024   1.454  14.861
 5856SOL     OW29446   2.228   3.422  15.446
 5856SOL    HW129447   2.212   3.383  15.360
 5856SOL    HW229448   2.324   3.427  15.452
 5857SOL     OW29449   1.759   0.770   3.057
 5857SOL    HW129450   1.817   0.709   3.103
 5857SOL    HW229451   1.806   0.792   2.977
 5858SOL     OW29452   4.270   4.092   1.048
 5858SOL    HW129453   4.331   4.020   1.030
 5858SOL    HW229454   4.236   4.117   0.962
 5859SOL     OW29455   3.884   1.061  16.267
 5859SOL    HW129456   3.894   0.966  16.279
 5859SOL    HW229457   3.790   1.075  16.266
 5860SOL     OW29458   3.967   3.529   6.276
 5860SOL    HW129459   3.951   3.502   6.185
 5860SOL    HW229460   4.046   3.482   6.302
 5861SOL     OW29461   1.571   3.760   0.997
 5861SOL    HW129462   1.647   3.722   1.042
 5861SOL    HW229463   1.594   3.755   0.904
 5862SOL     OW29464   0.348   2.574   5.307
 5862SOL    HW129465   0.288   2.632   5.352
 5862SOL    HW229466   0.431   2.583   5.354
 5863SOL     OW29467   2.627   3.732   2.709
 5863SOL    HW129468   2.637   3.706   2.618
 5863SOL    HW229469   2.698   3.795   2.724
 5864SOL     OW29470   2.164   2.191   2.474
 5864SOL    HW129471   2.138   2.208   2.384
 5864SOL    HW229472   2.249   2.234   2.483
 5865SOL     OW29473   3.581   3.471   2.659
 5865SOL    HW129474   3.659   3.518   2.688
 5865SOL    HW229475   3.529   3.537   2.614
 5866SOL     OW29476   2.829   1.860   4.899
 5866SOL    HW129477   2.854   1.805   4.974
 5866SOL    HW229478   2.822   1.948   4.935
 5867SOL     OW29479   3.606   1.192  18.511
 5867SOL    HW129480   3.647   1.108  18.529
 5867SOL    HW229481   3.657   1.228  18.438
 5868SOL     OW29482   2.150   1.464   3.915
 5868SOL    HW129483   2.138   1.421   3.830
 5868SOL    HW229484   2.087   1.536   3.915
 5869SOL     OW29485   3.950   2.812   0.755
 5869SOL    HW129486   4.010   2.765   0.697
 5869SOL    HW229487   3.864   2.776   0.735
 5870SOL     OW29488   2.174   1.074  18.524
 5870SOL    HW129489   2.169   0.993  18.472
 5870SOL    HW229490   2.086   1.111  18.518
 5871SOL     OW29491   0.544   3.959  17.574
 5871SOL    HW129492   0.497   3.892  17.625
 5871SOL    HW229493   0.497   4.040  17.591
 5872SOL     OW29494   3.336   4.434  19.603
 5872SOL    HW129495   3.360   4.526  19.606
 5872SOL    HW229496   3.417   4.387  19.625
 5873SOL     OW29497   3.146   4.145  15.140
 5873SOL    HW129498   3.139   4.240  15.149
 5873SOL    HW229499   3.076   4.110  15.195
 5874SOL     OW29500   4.159   2.200   1.181
 5874SOL    HW129501   4.206   2.133   1.230
 5874SOL    HW229502   4.125   2.154   1.104
 5875SOL     OW29503   2.392   2.594   0.211
 5875SOL    HW129504   2.365   2.504   0.190
 5875SOL    HW229505   2.485   2.596   0.189
 5876SOL     OW29506   3.064   1.128  18.745
 5876SOL    HW129507   3.152   1.115  18.779
 5876SOL    HW229508   3.010   1.064  18.794
 5877SOL     OW29509   1.939   4.665  20.156
 5877SOL    HW129510   2.012   4.677  20.095
 5877SOL    HW229511   1.864   4.704  20.112
 5878SOL     OW29512   4.043   0.475  15.958
 5878SOL    HW129513   4.004   0.543  16.013
 5878SOL    HW229514   4.128   0.456  15.998
 5879SOL     OW29515   1.766   1.751  19.637
 5879SOL    HW129516   1.680   1.715  19.659
 5879SOL    HW229517   1.828   1.691  19.677
 5880SOL     OW29518   1.144   2.928   0.204
 5880SOL    HW129519   1.175   2.965   0.287
 5880SOL    HW229520   1.208   2.956   0.139
 5881SOL     OW29521   4.338   3.672  18.785
 5881SOL    HW129522   4.365   3.584  18.809
 5881SOL    HW229523   4.354   3.677  18.690
 5882SOL     OW29524   3.394   4.284   2.357
 5882SOL    HW129525   3.364   4.339   2.285
 5882SOL    HW229526   3.323   4.221   2.371
 5883SOL     OW29527   4.522   2.324   5.208
 5883SOL    HW129528   4.431   2.351   5.221
 5883SOL    HW229529   4.551   2.375   5.132
 5884SOL     OW29530   3.042   3.913  17.054
 5884SOL    HW129531   3.122   3.904  17.002
 5884SOL    HW229532   3.034   4.008  17.068
 5885SOL     OW29533   2.077   3.754  17.570
 5885SOL    HW129534   2.018   3.821  17.604
 5885SOL    HW229535   2.161   3.773  17.612
 5886SOL     OW29536   0.415   2.208   4.976
 5886SOL    HW129537   0.428   2.170   4.889
 5886SOL    HW229538   0.323   2.233   4.979
 5887SOL     OW29539   1.704   0.813   4.316
 5887SOL    HW129540   1.683   0.721   4.333
 5887SOL    HW229541   1.620   0.858   4.325
 5888SOL     OW29542   0.990   3.148  18.674
 5888SOL    HW129543   1.005   3.239  18.648
 5888SOL    HW229544   0.982   3.152  18.769
 5889SOL     OW29545   2.005   3.288  15.525
 5889SOL    HW129546   2.086   3.336  15.504
 5889SOL    HW229547   1.991   3.230  15.450
 5890SOL     OW29548   2.451   3.950  13.343
 5890SOL    HW129549   2.358   3.961  13.361
 5890SOL    HW229550   2.481   4.037  13.317
 5891SOL     OW29551   0.252   3.884  17.346
 5891SOL    HW129552   0.262   3.797  17.307
 5891SOL    HW229553   0.338   3.925  17.336
 5892SOL     OW29554   4.158   2.510   3.040
 5892SOL    HW129555   4.225   2.506   3.108
 5892SOL    HW229556   4.078   2.535   3.087
 5893SOL     OW29557   4.598   0.968  18.374
 5893SOL    HW129558   4.512   1.010  18.370
 5893SOL    HW229559   4.616   0.960  18.468
 5894SOL     OW29560   2.767   4.477   6.150
 5894SOL    HW129561   2.692   4.418   6.156
 5894SOL    HW229562   2.842   4.423   6.173
 5895SOL     OW29563   0.675   4.121  20.473
 5895SOL    HW129564   0.642   4.160  20.392
 5895SOL    HW229565   0.659   4.188  20.540
 5896SOL     OW29566   2.697   2.591   3.415
 5896SOL    HW129567   2.748   2.664   3.381
 5896SOL    HW229568   2.607   2.612   3.391
 5897SOL     OW29569   1.446   0.939   0.291
 5897SOL    HW129570   1.522   0.882   0.300
 5897SOL    HW229571   1.462   0.989   0.211
 5898SOL     OW29572   0.952   2.148  20.175
 5898SOL    HW129573   0.904   2.219  20.217
 5898SOL    HW229574   0.909   2.137  20.090
 5899SOL     OW29575   0.939   4.739  16.233
 5899SOL    HW129576   0.998   4.744  16.309
 5899SOL    HW229577   0.997   4.721  16.159
 5900SOL     OW29578   2.159   4.634  18.099
 5900SOL    HW129579   2.222   4.586  18.153
 5900SOL    HW229580   2.175   4.603  18.010
 5901SOL     OW29581   3.659   2.275   1.844
 5901SOL    HW129582   3.715   2.265   1.766
 5901SOL    HW229583   3.621   2.188   1.857
 5902SOL     OW29584   4.235   1.513  18.639
 5902SOL    HW129585   4.189   1.585  18.596
 5902SOL    HW229586   4.260   1.454  18.568
 5903SOL     OW29587   1.681   0.671  15.222
 5903SOL    HW129588   1.771   0.703  15.229
 5903SOL    HW229589   1.631   0.727  15.282
 5904SOL     OW29590   2.869   1.763  20.029
 5904SOL    HW129591   2.939   1.698  20.038
 5904SOL    HW229592   2.792   1.711  20.007
 5905SOL     OW29593   1.694   3.106  16.950
 5905SOL    HW129594   1.730   3.095  16.862
 5905SOL    HW229595   1.724   3.193  16.978
 5906SOL     OW29596   1.679   1.796   0.393
 5906SOL    HW129597   1.731   1.795   0.474
 5906SOL    HW229598   1.743   1.786   0.323
 5907SOL     OW29599   1.672   3.314   7.618
 5907SOL    HW129600   1.612   3.313   7.692
 5907SOL    HW229601   1.682   3.407   7.597
 5908SOL     OW29602   1.897   3.933  19.111
 5908SOL    HW129603   1.925   3.889  19.031
 5908SOL    HW229604   1.837   3.871  19.153
 5909SOL     OW29605   4.314   1.669   4.289
 5909SOL    HW129606   4.243   1.605   4.292
 5909SOL    HW229607   4.278   1.743   4.241
 5910SOL     OW29608   4.437   0.204   2.030
 5910SOL    HW129609   4.523   0.243   2.012
 5910SOL    HW229610   4.437   0.187   2.124
 5911SOL     OW29611   1.037   1.794   8.943
 5911SOL    HW129612   1.088   1.873   8.925
 5911SOL    HW229613   0.973   1.820   9.008
 5912SOL     OW29614   3.327   1.934  16.556
 5912SOL    HW129615   3.332   2.007  16.618
 5912SOL    HW229616   3.412   1.891  16.563
 5913SOL     OW29617   0.389   1.983   1.304
 5913SOL    HW129618   0.319   1.919   1.299
 5913SOL    HW229619   0.413   1.999   1.213
 5914SOL     OW29620   2.278   0.142  20.999
 5914SOL    HW129621   2.353   0.092  21.032
 5914SOL    HW229622   2.298   0.158  20.907
 5915SOL     OW29623   1.439   4.533   0.858
 5915SOL    HW129624   1.403   4.592   0.792
 5915SOL    HW229625   1.532   4.553   0.861
 5916SOL     OW29626   2.189   3.723  19.900
 5916SOL    HW129627   2.133   3.801  19.894
 5916SOL    HW229628   2.172   3.688  19.987
 5917SOL     OW29629   3.496   3.310   6.237
 5917SOL    HW129630   3.421   3.369   6.231
 5917SOL    HW229631   3.566   3.355   6.191
 5918SOL     OW29632   1.692   0.464  19.593
 5918SOL    HW129633   1.639   0.537  19.559
 5918SOL    HW229634   1.703   0.405  19.518
 5919SOL     OW29635   1.670   2.196  20.320
 5919SOL    HW129636   1.589   2.238  20.350
 5919SOL    HW229637   1.697   2.141  20.393
 5920SOL     OW29638   4.296   2.218  18.045
 5920SOL    HW129639   4.226   2.271  18.009
 5920SOL    HW229640   4.275   2.210  18.138
 5921SOL     OW29641   3.995   0.964   6.795
 5921SOL    HW129642   4.044   1.039   6.829
 5921SOL    HW229643   3.933   0.942   6.864
 5922SOL     OW29644   4.730   3.904  14.174
 5922SOL    HW129645   4.649   3.896  14.225
 5922SOL    HW229646   4.705   3.882  14.085
 5923SOL     OW29647   3.710   2.196   4.953
 5923SOL    HW129648   3.673   2.186   5.040
 5923SOL    HW229649   3.746   2.284   4.952
 5924SOL     OW29650   0.677   3.209  20.493
 5924SOL    HW129651   0.686   3.138  20.556
 5924SOL    HW229652   0.595   3.253  20.516
 5925SOL     OW29653   2.007   2.714   6.164
 5925SOL    HW129654   2.017   2.638   6.107
 5925SOL    HW229655   2.038   2.683   6.249
 5926SOL     OW29656   1.100   3.708   3.372
 5926SOL    HW129657   1.137   3.627   3.339
 5926SOL    HW229658   1.107   3.701   3.468
 5927SOL     OW29659   4.569   1.236  19.828
 5927SOL    HW129660   4.645   1.272  19.781
 5927SOL    HW229661   4.526   1.181  19.763
 5928SOL     OW29662   1.896   2.225  16.935
 5928SOL    HW129663   1.952   2.210  17.011
 5928SOL    HW229664   1.911   2.317  16.912
 5929SOL     OW29665   4.505   1.030  15.593
 5929SOL    HW129666   4.527   1.041  15.500
 5929SOL    HW229667   4.572   1.081  15.640
 5930SOL     OW29668   3.310   4.692  17.996
 5930SOL    HW129669   3.248   4.718  17.928
 5930SOL    HW229670   3.313   4.597  17.991
 5931SOL     OW29671   2.970   1.428  21.043
 5931SOL    HW129672   3.028   1.387  21.107
 5931SOL    HW229673   2.918   1.490  21.095
 5932SOL     OW29674   4.656   1.922   6.535
 5932SOL    HW129675   4.626   1.952   6.620
 5932SOL    HW229676   4.595   1.961   6.473
 5933SOL     OW29677   0.665   3.000   4.052
 5933SOL    HW129678   0.585   3.007   4.105
 5933SOL    HW229679   0.668   3.081   4.003
 5934SOL     OW29680   3.175   1.745   5.021
 5934SOL    HW129681   3.153   1.815   4.960
 5934SOL    HW229682   3.091   1.717   5.058
 5935SOL     OW29683   2.674   3.178  19.576
 5935SOL    HW129684   2.708   3.261  19.545
 5935SOL    HW229685   2.749   3.135  19.618
 5936SOL     OW29686   2.645   2.473   5.754
 5936SOL    HW129687   2.738   2.490   5.743
 5936SOL    HW229688   2.617   2.537   5.819
 5937SOL     OW29689   2.195   0.600  17.022
 5937SOL    HW129690   2.224   0.663  17.089
 5937SOL    HW229691   2.169   0.655  16.948
 5938SOL     OW29692   3.398   3.021   2.142
 5938SOL    HW129693   3.350   3.025   2.059
 5938SOL    HW229694   3.368   3.098   2.191
 5939SOL     OW29695   4.441   3.315   0.350
 5939SOL    HW129696   4.489   3.342   0.428
 5939SOL    HW229697   4.494   3.246   0.311
 5940SOL     OW29698   3.576   1.889   5.908
 5940SOL    HW129699   3.592   1.901   6.001
 5940SOL    HW229700   3.663   1.884   5.869
 5941SOL     OW29701   3.354   4.361  15.525
 5941SOL    HW129702   3.419   4.295  15.501
 5941SOL    HW229703   3.389   4.444  15.492
 5942SOL     OW29704   1.233   1.762   2.590
 5942SOL    HW129705   1.227   1.856   2.604
 5942SOL    HW229706   1.288   1.753   2.512
 5943SOL     OW29707   0.226   0.080  19.597
 5943SOL    HW129708   0.216   0.140  19.524
 5943SOL    HW229709   0.319   0.058  19.596
 5944SOL     OW29710   3.804   2.220   3.765
 5944SOL    HW129711   3.795   2.165   3.843
 5944SOL    HW229712   3.718   2.261   3.755
 5945SOL     OW29713   4.291   4.367  20.921
 5945SOL    HW129714   4.210   4.415  20.938
 5945SOL    HW229715   4.319   4.337  21.008
 5946SOL     OW29716   3.426   4.358   6.201
 5946SOL    HW129717   3.400   4.421   6.134
 5946SOL    HW229718   3.498   4.309   6.160
 5947SOL     OW29719   2.090   0.179  19.604
 5947SOL    HW129720   2.166   0.234  19.584
 5947SOL    HW229721   2.081   0.183  19.699
 5948SOL     OW29722   2.297   3.573   7.732
 5948SOL    HW129723   2.216   3.622   7.720
 5948SOL    HW229724   2.272   3.495   7.781
 5949SOL     OW29725   4.540   2.862  16.045
 5949SOL    HW129726   4.467   2.853  15.984
 5949SOL    HW229727   4.517   2.939  16.098
 5950SOL     OW29728   3.744   3.264   7.263
 5950SOL    HW129729   3.650   3.249   7.255
 5950SOL    HW229730   3.755   3.295   7.354
 5951SOL     OW29731   0.128   0.293   3.708
 5951SOL    HW129732   0.060   0.359   3.718
 5951SOL    HW229733   0.169   0.287   3.794
 5952SOL     OW29734   1.868   0.803   1.769
 5952SOL    HW129735   1.951   0.784   1.813
 5952SOL    HW229736   1.874   0.756   1.686
 5953SOL     OW29737   4.085   4.684   9.102
 5953SOL    HW129738   4.131   4.646   9.177
 5953SOL    HW229739   3.994   4.656   9.113
 5954SOL     OW29740   4.410   3.668  18.325
 5954SOL    HW129741   4.438   3.609  18.255
 5954SOL    HW229742   4.434   3.756  18.294
 5955SOL     OW29743   0.877   2.394  20.256
 5955SOL    HW129744   0.835   2.456  20.196
 5955SOL    HW229745   0.946   2.446  20.299
 5956SOL     OW29746   1.807   1.293   7.443
 5956SOL    HW129747   1.760   1.260   7.366
 5956SOL    HW229748   1.758   1.372   7.468
 5957SOL     OW29749   0.657   2.232   3.166
 5957SOL    HW129750   0.654   2.255   3.259
 5957SOL    HW229751   0.730   2.171   3.158
 5958SOL     OW29752   0.548   1.573  16.607
 5958SOL    HW129753   0.515   1.515  16.538
 5958SOL    HW229754   0.591   1.645  16.560
 5959SOL     OW29755   0.099   4.373   5.281
 5959SOL    HW129756   0.152   4.293   5.284
 5959SOL    HW229757   0.024   4.354   5.338
 5960SOL     OW29758   3.432   2.991   7.717
 5960SOL    HW129759   3.468   2.905   7.737
 5960SOL    HW229760   3.508   3.044   7.693
 5961SOL     OW29761   3.885   2.761  19.956
 5961SOL    HW129762   3.929   2.679  19.934
 5961SOL    HW229763   3.823   2.775  19.884
 5962SOL     OW29764   1.238   0.538   4.821
 5962SOL    HW129765   1.204   0.478   4.887
 5962SOL    HW229766   1.160   0.570   4.776
 5963SOL     OW29767   4.371   0.503   0.348
 5963SOL    HW129768   4.400   0.594   0.353
 5963SOL    HW229769   4.451   0.453   0.333
 5964SOL     OW29770   2.177   1.799   4.508
 5964SOL    HW129771   2.189   1.743   4.585
 5964SOL    HW229772   2.205   1.744   4.434
 5965SOL     OW29773   4.037   3.309   1.799
 5965SOL    HW129774   4.110   3.371   1.792
 5965SOL    HW229775   4.044   3.275   1.888
 5966SOL     OW29776   0.742   2.545   2.842
 5966SOL    HW129777   0.695   2.554   2.925
 5966SOL    HW229778   0.790   2.462   2.850
 5967SOL     OW29779   4.421   2.920   3.769
 5967SOL    HW129780   4.356   2.859   3.805
 5967SOL    HW229781   4.400   3.004   3.809
 5968SOL     OW29782   1.216   1.444   1.858
 5968SOL    HW129783   1.256   1.360   1.879
 5968SOL    HW229784   1.216   1.448   1.763
 5969SOL     OW29785   4.091   0.782  15.895
 5969SOL    HW129786   4.124   0.839  15.825
 5969SOL    HW229787   4.164   0.775  15.956
 5970SOL     OW29788   2.296   3.443   0.776
 5970SOL    HW129789   2.324   3.479   0.692
 5970SOL    HW229790   2.375   3.403   0.812
 5971SOL     OW29791   0.714   2.755   7.784
 5971SOL    HW129792   0.678   2.689   7.724
 5971SOL    HW229793   0.682   2.728   7.870
 5972SOL     OW29794   3.664   2.877   0.528
 5972SOL    HW129795   3.664   2.878   0.433
 5972SOL    HW229796   3.702   2.792   0.552
 5973SOL     OW29797   3.808   0.897   8.252
 5973SOL    HW129798   3.745   0.843   8.300
 5973SOL    HW229799   3.825   0.848   8.172
 5974SOL     OW29800   4.195   3.360   6.980
 5974SOL    HW129801   4.129   3.424   7.005
 5974SOL    HW229802   4.207   3.306   7.058
 5975SOL     OW29803   1.198   1.333  17.850
 5975SOL    HW129804   1.143   1.371  17.781
 5975SOL    HW229805   1.243   1.260  17.808
 5976SOL     OW29806   2.168   2.197   4.842
 5976SOL    HW129807   2.143   2.121   4.895
 5976SOL    HW229808   2.165   2.165   4.752
 5977SOL     OW29809   0.558   1.752  20.520
 5977SOL    HW129810   0.502   1.815  20.474
 5977SOL    HW229811   0.568   1.680  20.458
 5978SOL     OW29812   4.432   3.208   8.222
 5978SOL    HW129813   4.473   3.193   8.137
 5978SOL    HW229814   4.387   3.291   8.213
 5979SOL     OW29815   0.385   3.348   4.598
 5979SOL    HW129816   0.446   3.385   4.662
 5979SOL    HW229817   0.426   3.364   4.513
 5980SOL     OW29818   3.213   4.423   1.859
 5980SOL    HW129819   3.187   4.515   1.863
 5980SOL    HW229820   3.161   4.387   1.787
 5981SOL     OW29821   1.753   2.746   6.274
 5981SOL    HW129822   1.820   2.744   6.206
 5981SOL    HW229823   1.758   2.834   6.311
 5982SOL     OW29824   1.684   1.518   6.314
 5982SOL    HW129825   1.750   1.464   6.357
 5982SOL    HW229826   1.735   1.585   6.268
 5983SOL     OW29827   4.115   2.771   2.085
 5983SOL    HW129828   4.038   2.717   2.097
 5983SOL    HW229829   4.171   2.749   2.160
 5984SOL     OW29830   3.767   0.233   2.562
 5984SOL    HW129831   3.841   0.293   2.570
 5984SOL    HW229832   3.710   0.272   2.496
 5985SOL     OW29833   3.018   4.322   0.896
 5985SOL    HW129834   3.052   4.317   0.985
 5985SOL    HW229835   3.088   4.285   0.842
 5986SOL     OW29836   1.814   3.202  18.226
 5986SOL    HW129837   1.851   3.125  18.182
 5986SOL    HW229838   1.835   3.275  18.169
 5987SOL     OW29839   2.164   4.185   4.285
 5987SOL    HW129840   2.094   4.223   4.339
 5987SOL    HW229841   2.244   4.196   4.338
 5988SOL     OW29842   3.056   3.574   4.586
 5988SOL    HW129843   3.014   3.494   4.619
 5988SOL    HW229844   2.983   3.635   4.574
 5989SOL     OW29845   2.412   4.674  17.059
 5989SOL    HW129846   2.410   4.584  17.026
 5989SOL    HW229847   2.431   4.728  16.982
 5990SOL     OW29848   0.985   2.554  17.815
 5990SOL    HW129849   1.017   2.642  17.794
 5990SOL    HW229850   1.040   2.525  17.887
 5991SOL     OW29851   4.193   2.792  14.462
 5991SOL    HW129852   4.285   2.818  14.464
 5991SOL    HW229853   4.145   2.870  14.491
 5992SOL     OW29854   0.711   1.743  17.865
 5992SOL    HW129855   0.691   1.821  17.813
 5992SOL    HW229856   0.652   1.676  17.832
 5993SOL     OW29857   3.436   1.882   3.004
 5993SOL    HW129858   3.369   1.919   3.060
 5993SOL    HW229859   3.502   1.848   3.065
 5994SOL     OW29860   1.654   4.484  18.769
 5994SOL    HW129861   1.593   4.550  18.736
 5994SOL    HW229862   1.641   4.408  18.712
 5995SOL     OW29863   3.364   0.075  18.868
 5995SOL    HW129864   3.275   0.100  18.841
 5995SOL    HW229865   3.407   0.049  18.786
 5996SOL     OW29866   0.255   2.755   8.359
 5996SOL    HW129867   0.314   2.786   8.428
 5996SOL    HW229868   0.199   2.830   8.340
 5997SOL     OW29869   0.395   0.812  20.100
 5997SOL    HW129870   0.417   0.718  20.099
 5997SOL    HW229871   0.303   0.815  20.126
 5998SOL     OW29872   3.571   3.771  12.505
 5998SOL    HW129873   3.592   3.678  12.498
 5998SOL    HW229874   3.580   3.791  12.598
 5999SOL     OW29875   4.061   0.006   6.043
 5999SOL    HW129876   4.074   4.757   5.956
 5999SOL    HW229877   3.971   4.772   6.065
 6000SOL     OW29878   3.992   3.539   7.048
 6000SOL    HW129879   3.984   3.524   7.142
 6000SOL    HW229880   4.033   3.625   7.041
 6001SOL     OW29881   4.536   0.568  18.053
 6001SOL    HW129882   4.514   0.475  18.046
 6001SOL    HW229883   4.602   0.572  18.122
 6002SOL     OW29884   4.221   3.465   3.441
 6002SOL    HW129885   4.146   3.452   3.383
 6002SOL    HW229886   4.197   3.540   3.495
 6003SOL     OW29887   1.809   1.863   4.700
 6003SOL    HW129888   1.848   1.929   4.643
 6003SOL    HW229889   1.785   1.911   4.779
 6004SOL     OW29890   3.356   0.398   3.093
 6004SOL    HW129891   3.291   0.430   3.156
 6004SOL    HW229892   3.338   0.447   3.013
 6005SOL     OW29893   0.409   0.972   4.486
 6005SOL    HW129894   0.473   0.951   4.419
 6005SOL    HW229895   0.324   0.959   4.443
 6006SOL     OW29896   2.953   0.364   2.248
 6006SOL    HW129897   3.024   0.376   2.185
 6006SOL    HW229898   2.998   0.339   2.329
 6007SOL     OW29899   2.456   1.964   2.307
 6007SOL    HW129900   2.441   1.973   2.213
 6007SOL    HW229901   2.476   2.052   2.338
 6008SOL     OW29902   0.493   3.299   2.247
 6008SOL    HW129903   0.421   3.290   2.184
 6008SOL    HW229904   0.456   3.351   2.318
 6009SOL     OW29905   1.135   3.156  17.097
 6009SOL    HW129906   1.046   3.159  17.059
 6009SOL    HW229907   1.167   3.068  17.074
 6010SOL     OW29908   3.294   4.042   0.298
 6010SOL    HW129909   3.314   4.133   0.320
 6010SOL    HW229910   3.235   4.012   0.367
 6011SOL     OW29911   1.694   0.197   0.383
 6011SOL    HW129912   1.684   0.132   0.453
 6011SOL    HW229913   1.755   0.156   0.322
 6012SOL     OW29914   3.922   2.891  19.304
 6012SOL    HW129915   3.870   2.858  19.377
 6012SOL    HW229916   3.975   2.817  19.276
 6013SOL     OW29917   3.838   0.141   9.230
 6013SOL    HW129918   3.909   0.199   9.201
 6013SOL    HW229919   3.858   0.056   9.191
 6014SOL     OW29920   1.175   2.181   7.829
 6014SOL    HW129921   1.235   2.235   7.881
 6014SOL    HW229922   1.190   2.208   7.739
 6015SOL     OW29923   1.862   3.226   5.568
 6015SOL    HW129924   1.844   3.236   5.661
 6015SOL    HW229925   1.937   3.284   5.551
 6016SOL     OW29926   1.035   1.869   9.852
 6016SOL    HW129927   0.975   1.943   9.858
 6016SOL    HW229928   0.996   1.811   9.786
 6017SOL     OW29929   0.286   1.792  10.071
 6017SOL    HW129930   0.212   1.806  10.011
 6017SOL    HW229931   0.335   1.874  10.069
 6018SOL     OW29932   1.309   1.959   8.531
 6018SOL    HW129933   1.294   1.922   8.444
 6018SOL    HW229934   1.274   2.048   8.526
 6019SOL     OW29935   0.569   2.160   8.187
 6019SOL    HW129936   0.491   2.216   8.191
 6019SOL    HW229937   0.543   2.081   8.233
 6020SOL     OW29938   1.675   2.230   8.551
 6020SOL    HW129939   1.719   2.185   8.623
 6020SOL    HW229940   1.656   2.161   8.488
 6021SOL     OW29941   0.794   1.060   9.185
 6021SOL    HW129942   0.757   1.061   9.273
 6021SOL    HW229943   0.889   1.052   9.199
 6022SOL     OW29944   1.008   2.758   9.805
 6022SOL    HW129945   1.016   2.694   9.734
 6022SOL    HW229946   1.040   2.712   9.883
 6023SOL     OW29947   0.821   0.906   7.732
 6023SOL    HW129948   0.774   0.883   7.651
 6023SOL    HW229949   0.797   0.838   7.794
 6024SOL     OW29950   0.118   4.469  20.944
 6024SOL    HW129951   0.154   4.425  20.867
 6024SOL    HW229952   0.188   4.466  21.009
 6025SOL     OW29953   1.435   0.400   7.499
 6025SOL    HW129954   1.410   0.480   7.544
 6025SOL    HW229955   1.355   0.369   7.458
 6026SOL     OW29956   1.635   2.337   7.893
 6026SOL    HW129957   1.576   2.353   7.966
 6026SOL    HW229958   1.625   2.414   7.836
 6027SOL     OW29959   0.067   2.111   9.911
 6027SOL    HW129960   0.011   2.118   9.989
 6027SOL    HW229961   0.156   2.105   9.946
 6028SOL     OW29962   1.608   3.303   9.488
 6028SOL    HW129963   1.675   3.253   9.534
 6028SOL    HW229964   1.532   3.245   9.486
 6029SOL     OW29965   4.701   1.510   8.443
 6029SOL    HW129966   4.622   1.514   8.497
 6029SOL    HW229967   4.676   1.455   8.369
 6030SOL     OW29968   4.023   3.970  16.805
 6030SOL    HW129969   4.025   4.012  16.891
 6030SOL    HW229970   3.987   3.883  16.822
 6031SOL     OW29971   0.980   2.164   8.310
 6031SOL    HW129972   1.029   2.085   8.286
 6031SOL    HW229973   0.925   2.137   8.383
 6032SOL     OW29974   0.968   3.118   8.742
 6032SOL    HW129975   1.051   3.117   8.789
 6032SOL    HW229976   0.975   3.191   8.681
 6033SOL     OW29977   0.433   3.127   8.645
 6033SOL    HW129978   0.458   3.220   8.643
 6033SOL    HW229979   0.509   3.083   8.683
 6034SOL     OW29980   0.011   3.276  15.344
 6034SOL    HW129981   0.008   3.360  15.296
 6034SOL    HW229982   0.072   3.293  15.416
 6035SOL     OW29983   2.290   0.609   8.788
 6035SOL    HW129984   2.230   0.538   8.769
 6035SOL    HW229985   2.375   0.578   8.757
 6036SOL     OW29986   0.443   1.331   8.012
 6036SOL    HW129987   0.501   1.285   7.951
 6036SOL    HW229988   0.478   1.312   8.098
 6037SOL     OW29989   0.574   2.624  10.997
 6037SOL    HW129990   0.558   2.580  10.914
 6037SOL    HW229991   0.588   2.716  10.972
 6038SOL     OW29992   0.306   2.138  10.459
 6038SOL    HW129993   0.266   2.129  10.546
 6038SOL    HW229994   0.393   2.173  10.477
 6039SOL     OW29995   4.618   2.947  10.134
 6039SOL    HW129996   4.608   2.853  10.122
 6039SOL    HW229997   4.594   2.985  10.049
 6040SOL     OW29998   0.774   1.543  11.074
 6040SOL    HW129999   0.851   1.488  11.058
 6040SOL    HW230000   0.806   1.632  11.063
 6041SOL     OW30001   0.644   2.686  10.223
 6041SOL    HW130002   0.637   2.647  10.310
 6041SOL    HW230003   0.729   2.729  10.222
 6042SOL     OW30004   4.719   1.464  10.578
 6042SOL    HW130005   0.002   1.512  10.622
 6042SOL    HW230006   4.738   1.472  10.485
 6043SOL     OW30007   0.783   1.828  11.822
 6043SOL    HW130008   0.796   1.850  11.729
 6043SOL    HW230009   0.697   1.865  11.842
 6044SOL     OW30010   1.269   1.329  12.118
 6044SOL    HW130011   1.269   1.321  12.023
 6044SOL    HW230012   1.190   1.379  12.138
 6045SOL     OW30013   4.356   0.231   9.734
 6045SOL    HW130014   4.414   0.216   9.809
 6045SOL    HW230015   4.325   0.143   9.710
 6046SOL     OW30016   0.841   2.062   9.769
 6046SOL    HW130017   0.810   2.147   9.741
 6046SOL    HW230018   0.762   2.008   9.778
 6047SOL     OW30019   1.552   2.304   9.591
 6047SOL    HW130020   1.494   2.229   9.603
 6047SOL    HW230021   1.634   2.278   9.633
 6048SOL     OW30022   1.435   2.304  11.515
 6048SOL    HW130023   1.457   2.215  11.489
 6048SOL    HW230024   1.517   2.340  11.549
 6049SOL     OW30025   3.790   0.826   6.923
 6049SOL    HW130026   3.803   0.834   7.018
 6049SOL    HW230027   3.754   0.739   6.911
 6050SOL     OW30028   3.759   1.344  10.716
 6050SOL    HW130029   3.714   1.394  10.784
 6050SOL    HW230030   3.830   1.401  10.686
 6051SOL     OW30031   3.750   1.446  13.583
 6051SOL    HW130032   3.692   1.520  13.603
 6051SOL    HW230033   3.731   1.382  13.652
 6052SOL     OW30034   0.508   3.242  10.358
 6052SOL    HW130035   0.602   3.227  10.347
 6052SOL    HW230036   0.469   3.206  10.278
 6053SOL     OW30037   1.580   2.087   9.353
 6053SOL    HW130038   1.498   2.108   9.398
 6053SOL    HW230039   1.553   2.040   9.275
 6054SOL     OW30040   1.358   1.641  10.548
 6054SOL    HW130041   1.351   1.680  10.635
 6054SOL    HW230042   1.269   1.615  10.526
 6055SOL     OW30043   0.014   2.089  10.450
 6055SOL    HW130044   0.018   2.014  10.508
 6055SOL    HW230045   0.102   2.126  10.452
 6056SOL     OW30046   1.512   1.542  13.836
 6056SOL    HW130047   1.536   1.499  13.753
 6056SOL    HW230048   1.535   1.634  13.823
 6057SOL     OW30049   1.064   2.990  11.646
 6057SOL    HW130050   0.969   2.989  11.650
 6057SOL    HW230051   1.091   3.027  11.731
 6058SOL     OW30052   4.077   1.712  10.510
 6058SOL    HW130053   4.057   1.805  10.520
 6058SOL    HW230054   4.018   1.683  10.441
 6059SOL     OW30055   2.731   1.325  11.600
 6059SOL    HW130056   2.714   1.368  11.684
 6059SOL    HW230057   2.672   1.250  11.599
 6060SOL     OW30058   2.230   1.198  11.941
 6060SOL    HW130059   2.257   1.117  11.985
 6060SOL    HW230060   2.225   1.263  12.011
 6061SOL     OW30061   1.282   2.374  11.225
 6061SOL    HW130062   1.302   2.349  11.316
 6061SOL    HW230063   1.262   2.468  11.231
 6062SOL     OW30064   0.683   2.860  10.911
 6062SOL    HW130065   0.646   2.907  10.836
 6062SOL    HW230066   0.651   2.907  10.987
 6063SOL     OW30067   0.441   3.355  12.164
 6063SOL    HW130068   0.506   3.297  12.124
 6063SOL    HW230069   0.461   3.441  12.128
 6064SOL     OW30070   4.635   1.155  12.261
 6064SOL    HW130071   4.590   1.194  12.337
 6064SOL    HW230072   4.584   1.076  12.241
 6065SOL     OW30073   2.746   1.990  12.256
 6065SOL    HW130074   2.705   2.053  12.315
 6065SOL    HW230075   2.740   2.030  12.170
 6066SOL     OW30076   0.987   2.438  12.666
 6066SOL    HW130077   0.910   2.383  12.650
 6066SOL    HW230078   0.971   2.480  12.750
 6067SOL     OW30079   3.773   2.490   5.278
 6067SOL    HW130080   3.712   2.416   5.274
 6067SOL    HW230081   3.726   2.558   5.325
 6068SOL     OW30082   0.890   4.428  12.127
 6068SOL    HW130083   0.949   4.352  12.125
 6068SOL    HW230084   0.820   4.406  12.065
 6069SOL     OW30085   1.557   3.698  12.595
 6069SOL    HW130086   1.618   3.750  12.648
 6069SOL    HW230087   1.470   3.732  12.619
 6070SOL     OW30088   1.745   1.956  11.692
 6070SOL    HW130089   1.711   2.037  11.730
 6070SOL    HW230090   1.743   1.972  11.597
 6071SOL     OW30091   4.212   0.700  11.641
 6071SOL    HW130092   4.171   0.649  11.572
 6071SOL    HW230093   4.289   0.649  11.667
 6072SOL     OW30094   3.963   2.794  12.312
 6072SOL    HW130095   3.871   2.779  12.331
 6072SOL    HW230096   3.972   2.889  12.308
 6073SOL     OW30097   0.207   2.572  10.743
 6073SOL    HW130098   0.136   2.601  10.686
 6073SOL    HW230099   0.172   2.584  10.832
 6074SOL     OW30100   4.731   2.085  11.937
 6074SOL    HW130101   4.732   2.147  12.010
 6074SOL    HW230102   0.036   2.069  11.918
 6075SOL     OW30103   0.568   2.307  11.636
 6075SOL    HW130104   0.494   2.266  11.590
 6075SOL    HW230105   0.550   2.401  11.631
 6076SOL     OW30106   1.820   1.903  10.763
 6076SOL    HW130107   1.915   1.913  10.755
 6076SOL    HW230108   1.789   1.904  10.672
 6077SOL     OW30109   1.340   0.952  11.940
 6077SOL    HW130110   1.401   0.880  11.959
 6077SOL    HW230111   1.262   0.931  11.993
 6078SOL     OW30112   0.999   2.659  11.185
 6078SOL    HW130113   1.047   2.668  11.268
 6078SOL    HW230114   0.910   2.639  11.211
 6079SOL     OW30115   3.207   1.824  12.817
 6079SOL    HW130116   3.212   1.908  12.863
 6079SOL    HW230117   3.121   1.789  12.840
 6080SOL     OW30118   0.362   3.289  13.698
 6080SOL    HW130119   0.307   3.364  13.718
 6080SOL    HW230120   0.309   3.235  13.639
 6081SOL     OW30121   4.210   2.335  12.531
 6081SOL    HW130122   4.263   2.296  12.461
 6081SOL    HW230123   4.123   2.345  12.493
 6082SOL     OW30124   1.323   1.738  10.811
 6082SOL    HW130125   1.376   1.685  10.871
 6082SOL    HW230126   1.260   1.782  10.868
 6083SOL     OW30127   3.532   1.406  17.032
 6083SOL    HW130128   3.557   1.380  16.943
 6083SOL    HW230129   3.454   1.354  17.050
 6084SOL     OW30130   2.300   3.101   1.251
 6084SOL    HW130131   2.243   3.052   1.310
 6084SOL    HW230132   2.382   3.050   1.249
 6085SOL     OW30133   4.748   4.124   0.483
 6085SOL    HW130134   0.002   4.209   0.496
 6085SOL    HW230135   0.032   4.065   0.460
 6086SOL     OW30136   3.438   4.751   1.955
 6086SOL    HW130137   3.435   4.721   1.864
 6086SOL    HW230138   3.432   4.671   2.007
 6087SOL     OW30139   1.286   0.140  19.605
 6087SOL    HW130140   1.250   0.189  19.532
 6087SOL    HW230141   1.380   0.162  19.606
 6088SOL     OW30142   4.035   2.594  18.048
 6088SOL    HW130143   3.943   2.617  18.048
 6088SOL    HW230144   4.080   2.673  18.018
 6089SOL     OW30145   3.819   1.994   6.767
 6089SOL    HW130146   3.861   1.915   6.735
 6089SOL    HW230147   3.734   1.965   6.800
 6090SOL     OW30148   3.909   1.471  17.754
 6090SOL    HW130149   3.918   1.401  17.689
 6090SOL    HW230150   3.978   1.454  17.817
 6091SOL     OW30151   2.890   0.723   2.623
 6091SOL    HW130152   2.823   0.783   2.654
 6091SOL    HW230153   2.845   0.640   2.611
 6092SOL     OW30154   4.030   0.145  15.395
 6092SOL    HW130155   4.079   0.075  15.439
 6092SOL    HW230156   3.988   0.103  15.321
 6093SOL     OW30157   4.482   1.017   0.991
 6093SOL    HW130158   4.393   1.047   1.013
 6093SOL    HW230159   4.538   1.091   1.012
 6094SOL     OW30160   3.154   1.521   3.233
 6094SOL    HW130161   3.112   1.605   3.212
 6094SOL    HW230162   3.238   1.546   3.273
 6095SOL     OW30163   4.640   2.366  12.367
 6095SOL    HW130164   4.689   2.301  12.416
 6095SOL    HW230165   4.553   2.328  12.356
 6096SOL     OW30166   2.368   1.976   1.237
 6096SOL    HW130167   2.319   1.905   1.279
 6096SOL    HW230168   2.454   1.938   1.219
 6097SOL     OW30169   0.507   2.108  13.779
 6097SOL    HW130170   0.578   2.144  13.833
 6097SOL    HW230171   0.547   2.093  13.694
 6098SOL     OW30172   0.913   4.626  12.300
 6098SOL    HW130173   0.922   4.562  12.230
 6098SOL    HW230174   0.946   4.581  12.378
 6099SOL     OW30175   2.515   0.986  19.768
 6099SOL    HW130176   2.463   1.056  19.808
 6099SOL    HW230177   2.454   0.913  19.758
 6100SOL     OW30178   1.470   0.120  16.093
 6100SOL    HW130179   1.426   0.146  16.174
 6100SOL    HW230180   1.465   0.197  16.037
 6101SOL     OW30181   4.071   3.854  16.223
 6101SOL    HW130182   4.011   3.784  16.250
 6101SOL    HW230183   4.020   3.934  16.234
 6102SOL     OW30184   2.959   0.766   4.901
 6102SOL    HW130185   2.943   0.854   4.935
 6102SOL    HW230186   2.878   0.743   4.855
 6103SOL     OW30187   0.284   0.303   1.761
 6103SOL    HW130188   0.262   0.320   1.669
 6103SOL    HW230189   0.365   0.252   1.756
 6104SOL     OW30190   2.695   1.890   7.617
 6104SOL    HW130191   2.778   1.925   7.584
 6104SOL    HW230192   2.720   1.813   7.668
 6105SOL     OW30193   0.467   2.688  18.007
 6105SOL    HW130194   0.538   2.631  17.979
 6105SOL    HW230195   0.439   2.652  18.091
 6106SOL     OW30196   4.765   2.290  12.132
 6106SOL    HW130197   4.717   2.332  12.203
 6106SOL    HW230198   0.060   2.263  12.172
 6107SOL     OW30199   2.812   4.394  13.629
 6107SOL    HW130200   2.889   4.384  13.685
 6107SOL    HW230201   2.738   4.372  13.686
 6108SOL     OW30202   1.004   2.091  12.353
 6108SOL    HW130203   1.011   1.996  12.344
 6108SOL    HW230204   1.030   2.109  12.443
 6109SOL     OW30205   3.995   3.091   2.766
 6109SOL    HW130206   4.088   3.082   2.743
 6109SOL    HW230207   3.969   3.176   2.729
 6110SOL     OW30208   1.320   2.516  13.262
 6110SOL    HW130209   1.276   2.440  13.223
 6110SOL    HW230210   1.374   2.478  13.332
 6111SOL     OW30211   1.940   0.327  15.368
 6111SOL    HW130212   1.943   0.295  15.278
 6111SOL    HW230213   1.975   0.416  15.363
 6112SOL     OW30214   0.373   1.941  14.379
 6112SOL    HW130215   0.321   1.864  14.403
 6112SOL    HW230216   0.434   1.909  14.312
 6113SOL     OW30217   0.989   0.580  19.209
 6113SOL    HW130218   0.926   0.508  19.205
 6113SOL    HW230219   1.043   0.560  19.286
 6114SOL     OW30220   1.124   1.266  13.769
 6114SOL    HW130221   1.172   1.194  13.729
 6114SOL    HW230222   1.032   1.243  13.756
 6115SOL     OW30223   3.106   0.938  14.553
 6115SOL    HW130224   3.057   1.012  14.588
 6115SOL    HW230225   3.191   0.976  14.528
 6116SOL     OW30226   1.926   4.610   4.191
 6116SOL    HW130227   1.990   4.652   4.134
 6116SOL    HW230228   1.891   4.538   4.139
 6117SOL     OW30229   0.556   2.970  17.899
 6117SOL    HW130230   0.635   2.975  17.845
 6117SOL    HW230231   0.548   2.877  17.923
 6118SOL     OW30232   0.797   3.887   1.880
 6118SOL    HW130233   0.872   3.841   1.842
 6118SOL    HW230234   0.816   3.980   1.865
 6119SOL     OW30235   0.101   2.045  12.704
 6119SOL    HW130236   0.044   2.094  12.645
 6119SOL    HW230237   0.076   2.074  12.792
 6120SOL     OW30238   0.446   3.228  17.907
 6120SOL    HW130239   0.352   3.231  17.924
 6120SOL    HW230240   0.467   3.134  17.905
 6121SOL     OW30241   3.999   3.178   8.610
 6121SOL    HW130242   4.002   3.272   8.629
 6121SOL    HW230243   3.946   3.172   8.531
 6122SOL     OW30244   1.945   1.442   2.230
 6122SOL    HW130245   1.943   1.494   2.149
 6122SOL    HW230246   2.032   1.401   2.230
 6123SOL     OW30247   0.476   0.249  14.090
 6123SOL    HW130248   0.549   0.201  14.051
 6123SOL    HW230249   0.400   0.225  14.037
 6124SOL     OW30250   3.695   3.725  17.015
 6124SOL    HW130251   3.629   3.681  16.961
 6124SOL    HW230252   3.719   3.804  16.966
 6125SOL     OW30253   4.784   1.853   1.855
 6125SOL    HW130254   0.002   1.824   1.764
 6125SOL    HW230255   0.087   1.877   1.877
 6126SOL     OW30256   4.026   2.512  21.016
 6126SOL    HW130257   3.970   2.465  20.954
 6126SOL    HW230258   4.094   2.449  21.040
 6127SOL     OW30259   1.637   0.884   5.569
 6127SOL    HW130260   1.664   0.853   5.482
 6127SOL    HW230261   1.634   0.980   5.560
 6128SOL     OW30262   1.159   3.670  18.351
 6128SOL    HW130263   1.069   3.703  18.361
 6128SOL    HW230264   1.150   3.575  18.354
 6129SOL     OW30265   0.428   1.092   6.063
 6129SOL    HW130266   0.463   1.025   6.005
 6129SOL    HW230267   0.420   1.049   6.148
 6130SOL     OW30268   3.120   0.917   5.265
 6130SOL    HW130269   3.163   1.002   5.269
 6130SOL    HW230270   3.031   0.934   5.294
 6131SOL     OW30271   0.139   1.380   6.735
 6131SOL    HW130272   0.158   1.424   6.817
 6131SOL    HW230273   0.052   1.411   6.710
 6132SOL     OW30274   3.516   0.836  11.454
 6132SOL    HW130275   3.598   0.873  11.485
 6132SOL    HW230276   3.542   0.758  11.404
 6133SOL     OW30277   3.624   2.360  18.391
 6133SOL    HW130278   3.710   2.398  18.373
 6133SOL    HW230279   3.642   2.291  18.455
 6134SOL     OW30280   0.690   3.447  18.215
 6134SOL    HW130281   0.780   3.477  18.216
 6134SOL    HW230282   0.643   3.511  18.269
 6135SOL     OW30283   0.154   0.958   4.339
 6135SOL    HW130284   0.098   1.033   4.358
 6135SOL    HW230285   0.172   0.964   4.246
 6136SOL     OW30286   1.539   0.306  18.058
 6136SOL    HW130287   1.525   0.346  18.144
 6136SOL    HW230288   1.628   0.333  18.033
 6137SOL     OW30289   1.296   0.521  18.058
 6137SOL    HW130290   1.338   0.500  18.141
 6137SOL    HW230291   1.240   0.445  18.040
 6138SOL     OW30292   1.665   2.423  14.182
 6138SOL    HW130293   1.644   2.338  14.220
 6138SOL    HW230294   1.630   2.420  14.093
 6139SOL     OW30295   0.188   4.334  19.193
 6139SOL    HW130296   0.166   4.335  19.100
 6139SOL    HW230297   0.154   4.251  19.225
 6140SOL     OW30298   2.283   3.115   7.016
 6140SOL    HW130299   2.357   3.060   7.041
 6140SOL    HW230300   2.227   3.117   7.094
 6141SOL     OW30301   3.760   0.882  16.938
 6141SOL    HW130302   3.687   0.940  16.957
 6141SOL    HW230303   3.817   0.933  16.880
 6142SOL     OW30304   0.398   4.716   2.159
 6142SOL    HW130305   0.371   4.643   2.216
 6142SOL    HW230306   0.333   4.716   2.088
 6143SOL     OW30307   3.816   3.892  21.164
 6143SOL    HW130308   3.871   3.878  21.242
 6143SOL    HW230309   3.754   3.959  21.191
 6144SOL     OW30310   4.630   2.337  18.137
 6144SOL    HW130311   4.723   2.347  18.118
 6144SOL    HW230312   4.624   2.258  18.190
 6145SOL     OW30313   1.410   1.121  19.956
 6145SOL    HW130314   1.498   1.109  19.919
 6145SOL    HW230315   1.418   1.094  20.047
 6146SOL     OW30316   3.288   4.645   4.877
 6146SOL    HW130317   3.296   4.550   4.886
 6146SOL    HW230318   3.376   4.679   4.897
 6147SOL     OW30319   1.435   1.807  17.080
 6147SOL    HW130320   1.351   1.828  17.040
 6147SOL    HW230321   1.497   1.870  17.042
 6148SOL     OW30322   1.500   1.748   7.334
 6148SOL    HW130323   1.512   1.682   7.266
 6148SOL    HW230324   1.480   1.829   7.286
 6149SOL     OW30325   4.094   3.639  17.961
 6149SOL    HW130326   4.151   3.703  18.004
 6149SOL    HW230327   4.067   3.681  17.880
 6150SOL     OW30328   2.702   0.439   0.108
 6150SOL    HW130329   2.617   0.429   0.065
 6150SOL    HW230330   2.745   0.354   0.094
 6151SOL     OW30331   1.548   4.779  16.664
 6151SOL    HW130332   1.617   0.057  16.666
 6151SOL    HW230333   1.477   0.032  16.614
 6152SOL     OW30334   0.519   3.289   1.252
 6152SOL    HW130335   0.431   3.312   1.224
 6152SOL    HW230336   0.576   3.326   1.184
 6153SOL     OW30337   0.872   2.018  18.567
 6153SOL    HW130338   0.793   2.051  18.609
 6153SOL    HW230339   0.908   1.956  18.630
 6154SOL     OW30340   2.995   2.555   0.612
 6154SOL    HW130341   3.073   2.547   0.557
 6154SOL    HW230342   2.940   2.618   0.565
 6155SOL     OW30343   4.591   3.126   4.401
 6155SOL    HW130344   4.600   3.117   4.306
 6155SOL    HW230345   4.567   3.217   4.415
 6156SOL     OW30346   2.395   0.229   1.067
 6156SOL    HW130347   2.487   0.249   1.050
 6156SOL    HW230348   2.384   0.246   1.160
 6157SOL     OW30349   4.215   3.942  19.254
 6157SOL    HW130350   4.151   3.991  19.305
 6157SOL    HW230351   4.224   3.990  19.172
 6158SOL     OW30352   2.920   3.876  14.770
 6158SOL    HW130353   2.840   3.926  14.785
 6158SOL    HW230354   2.990   3.933  14.802
 6159SOL     OW30355   3.213   4.297  20.402
 6159SOL    HW130356   3.251   4.244  20.332
 6159SOL    HW230357   3.165   4.234  20.456
 6160SOL     OW30358   1.759   2.445   1.648
 6160SOL    HW130359   1.760   2.370   1.588
 6160SOL    HW230360   1.767   2.521   1.591
 6161SOL     OW30361   0.717   2.215   2.285
 6161SOL    HW130362   0.801   2.178   2.258
 6161SOL    HW230363   0.733   2.309   2.291
 6162SOL     OW30364   1.905   1.624   4.614
 6162SOL    HW130365   1.854   1.698   4.647
 6162SOL    HW230366   1.992   1.637   4.650
 6163SOL     OW30367   1.397   2.273  17.846
 6163SOL    HW130368   1.473   2.220  17.868
 6163SOL    HW230369   1.325   2.210  17.836
 6164SOL     OW30370   3.070   0.038   2.069
 6164SOL    HW130371   3.110   0.044   1.983
 6164SOL    HW230372   3.036   0.126   2.087
 6165SOL     OW30373   2.404   0.505   2.787
 6165SOL    HW130374   2.431   0.527   2.876
 6165SOL    HW230375   2.420   0.585   2.736
 6166SOL     OW30376   2.919   4.478  18.301
 6166SOL    HW130377   2.943   4.569  18.321
 6166SOL    HW230378   2.826   4.482  18.277
 6167SOL     OW30379   2.038   3.302   3.614
 6167SOL    HW130380   2.084   3.349   3.545
 6167SOL    HW230381   1.980   3.368   3.654
 6168SOL     OW30382   4.302   3.112   2.071
 6168SOL    HW130383   4.231   3.086   2.012
 6168SOL    HW230384   4.343   3.186   2.026
 6169SOL     OW30385   4.211   3.517   4.425
 6169SOL    HW130386   4.157   3.546   4.352
 6169SOL    HW230387   4.271   3.453   4.387
 6170SOL     OW30388   4.480   1.099   1.420
 6170SOL    HW130389   4.444   1.141   1.498
 6170SOL    HW230390   4.475   1.005   1.439
 6171SOL     OW30391   4.709   4.187  16.789
 6171SOL    HW130392   4.779   4.211  16.729
 6171SOL    HW230393   4.656   4.124  16.740
 6172SOL     OW30394   3.103   2.017   8.195
 6172SOL    HW130395   3.174   2.015   8.131
 6172SOL    HW230396   3.135   2.073   8.265
 6173SOL     OW30397   3.236   0.223   2.846
 6173SOL    HW130398   3.281   0.215   2.762
 6173SOL    HW230399   3.304   0.206   2.911
 6174SOL     OW30400   4.180   0.479  21.057
 6174SOL    HW130401   4.271   0.497  21.034
 6174SOL    HW230402   4.183   0.462  21.152
 6175SOL     OW30403   0.478   0.812   0.883
 6175SOL    HW130404   0.569   0.808   0.855
 6175SOL    HW230405   0.482   0.807   0.978
 6176SOL     OW30406   2.685   3.079  15.215
 6176SOL    HW130407   2.722   3.059  15.301
 6176SOL    HW230408   2.680   3.174  15.212
 6177SOL     OW30409   0.163   3.349  17.434
 6177SOL    HW130410   0.082   3.312  17.470
 6177SOL    HW230411   0.224   3.350  17.507
 6178SOL     OW30412   0.252   1.912   5.409
 6178SOL    HW130413   0.282   1.995   5.372
 6178SOL    HW230414   0.302   1.846   5.361
 6179SOL     OW30415   1.839   1.974   6.495
 6179SOL    HW130416   1.855   1.887   6.459
 6179SOL    HW230417   1.788   1.958   6.574
 6180SOL     OW30418   2.530   3.252   2.812
 6180SOL    HW130419   2.444   3.289   2.830
 6180SOL    HW230420   2.512   3.162   2.784
 6181SOL     OW30421   4.429   2.284   7.495
 6181SOL    HW130422   4.475   2.342   7.435
 6181SOL    HW230423   4.372   2.342   7.545
 6182SOL     OW30424   4.267   0.446   1.973
 6182SOL    HW130425   4.184   0.439   2.020
 6182SOL    HW230426   4.309   0.361   1.987
 6183SOL     OW30427   0.781   2.231  20.488
 6183SOL    HW130428   0.774   2.308  20.432
 6183SOL    HW230429   0.794   2.158  20.427
 6184SOL     OW30430   1.307   2.971   0.014
 6184SOL    HW130431   1.266   3.036  21.205
 6184SOL    HW230432   1.300   2.888  21.213
 6185SOL     OW30433   1.237   1.914  15.775
 6185SOL    HW130434   1.160   1.895  15.722
 6185SOL    HW230435   1.294   1.838  15.764
 6186SOL     OW30436   4.325   2.552   4.511
 6186SOL    HW130437   4.406   2.556   4.562
 6186SOL    HW230438   4.338   2.477   4.453
 6187SOL     OW30439   1.547   4.730   3.016
 6187SOL    HW130440   1.582   4.732   2.927
 6187SOL    HW230441   1.538   4.637   3.036
 6188SOL     OW30442   3.252   1.849   1.688
 6188SOL    HW130443   3.222   1.932   1.652
 6188SOL    HW230444   3.244   1.787   1.617
 6189SOL     OW30445   4.719   4.159   3.624
 6189SOL    HW130446   4.626   4.165   3.646
 6189SOL    HW230447   4.749   4.081   3.671
 6190SOL     OW30448   4.456   2.609  18.663
 6190SOL    HW130449   4.489   2.696  18.687
 6190SOL    HW230450   4.501   2.588  18.582
 6191SOL     OW30451   4.273   1.757   3.929
 6191SOL    HW130452   4.227   1.781   4.009
 6191SOL    HW230453   4.215   1.786   3.858
 6192SOL     OW30454   1.288   0.860  15.497
 6192SOL    HW130455   1.199   0.894  15.502
 6192SOL    HW230456   1.293   0.794  15.566
 6193SOL     OW30457   4.368   3.403   3.695
 6193SOL    HW130458   4.412   3.321   3.672
 6193SOL    HW230459   4.309   3.420   3.622
 6194SOL     OW30460   4.538   1.362   2.062
 6194SOL    HW130461   4.475   1.302   2.102
 6194SOL    HW230462   4.605   1.305   2.025
 6195SOL     OW30463   1.351   1.864   3.040
 6195SOL    HW130464   1.398   1.789   3.004
 6195SOL    HW230465   1.341   1.923   2.965
 6196SOL     OW30466   2.689   4.098  16.094
 6196SOL    HW130467   2.703   4.037  16.166
 6196SOL    HW230468   2.777   4.118  16.062
 6197SOL     OW30469   2.736   4.574  20.293
 6197SOL    HW130470   2.792   4.650  20.280
 6197SOL    HW230471   2.796   4.504  20.318
 6198SOL     OW30472   0.589   3.240  19.742
 6198SOL    HW130473   0.536   3.164  19.722
 6198SOL    HW230474   0.626   3.268  19.658
 6199SOL     OW30475   0.367   0.255  15.951
 6199SOL    HW130476   0.278   0.226  15.935
 6199SOL    HW230477   0.398   0.199  16.023
 6200SOL     OW30478   1.391   0.035  20.840
 6200SOL    HW130479   1.317   4.768  20.869
 6200SOL    HW230480   1.447   4.762  20.792
 6201SOL     OW30481   1.908   2.007  17.904
 6201SOL    HW130482   1.910   2.093  17.861
 6201SOL    HW230483   1.834   1.963  17.864
 6202SOL     OW30484   4.382   3.942   5.959
 6202SOL    HW130485   4.336   3.948   5.875
 6202SOL    HW230486   4.463   3.990   5.945
 6203SOL     OW30487   3.169   0.772   0.594
 6203SOL    HW130488   3.100   0.765   0.661
 6203SOL    HW230489   3.249   0.787   0.644
 6204SOL     OW30490   3.204   1.926  11.440
 6204SOL    HW130491   3.264   2.000  11.431
 6204SOL    HW230492   3.247   1.854  11.394
 6205SOL     OW30493   2.843   3.120  16.045
 6205SOL    HW130494   2.825   3.151  15.957
 6205SOL    HW230495   2.926   3.160  16.069
 6206SOL     OW30496   0.803   0.368  18.125
 6206SOL    HW130497   0.834   0.290  18.079
 6206SOL    HW230498   0.751   0.334  18.198
 6207SOL     OW30499   0.723   4.326  15.125
 6207SOL    HW130500   0.692   4.315  15.035
 6207SOL    HW230501   0.810   4.366  15.116
 6208SOL     OW30502   2.012   1.942  14.083
 6208SOL    HW130503   1.965   2.022  14.105
 6208SOL    HW230504   1.943   1.877  14.066
 6209SOL     OW30505   0.861   3.233   4.326
 6209SOL    HW130506   0.883   3.222   4.233
 6209SOL    HW230507   0.768   3.211   4.331
 6210SOL     OW30508   1.156   3.512   7.124
 6210SOL    HW130509   1.097   3.575   7.084
 6210SOL    HW230510   1.222   3.565   7.169
 6211SOL     OW30511   3.808   4.214   5.973
 6211SOL    HW130512   3.786   4.258   5.891
 6211SOL    HW230513   3.873   4.148   5.948
 6212SOL     OW30514   2.981   3.772   3.035
 6212SOL    HW130515   2.949   3.729   2.956
 6212SOL    HW230516   2.903   3.796   3.084
 6213SOL     OW30517   3.689   3.134   6.327
 6213SOL    HW130518   3.613   3.184   6.297
 6213SOL    HW230519   3.683   3.136   6.422
 6214SOL     OW30520   3.327   0.595  17.459
 6214SOL    HW130521   3.373   0.600  17.543
 6214SOL    HW230522   3.307   0.502  17.448
 6215SOL     OW30523   2.832   0.449   2.551
 6215SOL    HW130524   2.760   0.444   2.487
 6215SOL    HW230525   2.910   0.426   2.501
 6216SOL     OW30526   3.244   2.129   4.526
 6216SOL    HW130527   3.152   2.107   4.538
 6216SOL    HW230528   3.270   2.170   4.609
 6217SOL     OW30529   4.589   4.487   3.133
 6217SOL    HW130530   4.613   4.489   3.226
 6217SOL    HW230531   4.504   4.531   3.130
 6218SOL     OW30532   0.114   1.444  18.281
 6218SOL    HW130533   0.119   1.350  18.264
 6218SOL    HW230534   0.057   1.451  18.358
 6219SOL     OW30535   0.627   3.822   0.496
 6219SOL    HW130536   0.553   3.879   0.516
 6219SOL    HW230537   0.704   3.878   0.510
 6220SOL     OW30538   2.059   3.383   0.581
 6220SOL    HW130539   2.029   3.473   0.582
 6220SOL    HW230540   2.099   3.370   0.667
 6221SOL     OW30541   2.679   2.565   1.173
 6221SOL    HW130542   2.698   2.658   1.182
 6221SOL    HW230543   2.676   2.550   1.078
 6222SOL     OW30544   0.268   0.166  13.943
 6222SOL    HW130545   0.280   0.197  13.854
 6222SOL    HW230546   0.226   0.080  13.933
 6223SOL     OW30547   3.381   1.821  17.463
 6223SOL    HW130548   3.334   1.738  17.468
 6223SOL    HW230549   3.470   1.801  17.490
 6224SOL     OW30550   0.701   0.782   9.641
 6224SOL    HW130551   0.649   0.730   9.702
 6224SOL    HW230552   0.647   0.860   9.624
 6225SOL     OW30553   0.514   1.793   4.017
 6225SOL    HW130554   0.566   1.742   3.954
 6225SOL    HW230555   0.450   1.838   3.963
 6226SOL     OW30556   2.006   1.824  16.523
 6226SOL    HW130557   1.941   1.784  16.581
 6226SOL    HW230558   2.011   1.764  16.449
 6227SOL     OW30559   2.339   1.939  19.286
 6227SOL    HW130560   2.268   1.997  19.260
 6227SOL    HW230561   2.377   1.980  19.363
 6228SOL     OW30562   0.928   1.807   4.807
 6228SOL    HW130563   0.937   1.765   4.893
 6228SOL    HW230564   0.998   1.872   4.805
 6229SOL     OW30565   3.501   3.679  18.562
 6229SOL    HW130566   3.593   3.654  18.570
 6229SOL    HW230567   3.472   3.642  18.479
 6230SOL     OW30568   3.356   3.246  16.624
 6230SOL    HW130569   3.354   3.160  16.581
 6230SOL    HW230570   3.351   3.226  16.717
 6231SOL     OW30571   3.975   2.457   0.461
 6231SOL    HW130572   4.062   2.444   0.425
 6231SOL    HW230573   3.961   2.381   0.518
 6232SOL     OW30574   4.199   2.482   2.291
 6232SOL    HW130575   4.258   2.557   2.283
 6232SOL    HW230576   4.258   2.407   2.297
 6233SOL     OW30577   3.758   2.630  18.053
 6233SOL    HW130578   3.732   2.675  18.133
 6233SOL    HW230579   3.677   2.624  18.002
 6234SOL     OW30580   0.675   0.271  16.597
 6234SOL    HW130581   0.615   0.286  16.671
 6234SOL    HW230582   0.648   0.186  16.561
 6235SOL     OW30583   2.508   4.432  19.708
 6235SOL    HW130584   2.500   4.342  19.740
 6235SOL    HW230585   2.529   4.423  19.615
 6236SOL     OW30586   0.270   1.467   5.050
 6236SOL    HW130587   0.325   1.393   5.027
 6236SOL    HW230588   0.315   1.543   5.012
 6237SOL     OW30589   1.619   1.309   0.875
 6237SOL    HW130590   1.694   1.257   0.903
 6237SOL    HW230591   1.611   1.292   0.781
 6238SOL     OW30592   1.930   1.647   2.619
 6238SOL    HW130593   2.017   1.642   2.581
 6238SOL    HW230594   1.872   1.613   2.550
 6239SOL     OW30595   1.763   4.202  21.097
 6239SOL    HW130596   1.739   4.121  21.143
 6239SOL    HW230597   1.772   4.176  21.005
 6240SOL     OW30598   0.060   1.575   6.188
 6240SOL    HW130599   0.095   1.548   6.104
 6240SOL    HW230600   0.033   1.493   6.230
 6241SOL     OW30601   2.211   3.269  18.304
 6241SOL    HW130602   2.195   3.175  18.296
 6241SOL    HW230603   2.156   3.308  18.237
 6242SOL     OW30604   4.156   2.335   2.044
 6242SOL    HW130605   4.170   2.331   2.139
 6242SOL    HW230606   4.065   2.310   2.032
 6243SOL     OW30607   3.963   0.407   2.561
 6243SOL    HW130608   4.049   0.427   2.597
 6243SOL    HW230609   3.921   0.492   2.548
 6244SOL     OW30610   3.183   3.783  19.884
 6244SOL    HW130611   3.200   3.714  19.820
 6244SOL    HW230612   3.153   3.857  19.832
 6245SOL     OW30613   2.816   2.453  18.072
 6245SOL    HW130614   2.795   2.366  18.037
 6245SOL    HW230615   2.743   2.508  18.043
 6246SOL     OW30616   2.597   3.478  20.123
 6246SOL    HW130617   2.601   3.399  20.178
 6246SOL    HW230618   2.510   3.474  20.082
 6247SOL     OW30619   3.866   2.721  14.692
 6247SOL    HW130620   3.837   2.720  14.783
 6247SOL    HW230621   3.828   2.802  14.656
 6248SOL     OW30622   1.622   4.552   4.068
 6248SOL    HW130623   1.530   4.525   4.070
 6248SOL    HW230624   1.620   4.644   4.045
 6249SOL     OW30625   4.066   0.139   3.542
 6249SOL    HW130626   4.147   0.097   3.572
 6249SOL    HW230627   4.096   0.214   3.490
 6250SOL     OW30628   3.069   1.017   4.134
 6250SOL    HW130629   3.018   0.955   4.186
 6250SOL    HW230630   3.151   0.970   4.115
 6251SOL     OW30631   2.070   2.727  19.731
 6251SOL    HW130632   2.016   2.665  19.780
 6251SOL    HW230633   2.121   2.772  19.798
 6252SOL     OW30634   3.543   0.444  18.317
 6252SOL    HW130635   3.573   0.513  18.257
 6252SOL    HW230636   3.614   0.433  18.379
 6253SOL     OW30637   1.926   2.568   4.569
 6253SOL    HW130638   2.008   2.616   4.560
 6253SOL    HW230639   1.891   2.562   4.480
 6254SOL     OW30640   3.139   2.582   5.280
 6254SOL    HW130641   3.150   2.496   5.319
 6254SOL    HW230642   3.063   2.572   5.222
 6255SOL     OW30643   1.576   0.697   2.759
 6255SOL    HW130644   1.504   0.660   2.707
 6255SOL    HW230645   1.534   0.764   2.813
 6256SOL     OW30646   3.227   4.458   3.281
 6256SOL    HW130647   3.260   4.519   3.347
 6256SOL    HW230648   3.136   4.441   3.308
 6257SOL     OW30649   1.644   0.391   9.040
 6257SOL    HW130650   1.629   0.303   9.076
 6257SOL    HW230651   1.641   0.379   8.946
 6258SOL     OW30652   1.692   4.079   7.130
 6258SOL    HW130653   1.768   4.044   7.083
 6258SOL    HW230654   1.717   4.073   7.222
 6259SOL     OW30655   0.578   0.882   4.262
 6259SOL    HW130656   0.577   0.796   4.219
 6259SOL    HW230657   0.555   0.944   4.192
 6260SOL     OW30658   3.266   1.080   0.630
 6260SOL    HW130659   3.343   1.071   0.684
 6260SOL    HW230660   3.290   1.146   0.565
 6261SOL     OW30661   3.340   1.506   6.942
 6261SOL    HW130662   3.432   1.479   6.943
 6261SOL    HW230663   3.340   1.595   6.908
 6262SOL     OW30664   4.487   0.807   2.992
 6262SOL    HW130665   4.498   0.884   3.049
 6262SOL    HW230666   4.410   0.763   3.028
 6263SOL     OW30667   0.150   2.365  16.422
 6263SOL    HW130668   0.171   2.411  16.340
 6263SOL    HW230669   0.204   2.286  16.420
 6264SOL     OW30670   2.654   1.610   1.970
 6264SOL    HW130671   2.616   1.565   2.046
 6264SOL    HW230672   2.748   1.599   1.980
 6265SOL     OW30673   3.914   3.022  15.423
 6265SOL    HW130674   3.884   2.944  15.376
 6265SOL    HW230675   3.888   3.007  15.514
 6266SOL     OW30676   1.859   2.578   5.331
 6266SOL    HW130677   1.831   2.488   5.313
 6266SOL    HW230678   1.943   2.569   5.376
 6267SOL     OW30679   0.466   0.548  10.213
 6267SOL    HW130680   0.554   0.517  10.235
 6267SOL    HW230681   0.470   0.642  10.228
 6268SOL     OW30682   0.671   3.848   2.561
 6268SOL    HW130683   0.579   3.860   2.584
 6268SOL    HW230684   0.672   3.843   2.465
 6269SOL     OW30685   3.359   3.632   3.200
 6269SOL    HW130686   3.268   3.601   3.203
 6269SOL    HW230687   3.353   3.720   3.164
 6270SOL     OW30688   3.146   2.530   0.136
 6270SOL    HW130689   3.185   2.610   0.170
 6270SOL    HW230690   3.212   2.493   0.077
 6271SOL     OW30691   4.693   1.862   4.401
 6271SOL    HW130692   4.640   1.791   4.439
 6271SOL    HW230693   4.782   1.845   4.432
 6272SOL     OW30694   1.918   3.490   8.638
 6272SOL    HW130695   1.975   3.508   8.714
 6272SOL    HW230696   1.854   3.427   8.671
 6273SOL     OW30697   1.615   3.248  12.868
 6273SOL    HW130698   1.687   3.211  12.918
 6273SOL    HW230699   1.593   3.180  12.804
 6274SOL     OW30700   4.744   2.316   1.979
 6274SOL    HW130701   0.034   2.265   1.955
 6274SOL    HW230702   4.700   2.334   1.896
 6275SOL     OW30703   0.183   0.645  15.036
 6275SOL    HW130704   0.165   0.627  14.944
 6275SOL    HW230705   0.165   0.562  15.080
 6276SOL     OW30706   4.396   2.644   0.713
 6276SOL    HW130707   4.302   2.659   0.720
 6276SOL    HW230708   4.417   2.663   0.621
 6277SOL     OW30709   2.017   0.386   5.210
 6277SOL    HW130710   2.095   0.377   5.156
 6277SOL    HW230711   1.980   0.470   5.186
 6278SOL     OW30712   3.182   1.922  19.977
 6278SOL    HW130713   3.090   1.907  19.956
 6278SOL    HW230714   3.229   1.851  19.933
 6279SOL     OW30715   0.217   3.662   4.460
 6279SOL    HW130716   0.307   3.668   4.491
 6279SOL    HW230717   0.211   3.577   4.417
 6280SOL     OW30718   0.235   1.997   6.195
 6280SOL    HW130719   0.183   2.055   6.140
 6280SOL    HW230720   0.174   1.929   6.224
 6281SOL     OW30721   0.896   1.092  18.764
 6281SOL    HW130722   0.904   1.154  18.837
 6281SOL    HW230723   0.913   1.144  18.686
 6282SOL     OW30724   0.263   1.292  19.602
 6282SOL    HW130725   0.339   1.235  19.589
 6282SOL    HW230726   0.299   1.375  19.631
 6283SOL     OW30727   2.041   4.216  14.664
 6283SOL    HW130728   2.009   4.268  14.590
 6283SOL    HW230729   2.066   4.281  14.730
 6284SOL     OW30730   1.220   2.571   1.424
 6284SOL    HW130731   1.236   2.664   1.441
 6284SOL    HW230732   1.202   2.566   1.331
 6285SOL     OW30733   1.559   2.407  20.550
 6285SOL    HW130734   1.481   2.446  20.590
 6285SOL    HW230735   1.631   2.432  20.608
 6286SOL     OW30736   0.818   0.181   5.711
 6286SOL    HW130737   0.856   0.213   5.629
 6286SOL    HW230738   0.725   0.199   5.702
 6287SOL     OW30739   2.657   3.752   4.819
 6287SOL    HW130740   2.667   3.844   4.844
 6287SOL    HW230741   2.598   3.753   4.744
 6288SOL     OW30742   2.013   3.340   0.285
 6288SOL    HW130743   2.002   3.351   0.380
 6288SOL    HW230744   1.925   3.327   0.252
 6289SOL     OW30745   2.357   1.301  18.055
 6289SOL    HW130746   2.274   1.265  18.085
 6289SOL    HW230747   2.369   1.382  18.105
 6290SOL     OW30748   2.146   1.758   8.812
 6290SOL    HW130749   2.238   1.747   8.834
 6290SOL    HW230750   2.146   1.803   8.727
 6291SOL     OW30751   3.585   1.074  20.015
 6291SOL    HW130752   3.611   1.055  20.105
 6291SOL    HW230753   3.664   1.060  19.964
 6292SOL     OW30754   1.721   3.098   2.772
 6292SOL    HW130755   1.723   3.179   2.720
 6292SOL    HW230756   1.639   3.103   2.822
 6293SOL     OW30757   0.360   0.563  19.102
 6293SOL    HW130758   0.306   0.583  19.178
 6293SOL    HW230759   0.418   0.492  19.132
 6294SOL     OW30760   2.384   3.407   4.713
 6294SOL    HW130761   2.407   3.352   4.638
 6294SOL    HW230762   2.296   3.440   4.692
 6295SOL     OW30763   1.641   1.929  14.170
 6295SOL    HW130764   1.607   2.012  14.202
 6295SOL    HW230765   1.565   1.871  14.165
 6296SOL     OW30766   3.309   1.905  13.181
 6296SOL    HW130767   3.346   1.938  13.099
 6296SOL    HW230768   3.222   1.873  13.158
 6297SOL     OW30769   4.297   4.584   1.859
 6297SOL    HW130770   4.333   4.560   1.774
 6297SOL    HW230771   4.207   4.610   1.840
 6298SOL     OW30772   0.882   3.650  15.161
 6298SOL    HW130773   0.885   3.745  15.149
 6298SOL    HW230774   0.863   3.616  15.074
 6299SOL     OW30775   4.401   1.784  19.590
 6299SOL    HW130776   4.307   1.797  19.582
 6299SOL    HW230777   4.436   1.811  19.505
 6300SOL     OW30778   2.185   1.036   1.954
 6300SOL    HW130779   2.097   1.072   1.944
 6300SOL    HW230780   2.219   1.030   1.865
 6301SOL     OW30781   3.189   3.940  15.729
 6301SOL    HW130782   3.145   3.898  15.803
 6301SOL    HW230783   3.282   3.920  15.742
 6302SOL     OW30784   2.182   1.434  12.509
 6302SOL    HW130785   2.128   1.365  12.471
 6302SOL    HW230786   2.261   1.437  12.454
 6303SOL     OW30787   4.163   3.419   0.081
 6303SOL    HW130788   4.133   3.484   0.145
 6303SOL    HW230789   4.175   3.470   0.000
 6304SOL     OW30790   2.672   1.057  19.504
 6304SOL    HW130791   2.655   1.013  19.587
 6304SOL    HW230792   2.671   1.151  19.525
 6305SOL     OW30793   1.976   4.530   1.765
 6305SOL    HW130794   1.930   4.549   1.847
 6305SOL    HW230795   2.068   4.521   1.792
 6306SOL     OW30796   3.823   0.789  19.116
 6306SOL    HW130797   3.855   0.702  19.140
 6306SOL    HW230798   3.900   0.833  19.078
 6307SOL     OW30799   4.389   1.574  17.081
 6307SOL    HW130800   4.483   1.572  17.100
 6307SOL    HW230801   4.348   1.548  17.164
 6308SOL     OW30802   3.107   3.612  16.624
 6308SOL    HW130803   3.127   3.533  16.573
 6308SOL    HW230804   3.069   3.673  16.560
 6309SOL     OW30805   2.214   1.600   4.287
 6309SOL    HW130806   2.159   1.523   4.274
 6309SOL    HW230807   2.211   1.647   4.204
 6310SOL     OW30808   1.603   4.385  11.841
 6310SOL    HW130809   1.574   4.476  11.834
 6310SOL    HW230810   1.620   4.372  11.934
 6311SOL     OW30811   4.149   2.236   1.602
 6311SOL    HW130812   4.140   2.323   1.641
 6311SOL    HW230813   4.240   2.232   1.573
 6312SOL     OW30814   3.132   1.575   4.377
 6312SOL    HW130815   3.048   1.540   4.405
 6312SOL    HW230816   3.123   1.670   4.388
 6313SOL     OW30817   1.573   3.843   0.099
 6313SOL    HW130818   1.543   3.921   0.145
 6313SOL    HW230819   1.538   3.770   0.150
 6314SOL     OW30820   2.805   0.291  19.238
 6314SOL    HW130821   2.790   0.326  19.150
 6314SOL    HW230822   2.724   0.246  19.261
 6315SOL     OW30823   0.061   4.705   5.858
 6315SOL    HW130824   0.116   4.780   5.834
 6315SOL    HW230825   0.071   4.697   5.953
 6316SOL     OW30826   3.951   3.758   0.133
 6316SOL    HW130827   4.033   3.745   0.181
 6316SOL    HW230828   3.915   3.839   0.170
 6317SOL     OW30829   3.315   2.324   4.026
 6317SOL    HW130830   3.343   2.237   4.055
 6317SOL    HW230831   3.294   2.313   3.933
 6318SOL     OW30832   3.345   3.278  19.566
 6318SOL    HW130833   3.420   3.333  19.544
 6318SOL    HW230834   3.381   3.190  19.577
 6319SOL     OW30835   1.696   4.086  17.487
 6319SOL    HW130836   1.670   4.102  17.397
 6319SOL    HW230837   1.628   4.029  17.523
 6320SOL     OW30838   3.775   4.524   6.061
 6320SOL    HW130839   3.705   4.530   5.996
 6320SOL    HW230840   3.798   4.615   6.080
 6321SOL     OW30841   3.270   2.752  18.515
 6321SOL    HW130842   3.263   2.819  18.583
 6321SOL    HW230843   3.356   2.766  18.476
 6322SOL     OW30844   0.044   2.237   7.056
 6322SOL    HW130845   4.761   2.289   7.095
 6322SOL    HW230846   0.119   2.252   7.114
 6323SOL     OW30847   0.406   4.500  18.908
 6323SOL    HW130848   0.317   4.504  18.943
 6323SOL    HW230849   0.455   4.451  18.974
 6324SOL     OW30850   1.493   2.523   0.647
 6324SOL    HW130851   1.430   2.578   0.693
 6324SOL    HW230852   1.565   2.512   0.709
 6325SOL     OW30853   0.267   1.120  14.286
 6325SOL    HW130854   0.209   1.145  14.214
 6325SOL    HW230855   0.272   1.024  14.281
 6326SOL     OW30856   1.217   4.509  11.347
 6326SOL    HW130857   1.274   4.569  11.298
 6326SOL    HW230858   1.128   4.539  11.328
 6327SOL     OW30859   0.228   4.732  13.337
 6327SOL    HW130860   0.295   4.769  13.394
 6327SOL    HW230861   0.266   4.738  13.249
 6328SOL     OW30862   4.222   4.098  19.837
 6328SOL    HW130863   4.270   4.064  19.912
 6328SOL    HW230864   4.173   4.024  19.803
 6329SOL     OW30865   1.563   0.540  13.910
 6329SOL    HW130866   1.549   0.576  13.822
 6329SOL    HW230867   1.500   0.586  13.965
 6330SOL     OW30868   1.037   2.074   3.434
 6330SOL    HW130869   0.972   2.015   3.396
 6330SOL    HW230870   1.047   2.043   3.524
 6331SOL     OW30871   0.706   3.738   0.150
 6331SOL    HW130872   0.701   3.704   0.239
 6331SOL    HW230873   0.640   3.689   0.102
 6332SOL     OW30874   4.759   2.167  16.113
 6332SOL    HW130875   4.696   2.144  16.045
 6332SOL    HW230876   4.720   2.134  16.194
 6333SOL     OW30877   3.657   2.080   7.796
 6333SOL    HW130878   3.602   2.010   7.760
 6333SOL    HW230879   3.654   2.065   7.891
 6334SOL     OW30880   1.145   3.120  11.852
 6334SOL    HW130881   1.223   3.164  11.884
 6334SOL    HW230882   1.098   3.093  11.931
 6335SOL     OW30883   1.628   0.165  18.978
 6335SOL    HW130884   1.651   0.117  18.899
 6335SOL    HW230885   1.554   0.116  19.015
 6336SOL     OW30886   2.956   2.761  13.998
 6336SOL    HW130887   2.994   2.848  14.005
 6336SOL    HW230888   2.968   2.737  13.906
 6337SOL     OW30889   4.424   4.182  17.117
 6337SOL    HW130890   4.448   4.269  17.150
 6337SOL    HW230891   4.507   4.139  17.100
 6338SOL     OW30892   2.615   4.641  19.873
 6338SOL    HW130893   2.541   4.597  19.830
 6338SOL    HW230894   2.674   4.570  19.898
 6339SOL     OW30895   1.469   2.377  17.609
 6339SOL    HW130896   1.455   2.369  17.703
 6339SOL    HW230897   1.468   2.287  17.576
 6340SOL     OW30898   1.822   3.078   0.762
 6340SOL    HW130899   1.863   2.992   0.766
 6340SOL    HW230900   1.770   3.084   0.842
 6341SOL     OW30901   0.858   3.182  16.485
 6341SOL    HW130902   0.915   3.153  16.414
 6341SOL    HW230903   0.781   3.217  16.441
 6342SOL     OW30904   3.348   4.368   4.838
 6342SOL    HW130905   3.324   4.331   4.924
 6342SOL    HW230906   3.434   4.329   4.820
 6343SOL     OW30907   3.705   3.953   4.549
 6343SOL    HW130908   3.635   3.993   4.498
 6343SOL    HW230909   3.770   3.927   4.483
 6344SOL     OW30910   2.241   0.908   5.052
 6344SOL    HW130911   2.324   0.945   5.080
 6344SOL    HW230912   2.229   0.939   4.962
 6345SOL     OW30913   2.202   4.585  18.546
 6345SOL    HW130914   2.126   4.594  18.489
 6345SOL    HW230915   2.232   4.495  18.532
 6346SOL     OW30916   1.281   1.236  11.231
 6346SOL    HW130917   1.369   1.260  11.201
 6346SOL    HW230918   1.229   1.232  11.151
 6347SOL     OW30919   3.098   4.666   6.162
 6347SOL    HW130920   3.182   4.711   6.163
 6347SOL    HW230921   3.084   4.637   6.252
 6348SOL     OW30922   4.433   4.451   4.355
 6348SOL    HW130923   4.358   4.414   4.401
 6348SOL    HW230924   4.395   4.510   4.290
 6349SOL     OW30925   3.313   3.409  20.744
 6349SOL    HW130926   3.322   3.324  20.788
 6349SOL    HW230927   3.385   3.461  20.779
 6350SOL     OW30928   0.582   1.096   5.480
 6350SOL    HW130929   0.569   1.022   5.420
 6350SOL    HW230930   0.525   1.165   5.446
 6351SOL     OW30931   3.678   0.271  20.246
 6351SOL    HW130932   3.682   0.278  20.150
 6351SOL    HW230933   3.613   0.203  20.263
 6352SOL     OW30934   0.291   2.024  19.791
 6352SOL    HW130935   0.201   1.991  19.796
 6352SOL    HW230936   0.283   2.108  19.746
 6353SOL     OW30937   3.483   0.433  19.703
 6353SOL    HW130938   3.391   0.447  19.679
 6353SOL    HW230939   3.507   0.512  19.752
 6354SOL     OW30940   2.823   3.275   0.150
 6354SOL    HW130941   2.826   3.246   0.241
 6354SOL    HW230942   2.733   3.304   0.136
 6355SOL     OW30943   2.879   1.959  17.117
 6355SOL    HW130944   2.951   1.950  17.055
 6355SOL    HW230945   2.909   2.027  17.178
 6356SOL     OW30946   1.043   0.731   6.300
 6356SOL    HW130947   0.969   0.722   6.240
 6356SOL    HW230948   1.003   0.745   6.386
 6357SOL     OW30949   4.723   3.298  17.612
 6357SOL    HW130950   4.643   3.350  17.622
 6357SOL    HW230951   4.706   3.242  17.536
 6358SOL     OW30952   4.152   4.694   3.924
 6358SOL    HW130953   4.064   4.717   3.952
 6358SOL    HW230954   4.202   4.687   4.005
 6359SOL     OW30955   4.631   2.085  15.707
 6359SOL    HW130956   4.574   2.023  15.753
 6359SOL    HW230957   4.717   2.042  15.706
 6360SOL     OW30958   4.785   1.503   0.749
 6360SOL    HW130959   0.041   1.581   0.785
 6360SOL    HW230960   0.031   1.494   0.660
 6361SOL     OW30961   1.993   3.330  18.612
 6361SOL    HW130962   2.040   3.344  18.694
 6361SOL    HW230963   2.012   3.240  18.588
 6362SOL     OW30964   4.218   0.580   2.480
 6362SOL    HW130965   4.303   0.624   2.487
 6362SOL    HW230966   4.168   0.635   2.419
 6363SOL     OW30967   2.946   1.349  18.005
 6363SOL    HW130968   2.904   1.284  18.061
 6363SOL    HW230969   2.897   1.346  17.923
 6364SOL     OW30970   4.609   4.053   3.178
 6364SOL    HW130971   4.527   4.097   3.156
 6364SOL    HW230972   4.643   4.021   3.094
 6365SOL     OW30973   4.003   3.847   3.251
 6365SOL    HW130974   4.017   3.775   3.190
 6365SOL    HW230975   3.943   3.811   3.317
 6366SOL     OW30976   1.482   0.620   0.485
 6366SOL    HW130977   1.403   0.666   0.459
 6366SOL    HW230978   1.464   0.588   0.573
 6367SOL     OW30979   2.202   3.608   2.787
 6367SOL    HW130980   2.142   3.613   2.713
 6367SOL    HW230981   2.279   3.658   2.760
 6368SOL     OW30982   4.408   4.060  16.034
 6368SOL    HW130983   4.444   4.138  16.076
 6368SOL    HW230984   4.401   4.083  15.941
 6369SOL     OW30985   1.398   1.940   3.295
 6369SOL    HW130986   1.358   1.877   3.234
 6369SOL    HW230987   1.474   1.974   3.248
 6370SOL     OW30988   3.864   2.352   8.853
 6370SOL    HW130989   3.790   2.372   8.911
 6370SOL    HW230990   3.939   2.348   8.911
 6371SOL     OW30991   1.848   2.283   5.488
 6371SOL    HW130992   1.813   2.367   5.518
 6371SOL    HW230993   1.791   2.258   5.415
 6372SOL     OW30994   0.705   0.851  13.408
 6372SOL    HW130995   0.647   0.775  13.410
 6372SOL    HW230996   0.647   0.925  13.388
 6373SOL     OW30997   0.326   2.612  15.190
 6373SOL    HW130998   0.334   2.603  15.285
 6373SOL    HW230999   0.236   2.641  15.176
 6374SOL     OW31000   1.929   0.979   1.485
 6374SOL    HW131001   1.953   1.070   1.505
 6374SOL    HW231002   1.867   0.955   1.553
 6375SOL     OW31003   0.386   3.497   5.138
 6375SOL    HW131004   0.318   3.430   5.144
 6375SOL    HW231005   0.345   3.575   5.177
 6376SOL     OW31006   0.815   2.477  16.685
 6376SOL    HW131007   0.828   2.571  16.698
 6376SOL    HW231008   0.726   2.469  16.651
 6377SOL     OW31009   0.932   1.627  18.547
 6377SOL    HW131010   0.840   1.651  18.545
 6377SOL    HW231011   0.958   1.618  18.455
 6378SOL     OW31012   0.652   0.769   5.060
 6378SOL    HW131013   0.600   0.846   5.038
 6378SOL    HW231014   0.604   0.696   5.020
 6379SOL     OW31015   3.039   0.012   0.219
 6379SOL    HW131016   2.958   0.047   0.256
 6379SOL    HW231017   3.051   0.060   0.137
 6380SOL     OW31018   3.520   0.470  15.792
 6380SOL    HW131019   3.520   0.541  15.856
 6380SOL    HW231020   3.526   0.514  15.707
 6381SOL     OW31021   2.149   0.901  18.043
 6381SOL    HW131022   2.126   0.809  18.035
 6381SOL    HW231023   2.224   0.901  18.103
 6382SOL     OW31024   2.872   2.806   3.302
 6382SOL    HW131025   2.933   2.838   3.368
 6382SOL    HW231026   2.922   2.806   3.221
 6383SOL     OW31027   1.127   2.446  21.133
 6383SOL    HW131028   1.142   2.434  21.226
 6383SOL    HW231029   1.210   2.478  21.099
 6384SOL     OW31030   2.930   1.397   4.450
 6384SOL    HW131031   2.849   1.445   4.467
 6384SOL    HW231032   2.901   1.317   4.407
 6385SOL     OW31033   1.219   2.032  18.469
 6385SOL    HW131034   1.160   2.026  18.394
 6385SOL    HW231035   1.307   2.025  18.430
 6386SOL     OW31036   4.413   3.617  16.683
 6386SOL    HW131037   4.501   3.592  16.710
 6386SOL    HW231038   4.364   3.625  16.765
 6387SOL     OW31039   3.806   0.592   2.911
 6387SOL    HW131040   3.739   0.655   2.937
 6387SOL    HW231041   3.840   0.626   2.828
 6388SOL     OW31042   3.198   0.445  19.640
 6388SOL    HW131043   3.153   0.497  19.708
 6388SOL    HW231044   3.172   0.355  19.659
 6389SOL     OW31045   4.163   4.042   5.066
 6389SOL    HW131046   4.200   4.055   4.978
 6389SOL    HW231047   4.171   4.128   5.108
 6390SOL     OW31048   4.231   3.512   1.622
 6390SOL    HW131049   4.301   3.545   1.566
 6390SOL    HW231050   4.206   3.587   1.676
 6391SOL     OW31051   2.353   2.755  20.678
 6391SOL    HW131052   2.443   2.781  20.699
 6391SOL    HW231053   2.301   2.784  20.753
 6392SOL     OW31054   2.887   3.122  20.292
 6392SOL    HW131055   2.819   3.129  20.359
 6392SOL    HW231056   2.839   3.102  20.211
 6393SOL     OW31057   2.482   3.397   1.257
 6393SOL    HW131058   2.393   3.369   1.279
 6393SOL    HW231059   2.474   3.491   1.239
 6394SOL     OW31060   4.387   4.255   7.942
 6394SOL    HW131061   4.437   4.328   7.907
 6394SOL    HW231062   4.444   4.217   8.009
 6395SOL     OW31063   3.990   2.786  19.629
 6395SOL    HW131064   3.960   2.713  19.684
 6395SOL    HW231065   3.911   2.817  19.585
 6396SOL     OW31066   1.820   1.411   3.994
 6396SOL    HW131067   1.846   1.503   3.991
 6396SOL    HW231068   1.765   1.399   3.916
 6397SOL     OW31069   3.882   3.427  19.892
 6397SOL    HW131070   3.945   3.461  19.955
 6397SOL    HW231071   3.901   3.333  19.887
 6398SOL     OW31072   4.255   4.466   5.375
 6398SOL    HW131073   4.253   4.562   5.376
 6398SOL    HW231074   4.268   4.441   5.466
 6399SOL     OW31075   4.616   3.130  16.368
 6399SOL    HW131076   4.677   3.062  16.340
 6399SOL    HW231077   4.656   3.212  16.340
 6400SOL     OW31078   0.917   3.010   4.479
 6400SOL    HW131079   1.010   3.027   4.495
 6400SOL    HW231080   0.883   3.092   4.444
 6401SOL     OW31081   3.233   2.915  17.280
 6401SOL    HW131082   3.230   2.866  17.362
 6401SOL    HW231083   3.242   2.848  17.212
 6402SOL     OW31084   1.023   0.633  17.163
 6402SOL    HW131085   0.946   0.598  17.118
 6402SOL    HW231086   1.040   0.717  17.119
 6403SOL     OW31087   0.206   1.016   4.085
 6403SOL    HW131088   0.163   1.073   4.021
 6403SOL    HW231089   0.231   0.938   4.035
 6404SOL     OW31090   2.092   1.310   1.114
 6404SOL    HW131091   2.023   1.308   1.180
 6404SOL    HW231092   2.152   1.241   1.141
 6405SOL     OW31093   1.270   0.353   1.715
 6405SOL    HW131094   1.180   0.368   1.742
 6405SOL    HW231095   1.323   0.379   1.791
 6406SOL     OW31096   2.403   0.871   4.610
 6406SOL    HW131097   2.344   0.897   4.681
 6406SOL    HW231098   2.377   0.927   4.537
 6407SOL     OW31099   0.334   3.287  20.949
 6407SOL    HW131100   0.243   3.300  20.921
 6407SOL    HW231101   0.328   3.273  21.043
 6408SOL     OW31102   2.541   0.939  20.852
 6408SOL    HW131103   2.619   0.884  20.849
 6408SOL    HW231104   2.573   1.029  20.852
 6409SOL     OW31105   2.002   0.991   5.238
 6409SOL    HW131106   2.058   0.962   5.166
 6409SOL    HW231107   2.029   1.081   5.256
 6410SOL     OW31108   0.983   1.772  18.888
 6410SOL    HW131109   1.023   1.814  18.812
 6410SOL    HW231110   1.014   1.681  18.885
 6411SOL     OW31111   0.264   4.158   7.345
 6411SOL    HW131112   0.255   4.244   7.305
 6411SOL    HW231113   0.302   4.103   7.276
 6412SOL     OW31114   4.217   1.733   6.746
 6412SOL    HW131115   4.238   1.822   6.774
 6412SOL    HW231116   4.268   1.721   6.665
 6413SOL     OW31117   2.186   3.673   0.320
 6413SOL    HW131118   2.150   3.750   0.277
 6413SOL    HW231119   2.135   3.662   0.400
 6414SOL     OW31120   2.671   4.780   4.523
 6414SOL    HW131121   2.605   0.028   4.463
 6414SOL    HW231122   2.735   4.737   4.466
 6415SOL     OW31123   1.278   2.977   2.580
 6415SOL    HW131124   1.213   2.907   2.588
 6415SOL    HW231125   1.237   3.054   2.619
 6416SOL     OW31126   2.444   3.270  16.094
 6416SOL    HW131127   2.459   3.349  16.042
 6416SOL    HW231128   2.428   3.201  16.028
 6417SOL     OW31129   3.659   1.678  12.518
 6417SOL    HW131130   3.593   1.616  12.488
 6417SOL    HW231131   3.608   1.749  12.557
 6418SOL     OW31132   0.953   4.386  19.732
 6418SOL    HW131133   0.972   4.450  19.663
 6418SOL    HW231134   1.036   4.341  19.746
 6419SOL     OW31135   3.985   2.230  17.105
 6419SOL    HW131136   3.896   2.202  17.084
 6419SOL    HW231137   4.039   2.152  17.093
 6420SOL     OW31138   1.783   4.543   1.951
 6420SOL    HW131139   1.693   4.535   1.920
 6420SOL    HW231140   1.794   4.469   2.011
 6421SOL     OW31141   2.745   1.486   2.848
 6421SOL    HW131142   2.801   1.563   2.854
 6421SOL    HW231143   2.748   1.448   2.936
 6422SOL     OW31144   0.454   1.247  16.748
 6422SOL    HW131145   0.540   1.231  16.708
 6422SOL    HW231146   0.415   1.160  16.755
 6423SOL     OW31147   4.032   0.839   0.305
 6423SOL    HW131148   4.044   0.933   0.321
 6423SOL    HW231149   4.035   0.799   0.392
 6424SOL     OW31150   0.136   0.932   3.286
 6424SOL    HW131151   0.192   0.979   3.223
 6424SOL    HW231152   0.125   0.845   3.247
 6425SOL     OW31153   1.118   1.690  20.352
 6425SOL    HW131154   1.188   1.748  20.325
 6425SOL    HW231155   1.159   1.603  20.358
 6426SOL     OW31156   3.575   1.455   6.532
 6426SOL    HW131157   3.597   1.446   6.440
 6426SOL    HW231158   3.581   1.367   6.567
 6427SOL     OW31159   0.761   0.032   2.771
 6427SOL    HW131160   0.768   0.108   2.713
 6427SOL    HW231161   0.672   4.787   2.759
 6428SOL     OW31162   1.762   1.625  18.495
 6428SOL    HW131163   1.836   1.564  18.507
 6428SOL    HW231164   1.786   1.677  18.419
 6429SOL     OW31165   2.552   0.466   0.331
 6429SOL    HW131166   2.594   0.480   0.416
 6429SOL    HW231167   2.626   0.456   0.269
 6430SOL     OW31168   2.702   0.309  18.295
 6430SOL    HW131169   2.759   0.316  18.219
 6430SOL    HW231170   2.681   0.400  18.318
 6431SOL     OW31171   2.295   0.851  15.425
 6431SOL    HW131172   2.327   0.940  15.435
 6431SOL    HW231173   2.264   0.827  15.513
 6432SOL     OW31174   0.129   1.162  18.976
 6432SOL    HW131175   0.072   1.164  19.053
 6432SOL    HW231176   0.210   1.123  19.008
 6433SOL     OW31177   0.965   0.837  19.163
 6433SOL    HW131178   1.041   0.836  19.105
 6433SOL    HW231179   0.947   0.745  19.182
 6434SOL     OW31180   0.814   2.264  15.450
 6434SOL    HW131181   0.798   2.266  15.356
 6434SOL    HW231182   0.880   2.196  15.462
 6435SOL     OW31183   3.982   3.151   2.043
 6435SOL    HW131184   4.009   3.092   2.112
 6435SOL    HW231185   3.889   3.168   2.060
 6436SOL     OW31186   0.116   2.434   0.679
 6436SOL    HW131187   0.152   2.357   0.722
 6436SOL    HW231188   0.094   2.493   0.751
 6437SOL     OW31189   4.267   4.399  16.520
 6437SOL    HW131190   4.184   4.352  16.527
 6437SOL    HW231191   4.334   4.333  16.539
 6438SOL     OW31192   2.795   0.473   7.694
 6438SOL    HW131193   2.858   0.405   7.715
 6438SOL    HW231194   2.790   0.527   7.773
 6439SOL     OW31195   4.347   4.378  15.916
 6439SOL    HW131196   4.416   4.380  15.849
 6439SOL    HW231197   4.388   4.337  15.992
 6440SOL     OW31198   0.747   4.658   6.219
 6440SOL    HW131199   0.655   4.670   6.197
 6440SOL    HW231200   0.748   4.584   6.280
 6441SOL     OW31201   2.362   3.453   1.825
 6441SOL    HW131202   2.402   3.403   1.754
 6441SOL    HW231203   2.309   3.519   1.781
 6442SOL     OW31204   2.329   4.380  17.207
 6442SOL    HW131205   2.365   4.291  17.196
 6442SOL    HW231206   2.383   4.419  17.276
 6443SOL     OW31207   1.565   3.346   3.328
 6443SOL    HW131208   1.508   3.306   3.262
 6443SOL    HW231209   1.505   3.379   3.395
 6444SOL     OW31210   1.844   4.738  18.416
 6444SOL    HW131211   1.846   4.680  18.491
 6444SOL    HW231212   1.812   0.034  18.451
 6445SOL     OW31213   1.832   0.997   3.860
 6445SOL    HW131214   1.887   0.934   3.814
 6445SOL    HW231215   1.743   0.963   3.850
 6446SOL     OW31216   0.580   0.323   2.059
 6446SOL    HW131217   0.659   0.325   2.004
 6446SOL    HW231218   0.584   0.239   2.104
 6447SOL     OW31219   3.592   1.440  20.375
 6447SOL    HW131220   3.678   1.406  20.400
 6447SOL    HW231221   3.544   1.364  20.343
 6448SOL     OW31222   4.551   1.374   8.241
 6448SOL    HW131223   4.499   1.411   8.169
 6448SOL    HW231224   4.640   1.370   8.207
 6449SOL     OW31225   0.771   0.422  11.894
 6449SOL    HW131226   0.770   0.438  11.800
 6449SOL    HW231227   0.800   0.505  11.933
 6450SOL     OW31228   4.725   3.629  14.482
 6450SOL    HW131229   4.755   3.707  14.528
 6450SOL    HW231230   4.630   3.630  14.494
 6451SOL     OW31231   1.635   2.525   4.332
 6451SOL    HW131232   1.592   2.523   4.417
 6451SOL    HW231233   1.571   2.485   4.272
 6452SOL     OW31234   0.459   3.962  19.788
 6452SOL    HW131235   0.529   3.905  19.819
 6452SOL    HW231236   0.502   4.045  19.769
 6453SOL     OW31237   3.666   1.951  17.688
 6453SOL    HW131238   3.585   1.976  17.733
 6453SOL    HW231239   3.676   2.017  17.620
 6454SOL     OW31240   2.703   3.861  16.311
 6454SOL    HW131241   2.608   3.857  16.319
 6454SOL    HW231242   2.735   3.859  16.401
 6455SOL     OW31243   3.023   2.055  13.432
 6455SOL    HW131244   3.009   1.964  13.458
 6455SOL    HW231245   2.992   2.060  13.342
 6456SOL     OW31246   2.992   4.680   8.278
 6456SOL    HW131247   3.078   4.705   8.310
 6456SOL    HW231248   2.930   4.726   8.335
 6457SOL     OW31249   1.895   3.579   8.380
 6457SOL    HW131250   1.867   3.531   8.458
 6457SOL    HW231251   1.990   3.568   8.378
 6458SOL     OW31252   3.268   4.229  19.141
 6458SOL    HW131253   3.286   4.320  19.118
 6458SOL    HW231254   3.244   4.187  19.059
 6459SOL     OW31255   1.440   2.340   3.180
 6459SOL    HW131256   1.533   2.323   3.166
 6459SOL    HW231257   1.415   2.280   3.251
 6460SOL     OW31258   2.183   4.036   6.455
 6460SOL    HW131259   2.221   3.949   6.457
 6460SOL    HW231260   2.158   4.050   6.363
 6461SOL     OW31261   2.362   1.784  17.322
 6461SOL    HW131262   2.307   1.817  17.393
 6461SOL    HW231263   2.315   1.706  17.291
 6462SOL     OW31264   4.083   3.052  15.778
 6462SOL    HW131265   4.025   3.010  15.715
 6462SOL    HW231266   4.028   3.116  15.824
 6463SOL     OW31267   1.919   0.315  18.295
 6463SOL    HW131268   1.844   0.309  18.235
 6463SOL    HW231269   1.995   0.324  18.237
 6464SOL     OW31270   3.506   3.756   5.875
 6464SOL    HW131271   3.476   3.715   5.794
 6464SOL    HW231272   3.457   3.838   5.881
 6465SOL     OW31273   3.102   2.748   4.192
 6465SOL    HW131274   3.114   2.653   4.179
 6465SOL    HW231275   3.091   2.783   4.103
 6466SOL     OW31276   0.235   0.066  14.852
 6466SOL    HW131277   0.304   0.007  14.881
 6466SOL    HW231278   0.209   0.113  14.932
 6467SOL     OW31279   2.578   3.158   1.134
 6467SOL    HW131280   2.497   3.208   1.137
 6467SOL    HW231281   2.646   3.220   1.160
 6468SOL     OW31282   3.347   1.468  19.934
 6468SOL    HW131283   3.405   1.476  20.010
 6468SOL    HW231284   3.372   1.385  19.893
 6469SOL     OW31285   1.011   1.726  16.989
 6469SOL    HW131286   0.991   1.671  17.064
 6469SOL    HW231287   0.997   1.815  17.020
 6470SOL     OW31288   0.948   4.773   5.415
 6470SOL    HW131289   1.018   0.007   5.353
 6470SOL    HW231290   0.913   0.070   5.441
 6471SOL     OW31291   3.448   0.618   0.863
 6471SOL    HW131292   3.523   0.636   0.805
 6471SOL    HW231293   3.385   0.574   0.806
 6472SOL     OW31294   3.742   4.620  20.912
 6472SOL    HW131295   3.812   4.681  20.889
 6472SOL    HW231296   3.671   4.641  20.852
 6473SOL     OW31297   3.876   3.985   1.964
 6473SOL    HW131298   3.827   3.902   1.963
 6473SOL    HW231299   3.968   3.958   1.968
 6474SOL     OW31300   2.484   3.702  15.096
 6474SOL    HW131301   2.536   3.691  15.016
 6474SOL    HW231302   2.546   3.735  15.160
 6475SOL     OW31303   2.125   0.131  17.277
 6475SOL    HW131304   2.036   0.156  17.302
 6475SOL    HW231305   2.114   0.084  17.194
 6476SOL     OW31306   1.464   3.069  16.372
 6476SOL    HW131307   1.499   3.074  16.283
 6476SOL    HW231308   1.372   3.095  16.364
 6477SOL     OW31309   4.242   3.205  16.991
 6477SOL    HW131310   4.175   3.258  16.946
 6477SOL    HW231311   4.324   3.232  16.952
 6478SOL     OW31312   3.039   4.399   3.032
 6478SOL    HW131313   3.114   4.362   2.985
 6478SOL    HW231314   3.056   4.378   3.124
 6479SOL     OW31315   2.942   3.911  20.516
 6479SOL    HW131316   2.849   3.928  20.530
 6479SOL    HW231317   2.952   3.817  20.532
 6480SOL     OW31318   0.539   2.444  15.193
 6480SOL    HW131319   0.545   2.348  15.193
 6480SOL    HW231320   0.446   2.462  15.185
 6481SOL     OW31321   3.154   2.424  17.567
 6481SOL    HW131322   3.145   2.451  17.658
 6481SOL    HW231323   3.249   2.415  17.554
 6482SOL     OW31324   1.613   1.910   3.867
 6482SOL    HW131325   1.667   1.972   3.917
 6482SOL    HW231326   1.524   1.927   3.897
 6483SOL     OW31327   4.303   0.433   4.800
 6483SOL    HW131328   4.350   0.424   4.717
 6483SOL    HW231329   4.360   0.391   4.865
 6484SOL     OW31330   1.263   4.422  18.757
 6484SOL    HW131331   1.295   4.402  18.845
 6484SOL    HW231332   1.260   4.337  18.713
 6485SOL     OW31333   2.299   2.949  17.952
 6485SOL    HW131334   2.205   2.949  17.970
 6485SOL    HW231335   2.311   2.877  17.890
 6486SOL     OW31336   4.265   4.118   0.388
 6486SOL    HW131337   4.302   4.169   0.316
 6486SOL    HW231338   4.211   4.181   0.437
 6487SOL     OW31339   2.313   0.140  17.460
 6487SOL    HW131340   2.321   0.057  17.505
 6487SOL    HW231341   2.264   0.120  17.380
 6488SOL     OW31342   2.255   2.320   1.275
 6488SOL    HW131343   2.307   2.267   1.335
 6488SOL    HW231344   2.255   2.270   1.193
 6489SOL     OW31345   2.730   1.574   3.203
 6489SOL    HW131346   2.760   1.540   3.287
 6489SOL    HW231347   2.709   1.666   3.220
 6490SOL     OW31348   4.369   3.873   6.577
 6490SOL    HW131349   4.311   3.802   6.548
 6490SOL    HW231350   4.315   3.952   6.569
 6491SOL     OW31351   1.806   1.844  19.125
 6491SOL    HW131352   1.893   1.817  19.154
 6491SOL    HW231353   1.756   1.855  19.206
 6492SOL     OW31354   3.831   0.895   4.240
 6492SOL    HW131355   3.773   0.824   4.266
 6492SOL    HW231356   3.874   0.922   4.321
 6493SOL     OW31357   3.360   4.072  17.095
 6493SOL    HW131358   3.422   4.103  17.161
 6493SOL    HW231359   3.363   3.977  17.101
 6494SOL     OW31360   2.337   4.711  14.344
 6494SOL    HW131361   2.418   4.716  14.394
 6494SOL    HW231362   2.318   0.014  14.321
 6495SOL     OW31363   4.440   1.235  17.949
 6495SOL    HW131364   4.479   1.198  18.028
 6495SOL    HW231365   4.422   1.159  17.894
 6496SOL     OW31366   3.883   1.331   0.905
 6496SOL    HW131367   3.928   1.258   0.861
 6496SOL    HW231368   3.796   1.333   0.865
 6497SOL     OW31369   3.121   0.782   1.902
 6497SOL    HW131370   3.115   0.877   1.895
 6497SOL    HW231371   3.082   0.762   1.987
 6498SOL     OW31372   0.508   1.910   0.295
 6498SOL    HW131373   0.599   1.883   0.287
 6498SOL    HW231374   0.488   1.953   0.212
 6499SOL     OW31375   1.951   4.143  15.456
 6499SOL    HW131376   1.868   4.147  15.504
 6499SOL    HW231377   1.936   4.078  15.387
 6500SOL     OW31378   3.731   2.906  13.520
 6500SOL    HW131379   3.753   2.925  13.611
 6500SOL    HW231380   3.669   2.833  13.525
 6501SOL     OW31381   1.887   3.155  17.961
 6501SOL    HW131382   1.908   3.221  17.894
 6501SOL    HW231383   1.811   3.109  17.926
 6502SOL     OW31384   0.282   3.158   6.018
 6502SOL    HW131385   0.347   3.225   6.040
 6502SOL    HW231386   0.200   3.207   6.008
 6503SOL     OW31387   4.238   4.466  13.328
 6503SOL    HW131388   4.169   4.407  13.358
 6503SOL    HW231389   4.313   4.446  13.383
 6504SOL     OW31390   3.496   0.083  20.336
 6504SOL    HW131391   3.471   0.003  20.291
 6504SOL    HW231392   3.416   0.113  20.379
 6505SOL     OW31393   2.997   0.226  17.245
 6505SOL    HW131394   3.022   0.155  17.186
 6505SOL    HW231395   2.932   0.276  17.196
 6506SOL     OW31396   1.970   1.026  21.119
 6506SOL    HW131397   2.026   1.071  21.181
 6506SOL    HW231398   2.022   1.019  21.039
 6507SOL     OW31399   4.288   3.856  16.896
 6507SOL    HW131400   4.213   3.881  16.842
 6507SOL    HW231401   4.282   3.912  16.973
 6508SOL     OW31402   2.833   1.425   5.869
 6508SOL    HW131403   2.765   1.455   5.930
 6508SOL    HW231404   2.875   1.351   5.913
 6509SOL     OW31405   4.743   0.928  14.096
 6509SOL    HW131406   4.685   0.955  14.167
 6509SOL    HW231407   0.014   0.863  14.136
 6510SOL     OW31408   2.520   3.928   6.563
 6510SOL    HW131409   2.571   3.978   6.626
 6510SOL    HW231410   2.571   3.931   6.482
 6511SOL     OW31411   4.271   1.509  18.348
 6511SOL    HW131412   4.182   1.479  18.367
 6511SOL    HW231413   4.260   1.575  18.280
 6512SOL     OW31414   1.829   3.812  18.116
 6512SOL    HW131415   1.868   3.739  18.163
 6512SOL    HW231416   1.736   3.790  18.111
 6513SOL     OW31417   2.930   3.520  15.280
 6513SOL    HW131418   2.980   3.480  15.352
 6513SOL    HW231419   2.993   3.578  15.237
 6514SOL     OW31420   3.077   3.185   0.296
 6514SOL    HW131421   3.142   3.223   0.356
 6514SOL    HW231422   2.999   3.240   0.308
 6515SOL     OW31423   0.962   2.092   4.853
 6515SOL    HW131424   0.908   2.039   4.912
 6515SOL    HW231425   0.921   2.179   4.854
 6516SOL     OW31426   0.075   1.128  18.707
 6516SOL    HW131427   0.115   1.131  18.793
 6516SOL    HW231428   0.103   1.209  18.664
 6517SOL     OW31429   2.490   2.151  18.613
 6517SOL    HW131430   2.488   2.173  18.520
 6517SOL    HW231431   2.562   2.088  18.621
 6518SOL     OW31432   3.102   4.778  17.124
 6518SOL    HW131433   3.027   4.721  17.106
 6518SOL    HW231434   3.178   4.723  17.107
 6519SOL     OW31435   1.132   3.013   0.977
 6519SOL    HW131436   1.185   2.963   1.039
 6519SOL    HW231437   1.128   3.101   1.014
 6520SOL     OW31438   3.193   1.844   0.939
 6520SOL    HW131439   3.288   1.847   0.944
 6520SOL    HW231440   3.174   1.793   0.860
 6521SOL     OW31441   0.429   0.921   6.288
 6521SOL    HW131442   0.343   0.899   6.324
 6521SOL    HW231443   0.486   0.930   6.365
 6522SOL     OW31444   0.130   0.607   2.119
 6522SOL    HW131445   0.041   0.594   2.085
 6522SOL    HW231446   0.182   0.542   2.072
 6523SOL     OW31447   1.957   4.039  13.539
 6523SOL    HW131448   1.955   4.077  13.451
 6523SOL    HW231449   1.872   3.997  13.549
 6524SOL     OW31450   1.840   3.468  15.632
 6524SOL    HW131451   1.895   3.391  15.623
 6524SOL    HW231452   1.795   3.475  15.547
 6525SOL     OW31453   3.832   1.519   0.094
 6525SOL    HW131454   3.924   1.496   0.078
 6525SOL    HW231455   3.802   1.556   0.011
 6526SOL     OW31456   1.553   2.119  20.739
 6526SOL    HW131457   1.612   2.190  20.766
 6526SOL    HW231458   1.467   2.160  20.738
 6527SOL     OW31459   2.705   3.758  18.361
 6527SOL    HW131460   2.655   3.832  18.328
 6527SOL    HW231461   2.739   3.786  18.446
 6528SOL     OW31462   2.593   1.741  19.449
 6528SOL    HW131463   2.572   1.688  19.526
 6528SOL    HW231464   2.584   1.832  19.479
 6529SOL     OW31465   1.416   3.649  13.112
 6529SOL    HW131466   1.502   3.623  13.144
 6529SOL    HW231467   1.390   3.580  13.052
 6530SOL     OW31468   0.579   1.589   3.792
 6530SOL    HW131469   0.586   1.521   3.724
 6530SOL    HW231470   0.497   1.569   3.838
 6531SOL     OW31471   2.347   1.273   1.369
 6531SOL    HW131472   2.329   1.194   1.421
 6531SOL    HW231473   2.352   1.343   1.434
 6532SOL     OW31474   2.140   1.144   0.034
 6532SOL    HW131475   2.167   1.094   0.111
 6532SOL    HW231476   2.211   1.207   0.021
 6533SOL     OW31477   0.943   2.653   0.858
 6533SOL    HW131478   0.962   2.720   0.792
 6533SOL    HW231479   0.948   2.699   0.942
 6534SOL     OW31480   3.757   1.131   0.315
 6534SOL    HW131481   3.781   1.108   0.405
 6534SOL    HW231482   3.841   1.145   0.270
 6535SOL     OW31483   4.404   1.809  21.076
 6535SOL    HW131484   4.325   1.804  21.021
 6535SOL    HW231485   4.401   1.896  21.115
 6536SOL     OW31486   1.807   1.500  16.140
 6536SOL    HW131487   1.804   1.571  16.076
 6536SOL    HW231488   1.764   1.536  16.218
 6537SOL     OW31489   2.827   3.804  16.581
 6537SOL    HW131490   2.858   3.784  16.670
 6537SOL    HW231491   2.908   3.815  16.530
 6538SOL     OW31492   0.932   3.983  20.171
 6538SOL    HW131493   0.891   4.070  20.176
 6538SOL    HW231494   0.889   3.933  20.240
 6539SOL     OW31495   3.030   0.118   5.572
 6539SOL    HW131496   3.000   0.161   5.652
 6539SOL    HW231497   3.018   0.184   5.503
 6540SOL     OW31498   1.212   1.418  18.300
 6540SOL    HW131499   1.231   1.509  18.323
 6540SOL    HW231500   1.298   1.379  18.283
 6541SOL     OW31501   3.495   2.963  21.205
 6541SOL    HW131502   3.574   2.982  21.153
 6541SOL    HW231503   3.509   2.875  21.238
 6542SOL     OW31504   3.502   4.374   2.641
 6542SOL    HW131505   3.458   4.336   2.565
 6542SOL    HW231506   3.590   4.336   2.639
 6543SOL     OW31507   1.993   0.305   3.195
 6543SOL    HW131508   1.946   0.286   3.113
 6543SOL    HW231509   2.029   0.220   3.221
 6544SOL     OW31510   2.296   0.089  16.341
 6544SOL    HW131511   2.244   0.069  16.418
 6544SOL    HW231512   2.270   0.024  16.276
 6545SOL     OW31513   1.105   2.015  13.358
 6545SOL    HW131514   1.032   1.954  13.358
 6545SOL    HW231515   1.119   2.036  13.450
 6546SOL     OW31516   4.337   0.230   5.341
 6546SOL    HW131517   4.383   0.153   5.372
 6546SOL    HW231518   4.251   0.226   5.383
 6547SOL     OW31519   0.128   3.119  18.713
 6547SOL    HW131520   0.137   3.131  18.618
 6547SOL    HW231521   0.156   3.203  18.750
 6548SOL     OW31522   3.379   3.874  15.082
 6548SOL    HW131523   3.287   3.873  15.053
 6548SOL    HW231524   3.383   3.945  15.145
 6549SOL     OW31525   4.070   1.483   3.878
 6549SOL    HW131526   4.137   1.458   3.942
 6549SOL    HW231527   4.016   1.405   3.867
 6550SOL     OW31528   1.077   2.442   6.266
 6550SOL    HW131529   1.170   2.421   6.256
 6550SOL    HW231530   1.048   2.388   6.340
 6551SOL     OW31531   2.241   4.257  16.423
 6551SOL    HW131532   2.324   4.219  16.392
 6551SOL    HW231533   2.177   4.187  16.411
 6552SOL     OW31534   2.626   0.313  17.734
 6552SOL    HW131535   2.609   0.335  17.826
 6552SOL    HW231536   2.614   0.396  17.688
 6553SOL     OW31537   0.441   4.462  13.608
 6553SOL    HW131538   0.497   4.537  13.588
 6553SOL    HW231539   0.481   4.389  13.561
 6554SOL     OW31540   0.143   3.764   4.709
 6554SOL    HW131541   0.165   3.712   4.632
 6554SOL    HW231542   0.226   3.804   4.736
 6555SOL     OW31543   0.698   0.726  15.841
 6555SOL    HW131544   0.636   0.705  15.911
 6555SOL    HW231545   0.781   0.689  15.870
 6556SOL     OW31546   3.803   0.123   6.777
 6556SOL    HW131547   3.812   0.081   6.691
 6556SOL    HW231548   3.894   0.136   6.806
 6557SOL     OW31549   4.001   1.068  20.512
 6557SOL    HW131550   4.080   1.016  20.523
 6557SOL    HW231551   3.930   1.010  20.540
 6558SOL     OW31552   4.103   2.649   3.988
 6558SOL    HW131553   4.115   2.743   3.975
 6558SOL    HW231554   4.066   2.618   3.905
 6559SOL     OW31555   0.065   2.883  16.375
 6559SOL    HW131556   4.767   2.846  16.355
 6559SOL    HW231557   0.112   2.811  16.418
 6560SOL     OW31558   3.198   0.400   1.768
 6560SOL    HW131559   3.262   0.359   1.710
 6560SOL    HW231560   3.195   0.491   1.741
 6561SOL     OW31561   1.655   1.765   7.053
 6561SOL    HW131562   1.711   1.764   7.131
 6561SOL    HW231563   1.584   1.704   7.074
 6562SOL     OW31564   0.972   3.756   1.235
 6562SOL    HW131565   0.970   3.725   1.145
 6562SOL    HW231566   1.003   3.682   1.286
 6563SOL     OW31567   3.270   0.755   6.715
 6563SOL    HW131568   3.258   0.686   6.780
 6563SOL    HW231569   3.242   0.835   6.760
 6564SOL     OW31570   4.599   1.940  14.259
 6564SOL    HW131571   4.659   1.919  14.188
 6564SOL    HW231572   4.574   2.031  14.244
 6565SOL     OW31573   2.927   3.637  20.571
 6565SOL    HW131574   2.994   3.569  20.574
 6565SOL    HW231575   2.846   3.590  20.553
 6566SOL     OW31576   2.405   2.747   7.174
 6566SOL    HW131577   2.499   2.728   7.173
 6566SOL    HW231578   2.368   2.681   7.233
 6567SOL     OW31579   4.017   0.529   1.136
 6567SOL    HW131580   4.082   0.535   1.206
 6567SOL    HW231581   3.962   0.455   1.160
 6568SOL     OW31582   2.308   3.585   2.326
 6568SOL    HW131583   2.298   3.641   2.249
 6568SOL    HW231584   2.330   3.645   2.397
 6569SOL     OW31585   1.476   4.629   8.545
 6569SOL    HW131586   1.511   4.542   8.563
 6569SOL    HW231587   1.444   4.660   8.629
 6570SOL     OW31588   1.739   2.190   5.241
 6570SOL    HW131589   1.828   2.203   5.209
 6570SOL    HW231590   1.683   2.235   5.177
 6571SOL     OW31591   1.341   3.474   0.478
 6571SOL    HW131592   1.279   3.403   0.464
 6571SOL    HW231593   1.403   3.440   0.543
 6572SOL     OW31594   2.789   4.188   5.551
 6572SOL    HW131595   2.833   4.111   5.587
 6572SOL    HW231596   2.750   4.157   5.469
 6573SOL     OW31597   1.275   3.235   3.150
 6573SOL    HW131598   1.200   3.176   3.143
 6573SOL    HW231599   1.349   3.177   3.170
 6574SOL     OW31600   1.667   3.056   0.969
 6574SOL    HW131601   1.708   3.028   1.051
 6574SOL    HW231602   1.601   3.121   0.996
 6575SOL     OW31603   3.232   4.322  18.210
 6575SOL    HW131604   3.243   4.272  18.291
 6575SOL    HW231605   3.145   4.360  18.217
 6576SOL     OW31606   3.464   3.649  16.887
 6576SOL    HW131607   3.381   3.604  16.868
 6576SOL    HW231608   3.445   3.702  16.965
 6577SOL     OW31609   4.122   0.968  21.181
 6577SOL    HW131610   4.067   0.978  21.104
 6577SOL    HW231611   4.099   0.882  21.216
 6578SOL     OW31612   2.387   0.438   6.355
 6578SOL    HW131613   2.434   0.495   6.417
 6578SOL    HW231614   2.440   0.358   6.352
 6579SOL     OW31615   2.447   4.291   4.828
 6579SOL    HW131616   2.475   4.283   4.737
 6579SOL    HW231617   2.485   4.373   4.859
 6580SOL     OW31618   4.453   0.267  17.729
 6580SOL    HW131619   4.520   0.202  17.749
 6580SOL    HW231620   4.390   0.261  17.801
 6581SOL     OW31621   1.860   0.225  20.046
 6581SOL    HW131622   1.891   0.165  20.113
 6581SOL    HW231623   1.810   0.292  20.094
 6582SOL     OW31624   3.443   2.733   2.147
 6582SOL    HW131625   3.524   2.778   2.122
 6582SOL    HW231626   3.383   2.804   2.172
 6583SOL     OW31627   1.649   2.366   5.054
 6583SOL    HW131628   1.600   2.371   4.971
 6583SOL    HW231629   1.707   2.442   5.052
 6584SOL     OW31630   2.095   3.408   5.510
 6584SOL    HW131631   2.137   3.422   5.595
 6584SOL    HW231632   2.159   3.358   5.459
 6585SOL     OW31633   0.031   0.604   3.866
 6585SOL    HW131634   4.755   0.559   3.922
 6585SOL    HW231635   4.770   0.623   3.786
 6586SOL     OW31636   1.456   2.609   3.116
 6586SOL    HW131637   1.426   2.519   3.126
 6586SOL    HW231638   1.509   2.608   3.037
 6587SOL     OW31639   4.767   0.295   3.187
 6587SOL    HW131640   0.011   0.278   3.276
 6587SOL    HW231641   4.683   0.250   3.182
 6588SOL     OW31642   4.044   1.701  15.436
 6588SOL    HW131643   4.095   1.729  15.361
 6588SOL    HW231644   3.960   1.747  15.428
 6589SOL     OW31645   4.146   0.085  15.042
 6589SOL    HW131646   4.053   0.068  15.055
 6589SOL    HW231647   4.186   4.785  15.042
 6590SOL     OW31648   1.200   4.564   3.118
 6590SOL    HW131649   1.253   4.537   3.043
 6590SOL    HW231650   1.245   4.527   3.194
 6591SOL     OW31651   0.797   0.254  15.292
 6591SOL    HW131652   0.789   0.162  15.318
 6591SOL    HW231653   0.732   0.299  15.346
 6592SOL     OW31654   1.235   0.580  16.661
 6592SOL    HW131655   1.289   0.589  16.583
 6592SOL    HW231656   1.211   0.669  16.685
 6593SOL     OW31657   3.525   2.273  14.311
 6593SOL    HW131658   3.527   2.272  14.216
 6593SOL    HW231659   3.453   2.215  14.335
 6594SOL     OW31660   0.927   2.128   0.155
 6594SOL    HW131661   0.900   2.071   0.083
 6594SOL    HW231662   0.959   2.069   0.223
 6595SOL     OW31663   3.456   0.726  18.452
 6595SOL    HW131664   3.524   0.703  18.517
 6595SOL    HW231665   3.447   0.648  18.398
 6596SOL     OW31666   0.599   1.529   1.657
 6596SOL    HW131667   0.517   1.488   1.685
 6596SOL    HW231668   0.574   1.586   1.585
 6597SOL     OW31669   1.834   2.909  21.237
 6597SOL    HW131670   1.819   2.853   0.065
 6597SOL    HW231671   1.768   2.978  21.245
 6598SOL     OW31672   3.204   2.179   3.816
 6598SOL    HW131673   3.151   2.205   3.740
 6598SOL    HW231674   3.168   2.095   3.844
 6599SOL     OW31675   1.160   2.665   0.431
 6599SOL    HW131676   1.160   2.672   0.335
 6599SOL    HW231677   1.196   2.749   0.461
 6600SOL     OW31678   3.089   0.601   0.165
 6600SOL    HW131679   3.157   0.642   0.112
 6600SOL    HW231680   3.039   0.674   0.201
 6601SOL     OW31681   2.009   0.705  17.805
 6601SOL    HW131682   1.999   0.795  17.774
 6601SOL    HW231683   1.935   0.691  17.863
 6602SOL     OW31684   2.814   3.361   3.766
 6602SOL    HW131685   2.756   3.309   3.821
 6602SOL    HW231686   2.783   3.344   3.677
 6603SOL     OW31687   2.132   0.214  20.250
 6603SOL    HW131688   2.153   0.128  20.215
 6603SOL    HW231689   2.148   0.208  20.344
 6604SOL     OW31690   2.398   0.796   6.221
 6604SOL    HW131691   2.437   0.767   6.303
 6604SOL    HW231692   2.353   0.719   6.187
 6605SOL     OW31693   0.558   0.872  16.210
 6605SOL    HW131694   0.495   0.868  16.137
 6605SOL    HW231695   0.509   0.911  16.282
 6606SOL     OW31696   0.805   0.551  17.662
 6606SOL    HW131697   0.752   0.531  17.740
 6606SOL    HW231698   0.827   0.465  17.626
 6607SOL     OW31699   2.642   1.260  16.528
 6607SOL    HW131700   2.714   1.246  16.590
 6607SOL    HW231701   2.640   1.180  16.475
 6608SOL     OW31702   4.392   3.886   2.118
 6608SOL    HW131703   4.396   3.971   2.161
 6608SOL    HW231704   4.483   3.856   2.112
 6609SOL     OW31705   0.850   1.485   4.765
 6609SOL    HW131706   0.940   1.469   4.794
 6609SOL    HW231707   0.796   1.467   4.842
 6610SOL     OW31708   0.660   4.765   0.416
 6610SOL    HW131709   0.693   0.041   0.352
 6610SOL    HW231710   0.728   4.698   0.420
 6611SOL     OW31711   3.730   3.533   0.214
 6611SOL    HW131712   3.756   3.449   0.175
 6611SOL    HW231713   3.789   3.597   0.175
 6612SOL     OW31714   0.301   0.298  13.684
 6612SOL    HW131715   0.257   0.375  13.648
 6612SOL    HW231716   0.374   0.333  13.735
 6613SOL     OW31717   1.826   0.007  15.313
 6613SOL    HW131718   1.901   0.035  15.260
 6613SOL    HW231719   1.754   4.785  15.250
 6614SOL     OW31720   0.388   2.492   2.312
 6614SOL    HW131721   0.316   2.458   2.260
 6614SOL    HW231722   0.395   2.584   2.285
 6615SOL     OW31723   2.545   3.462  18.165
 6615SOL    HW131724   2.509   3.479  18.252
 6615SOL    HW231725   2.637   3.441  18.180
 6616SOL     OW31726   3.340   1.288   0.455
 6616SOL    HW131727   3.261   1.317   0.408
 6616SOL    HW231728   3.387   1.234   0.391
 6617SOL     OW31729   0.202   0.254  19.818
 6617SOL    HW131730   0.257   0.328  19.791
 6617SOL    HW231731   0.208   0.192  19.746
 6618SOL     OW31732   3.238   4.093  13.307
 6618SOL    HW131733   3.188   4.137  13.376
 6618SOL    HW231734   3.299   4.161  13.275
 6619SOL     OW31735   1.472   3.217   1.032
 6619SOL    HW131736   1.381   3.197   1.058
 6619SOL    HW231737   1.487   3.306   1.064
 6620SOL     OW31738   3.646   2.673  20.295
 6620SOL    HW131739   3.738   2.701  20.297
 6620SOL    HW231740   3.608   2.710  20.375
 6621SOL     OW31741   4.633   0.064   2.374
 6621SOL    HW131742   4.723   0.096   2.381
 6621SOL    HW231743   4.587   0.107   2.446
 6622SOL     OW31744   1.805   3.209   3.315
 6622SOL    HW131745   1.720   3.251   3.329
 6622SOL    HW231746   1.792   3.151   3.241
 6623SOL     OW31747   1.155   1.289   7.899
 6623SOL    HW131748   1.215   1.343   7.847
 6623SOL    HW231749   1.129   1.346   7.971
 6624SOL     OW31750   3.051   2.068  13.759
 6624SOL    HW131751   3.145   2.075  13.742
 6624SOL    HW231752   3.025   1.984  13.720
 6625SOL     OW31753   1.135   0.136   1.953
 6625SOL    HW131754   1.088   0.195   1.894
 6625SOL    HW231755   1.069   0.074   1.983
 6626SOL     OW31756   4.665   2.842   1.552
 6626SOL    HW131757   4.743   2.814   1.599
 6626SOL    HW231758   4.597   2.780   1.580
 6627SOL     OW31759   3.500   4.346   1.315
 6627SOL    HW131760   3.503   4.287   1.241
 6627SOL    HW231761   3.445   4.301   1.380
 6628SOL     OW31762   1.024   3.755   6.268
 6628SOL    HW131763   1.104   3.719   6.307
 6628SOL    HW231764   1.051   3.841   6.235
 6629SOL     OW31765   2.780   0.817  12.714
 6629SOL    HW131766   2.785   0.852  12.625
 6629SOL    HW231767   2.802   0.725  12.705
 6630SOL     OW31768   4.662   4.381   3.388
 6630SOL    HW131769   4.574   4.382   3.426
 6630SOL    HW231770   4.713   4.328   3.450
 6631SOL     OW31771   0.382   3.744   5.759
 6631SOL    HW131772   0.477   3.744   5.750
 6631SOL    HW231773   0.360   3.655   5.787
 6632SOL     OW31774   2.292   2.228  14.154
 6632SOL    HW131775   2.273   2.136  14.172
 6632SOL    HW231776   2.344   2.256  14.229
 6633SOL     OW31777   1.945   2.825   3.091
 6633SOL    HW131778   1.987   2.883   3.154
 6633SOL    HW231779   2.013   2.761   3.068
 6634SOL     OW31780   1.243   1.351   4.243
 6634SOL    HW131781   1.148   1.337   4.236
 6634SOL    HW231782   1.281   1.265   4.223
 6635SOL     OW31783   1.539   2.626  15.963
 6635SOL    HW131784   1.605   2.575  15.916
 6635SOL    HW231785   1.486   2.666  15.894
 6636SOL     OW31786   2.781   2.414  19.677
 6636SOL    HW131787   2.775   2.394  19.771
 6636SOL    HW231788   2.861   2.465  19.668
 6637SOL     OW31789   0.142   3.676  15.682
 6637SOL    HW131790   0.189   3.654  15.762
 6637SOL    HW231791   0.159   3.603  15.623
 6638SOL     OW31792   3.820   4.461  15.816
 6638SOL    HW131793   3.754   4.518  15.856
 6638SOL    HW231794   3.899   4.476  15.867
 6639SOL     OW31795   3.469   0.651  15.566
 6639SOL    HW131796   3.502   0.728  15.613
 6639SOL    HW231797   3.512   0.656  15.481
 6640SOL     OW31798   0.341   2.683  17.758
 6640SOL    HW131799   0.338   2.702  17.852
 6640SOL    HW231800   0.413   2.737  17.725
 6641SOL     OW31801   4.485   2.350   0.926
 6641SOL    HW131802   4.394   2.343   0.957
 6641SOL    HW231803   4.504   2.444   0.931
 6642SOL     OW31804   0.000   0.189   2.078
 6642SOL    HW131805   0.023   0.282   2.077
 6642SOL    HW231806   0.055   0.152   2.148
 6643SOL     OW31807   2.389   2.537   4.089
 6643SOL    HW131808   2.381   2.627   4.060
 6643SOL    HW231809   2.482   2.526   4.109
 6644SOL     OW31810   4.010   0.441  18.372
 6644SOL    HW131811   4.085   0.493  18.402
 6644SOL    HW231812   4.038   0.407  18.287
 6645SOL     OW31813   3.746   3.322   4.248
 6645SOL    HW131814   3.683   3.319   4.176
 6645SOL    HW231815   3.691   3.324   4.327
 6646SOL     OW31816   3.628   2.660   5.800
 6646SOL    HW131817   3.689   2.686   5.869
 6646SOL    HW231818   3.669   2.691   5.719
 6647SOL     OW31819   3.074   3.976   1.913
 6647SOL    HW131820   3.123   3.942   1.838
 6647SOL    HW231821   3.141   4.020   1.967
 6648SOL     OW31822   0.863   2.473   5.393
 6648SOL    HW131823   0.832   2.562   5.411
 6648SOL    HW231824   0.952   2.485   5.361
 6649SOL     OW31825   1.449   1.988   1.868
 6649SOL    HW131826   1.414   2.077   1.863
 6649SOL    HW231827   1.379   1.933   1.834
 6650SOL     OW31828   2.349   1.169  16.903
 6650SOL    HW131829   2.352   1.190  16.996
 6650SOL    HW231830   2.330   1.076  16.900
 6651SOL     OW31831   4.443   4.388  17.663
 6651SOL    HW131832   4.386   4.430  17.599
 6651SOL    HW231833   4.445   4.448  17.738
 6652SOL     OW31834   2.764   3.507   4.938
 6652SOL    HW131835   2.757   3.593   4.896
 6652SOL    HW231836   2.748   3.444   4.867
 6653SOL     OW31837   0.067   4.731  20.897
 6653SOL    HW131838   0.078   4.643  20.931
 6653SOL    HW231839   0.076   0.000  20.974
 6654SOL     OW31840   4.579   3.065   0.251
 6654SOL    HW131841   4.627   3.009   0.312
 6654SOL    HW231842   4.547   3.004   0.184
 6655SOL     OW31843   4.279   3.027   2.803
 6655SOL    HW131844   4.253   2.935   2.794
 6655SOL    HW231845   4.358   3.025   2.857
 6656SOL     OW31846   0.802   0.441   4.535
 6656SOL    HW131847   0.879   0.411   4.487
 6656SOL    HW231848   0.775   0.521   4.490
 6657SOL     OW31849   2.023   0.699   8.043
 6657SOL    HW131850   1.994   0.619   7.998
 6657SOL    HW231851   2.014   0.768   7.977
 6658SOL     OW31852   0.460   3.095   5.775
 6658SOL    HW131853   0.497   3.087   5.863
 6658SOL    HW231854   0.471   3.187   5.752
 6659SOL     OW31855   3.900   1.480  20.019
 6659SOL    HW131856   3.829   1.433  20.062
 6659SOL    HW231857   3.963   1.412  19.995
 6660SOL     OW31858   1.567   2.517  17.267
 6660SOL    HW131859   1.552   2.539  17.175
 6660SOL    HW231860   1.648   2.467  17.266
 6661SOL     OW31861   0.687   2.795  15.753
 6661SOL    HW131862   0.740   2.715  15.750
 6661SOL    HW231863   0.692   2.830  15.665
 6662SOL     OW31864   0.262   2.877   4.523
 6662SOL    HW131865   0.216   2.872   4.606
 6662SOL    HW231866   0.286   2.969   4.514
 6663SOL     OW31867   4.205   4.704   6.252
 6663SOL    HW131868   4.145   4.736   6.185
 6663SOL    HW231869   4.287   4.751   6.236
 6664SOL     OW31870   3.100   0.391   3.568
 6664SOL    HW131871   3.032   0.433   3.515
 6664SOL    HW231872   3.055   0.364   3.648
 6665SOL     OW31873   2.481   3.682   3.527
 6665SOL    HW131874   2.470   3.590   3.551
 6665SOL    HW231875   2.408   3.726   3.569
 6666SOL     OW31876   0.434   1.095   1.131
 6666SOL    HW131877   0.406   1.165   1.070
 6666SOL    HW231878   0.523   1.073   1.102
 6667SOL     OW31879   0.950   0.293   3.656
 6667SOL    HW131880   0.951   0.279   3.562
 6667SOL    HW231881   0.872   0.247   3.686
 6668SOL     OW31882   1.952   3.071   3.514
 6668SOL    HW131883   1.978   3.151   3.560
 6668SOL    HW231884   1.884   3.100   3.453
 6669SOL     OW31885   1.843   4.285   6.009
 6669SOL    HW131886   1.876   4.310   6.095
 6669SOL    HW231887   1.812   4.368   5.970
 6670SOL     OW31888   2.395   3.260  18.494
 6670SOL    HW131889   2.347   3.330  18.538
 6670SOL    HW231890   2.344   3.242  18.415
 6671SOL     OW31891   1.426   0.379  17.588
 6671SOL    HW131892   1.435   0.429  17.669
 6671SOL    HW231893   1.424   0.445  17.519
 6672SOL     OW31894   3.544   2.704  13.512
 6672SOL    HW131895   3.470   2.655  13.549
 6672SOL    HW231896   3.520   2.720  13.421
 6673SOL     OW31897   2.933   3.067   1.063
 6673SOL    HW131898   2.977   3.025   0.989
 6673SOL    HW231899   2.948   3.008   1.136
 6674SOL     OW31900   0.729   3.188   3.559
 6674SOL    HW131901   0.814   3.145   3.544
 6674SOL    HW231902   0.679   3.124   3.609
 6675SOL     OW31903   2.048   2.180   5.666
 6675SOL    HW131904   2.003   2.155   5.747
 6675SOL    HW231905   1.980   2.222   5.613
 6676SOL     OW31906   2.097   3.591   6.396
 6676SOL    HW131907   2.127   3.569   6.484
 6676SOL    HW231908   2.162   3.653   6.363
 6677SOL     OW31909   1.750   4.681   3.786
 6677SOL    HW131910   1.827   4.656   3.837
 6677SOL    HW231911   1.779   4.756   3.734
 6678SOL     OW31912   3.827   3.442   5.189
 6678SOL    HW131913   3.862   3.503   5.124
 6678SOL    HW231914   3.899   3.429   5.251
 6679SOL     OW31915   1.675   3.197  16.517
 6679SOL    HW131916   1.719   3.268  16.471
 6679SOL    HW231917   1.633   3.145  16.448
 6680SOL     OW31918   1.901   1.500   1.626
 6680SOL    HW131919   1.836   1.530   1.689
 6680SOL    HW231920   1.972   1.464   1.679
 6681SOL     OW31921   0.857   2.439  17.488
 6681SOL    HW131922   0.852   2.458  17.582
 6681SOL    HW231923   0.856   2.343  17.483
 6682SOL     OW31924   1.493   3.519  20.541
 6682SOL    HW131925   1.429   3.477  20.597
 6682SOL    HW231926   1.544   3.574  20.600
 6683SOL     OW31927   2.890   0.994   1.929
 6683SOL    HW131928   2.904   0.944   1.848
 6683SOL    HW231929   2.963   1.056   1.932
 6684SOL     OW31930   3.633   1.182   4.386
 6684SOL    HW131931   3.590   1.264   4.408
 6684SOL    HW231932   3.574   1.139   4.324
 6685SOL     OW31933   0.193   1.695  18.358
 6685SOL    HW131934   0.217   1.620  18.304
 6685SOL    HW231935   0.109   1.671  18.398
 6686SOL     OW31936   0.228   4.735  17.418
 6686SOL    HW131937   0.277   4.703  17.492
 6686SOL    HW231938   0.151   4.679  17.413
 6687SOL     OW31939   4.701   1.146  21.068
 6687SOL    HW131940   4.739   1.219  21.018
 6687SOL    HW231941   4.607   1.155  21.055
 6688SOL     OW31942   2.239   3.332  16.309
 6688SOL    HW131943   2.157   3.352  16.263
 6688SOL    HW231944   2.303   3.321  16.238
 6689SOL     OW31945   3.190   2.700  16.009
 6689SOL    HW131946   3.216   2.791  15.996
 6689SOL    HW231947   3.256   2.665  16.068
 6690SOL     OW31948   1.151   2.899  16.999
 6690SOL    HW131949   1.222   2.894  17.064
 6690SOL    HW231950   1.195   2.893  16.915
 6691SOL     OW31951   2.578   0.865  14.212
 6691SOL    HW131952   2.581   0.842  14.305
 6691SOL    HW231953   2.492   0.834  14.182
 6692SOL     OW31954   0.887   1.726  19.805
 6692SOL    HW131955   0.799   1.719  19.842
 6692SOL    HW231956   0.901   1.641  19.762
 6693SOL     OW31957   2.329   2.440   6.009
 6693SOL    HW131958   2.243   2.398   6.001
 6693SOL    HW231959   2.310   2.529   6.037
 6694SOL     OW31960   1.186   1.745  15.496
 6694SOL    HW131961   1.132   1.756  15.575
 6694SOL    HW231962   1.128   1.772  15.425
 6695SOL     OW31963   3.692   3.787   5.522
 6695SOL    HW131964   3.649   3.791   5.436
 6695SOL    HW231965   3.666   3.869   5.565
 6696SOL     OW31966   3.697   4.742   2.245
 6696SOL    HW131967   3.763   4.674   2.258
 6696SOL    HW231968   3.632   4.727   2.314
 6697SOL     OW31969   1.803   1.031   4.889
 6697SOL    HW131970   1.785   1.019   4.983
 6697SOL    HW231971   1.719   1.060   4.853
 6698SOL     OW31972   3.529   4.772  14.624
 6698SOL    HW131973   3.588   0.055  14.651
 6698SOL    HW231974   3.544   4.763  14.530
 6699SOL     OW31975   0.025   0.658   1.343
 6699SOL    HW131976   0.036   0.753   1.351
 6699SOL    HW231977   0.094   0.631   1.283
 6700SOL     OW31978   0.932   2.345   4.150
 6700SOL    HW131979   0.939   2.399   4.071
 6700SOL    HW231980   0.997   2.383   4.210
 6701SOL     OW31981   2.250   1.237   6.633
 6701SOL    HW131982   2.219   1.288   6.708
 6701SOL    HW231983   2.257   1.301   6.562
 6702SOL     OW31984   2.498   2.226   8.726
 6702SOL    HW131985   2.416   2.200   8.682
 6702SOL    HW231986   2.473   2.298   8.783
 6703SOL     OW31987   2.677   0.531  14.420
 6703SOL    HW131988   2.741   0.488  14.476
 6703SOL    HW231989   2.641   0.602  14.473
 6704SOL     OW31990   3.985   1.097  17.775
 6704SOL    HW131991   3.958   1.135  17.858
 6704SOL    HW231992   3.997   1.172  17.717
 6705SOL     OW31993   0.532   3.893  17.295
 6705SOL    HW131994   0.583   3.821  17.258
 6705SOL    HW231995   0.560   3.898  17.386
 6706SOL     OW31996   0.352   1.077   0.532
 6706SOL    HW131997   0.341   1.031   0.615
 6706SOL    HW231998   0.270   1.066   0.485
 6707SOL     OW31999   0.254   1.447  21.245
 6707SOL    HW132000   0.228   1.382   0.062
 6707SOL    HW232001   0.338   1.415  21.212
 6708SOL     OW32002   4.372   2.391   0.345
 6708SOL    HW132003   4.433   2.444   0.295
 6708SOL    HW232004   4.402   2.397   0.435
 6709SOL     OW32005   1.560   2.314   5.756
 6709SOL    HW132006   1.487   2.301   5.816
 6709SOL    HW232007   1.543   2.253   5.684
 6710SOL     OW32008   1.876   2.607   7.273
 6710SOL    HW132009   1.812   2.637   7.338
 6710SOL    HW232010   1.846   2.520   7.248
 6711SOL     OW32011   1.837   0.999  16.137
 6711SOL    HW132012   1.866   1.090  16.140
 6711SOL    HW232013   1.906   0.950  16.183
 6712SOL     OW32014   4.178   1.476   3.226
 6712SOL    HW132015   4.239   1.535   3.181
 6712SOL    HW232016   4.194   1.493   3.319
 6713SOL     OW32017   0.977   3.541   3.993
 6713SOL    HW132018   1.068   3.566   4.008
 6713SOL    HW232019   0.981   3.447   3.975
 6714SOL     OW32020   3.326   2.412   1.381
 6714SOL    HW132021   3.255   2.413   1.445
 6714SOL    HW232022   3.405   2.401   1.433
 6715SOL     OW32023   0.865   2.551   4.526
 6715SOL    HW132024   0.852   2.588   4.613
 6715SOL    HW232025   0.788   2.495   4.511
 6716SOL     OW32026   3.582   1.389   2.679
 6716SOL    HW132027   3.590   1.321   2.745
 6716SOL    HW232028   3.488   1.405   2.671
 6717SOL     OW32029   2.229   3.697   3.105
 6717SOL    HW132030   2.228   3.601   3.110
 6717SOL    HW232031   2.146   3.723   3.144
 6718SOL     OW32032   0.312   3.986  12.904
 6718SOL    HW132033   0.266   4.040  12.967
 6718SOL    HW232034   0.303   3.897  12.937
 6719SOL     OW32035   0.634   4.404   7.373
 6719SOL    HW132036   0.595   4.448   7.298
 6719SOL    HW232037   0.629   4.467   7.444
 6720SOL     OW32038   1.001   0.363   1.842
 6720SOL    HW132039   1.012   0.415   1.921
 6720SOL    HW232040   0.908   0.339   1.842
 6721SOL     OW32041   3.139   2.160   2.600
 6721SOL    HW132042   3.175   2.221   2.535
 6721SOL    HW232043   3.211   2.099   2.618
 6722SOL     OW32044   4.456   1.430   8.566
 6722SOL    HW132045   4.471   1.450   8.658
 6722SOL    HW232046   4.392   1.359   8.568
 6723SOL     OW32047   0.477   2.323  18.051
 6723SOL    HW132048   0.475   2.242  18.101
 6723SOL    HW232049   0.409   2.311  17.984
 6724SOL     OW32050   0.923   0.054  21.241
 6724SOL    HW132051   0.911   4.748   0.009
 6724SOL    HW232052   0.998   0.059  21.181
 6725SOL     OW32053   1.170   0.309   0.085
 6725SOL    HW132054   1.109   0.323   0.012
 6725SOL    HW232055   1.199   0.218   0.074
 6726SOL     OW32056   0.100   0.490  18.282
 6726SOL    HW132057   0.024   0.545  18.298
 6726SOL    HW232058   0.174   0.538  18.320
 6727SOL     OW32059   2.165   4.773  17.051
 6727SOL    HW132060   2.117   4.694  17.029
 6727SOL    HW232061   2.253   4.743  17.072
 6728SOL     OW32062   2.438   2.379   0.880
 6728SOL    HW132063   2.522   2.415   0.907
 6728SOL    HW232064   2.430   2.402   0.788
 6729SOL     OW32065   2.263   2.566  13.568
 6729SOL    HW132066   2.202   2.625  13.612
 6729SOL    HW232067   2.283   2.499  13.633
 6730SOL     OW32068   1.779   4.126   5.547
 6730SOL    HW132069   1.835   4.201   5.565
 6730SOL    HW232070   1.795   4.066   5.620
 6731SOL     OW32071   1.468   1.162   3.150
 6731SOL    HW132072   1.487   1.181   3.242
 6731SOL    HW232073   1.504   1.074   3.136
 6732SOL     OW32074   0.028   3.977  19.056
 6732SOL    HW132075   0.051   3.902  19.001
 6732SOL    HW232076   4.756   3.941  19.122
 6733SOL     OW32077   2.206   0.835   2.930
 6733SOL    HW132078   2.140   0.874   2.873
 6733SOL    HW232079   2.209   0.891   3.007
 6734SOL     OW32080   3.507   0.290  14.518
 6734SOL    HW132081   3.508   0.268  14.425
 6734SOL    HW232082   3.563   0.367  14.525
 6735SOL     OW32083   3.305   0.321   5.623
 6735SOL    HW132084   3.292   0.226   5.620
 6735SOL    HW232085   3.392   0.335   5.587
 6736SOL     OW32086   4.217   0.587   6.314
 6736SOL    HW132087   4.190   0.498   6.291
 6736SOL    HW232088   4.291   0.576   6.374
 6737SOL     OW32089   2.936   3.307  16.336
 6737SOL    HW132090   2.860   3.353  16.302
 6737SOL    HW232091   2.909   3.216  16.340
 6738SOL     OW32092   0.979   0.042   4.667
 6738SOL    HW132093   0.991   4.738   4.693
 6738SOL    HW232094   1.054   0.061   4.611
 6739SOL     OW32095   3.888   4.074   2.304
 6739SOL    HW132096   3.797   4.062   2.278
 6739SOL    HW232097   3.923   4.136   2.240
 6740SOL     OW32098   2.116   4.557   2.047
 6740SOL    HW132099   2.184   4.490   2.058
 6740SOL    HW232100   2.040   4.521   2.092
 6741SOL     OW32101   2.958   2.527  20.396
 6741SOL    HW132102   2.913   2.455  20.441
 6741SOL    HW232103   2.887   2.584  20.367
 6742SOL     OW32104   4.528   2.386  15.476
 6742SOL    HW132105   4.607   2.439  15.466
 6742SOL    HW232106   4.475   2.408  15.399
 6743SOL     OW32107   2.765   2.105   4.991
 6743SOL    HW132108   2.780   2.133   4.901
 6743SOL    HW232109   2.689   2.157   5.019
 6744SOL     OW32110   2.922   0.272   3.289
 6744SOL    HW132111   2.984   0.333   3.248
 6744SOL    HW232112   2.872   0.326   3.350
 6745SOL     OW32113   1.603   1.171  17.863
 6745SOL    HW132114   1.586   1.077  17.870
 6745SOL    HW232115   1.551   1.211  17.934
 6746SOL     OW32116   4.412   1.491   1.078
 6746SOL    HW132117   4.462   1.455   1.005
 6746SOL    HW232118   4.322   1.495   1.046
 6747SOL     OW32119   0.989   1.036   3.366
 6747SOL    HW132120   0.979   1.014   3.274
 6747SOL    HW232121   0.927   0.979   3.411
 6748SOL     OW32122   1.479   1.995  19.434
 6748SOL    HW132123   1.434   1.911  19.423
 6748SOL    HW232124   1.538   2.001  19.358
 6749SOL     OW32125   0.539   2.748  16.476
 6749SOL    HW132126   0.492   2.735  16.394
 6749SOL    HW232127   0.605   2.814  16.456
 6750SOL     OW32128   1.367   1.778  21.009
 6750SOL    HW132129   1.427   1.804  20.939
 6750SOL    HW232130   1.414   1.709  21.056
 6751SOL     OW32131   3.656   4.209  15.783
 6751SOL    HW132132   3.718   4.165  15.842
 6751SOL    HW232133   3.681   4.302  15.787
 6752SOL     OW32134   1.551   4.445  17.449
 6752SOL    HW132135   1.501   4.526  17.461
 6752SOL    HW232136   1.642   4.471  17.463
 6753SOL     OW32137   2.489   4.016  18.482
 6753SOL    HW132138   2.527   4.095  18.443
 6753SOL    HW232139   2.451   4.045  18.565
 6754SOL     OW32140   3.568   0.179   0.042
 6754SOL    HW132141   3.637   0.114   0.026
 6754SOL    HW232142   3.601   0.259   0.001
 6755SOL     OW32143   2.274   3.366   8.942
 6755SOL    HW132144   2.325   3.411   9.009
 6755SOL    HW232145   2.184   3.395   8.956
 6756SOL     OW32146   3.895   4.347  16.980
 6756SOL    HW132147   3.968   4.331  16.921
 6756SOL    HW232148   3.870   4.438  16.963
 6757SOL     OW32149   4.343   1.335  19.928
 6757SOL    HW132150   4.346   1.430  19.913
 6757SOL    HW232151   4.433   1.305  19.915
 6758SOL     OW32152   2.212   4.410   2.653
 6758SOL    HW132153   2.253   4.328   2.679
 6758SOL    HW232154   2.132   4.414   2.705
 6759SOL     OW32155   2.375   1.802   0.505
 6759SOL    HW132156   2.307   1.736   0.496
 6759SOL    HW232157   2.388   1.811   0.599
 6760SOL     OW32158   3.120   2.939  20.336
 6760SOL    HW132159   3.049   2.999  20.358
 6760SOL    HW232160   3.141   2.960  20.245
 6761SOL     OW32161   1.759   1.380  15.784
 6761SOL    HW132162   1.833   1.402  15.727
 6761SOL    HW232163   1.788   1.302  15.832
 6762SOL     OW32164   0.793   0.029  16.886
 6762SOL    HW132165   0.752   0.109  16.854
 6762SOL    HW232166   0.786   4.756  16.813
 6763SOL     OW32167   0.378   4.494  20.120
 6763SOL    HW132168   0.334   4.538  20.193
 6763SOL    HW232169   0.322   4.511  20.044
 6764SOL     OW32170   1.410   3.985  17.587
 6764SOL    HW132171   1.439   3.996  17.678
 6764SOL    HW232172   1.339   4.049  17.577
 6765SOL     OW32173   2.847   2.314  19.382
 6765SOL    HW132174   2.803   2.229  19.381
 6765SOL    HW232175   2.828   2.350  19.469
 6766SOL     OW32176   0.493   2.300  15.910
 6766SOL    HW132177   0.571   2.327  15.862
 6766SOL    HW232178   0.513   2.212  15.940
 6767SOL     OW32179   1.747   1.360   1.830
 6767SOL    HW132180   1.664   1.387   1.789
 6767SOL    HW232181   1.761   1.271   1.799
 6768SOL     OW32182   3.736   1.301  20.133
 6768SOL    HW132183   3.808   1.248  20.169
 6768SOL    HW232184   3.687   1.241  20.078
 6769SOL     OW32185   4.279   1.263  20.379
 6769SOL    HW132186   4.297   1.185  20.431
 6769SOL    HW232187   4.298   1.237  20.289
 6770SOL     OW32188   0.920   0.437  11.606
 6770SOL    HW132189   0.954   0.349  11.617
 6770SOL    HW232190   0.862   0.431  11.531
 6771SOL     OW32191   3.590   0.924  14.407
 6771SOL    HW132192   3.603   0.918  14.502
 6771SOL    HW232193   3.678   0.931  14.371
 6772SOL     OW32194   0.527   3.393   5.617
 6772SOL    HW132195   0.542   3.458   5.549
 6772SOL    HW232196   0.440   3.414   5.652
 6773SOL     OW32197   3.542   0.325  16.756
 6773SOL    HW132198   3.532   0.392  16.824
 6773SOL    HW232199   3.637   0.318  16.743
 6774SOL     OW32200   0.346   4.168  18.909
 6774SOL    HW132201   0.258   4.204  18.922
 6774SOL    HW232202   0.370   4.195  18.820
 6775SOL     OW32203   2.968   2.976  18.460
 6775SOL    HW132204   2.947   2.965  18.367
 6775SOL    HW232205   2.900   2.926  18.505
 6776SOL     OW32206   0.580   2.192  17.690
 6776SOL    HW132207   0.637   2.244  17.747
 6776SOL    HW232208   0.507   2.251  17.669
 6777SOL     OW32209   4.057   1.540   8.607
 6777SOL    HW132210   4.105   1.548   8.525
 6777SOL    HW232211   4.122   1.509   8.670
 6778SOL     OW32212   1.701   4.015   4.034
 6778SOL    HW132213   1.622   4.008   4.087
 6778SOL    HW232214   1.680   4.079   3.967
 6779SOL     OW32215   0.177   2.822   1.018
 6779SOL    HW132216   0.170   2.917   1.020
 6779SOL    HW232217   0.271   2.805   1.013
 6780SOL     OW32218   4.505   3.062   5.305
 6780SOL    HW132219   4.584   3.067   5.359
 6780SOL    HW232220   4.514   2.980   5.257
 6781SOL     OW32221   3.769   0.468  18.524
 6781SOL    HW132222   3.835   0.491  18.459
 6781SOL    HW232223   3.794   0.381  18.555
 6782SOL     OW32224   0.552   0.808   1.558
 6782SOL    HW132225   0.572   0.861   1.636
 6782SOL    HW232226   0.477   0.852   1.518
 6783SOL     OW32227   0.406   1.476  15.574
 6783SOL    HW132228   0.498   1.458  15.555
 6783SOL    HW232229   0.392   1.438  15.661
 6784SOL     OW32230   1.515   1.604  17.401
 6784SOL    HW132231   1.454   1.676  17.385
 6784SOL    HW232232   1.492   1.571  17.488
 6785SOL     OW32233   2.464   0.870   1.457
 6785SOL    HW132234   2.492   0.799   1.515
 6785SOL    HW232235   2.393   0.913   1.505
 6786SOL     OW32236   4.086   3.259  17.771
 6786SOL    HW132237   4.161   3.316  17.756
 6786SOL    HW232238   4.024   3.281  17.701
 6787SOL     OW32239   4.108   3.323  19.089
 6787SOL    HW132240   4.043   3.389  19.068
 6787SOL    HW232241   4.068   3.271  19.159
 6788SOL     OW32242   3.908   0.206   7.833
 6788SOL    HW132243   3.826   0.157   7.834
 6788SOL    HW232244   3.958   0.168   7.761
 6789SOL     OW32245   2.960   2.564   1.330
 6789SOL    HW132246   2.974   2.483   1.280
 6789SOL    HW232247   3.048   2.598   1.345
 6790SOL     OW32248   2.991   0.247  17.616
 6790SOL    HW132249   3.024   0.302  17.687
 6790SOL    HW232250   2.896   0.261  17.617
 6791SOL     OW32251   2.918   4.614   5.959
 6791SOL    HW132252   2.977   4.630   6.032
 6791SOL    HW232253   2.868   4.536   5.983
 6792SOL     OW32254   4.189   2.212   6.839
 6792SOL    HW132255   4.100   2.189   6.812
 6792SOL    HW232256   4.243   2.140   6.807
 6793SOL     OW32257   2.516   3.530   5.517
 6793SOL    HW132258   2.503   3.625   5.512
 6793SOL    HW232259   2.446   3.500   5.576
 6794SOL     OW32260   2.064   4.274  17.227
 6794SOL    HW132261   2.027   4.280  17.315
 6794SOL    HW232262   2.152   4.309  17.236
 6795SOL     OW32263   2.891   4.338  12.872
 6795SOL    HW132264   2.959   4.403  12.854
 6795SOL    HW232265   2.812   4.375  12.831
 6796SOL     OW32266   0.516   4.512   3.462
 6796SOL    HW132267   0.522   4.566   3.384
 6796SOL    HW232268   0.567   4.559   3.528
 6797SOL     OW32269   2.077   0.022  18.936
 6797SOL    HW132270   2.034   4.725  18.931
 6797SOL    HW232271   2.156   0.013  18.883
 6798SOL     OW32272   4.145   0.297   1.642
 6798SOL    HW132273   4.156   0.387   1.672
 6798SOL    HW232274   4.054   0.293   1.611
 6799SOL     OW32275   0.708   3.093   1.229
 6799SOL    HW132276   0.633   3.150   1.245
 6799SOL    HW232277   0.769   3.114   1.300
 6800SOL     OW32278   2.218   0.465  18.364
 6800SOL    HW132279   2.140   0.479  18.418
 6800SOL    HW232280   2.291   0.481  18.424
 6801SOL     OW32281   4.112   4.098  20.847
 6801SOL    HW132282   4.029   4.092  20.800
 6801SOL    HW232283   4.166   4.156  20.793
 6802SOL     OW32284   4.676   2.357  20.982
 6802SOL    HW132285   4.749   2.409  20.949
 6802SOL    HW232286   4.701   2.336  21.073
 6803SOL     OW32287   4.704   2.270  15.157
 6803SOL    HW132288   4.664   2.351  15.126
 6803SOL    HW232289   4.764   2.298  15.227
 6804SOL     OW32290   1.490   4.594  13.109
 6804SOL    HW132291   1.561   4.546  13.066
 6804SOL    HW232292   1.481   4.675  13.059
 6805SOL     OW32293   2.827   1.117  16.759
 6805SOL    HW132294   2.777   1.066  16.823
 6805SOL    HW232295   2.852   1.053  16.692
 6806SOL     OW32296   1.711   4.563   0.895
 6806SOL    HW132297   1.752   4.642   0.858
 6806SOL    HW232298   1.707   4.580   0.989
 6807SOL     OW32299   3.025   1.711  15.858
 6807SOL    HW132300   2.985   1.796  15.878
 6807SOL    HW232301   2.979   1.649  15.915
 6808SOL     OW32302   2.083   2.491   1.422
 6808SOL    HW132303   2.095   2.456   1.511
 6808SOL    HW232304   2.116   2.422   1.364
 6809SOL     OW32305   4.431   1.491   3.881
 6809SOL    HW132306   4.357   1.443   3.917
 6809SOL    HW232307   4.439   1.568   3.938
 6810SOL     OW32308   1.430   3.298   4.154
 6810SOL    HW132309   1.421   3.210   4.118
 6810SOL    HW232310   1.348   3.314   4.200
 6811SOL     OW32311   3.902   3.164   6.171
 6811SOL    HW132312   3.821   3.152   6.220
 6811SOL    HW232313   3.970   3.174   6.238
 6812SOL     OW32314   3.206   2.799   2.375
 6812SOL    HW132315   3.142   2.870   2.369
 6812SOL    HW232316   3.152   2.720   2.382
 6813SOL     OW32317   2.338   0.055   5.068
 6813SOL    HW132318   2.286   4.783   5.123
 6813SOL    HW232319   2.393   4.784   5.016
 6814SOL     OW32320   2.441   0.169   6.516
 6814SOL    HW132321   2.481   0.152   6.431
 6814SOL    HW232322   2.507   0.218   6.565
 6815SOL     OW32323   4.338   2.382  17.290
 6815SOL    HW132324   4.354   2.441  17.364
 6815SOL    HW232325   4.423   2.375  17.247
 6816SOL     OW32326   3.629   2.708  21.093
 6816SOL    HW132327   3.625   2.612  21.093
 6816SOL    HW232328   3.559   2.735  21.034
 6817SOL     OW32329   3.969   0.085   0.970
 6817SOL    HW132330   4.051   0.082   1.019
 6817SOL    HW232331   3.995   0.069   0.879
 6818SOL     OW32332   1.915   3.472   5.313
 6818SOL    HW132333   1.978   3.456   5.382
 6818SOL    HW232334   1.953   3.431   5.235
 6819SOL     OW32335   1.529   0.802   8.026
 6819SOL    HW132336   1.598   0.864   8.003
 6819SOL    HW232337   1.473   0.799   7.949
 6820SOL     OW32338   2.999   2.239  18.365
 6820SOL    HW132339   2.909   2.246  18.334
 6820SOL    HW232340   2.993   2.178  18.440
 6821SOL     OW32341   0.671   3.676  20.707
 6821SOL    HW132342   0.737   3.659  20.773
 6821SOL    HW232343   0.705   3.636  20.627
 6822SOL     OW32344   0.998   0.919  12.595
 6822SOL    HW132345   1.039   0.979  12.658
 6822SOL    HW232346   0.982   0.839  12.645
 6823SOL     OW32347   2.463   4.088  13.946
 6823SOL    HW132348   2.423   4.135  14.019
 6823SOL    HW232349   2.506   4.012  13.986
 6824SOL     OW32350   1.763   3.711   4.040
 6824SOL    HW132351   1.748   3.805   4.055
 6824SOL    HW232352   1.812   3.708   3.958
 6825SOL     OW32353   1.028   0.353  21.114
 6825SOL    HW132354   0.963   0.297  21.073
 6825SOL    HW232355   0.986   0.439  21.118
 6826SOL     OW32356   2.225   4.361   0.392
 6826SOL    HW132357   2.310   4.317   0.394
 6826SOL    HW232358   2.237   4.438   0.448
 6827SOL     OW32359   0.499   0.912   2.903
 6827SOL    HW132360   0.461   0.967   2.834
 6827SOL    HW232361   0.584   0.952   2.922
 6828SOL     OW32362   0.446   3.036   4.208
 6828SOL    HW132363   0.372   3.097   4.206
 6828SOL    HW232364   0.412   2.955   4.171
 6829SOL     OW32365   2.665   3.969   4.979
 6829SOL    HW132366   2.591   4.011   5.023
 6829SOL    HW232367   2.685   3.893   5.033
 6830SOL     OW32368   2.827   3.649   3.789
 6830SOL    HW132369   2.777   3.685   3.716
 6830SOL    HW232370   2.856   3.563   3.759
 6831SOL     OW32371   0.405   4.763  15.268
 6831SOL    HW132372   0.361   0.056  15.242
 6831SOL    HW232373   0.384   4.753  15.361
 6832SOL     OW32374   3.917   1.782   0.879
 6832SOL    HW132375   3.900   1.762   0.971
 6832SOL    HW232376   3.851   1.846   0.855
 6833SOL     OW32377   1.261   3.249  18.027
 6833SOL    HW132378   1.282   3.156  18.027
 6833SOL    HW232379   1.270   3.275  17.935
 6834SOL     OW32380   1.977   0.308   0.872
 6834SOL    HW132381   1.902   0.331   0.926
 6834SOL    HW232382   2.029   0.250   0.927
 6835SOL     OW32383   3.118   1.939  19.061
 6835SOL    HW132384   3.135   1.897  19.145
 6835SOL    HW232385   3.083   2.025  19.083
 6836SOL     OW32386   0.791   2.346  19.518
 6836SOL    HW132387   0.842   2.277  19.561
 6836SOL    HW232388   0.857   2.404  19.481
 6837SOL     OW32389   0.567   2.570   5.547
 6837SOL    HW132390   0.517   2.599   5.623
 6837SOL    HW232391   0.648   2.622   5.551
 6838SOL     OW32392   0.471   3.720   2.105
 6838SOL    HW132393   0.411   3.781   2.063
 6838SOL    HW232394   0.467   3.641   2.051
 6839SOL     OW32395   2.362   3.891   4.931
 6839SOL    HW132396   2.316   3.893   4.848
 6839SOL    HW232397   2.373   3.797   4.950
 6840SOL     OW32398   2.677   1.386   0.245
 6840SOL    HW132399   2.634   1.469   0.265
 6840SOL    HW232400   2.623   1.347   0.177
 6841SOL     OW32401   3.412   1.621  20.485
 6841SOL    HW132402   3.485   1.574  20.446
 6841SOL    HW232403   3.449   1.704  20.514
 6842SOL     OW32404   4.057   1.348   6.000
 6842SOL    HW132405   4.146   1.311   6.004
 6842SOL    HW232406   4.071   1.443   6.003
 6843SOL     OW32407   1.005   4.206   2.839
 6843SOL    HW132408   0.974   4.115   2.845
 6843SOL    HW232409   1.083   4.201   2.784
 6844SOL     OW32410   4.236   4.068   4.808
 6844SOL    HW132411   4.187   4.020   4.741
 6844SOL    HW232412   4.327   4.042   4.794
 6845SOL     OW32413   1.141   0.205  18.197
 6845SOL    HW132414   1.124   0.262  18.272
 6845SOL    HW232415   1.215   0.151  18.224
 6846SOL     OW32416   3.465   0.726  19.594
 6846SOL    HW132417   3.377   0.763  19.606
 6846SOL    HW232418   3.474   0.716  19.500
 6847SOL     OW32419   1.088   0.880  17.040
 6847SOL    HW132420   1.146   0.928  16.981
 6847SOL    HW232421   1.001   0.914  17.021
 6848SOL     OW32422   4.442   1.674   1.270
 6848SOL    HW132423   4.366   1.694   1.325
 6848SOL    HW232424   4.419   1.591   1.228
 6849SOL     OW32425   0.835   4.554   5.100
 6849SOL    HW132426   0.930   4.565   5.106
 6849SOL    HW232427   0.802   4.641   5.076
 6850SOL     OW32428   2.256   0.318   5.018
 6850SOL    HW132429   2.208   0.310   4.936
 6850SOL    HW232430   2.275   0.228   5.044
 6851SOL     OW32431   0.091   2.435  18.088
 6851SOL    HW132432   0.166   2.441  18.029
 6851SOL    HW232433   0.128   2.445  18.176
 6852SOL     OW32434   2.451   3.690   4.653
 6852SOL    HW132435   2.444   3.597   4.675
 6852SOL    HW232436   2.371   3.729   4.690
 6853SOL     OW32437   3.493   0.802   2.776
 6853SOL    HW132438   3.527   0.757   2.853
 6853SOL    HW232439   3.562   0.865   2.753
 6854SOL     OW32440   3.033   1.455  16.501
 6854SOL    HW132441   3.006   1.386  16.440
 6854SOL    HW232442   3.049   1.409  16.583
 6855SOL     OW32443   4.771   2.420   6.268
 6855SOL    HW132444   0.017   2.386   6.351
 6855SOL    HW232445   4.686   2.375   6.257
 6856SOL     OW32446   2.039   1.068  20.869
 6856SOL    HW132447   2.007   1.041  20.783
 6856SOL    HW232448   2.128   1.100  20.852
 6857SOL     OW32449   2.347   2.373   2.368
 6857SOL    HW132450   2.412   2.302   2.368
 6857SOL    HW232451   2.397   2.452   2.347
 6858SOL     OW32452   1.323   2.945  18.757
 6858SOL    HW132453   1.304   3.011  18.690
 6858SOL    HW232454   1.268   2.871  18.733
 6859SOL     OW32455   1.103   0.910  18.723
 6859SOL    HW132456   1.030   0.956  18.765
 6859SOL    HW232457   1.156   0.980  18.683
 6860SOL     OW32458   2.086   0.816  13.443
 6860SOL    HW132459   2.056   0.903  13.469
 6860SOL    HW232460   2.172   0.832  13.403
 6861SOL     OW32461   4.540   3.254  21.111
 6861SOL    HW132462   4.495   3.288  21.188
 6861SOL    HW232463   4.597   3.185  21.145
 6862SOL     OW32464   0.052   2.086   5.707
 6862SOL    HW132465   0.031   2.154   5.644
 6862SOL    HW232466   0.117   2.126   5.765
 6863SOL     OW32467   2.507   3.459  19.359
 6863SOL    HW132468   2.437   3.411  19.403
 6863SOL    HW232469   2.586   3.436  19.408
 6864SOL     OW32470   3.784   1.654   6.042
 6864SOL    HW132471   3.789   1.727   6.104
 6864SOL    HW232472   3.868   1.655   5.997
 6865SOL     OW32473   3.693   3.242   8.511
 6865SOL    HW132474   3.769   3.264   8.457
 6865SOL    HW232475   3.701   3.148   8.526
 6866SOL     OW32476   1.783   4.712  21.243
 6866SOL    HW132477   1.792   4.769  21.167
 6866SOL    HW232478   1.741   4.633  21.209
 6867SOL     OW32479   4.382   4.472   6.414
 6867SOL    HW132480   4.387   4.499   6.323
 6867SOL    HW232481   4.411   4.381   6.413
 6868SOL     OW32482   1.722   2.506   5.564
 6868SOL    HW132483   1.726   2.578   5.501
 6868SOL    HW232484   1.732   2.547   5.649
 6869SOL     OW32485   2.969   4.550  12.537
 6869SOL    HW132486   2.997   4.567  12.627
 6869SOL    HW232487   2.999   4.461  12.519
 6870SOL     OW32488   2.800   1.235  16.031
 6870SOL    HW132489   2.749   1.176  15.976
 6870SOL    HW232490   2.822   1.308  15.973
 6871SOL     OW32491   4.205   3.072  18.963
 6871SOL    HW132492   4.115   3.040  18.961
 6871SOL    HW232493   4.197   3.164  18.990
 6872SOL     OW32494   4.545   2.767  20.981
 6872SOL    HW132495   4.549   2.765  20.886
 6872SOL    HW232496   4.491   2.844  21.001
 6873SOL     OW32497   2.591   4.518  20.904
 6873SOL    HW132498   2.613   4.425  20.910
 6873SOL    HW232499   2.645   4.559  20.971
 6874SOL     OW32500   3.341   0.858   2.152
 6874SOL    HW132501   3.269   0.804   2.120
 6874SOL    HW232502   3.381   0.894   2.073
 6875SOL     OW32503   3.480   2.819   4.358
 6875SOL    HW132504   3.395   2.845   4.394
 6875SOL    HW232505   3.459   2.792   4.268
 6876SOL     OW32506   1.851   1.366  18.808
 6876SOL    HW132507   1.811   1.445  18.772
 6876SOL    HW232508   1.939   1.363  18.769
 6877SOL     OW32509   4.113   4.336   5.761
 6877SOL    HW132510   4.070   4.397   5.821
 6877SOL    HW232511   4.097   4.250   5.800
 6878SOL     OW32512   2.712   2.324   6.968
 6878SOL    HW132513   2.654   2.251   6.988
 6878SOL    HW232514   2.684   2.394   7.027
 6879SOL     OW32515   1.906   2.939  19.304
 6879SOL    HW132516   1.821   2.911  19.270
 6879SOL    HW232517   1.921   2.883  19.380
 6880SOL     OW32518   0.388   4.659  15.002
 6880SOL    HW132519   0.468   4.606  14.995
 6880SOL    HW232520   0.385   4.686  15.094
 6881SOL     OW32521   0.451   3.661   4.621
 6881SOL    HW132522   0.534   3.702   4.600
 6881SOL    HW232523   0.460   3.633   4.712
 6882SOL     OW32524   0.884   2.963  19.204
 6882SOL    HW132525   0.908   2.870  19.202
 6882SOL    HW232526   0.866   2.981  19.296
 6883SOL     OW32527   1.544   4.291  19.805
 6883SOL    HW132528   1.479   4.349  19.765
 6883SOL    HW232529   1.602   4.267  19.732
 6884SOL     OW32530   1.711   0.392  15.975
 6884SOL    HW132531   1.745   0.303  15.985
 6884SOL    HW232532   1.700   0.403  15.880
 6885SOL     OW32533   4.589   0.420  14.732
 6885SOL    HW132534   4.536   0.454  14.804
 6885SOL    HW232535   4.596   0.326  14.750
 6886SOL     OW32536   0.584   2.782  20.480
 6886SOL    HW132537   0.671   2.759  20.446
 6886SOL    HW232538   0.547   2.698  20.507
 6887SOL     OW32539   3.472   3.412   6.815
 6887SOL    HW132540   3.540   3.349   6.838
 6887SOL    HW232541   3.391   3.373   6.848
 6888SOL     OW32542   4.522   2.614   5.625
 6888SOL    HW132543   4.523   2.522   5.648
 6888SOL    HW232544   4.593   2.624   5.561
 6889SOL     OW32545   4.505   0.445   5.271
 6889SOL    HW132546   4.455   0.365   5.287
 6889SOL    HW232547   4.556   0.458   5.351
 6890SOL     OW32548   4.376   1.078   5.445
 6890SOL    HW132549   4.391   1.110   5.357
 6890SOL    HW232550   4.396   1.152   5.502
 6891SOL     OW32551   4.568   3.379   4.525
 6891SOL    HW132552   4.604   3.463   4.498
 6891SOL    HW232553   4.611   3.360   4.608
 6892SOL     OW32554   0.144   4.005  18.302
 6892SOL    HW132555   0.229   3.995  18.345
 6892SOL    HW232556   0.081   3.975  18.368
 6893SOL     OW32557   4.669   3.549  16.737
 6893SOL    HW132558   4.697   3.460  16.715
 6893SOL    HW232559   4.744   3.604  16.713
 6894SOL     OW32560   2.936   4.409  20.122
 6894SOL    HW132561   2.973   4.336  20.073
 6894SOL    HW232562   2.938   4.380  20.213
 6895SOL     OW32563   3.817   4.694  18.432
 6895SOL    HW132564   3.882   4.752  18.392
 6895SOL    HW232565   3.752   4.680  18.364
 6896SOL     OW32566   2.981   2.378  16.071
 6896SOL    HW132567   3.022   2.296  16.046
 6896SOL    HW232568   2.911   2.353  16.131
 6897SOL     OW32569   1.220   1.907   4.761
 6897SOL    HW132570   1.248   1.871   4.846
 6897SOL    HW232571   1.287   1.973   4.741
 6898SOL     OW32572   0.873   4.029  13.431
 6898SOL    HW132573   0.927   4.084  13.488
 6898SOL    HW232574   0.856   4.083  13.354
 6899SOL     OW32575   2.364   1.377  17.786
 6899SOL    HW132576   2.291   1.327  17.751
 6899SOL    HW232577   2.369   1.350  17.878
 6900SOL     OW32578   1.330   3.970   4.848
 6900SOL    HW132579   1.334   3.976   4.753
 6900SOL    HW232580   1.421   3.956   4.875
 6901SOL     OW32581   1.799   2.381  17.269
 6901SOL    HW132582   1.802   2.364  17.363
 6901SOL    HW232583   1.877   2.433  17.252
 6902SOL     OW32584   2.525   0.888  16.659
 6902SOL    HW132585   2.577   0.808  16.646
 6902SOL    HW232586   2.545   0.941  16.582
 6903SOL     OW32587   2.920   1.645  18.503
 6903SOL    HW132588   3.001   1.686  18.533
 6903SOL    HW232589   2.935   1.551  18.513
 6904SOL     OW32590   3.290   0.183  19.463
 6904SOL    HW132591   3.318   0.258  19.411
 6904SOL    HW232592   3.223   0.218  19.522
 6905SOL     OW32593   2.170   3.131   3.286
 6905SOL    HW132594   2.138   3.098   3.370
 6905SOL    HW232595   2.199   3.053   3.239
 6906SOL     OW32596   1.075   0.472   5.654
 6906SOL    HW132597   1.036   0.401   5.704
 6906SOL    HW232598   1.106   0.534   5.720
 6907SOL     OW32599   2.510   0.740   5.771
 6907SOL    HW132600   2.535   0.655   5.808
 6907SOL    HW232601   2.453   0.718   5.698
 6908SOL     OW32602   4.644   4.323   6.040
 6908SOL    HW132603   4.631   4.244   5.987
 6908SOL    HW232604   4.736   4.318   6.067
 6909SOL     OW32605   2.709   3.153   8.851
 6909SOL    HW132606   2.763   3.193   8.919
 6909SOL    HW232607   2.669   3.078   8.894
 6910SOL     OW32608   3.483   1.731   6.203
 6910SOL    HW132609   3.438   1.753   6.284
 6910SOL    HW232610   3.562   1.786   6.203
 6911SOL     OW32611   0.510   4.065   1.843
 6911SOL    HW132612   0.491   4.129   1.774
 6911SOL    HW232613   0.552   4.117   1.912
 6912SOL     OW32614   2.251   3.797   0.628
 6912SOL    HW132615   2.326   3.796   0.687
 6912SOL    HW232616   2.256   3.882   0.584
 6913SOL     OW32617   1.394   4.340  20.313
 6913SOL    HW132618   1.472   4.365  20.362
 6913SOL    HW232619   1.406   4.247  20.293
 6914SOL     OW32620   3.031   2.180  14.180
 6914SOL    HW132621   3.038   2.155  14.272
 6914SOL    HW232622   3.009   2.273  14.181
 6915SOL     OW32623   2.841   3.354   1.454
 6915SOL    HW132624   2.863   3.276   1.506
 6915SOL    HW232625   2.791   3.409   1.514
 6916SOL     OW32626   4.732   0.323  11.398
 6916SOL    HW132627   4.654   0.268  11.385
 6916SOL    HW232628   0.008   0.264  11.438
 6917SOL     OW32629   3.705   3.319   3.325
 6917SOL    HW132630   3.628   3.346   3.275
 6917SOL    HW232631   3.677   3.322   3.417
 6918SOL     OW32632   0.283   0.369  14.892
 6918SOL    HW132633   0.216   0.394  14.828
 6918SOL    HW232634   0.322   0.290  14.856
 6919SOL     OW32635   0.283   1.074   3.119
 6919SOL    HW132636   0.250   1.141   3.058
 6919SOL    HW232637   0.371   1.105   3.143
 6920SOL     OW32638   4.531   2.855   4.137
 6920SOL    HW132639   4.464   2.878   4.072
 6920SOL    HW232640   4.482   2.809   4.206
 6921SOL     OW32641   0.311   2.740  19.938
 6921SOL    HW132642   0.355   2.800  19.877
 6921SOL    HW232643   0.383   2.694  19.982
 6922SOL     OW32644   0.887   4.099  19.870
 6922SOL    HW132645   0.856   4.048  19.945
 6922SOL    HW232646   0.942   4.168  19.909
 6923SOL     OW32647   3.252   0.992   0.099
 6923SOL    HW132648   3.174   0.972   0.150
 6923SOL    HW232649   3.322   0.944   0.142
 6924SOL     OW32650   0.170   2.923  18.201
 6924SOL    HW132651   0.181   2.850  18.262
 6924SOL    HW232652   0.258   2.955  18.186
 6925SOL     OW32653   0.260   2.696   5.042
 6925SOL    HW132654   0.263   2.663   5.132
 6925SOL    HW232655   0.167   2.709   5.024
 6926SOL     OW32656   3.722   0.062  16.491
 6926SOL    HW132657   3.765   0.026  16.414
 6926SOL    HW232658   3.631   0.032  16.483
 6927SOL     OW32659   4.171   0.197   0.107
 6927SOL    HW132660   4.258   0.224   0.077
 6927SOL    HW232661   4.150   0.121   0.054
 6928SOL     OW32662   3.513   0.523  20.635
 6928SOL    HW132663   3.591   0.568  20.668
 6928SOL    HW232664   3.492   0.459  20.703
 6929SOL     OW32665   4.588   4.735   0.096
 6929SOL    HW132666   4.540   4.752   0.015
 6929SOL    HW232667   4.658   0.013   0.095
 6930SOL     OW32668   1.474   4.055   5.855
 6930SOL    HW132669   1.428   3.983   5.898
 6930SOL    HW232670   1.553   4.068   5.907
 6931SOL     OW32671   0.189   3.018   6.502
 6931SOL    HW132672   0.150   3.059   6.579
 6931SOL    HW232673   0.114   2.986   6.452
 6932SOL     OW32674   2.784   1.103  21.136
 6932SOL    HW132675   2.805   1.012  21.117
 6932SOL    HW232676   2.803   1.149  21.054
 6933SOL     OW32677   2.645   0.589   2.005
 6933SOL    HW132678   2.674   0.533   2.077
 6933SOL    HW232679   2.550   0.582   2.006
 6934SOL     OW32680   1.679   4.455   2.326
 6934SOL    HW132681   1.680   4.370   2.282
 6934SOL    HW232682   1.768   4.465   2.359
 6935SOL     OW32683   2.733   4.503  17.795
 6935SOL    HW132684   2.729   4.582  17.741
 6935SOL    HW232685   2.826   4.481  17.799
 6936SOL     OW32686   0.569   2.077   1.501
 6936SOL    HW132687   0.493   2.042   1.455
 6936SOL    HW232688   0.533   2.143   1.561
 6937SOL     OW32689   3.871   3.411   6.833
 6937SOL    HW132690   3.931   3.473   6.875
 6937SOL    HW232691   3.791   3.462   6.817
 6938SOL     OW32692   3.887   2.379  19.055
 6938SOL    HW132693   3.960   2.361  18.996
 6938SOL    HW232694   3.840   2.451  19.013
 6939SOL     OW32695   4.436   4.193   0.127
 6939SOL    HW132696   4.521   4.225   0.157
 6939SOL    HW232697   4.435   4.211   0.033
 6940SOL     OW32698   2.076   0.381  15.969
 6940SOL    HW132699   2.078   0.475  15.948
 6940SOL    HW232700   2.019   0.344  15.902
 6941SOL     OW32701   0.205   2.036  21.140
 6941SOL    HW132702   0.196   1.955  21.189
 6941SOL    HW232703   0.156   2.021  21.059
 6942SOL     OW32704   4.732   3.296   2.619
 6942SOL    HW132705   4.715   3.211   2.660
 6942SOL    HW232706   4.653   3.347   2.637
 6943SOL     OW32707   2.989   2.851   3.551
 6943SOL    HW132708   2.971   2.943   3.528
 6943SOL    HW232709   2.904   2.816   3.577
 6944SOL     OW32710   3.941   4.188  14.106
 6944SOL    HW132711   3.984   4.179  14.191
 6944SOL    HW232712   3.868   4.126  14.110
 6945SOL     OW32713   0.227   0.548  18.568
 6945SOL    HW132714   0.295   0.483  18.551
 6945SOL    HW232715   0.264   0.604  18.636
 6946SOL     OW32716   0.960   0.407   2.406
 6946SOL    HW132717   0.913   0.477   2.362
 6946SOL    HW232718   1.043   0.399   2.358
 6947SOL     OW32719   2.372   0.106  18.079
 6947SOL    HW132720   2.324   0.060  18.010
 6947SOL    HW232721   2.407   0.037  18.135
 6948SOL     OW32722   2.536   2.050   3.580
 6948SOL    HW132723   2.577   1.998   3.511
 6948SOL    HW232724   2.508   1.985   3.645
 6949SOL     OW32725   0.971   4.509   5.631
 6949SOL    HW132726   0.997   4.417   5.634
 6949SOL    HW232727   0.929   4.519   5.545
 6950SOL     OW32728   0.486   1.079  18.601
 6950SOL    HW132729   0.546   1.124  18.662
 6950SOL    HW232730   0.444   1.011  18.655
 6951SOL     OW32731   2.345   4.035   0.322
 6951SOL    HW132732   2.258   4.011   0.289
 6951SOL    HW232733   2.404   3.969   0.286
 6952SOL     OW32734   4.717   3.077  21.228
 6952SOL    HW132735   4.703   3.102   0.071
 6952SOL    HW232736   0.012   3.120  21.204
 6953SOL     OW32737   4.774   2.149  19.243
 6953SOL    HW132738   4.769   2.072  19.187
 6953SOL    HW232739   4.745   2.221  19.187
 6954SOL     OW32740   3.456   1.266  20.986
 6954SOL    HW132741   3.431   1.313  21.065
 6954SOL    HW232742   3.537   1.221  21.011
 6955SOL     OW32743   2.199   2.115   6.112
 6955SOL    HW132744   2.268   2.154   6.165
 6955SOL    HW232745   2.155   2.055   6.172
 6956SOL     OW32746   3.981   0.144   0.642
 6956SOL    HW132747   4.076   0.134   0.636
 6956SOL    HW232748   3.946   0.069   0.594
 6957SOL     OW32749   1.333   3.349  20.687
 6957SOL    HW132750   1.241   3.331  20.666
 6957SOL    HW232751   1.333   3.364  20.781
 6958SOL     OW32752   1.707   3.878  20.757
 6958SOL    HW132753   1.695   3.972  20.772
 6958SOL    HW232754   1.711   3.868  20.662
 6959SOL     OW32755   0.711   4.458   5.780
 6959SOL    HW132756   0.790   4.489   5.735
 6959SOL    HW232757   0.722   4.363   5.784
 6960SOL     OW32758   2.937   0.100  17.893
 6960SOL    HW132759   2.939   0.042  17.969
 6960SOL    HW232760   3.014   0.076  17.842
 6961SOL     OW32761   2.405   4.111  18.718
 6961SOL    HW132762   2.325   4.071  18.753
 6961SOL    HW232763   2.473   4.088  18.781
 6962SOL     OW32764   3.161   0.344   4.655
 6962SOL    HW132765   3.110   0.405   4.708
 6962SOL    HW232766   3.108   0.265   4.652
 6963SOL     OW32767   2.317   3.492  20.367
 6963SOL    HW132768   2.320   3.482  20.462
 6963SOL    HW232769   2.344   3.407  20.333
 6964SOL     OW32770   3.887   0.213  18.565
 6964SOL    HW132771   3.980   0.217  18.544
 6964SOL    HW232772   3.873   0.123  18.595
 6965SOL     OW32773   4.037   0.329  18.094
 6965SOL    HW132774   4.046   0.412  18.047
 6965SOL    HW232775   3.951   0.296  18.068
 6966SOL     OW32776   4.077   0.604  16.285
 6966SOL    HW132777   4.059   0.590  16.377
 6966SOL    HW232778   4.172   0.611  16.279
 6967SOL     OW32779   1.068   2.043   5.185
 6967SOL    HW132780   1.041   2.096   5.110
 6967SOL    HW232781   1.083   2.106   5.256
 6968SOL     OW32782   4.062   0.898  19.043
 6968SOL    HW132783   4.147   0.877  19.084
 6968SOL    HW232784   4.055   0.993  19.051
 6969SOL     OW32785   3.531   1.191  19.249
 6969SOL    HW132786   3.474   1.165  19.321
 6969SOL    HW232787   3.605   1.130  19.254
 6970SOL     OW32788   1.500   1.581  21.136
 6970SOL    HW132789   1.564   1.535  21.191
 6970SOL    HW232790   1.465   1.650  21.192
 6971SOL     OW32791   2.797   4.307   3.866
 6971SOL    HW132792   2.878   4.356   3.877
 6971SOL    HW232793   2.815   4.246   3.794
 6972SOL     OW32794   2.631   3.468   0.691
 6972SOL    HW132795   2.650   3.557   0.720
 6972SOL    HW232796   2.606   3.478   0.599
 6973SOL     OW32797   3.977   0.007  19.820
 6973SOL    HW132798   3.957   4.787  19.913
 6973SOL    HW232799   3.902   4.754  19.776
 6974SOL     OW32800   2.970   1.556   4.131
 6974SOL    HW132801   3.036   1.519   4.190
 6974SOL    HW232802   2.977   1.504   4.051
 6975SOL     OW32803   4.250   1.536  15.147
 6975SOL    HW132804   4.232   1.630  15.152
 6975SOL    HW232805   4.334   1.530  15.102
 6976SOL     OW32806   1.020   3.242   1.109
 6976SOL    HW132807   0.961   3.249   1.184
 6976SOL    HW232808   1.000   3.318   1.055
 6977SOL     OW32809   0.388   2.574   0.711
 6977SOL    HW132810   0.304   2.528   0.713
 6977SOL    HW232811   0.434   2.538   0.635
 6978SOL     OW32812   4.600   4.584   5.913
 6978SOL    HW132813   4.635   4.508   5.959
 6978SOL    HW232814   4.678   4.633   5.885
 6979SOL     OW32815   3.064   0.442   2.927
 6979SOL    HW132816   3.078   0.502   2.854
 6979SOL    HW232817   3.078   0.355   2.889
 6980SOL     OW32818   3.083   2.263  13.589
 6980SOL    HW132819   3.056   2.214  13.667
 6980SOL    HW232820   3.073   2.200  13.517
 6981SOL     OW32821   2.520   0.374   4.987
 6981SOL    HW132822   2.560   0.307   5.042
 6981SOL    HW232823   2.426   0.359   4.995
 6982SOL     OW32824   2.508   2.156   3.121
 6982SOL    HW132825   2.484   2.245   3.095
 6982SOL    HW232826   2.431   2.103   3.099
 6983SOL     OW32827   4.686   1.357  21.242
 6983SOL    HW132828   4.755   1.378   0.057
 6983SOL    HW232829   4.690   1.262  21.233
 6984SOL     OW32830   3.961   1.790  19.143
 6984SOL    HW132831   3.929   1.737  19.217
 6984SOL    HW232832   3.882   1.830  19.107
 6985SOL     OW32833   4.483   2.580   3.776
 6985SOL    HW132834   4.465   2.571   3.682
 6985SOL    HW232835   4.412   2.532   3.819
 6986SOL     OW32836   4.197   3.539  21.104
 6986SOL    HW132837   4.156   3.625  21.107
 6986SOL    HW232838   4.241   3.537  21.020
 6987SOL     OW32839   3.306   0.955   2.404
 6987SOL    HW132840   3.348   0.958   2.318
 6987SOL    HW232841   3.279   1.045   2.420
 6988SOL     OW32842   3.326   0.728   2.567
 6988SOL    HW132843   3.392   0.744   2.634
 6988SOL    HW232844   3.336   0.801   2.506
 6989SOL     OW32845   0.075   2.121   7.619
 6989SOL    HW132846   0.162   2.079   7.618
 6989SOL    HW232847   0.081   2.190   7.554
 6990SOL     OW32848   1.588   3.613  17.341
 6990SOL    HW132849   1.507   3.653  17.310
 6990SOL    HW232850   1.634   3.588  17.260
 6991SOL     OW32851   0.452   0.542   3.683
 6991SOL    HW132852   0.456   0.451   3.656
 6991SOL    HW232853   0.406   0.540   3.767
 6992SOL     OW32854   0.472   1.852   5.592
 6992SOL    HW132855   0.554   1.892   5.563
 6992SOL    HW232856   0.403   1.904   5.550
 6993SOL     OW32857   0.077   0.547   8.156
 6993SOL    HW132858   0.150   0.537   8.095
 6993SOL    HW232859   0.116   0.588   8.234
 6994SOL     OW32860   4.186   1.130   0.654
 6994SOL    HW132861   4.173   1.225   0.650
 6994SOL    HW232862   4.099   1.096   0.675
 6995SOL     OW32863   0.398   0.859   3.387
 6995SOL    HW132864   0.473   0.886   3.334
 6995SOL    HW232865   0.334   0.929   3.375
 6996SOL     OW32866   1.087   0.005  16.530
 6996SOL    HW132867   1.012   4.782  16.589
 6996SOL    HW232868   1.110   0.097  16.537
 6997SOL     OW32869   1.305   0.183  17.960
 6997SOL    HW132870   1.224   0.215  18.000
 6997SOL    HW232871   1.374   0.209  18.021
 6998SOL     OW32872   0.390   0.445   0.377
 6998SOL    HW132873   0.465   0.387   0.364
 6998SOL    HW232874   0.429   0.530   0.397
 6999SOL     OW32875   2.871   1.105  19.139
 6999SOL    HW132876   2.896   1.196  19.152
 6999SOL    HW232877   2.784   1.110  19.099
 7000SOL     OW32878   0.034   1.774   2.856
 7000SOL    HW132879   0.060   1.865   2.841
 7000SOL    HW232880   4.726   1.778   2.863
 7001SOL     OW32881   0.275   1.221   0.234
 7001SOL    HW132882   0.277   1.132   0.198
 7001SOL    HW232883   0.342   1.221   0.302
 7002SOL     OW32884   3.656   2.630  17.452
 7002SOL    HW132885   3.721   2.663  17.513
 7002SOL    HW232886   3.707   2.586  17.384
 7003SOL     OW32887   2.593   1.399   8.136
 7003SOL    HW132888   2.501   1.420   8.153
 7003SOL    HW232889   2.639   1.426   8.216
 7004SOL     OW32890   2.961   2.608  15.924
 7004SOL    HW132891   3.040   2.657  15.946
 7004SOL    HW232892   2.955   2.541  15.991
 7005SOL     OW32893   2.952   3.823   4.183
 7005SOL    HW132894   2.980   3.903   4.140
 7005SOL    HW232895   2.969   3.839   4.276
 7006SOL     OW32896   3.123   2.487  15.645
 7006SOL    HW132897   3.153   2.404  15.608
 7006SOL    HW232898   3.028   2.476  15.655
 7007SOL     OW32899   1.657   3.051  16.166
 7007SOL    HW132900   1.629   2.960  16.161
 7007SOL    HW232901   1.750   3.047  16.190
 7008SOL     OW32902   3.145   1.779   5.332
 7008SOL    HW132903   3.109   1.717   5.396
 7008SOL    HW232904   3.141   1.733   5.248
 7009SOL     OW32905   3.991   1.044  17.367
 7009SOL    HW132906   3.988   1.048  17.271
 7009SOL    HW232907   3.993   0.950  17.386
 7010SOL     OW32908   3.538   2.395   5.723
 7010SOL    HW132909   3.495   2.358   5.800
 7010SOL    HW232910   3.574   2.478   5.753
 7011SOL     OW32911   2.131   0.176   1.044
 7011SOL    HW132912   2.135   0.123   1.123
 7011SOL    HW232913   2.221   0.206   1.031
 7012SOL     OW32914   2.336   3.697  18.168
 7012SOL    HW132915   2.351   3.724  18.077
 7012SOL    HW232916   2.360   3.604  18.170
 7013SOL     OW32917   1.472   4.654  19.945
 7013SOL    HW132918   1.447   4.608  20.025
 7013SOL    HW232919   1.394   4.651  19.890
 7014SOL     OW32920   2.561   1.783  17.655
 7014SOL    HW132921   2.480   1.832  17.662
 7014SOL    HW232922   2.552   1.711  17.718
 7015SOL     OW32923   1.203   2.767  17.349
 7015SOL    HW132924   1.252   2.687  17.365
 7015SOL    HW232925   1.270   2.832  17.329
 7016SOL     OW32926   2.236   2.132   0.541
 7016SOL    HW132927   2.287   2.123   0.621
 7016SOL    HW232928   2.271   2.210   0.498
 7017SOL     OW32929   4.218   3.406  18.096
 7017SOL    HW132930   4.284   3.375  18.034
 7017SOL    HW232931   4.161   3.463  18.045
 7018SOL     OW32932   3.214   1.783   2.519
 7018SOL    HW132933   3.232   1.766   2.611
 7018SOL    HW232934   3.261   1.714   2.472
 7019SOL     OW32935   3.599   4.466  19.121
 7019SOL    HW132936   3.643   4.551  19.130
 7019SOL    HW232937   3.670   4.402  19.128
 7020SOL     OW32938   4.514   4.505  17.888
 7020SOL    HW132939   4.537   4.520  17.979
 7020SOL    HW232940   4.567   4.429  17.862
 7021SOL     OW32941   4.117   2.848  18.035
 7021SOL    HW132942   4.159   2.880  18.115
 7021SOL    HW232943   4.046   2.909  18.018
 7022SOL     OW32944   2.082   4.200  18.574
 7022SOL    HW132945   2.064   4.224  18.483
 7022SOL    HW232946   2.172   4.230  18.588
 7023SOL     OW32947   1.780   0.695   3.466
 7023SOL    HW132948   1.770   0.789   3.450
 7023SOL    HW232949   1.712   0.655   3.412
 7024SOL     OW32950   0.938   2.508   1.418
 7024SOL    HW132951   0.985   2.444   1.365
 7024SOL    HW232952   1.006   2.554   1.466
 7025SOL     OW32953   0.536   4.763  15.960
 7025SOL    HW132954   0.612   0.030  15.982
 7025SOL    HW232955   0.508   4.726  16.044
 7026SOL     OW32956   3.990   1.179   0.118
 7026SOL    HW132957   4.013   1.108   0.057
 7026SOL    HW232958   3.974   1.254   0.062
 7027SOL     OW32959   2.184   4.113   2.576
 7027SOL    HW132960   2.119   4.177   2.605
 7027SOL    HW232961   2.135   4.054   2.518
 7028SOL     OW32962   2.042   1.601  16.320
 7028SOL    HW132963   2.096   1.554  16.256
 7028SOL    HW232964   1.953   1.595  16.285
 7029SOL     OW32965   4.646   4.751  18.740
 7029SOL    HW132966   4.729   0.007  18.723
 7029SOL    HW232967   4.617   4.784  18.825
 7030SOL     OW32968   3.373   1.812   4.789
 7030SOL    HW132969   3.361   1.763   4.870
 7030SOL    HW232970   3.410   1.896   4.816
 7031SOL     OW32971   2.291   0.120  19.317
 7031SOL    HW132972   2.213   0.160  19.277
 7031SOL    HW232973   2.277   0.026  19.309
 7032SOL     OW32974   2.854   0.838  21.090
 7032SOL    HW132975   2.777   0.799  21.130
 7032SOL    HW232976   2.833   0.843  20.997
 7033SOL     OW32977   1.905   0.707  18.575
 7033SOL    HW132978   1.989   0.688  18.618
 7033SOL    HW232979   1.913   0.667  18.488
 7034SOL     OW32980   0.451   3.089  20.237
 7034SOL    HW132981   0.517   3.115  20.301
 7034SOL    HW232982   0.442   3.165  20.180
 7035SOL     OW32983   1.819   2.109   2.322
 7035SOL    HW132984   1.793   2.158   2.244
 7035SOL    HW232985   1.873   2.037   2.289
 7036SOL     OW32986   0.697   4.081   4.050
 7036SOL    HW132987   0.617   4.074   3.998
 7036SOL    HW232988   0.767   4.083   3.985
 7037SOL     OW32989   1.467   3.949   7.776
 7037SOL    HW132990   1.519   3.869   7.782
 7037SOL    HW232991   1.379   3.923   7.804
 7038SOL     OW32992   1.152   2.641  15.515
 7038SOL    HW132993   1.144   2.636  15.611
 7038SOL    HW232994   1.076   2.594  15.482
 7039SOL     OW32995   3.925   2.276   7.492
 7039SOL    HW132996   3.995   2.308   7.434
 7039SOL    HW232997   3.962   2.198   7.533
 7040SOL     OW32998   4.099   3.808   0.677
 7040SOL    HW132999   4.032   3.853   0.626
 7040SOL    HW233000   4.182   3.835   0.637
 7041SOL     OW33001   2.598   4.776  16.098
 7041SOL    HW133002   2.576   4.683  16.106
 7041SOL    HW233003   2.553   0.017  16.019
 7042SOL     OW33004   4.152   4.286  20.467
 7042SOL    HW133005   4.072   4.333  20.493
 7042SOL    HW233006   4.123   4.226  20.398
 7043SOL     OW33007   0.575   1.223  17.025
 7043SOL    HW133008   0.563   1.136  17.062
 7043SOL    HW233009   0.520   1.224  16.946
 7044SOL     OW33010   4.403   0.288  20.739
 7044SOL    HW133011   4.391   0.383  20.740
 7044SOL    HW233012   4.492   0.275  20.772
 7045SOL     OW33013   2.311   3.499   4.975
 7045SOL    HW133014   2.384   3.496   5.037
 7045SOL    HW233015   2.350   3.480   4.890
 7046SOL     OW33016   2.598   2.339  20.357
 7046SOL    HW133017   2.615   2.399  20.285
 7046SOL    HW233018   2.613   2.252  20.321
 7047SOL     OW33019   0.194   2.131  14.279
 7047SOL    HW133020   0.239   2.047  14.285
 7047SOL    HW233021   0.168   2.151  14.369
 7048SOL     OW33022   0.082   1.605  18.042
 7048SOL    HW133023   0.065   1.533  18.102
 7048SOL    HW233024   0.014   1.669  18.062
 7049SOL     OW33025   3.469   1.982   7.118
 7049SOL    HW133026   3.561   1.991   7.142
 7049SOL    HW233027   3.428   1.942   7.194
 7050SOL     OW33028   1.689   4.319  19.369
 7050SOL    HW133029   1.606   4.285  19.335
 7050SOL    HW233030   1.717   4.382  19.303
 7051SOL     OW33031   3.998   3.715  17.713
 7051SOL    HW133032   4.049   3.708  17.632
 7051SOL    HW233033   3.927   3.652  17.702
 7052SOL     OW33034   2.788   2.246  21.198
 7052SOL    HW133035   2.779   2.323  21.142
 7052SOL    HW233036   2.765   2.172  21.141
 7053SOL     OW33037   0.447   2.479   0.976
 7053SOL    HW133038   0.496   2.479   0.895
 7053SOL    HW233039   0.475   2.559   1.021
 7054SOL     OW33040   1.714   1.585  19.330
 7054SOL    HW133041   1.638   1.532  19.354
 7054SOL    HW233042   1.709   1.592  19.234
 7055SOL     OW33043   4.493   4.057   4.731
 7055SOL    HW133044   4.515   4.121   4.798
 7055SOL    HW233045   4.573   4.007   4.718
 7056SOL     OW33046   1.321   1.783   5.741
 7056SOL    HW133047   1.247   1.841   5.722
 7056SOL    HW233048   1.303   1.749   5.829
 7057SOL     OW33049   0.457   2.849   1.071
 7057SOL    HW133050   0.481   2.778   1.131
 7057SOL    HW233051   0.441   2.924   1.129
 7058SOL     OW33052   3.944   2.431  19.998
 7058SOL    HW133053   4.024   2.383  20.018
 7058SOL    HW233054   3.875   2.384  20.044
 7059SOL     OW33055   4.605   1.483  15.146
 7059SOL    HW133056   4.657   1.534  15.083
 7059SOL    HW233057   4.594   1.542  15.220
 7060SOL     OW33058   1.476   2.590  19.987
 7060SOL    HW133059   1.442   2.502  20.005
 7060SOL    HW233060   1.434   2.616  19.905
 7061SOL     OW33061   3.102   4.419   2.350
 7061SOL    HW133062   3.179   4.453   2.395
 7061SOL    HW233063   3.036   4.488   2.362
 7062SOL     OW33064   4.483   2.814  19.531
 7062SOL    HW133065   4.389   2.806  19.515
 7062SOL    HW233066   4.490   2.887  19.594
 7063SOL     OW33067   1.502   3.008  14.885
 7063SOL    HW133068   1.430   3.070  14.895
 7063SOL    HW233069   1.533   2.993  14.975
 7064SOL     OW33070   4.284   3.443  17.671
 7064SOL    HW133071   4.352   3.375  17.676
 7064SOL    HW233072   4.322   3.518  17.716
 7065SOL     OW33073   3.195   0.109   1.835
 7065SOL    HW133074   3.288   0.088   1.847
 7065SOL    HW233075   3.193   0.159   1.754
 7066SOL     OW33076   3.991   1.703   2.122
 7066SOL    HW133077   3.967   1.769   2.057
 7066SOL    HW233078   4.078   1.673   2.095
 7067SOL     OW33079   3.094   2.721  18.813
 7067SOL    HW133080   3.038   2.671  18.873
 7067SOL    HW233081   3.042   2.729  18.733
 7068SOL     OW33082   1.136   4.759  15.012
 7068SOL    HW133083   1.046   4.762  15.045
 7068SOL    HW233084   1.187   0.023  15.074
 7069SOL     OW33085   3.035   2.241  18.865
 7069SOL    HW133086   2.946   2.210  18.880
 7069SOL    HW233087   3.067   2.265  18.952
 7070SOL     OW33088   3.286   0.053   0.342
 7070SOL    HW133089   3.341   0.125   0.312
 7070SOL    HW233090   3.206   0.060   0.291
 7071SOL     OW33091   2.512   3.273  16.754
 7071SOL    HW133092   2.564   3.217  16.696
 7071SOL    HW233093   2.531   3.240  16.842
 7072SOL     OW33094   1.631   1.814  16.227
 7072SOL    HW133095   1.680   1.896  16.222
 7072SOL    HW233096   1.689   1.755  16.275
 7073SOL     OW33097   2.002   3.851   2.051
 7073SOL    HW133098   1.992   3.934   2.097
 7073SOL    HW233099   2.093   3.826   2.066
 7074SOL     OW33100   4.540   2.161   2.366
 7074SOL    HW133101   4.511   2.091   2.425
 7074SOL    HW233102   4.605   2.118   2.309
 7075SOL     OW33103   3.411   4.080   3.818
 7075SOL    HW133104   3.428   4.135   3.742
 7075SOL    HW233105   3.487   4.093   3.874
 7076SOL     OW33106   0.331   0.764   4.962
 7076SOL    HW133107   0.317   0.857   4.978
 7076SOL    HW233108   0.248   0.723   4.987
 7077SOL     OW33109   2.171   1.839   0.246
 7077SOL    HW133110   2.257   1.865   0.212
 7077SOL    HW233111   2.131   1.921   0.275
 7078SOL     OW33112   3.720   4.558  20.449
 7078SOL    HW133113   3.751   4.471  20.473
 7078SOL    HW233114   3.625   4.551  20.453
 7079SOL     OW33115   2.958   3.288   4.609
 7079SOL    HW133116   3.014   3.235   4.665
 7079SOL    HW233117   2.869   3.266   4.637
 7080SOL     OW33118   3.475   2.471   4.407
 7080SOL    HW133119   3.503   2.485   4.317
 7080SOL    HW233120   3.518   2.541   4.457
 7081SOL     OW33121   2.785   1.320  15.738
 7081SOL    HW133122   2.737   1.237  15.740
 7081SOL    HW233123   2.740   1.371  15.671
 7082SOL     OW33124   1.316   1.489  15.860
 7082SOL    HW133125   1.281   1.540  15.933
 7082SOL    HW233126   1.406   1.519  15.850
 7083SOL     OW33127   4.375   2.222  18.794
 7083SOL    HW133128   4.373   2.240  18.700
 7083SOL    HW233129   4.364   2.308  18.835
 7084SOL     OW33130   0.242   3.693   1.138
 7084SOL    HW133131   0.193   3.668   1.059
 7084SOL    HW233132   0.187   3.759   1.181
 7085SOL     OW33133   0.004   0.625   0.993
 7085SOL    HW133134   0.088   0.646   1.034
 7085SOL    HW233135   0.009   0.531   0.975
 7086SOL     OW33136   4.076   1.518  20.836
 7086SOL    HW133137   4.165   1.510  20.870
 7086SOL    HW233138   4.057   1.433  20.796
 7087SOL     OW33139   1.644   3.664   1.802
 7087SOL    HW133140   1.683   3.750   1.789
 7087SOL    HW233141   1.601   3.644   1.719
 7088SOL     OW33142   0.706   3.118   0.946
 7088SOL    HW133143   0.615   3.140   0.929
 7088SOL    HW233144   0.718   3.131   1.040
 7089SOL     OW33145   1.698   1.667  17.707
 7089SOL    HW133146   1.622   1.609  17.704
 7089SOL    HW233147   1.740   1.657  17.622
 7090SOL     OW33148   2.579   4.078   6.788
 7090SOL    HW133149   2.675   4.080   6.780
 7090SOL    HW233150   2.552   4.169   6.781
 7091SOL     OW33151   1.428   3.079  16.994
 7091SOL    HW133152   1.522   3.083  17.010
 7091SOL    HW233153   1.415   2.997  16.946
 7092SOL     OW33154   3.806   1.202   7.021
 7092SOL    HW133155   3.891   1.204   6.977
 7092SOL    HW233156   3.802   1.284   7.069
 7093SOL     OW33157   0.782   4.527   4.394
 7093SOL    HW133158   0.808   4.458   4.455
 7093SOL    HW233159   0.765   4.481   4.312
 7094SOL     OW33160   4.055   3.842  19.973
 7094SOL    HW133161   4.108   3.834  20.053
 7094SOL    HW233162   3.994   3.768  19.977
 7095SOL     OW33163   2.687   1.558  17.500
 7095SOL    HW133164   2.613   1.616  17.481
 7095SOL    HW233165   2.752   1.614  17.541
 7096SOL     OW33166   3.734   1.110  15.112
 7096SOL    HW133167   3.829   1.101  15.111
 7096SOL    HW233168   3.711   1.110  15.205
 7097SOL     OW33169   0.574   3.663  18.367
 7097SOL    HW133170   0.501   3.643  18.425
 7097SOL    HW233171   0.607   3.748  18.397
 7098SOL     OW33172   2.749   0.714  19.829
 7098SOL    HW133173   2.823   0.769  19.804
 7098SOL    HW233174   2.726   0.742  19.918
 7099SOL     OW33175   1.989   3.166   2.426
 7099SOL    HW133176   2.056   3.218   2.381
 7099SOL    HW233177   2.036   3.096   2.469
 7100SOL     OW33178   1.355   0.121   0.453
 7100SOL    HW133179   1.400   0.129   0.369
 7100SOL    HW233180   1.269   0.160   0.437
 7101SOL     OW33181   2.815   2.192  12.877
 7101SOL    HW133182   2.808   2.249  12.800
 7101SOL    HW233183   2.877   2.124  12.851
 7102SOL     OW33184   3.081   3.834   4.972
 7102SOL    HW133185   3.004   3.802   5.019
 7102SOL    HW233186   3.058   3.923   4.946
 7103SOL     OW33187   0.777   0.621  20.242
 7103SOL    HW133188   0.804   0.672  20.318
 7103SOL    HW233189   0.818   0.536  20.254
 7104SOL     OW33190   0.117   0.651  17.227
 7104SOL    HW133191   0.119   0.714  17.300
 7104SOL    HW233192   0.047   0.589  17.251
 7105SOL     OW33193   0.100   1.833   5.622
 7105SOL    HW133194   0.069   1.918   5.651
 7105SOL    HW233195   0.164   1.852   5.553
 7106SOL     OW33196   1.626   3.608  12.878
 7106SOL    HW133197   1.573   3.577  12.951
 7106SOL    HW233198   1.611   3.545  12.808
 7107SOL     OW33199   2.196   0.299   4.049
 7107SOL    HW133200   2.210   0.392   4.070
 7107SOL    HW233201   2.157   0.300   3.962
 7108SOL     OW33202   4.031   2.622   2.758
 7108SOL    HW133203   3.945   2.581   2.748
 7108SOL    HW233204   4.068   2.582   2.837
 7109SOL     OW33205   0.143   0.615  20.937
 7109SOL    HW133206   0.144   0.710  20.951
 7109SOL    HW233207   0.221   0.598  20.884
 7110SOL     OW33208   4.168   4.000  12.765
 7110SOL    HW133209   4.117   4.079  12.786
 7110SOL    HW233210   4.105   3.940  12.725
 7111SOL     OW33211   4.641   0.533  17.284
 7111SOL    HW133212   4.602   0.572  17.363
 7111SOL    HW233213   4.633   0.439  17.298
 7112SOL     OW33214   3.036   1.048  17.039
 7112SOL    HW133215   2.973   1.118  17.059
 7112SOL    HW233216   3.032   0.990  17.115
 7113SOL     OW33217   4.558   4.555  19.406
 7113SOL    HW133218   4.651   4.562  19.428
 7113SOL    HW233219   4.523   4.491  19.468
 7114SOL     OW33220   1.777   3.886   3.730
 7114SOL    HW133221   1.794   3.792   3.734
 7114SOL    HW233222   1.832   3.924   3.798
 7115SOL     OW33223   2.808   0.947   8.897
 7115SOL    HW133224   2.804   1.042   8.903
 7115SOL    HW233225   2.801   0.917   8.988
 7116SOL     OW33226   3.098   0.952   2.741
 7116SOL    HW133227   3.085   0.946   2.836
 7116SOL    HW233228   3.156   0.879   2.720
 7117SOL     OW33229   1.013   2.548   2.517
 7117SOL    HW133230   1.046   2.464   2.550
 7117SOL    HW233231   0.920   2.533   2.504
 7118SOL     OW33232   2.761   4.228  18.141
 7118SOL    HW133233   2.757   4.133  18.143
 7118SOL    HW233234   2.852   4.248  18.117
 7119SOL     OW33235   3.536   2.583   5.484
 7119SOL    HW133236   3.489   2.650   5.534
 7119SOL    HW233237   3.528   2.504   5.537
 7120SOL     OW33238   1.822   1.975  19.766
 7120SOL    HW133239   1.742   1.977  19.819
 7120SOL    HW233240   1.817   1.892  19.719
 7121SOL     OW33241   1.370   0.176  19.202
 7121SOL    HW133242   1.361   0.089  19.162
 7121SOL    HW233243   1.351   0.237  19.131
 7122SOL     OW33244   3.223   2.331   5.395
 7122SOL    HW133245   3.226   2.241   5.364
 7122SOL    HW233246   3.220   2.323   5.491
 7123SOL     OW33247   3.504   2.292  19.487
 7123SOL    HW133248   3.501   2.312  19.394
 7123SOL    HW233249   3.415   2.308  19.518
 7124SOL     OW33250   3.344   4.308  20.975
 7124SOL    HW133251   3.402   4.237  20.947
 7124SOL    HW233252   3.256   4.277  20.953
 7125SOL     OW33253   2.740   1.491  20.365
 7125SOL    HW133254   2.673   1.524  20.305
 7125SOL    HW233255   2.823   1.520  20.328
 7126SOL     OW33256   3.711   3.796   1.903
 7126SOL    HW133257   3.634   3.848   1.878
 7126SOL    HW233258   3.738   3.752   1.823
 7127SOL     OW33259   3.569   4.468   4.550
 7127SOL    HW133260   3.516   4.548   4.549
 7127SOL    HW233261   3.640   4.487   4.611
 7128SOL     OW33262   4.707   3.944  16.406
 7128SOL    HW133263   4.659   3.916  16.328
 7128SOL    HW233264   4.786   3.986  16.371
 7129SOL     OW33265   1.690   0.666   2.430
 7129SOL    HW133266   1.700   0.571   2.438
 7129SOL    HW233267   1.619   0.678   2.366
 7130SOL     OW33268   4.223   0.496   3.713
 7130SOL    HW133269   4.255   0.553   3.643
 7130SOL    HW233270   4.131   0.479   3.690
 7131SOL     OW33271   2.784   0.546   4.130
 7131SOL    HW133272   2.850   0.494   4.174
 7131SOL    HW233273   2.719   0.564   4.197
 7132SOL     OW33274   1.079   0.067  19.234
 7132SOL    HW133275   1.099   0.074  19.141
 7132SOL    HW233276   1.160   0.037  19.274
 7133SOL     OW33277   2.450   1.628   5.278
 7133SOL    HW133278   2.544   1.646   5.275
 7133SOL    HW233279   2.444   1.536   5.305
 7134SOL     OW33280   2.147   2.789  20.858
 7134SOL    HW133281   2.063   2.809  20.900
 7134SOL    HW233282   2.211   2.791  20.930
 7135SOL     OW33283   3.003   3.337   3.960
 7135SOL    HW133284   2.992   3.423   4.000
 7135SOL    HW233285   2.953   3.342   3.879
 7136SOL     OW33286   2.799   4.636  15.828
 7136SOL    HW133287   2.767   4.590  15.905
 7136SOL    HW233288   2.784   4.729  15.847
 7137SOL     OW33289   2.548   1.513  21.233
 7137SOL    HW133290   2.532   1.607  21.239
 7137SOL    HW233291   2.466   1.473   0.014
 7138SOL     OW33292   2.099   4.470  20.833
 7138SOL    HW133293   2.114   4.531  20.905
 7138SOL    HW233294   2.052   4.397  20.873
 7139SOL     OW33295   1.291   2.692   4.589
 7139SOL    HW133296   1.334   2.773   4.619
 7139SOL    HW233297   1.277   2.707   4.496
 7140SOL     OW33298   3.860   2.019  16.880
 7140SOL    HW133299   3.892   1.945  16.933
 7140SOL    HW233300   3.765   2.017  16.891
 7141SOL     OW33301   3.086   1.539   3.851
 7141SOL    HW133302   3.152   1.608   3.848
 7141SOL    HW233303   3.077   1.510   3.760
 7142SOL     OW33304   1.136   3.951   1.516
 7142SOL    HW133305   1.197   3.953   1.442
 7142SOL    HW233306   1.183   3.904   1.585
 7143SOL     OW33307   2.629   4.147   4.017
 7143SOL    HW133308   2.584   4.207   4.077
 7143SOL    HW233309   2.690   4.203   3.968
 7144SOL     OW33310   1.299   2.705   0.764
 7144SOL    HW133311   1.336   2.785   0.802
 7144SOL    HW233312   1.235   2.735   0.700
 7145SOL     OW33313   2.138   2.390   4.050
 7145SOL    HW133314   2.194   2.313   4.050
 7145SOL    HW233315   2.193   2.460   4.086
 7146SOL     OW33316   1.254   3.736  14.442
 7146SOL    HW133317   1.340   3.776  14.433
 7146SOL    HW233318   1.248   3.675  14.368
 7147SOL     OW33319   1.260   0.263  20.865
 7147SOL    HW133320   1.327   0.198  20.844
 7147SOL    HW233321   1.201   0.261  20.790
 7148SOL     OW33322   0.486   0.247   5.819
 7148SOL    HW133323   0.449   0.328   5.854
 7148SOL    HW233324   0.416   0.208   5.769
 7149SOL     OW33325   0.582   0.486  19.646
 7149SOL    HW133326   0.630   0.405  19.661
 7149SOL    HW233327   0.614   0.546  19.714
 7150SOL     OW33328   1.701   3.982  13.786
 7150SOL    HW133329   1.740   3.897  13.808
 7150SOL    HW233330   1.606   3.965  13.785
 7151SOL     OW33331   3.328   3.667  15.756
 7151SOL    HW133332   3.293   3.687  15.670
 7151SOL    HW233333   3.414   3.627  15.738
 7152SOL     OW33334   0.220   2.704  15.701
 7152SOL    HW133335   0.179   2.774  15.650
 7152SOL    HW233336   0.150   2.672  15.758
 7153SOL     OW33337   2.343   1.094   3.996
 7153SOL    HW133338   2.347   1.188   3.981
 7153SOL    HW233339   2.354   1.084   4.091
 7154SOL     OW33340   4.276   1.041  14.988
 7154SOL    HW133341   4.324   0.962  15.008
 7154SOL    HW233342   4.283   1.096  15.066
 7155SOL     OW33343   0.021   2.927  19.706
 7155SOL    HW133344   4.737   2.881  19.663
 7155SOL    HW233345   4.767   3.002  19.748
 7156SOL     OW33346   0.515   0.813  20.813
 7156SOL    HW133347   0.578   0.810  20.885
 7156SOL    HW233348   0.430   0.800  20.855
 7157SOL     OW33349   2.893   0.575   5.454
 7157SOL    HW133350   2.980   0.560   5.491
 7157SOL    HW233351   2.833   0.559   5.527
 7158SOL     OW33352   2.547   0.380  17.206
 7158SOL    HW133353   2.639   0.404  17.208
 7158SOL    HW233354   2.533   0.334  17.289
 7159SOL     OW33355   1.454   3.251  17.383
 7159SOL    HW133356   1.408   3.316  17.330
 7159SOL    HW233357   1.498   3.301  17.451
 7160SOL     OW33358   2.726   4.125  20.707
 7160SOL    HW133359   2.718   4.048  20.650
 7160SOL    HW233360   2.698   4.198  20.653
 7161SOL     OW33361   0.998   1.240  16.461
 7161SOL    HW133362   0.908   1.272  16.458
 7161SOL    HW233363   1.029   1.249  16.371
 7162SOL     OW33364   3.625   0.774   1.060
 7162SOL    HW133365   3.567   0.789   0.985
 7162SOL    HW233366   3.619   0.680   1.076
 7163SOL     OW33367   3.803   3.116  17.169
 7163SOL    HW133368   3.761   3.161  17.242
 7163SOL    HW233369   3.896   3.113  17.191
 7164SOL     OW33370   1.180   2.698   3.551
 7164SOL    HW133371   1.247   2.631   3.567
 7164SOL    HW233372   1.137   2.709   3.636
 7165SOL     OW33373   1.477   1.565   7.128
 7165SOL    HW133374   1.426   1.573   7.047
 7165SOL    HW233375   1.464   1.474   7.155
 7166SOL     OW33376   3.752   0.612   3.249
 7166SOL    HW133377   3.721   0.654   3.169
 7166SOL    HW233378   3.769   0.684   3.310
 7167SOL     OW33379   3.924   4.455   3.319
 7167SOL    HW133380   3.871   4.510   3.261
 7167SOL    HW233381   3.867   4.381   3.341
 7168SOL     OW33382   1.884   4.106  16.569
 7168SOL    HW133383   1.949   4.087  16.635
 7168SOL    HW233384   1.930   4.161  16.505
 7169SOL     OW33385   4.281   3.606  16.040
 7169SOL    HW133386   4.299   3.625  16.132
 7169SOL    HW233387   4.270   3.511  16.036
 7170SOL     OW33388   4.334   3.867   0.524
 7170SOL    HW133389   4.418   3.830   0.495
 7170SOL    HW233390   4.323   3.946   0.471
 7171SOL     OW33391   3.900   2.890  18.821
 7171SOL    HW133392   3.891   2.952  18.893
 7171SOL    HW233393   3.817   2.897  18.773
 7172SOL     OW33394   0.891   0.831   3.517
 7172SOL    HW133395   0.801   0.798   3.510
 7172SOL    HW233396   0.903   0.850   3.610
 7173SOL     OW33397   0.421   0.966   2.438
 7173SOL    HW133398   0.473   0.978   2.359
 7173SOL    HW233399   0.335   1.003   2.417
 7174SOL     OW33400   1.689   1.913   5.281
 7174SOL    HW133401   1.703   2.006   5.262
 7174SOL    HW233402   1.599   1.908   5.311
 7175SOL     OW33403   1.618   3.468   4.602
 7175SOL    HW133404   1.700   3.482   4.648
 7175SOL    HW233405   1.644   3.450   4.512
 7176SOL     OW33406   4.487   1.842   1.684
 7176SOL    HW133407   4.396   1.861   1.709
 7176SOL    HW233408   4.539   1.896   1.743
 7177SOL     OW33409   2.936   1.611   2.127
 7177SOL    HW133410   2.999   1.591   2.058
 7177SOL    HW233411   2.960   1.554   2.200
 7178SOL     OW33412   2.989   2.062  18.609
 7178SOL    HW133413   2.909   2.023  18.642
 7178SOL    HW233414   3.040   2.083  18.687
 7179SOL     OW33415   3.101   0.154  20.906
 7179SOL    HW133416   3.099   0.213  20.982
 7179SOL    HW233417   3.176   0.184  20.855
 7180SOL     OW33418   4.458   3.661   4.772
 7180SOL    HW133419   4.549   3.631   4.770
 7180SOL    HW233420   4.457   3.731   4.837
 7181SOL     OW33421   0.777   4.416  19.943
 7181SOL    HW133422   0.796   4.380  19.856
 7181SOL    HW233423   0.854   4.470  19.963
 7182SOL     OW33424   0.887   4.247  13.236
 7182SOL    HW133425   0.889   4.288  13.150
 7182SOL    HW233426   0.963   4.283  13.282
 7183SOL     OW33427   2.902   4.354  16.756
 7183SOL    HW133428   2.930   4.389  16.841
 7183SOL    HW233429   2.956   4.277  16.742
 7184SOL     OW33430   2.906   2.676  17.670
 7184SOL    HW133431   2.910   2.735  17.595
 7184SOL    HW233432   2.813   2.658  17.682
 7185SOL     OW33433   2.473   0.135  18.908
 7185SOL    HW133434   2.422   0.100  18.835
 7185SOL    HW233435   2.413   0.194  18.954
 7186SOL     OW33436   3.116   2.187  19.859
 7186SOL    HW133437   3.073   2.164  19.941
 7186SOL    HW233438   3.052   2.163  19.791
 7187SOL     OW33439   1.739   4.171  19.617
 7187SOL    HW133440   1.721   4.227  19.541
 7187SOL    HW233441   1.815   4.211  19.658
 7188SOL     OW33442   3.880   1.362   8.194
 7188SOL    HW133443   3.871   1.282   8.246
 7188SOL    HW233444   3.971   1.362   8.165
 7189SOL     OW33445   2.663   3.454  17.689
 7189SOL    HW133446   2.688   3.407  17.610
 7189SOL    HW233447   2.616   3.531  17.657
 7190SOL     OW33448   4.507   1.422   4.802
 7190SOL    HW133449   4.524   1.435   4.895
 7190SOL    HW233450   4.428   1.368   4.799
 7191SOL     OW33451   4.537   2.730  15.674
 7191SOL    HW133452   4.570   2.818  15.693
 7191SOL    HW233453   4.602   2.671  15.713
 7192SOL     OW33454   2.509   1.029   5.684
 7192SOL    HW133455   2.540   1.067   5.766
 7192SOL    HW233456   2.526   0.935   5.693
 7193SOL     OW33457   2.854   0.738   1.329
 7193SOL    HW133458   2.867   0.830   1.308
 7193SOL    HW233459   2.933   0.695   1.295
 7194SOL     OW33460   0.265   2.752   5.507
 7194SOL    HW133461   0.260   2.834   5.556
 7194SOL    HW233462   0.277   2.684   5.573
 7195SOL     OW33463   1.170   3.223   5.472
 7195SOL    HW133464   1.257   3.251   5.442
 7195SOL    HW233465   1.117   3.302   5.469
 7196SOL     OW33466   1.602   2.648   8.961
 7196SOL    HW133467   1.668   2.589   8.925
 7196SOL    HW233468   1.643   2.734   8.957
 7197SOL     OW33469   0.759   4.180   5.807
 7197SOL    HW133470   0.708   4.146   5.881
 7197SOL    HW233471   0.759   4.108   5.744
 7198SOL     OW33472   1.181   0.953   2.159
 7198SOL    HW133473   1.110   0.979   2.218
 7198SOL    HW233474   1.147   0.876   2.114
 7199SOL     OW33475   4.689   4.589   5.419
 7199SOL    HW133476   4.750   4.661   5.436
 7199SOL    HW233477   4.686   4.539   5.500
 7200SOL     OW33478   0.269   2.575  15.453
 7200SOL    HW133479   0.313   2.502  15.497
 7200SOL    HW233480   0.256   2.640  15.523
 7201SOL     OW33481   2.566   0.435  16.276
 7201SOL    HW133482   2.563   0.341  16.295
 7201SOL    HW233483   2.557   0.441  16.181
 7202SOL     OW33484   0.717   2.368   1.527
 7202SOL    HW133485   0.735   2.315   1.448
 7202SOL    HW233486   0.772   2.445   1.516
 7203SOL     OW33487   2.234   1.876   2.660
 7203SOL    HW133488   2.203   1.966   2.662
 7203SOL    HW233489   2.326   1.882   2.635
 7204SOL     OW33490   2.797   0.660  20.345
 7204SOL    HW133491   2.858   0.598  20.386
 7204SOL    HW233492   2.807   0.740  20.397
 7205SOL     OW33493   4.237   1.418  17.670
 7205SOL    HW133494   4.326   1.385  17.685
 7205SOL    HW233495   4.219   1.396  17.579
 7206SOL     OW33496   1.791   4.421   1.147
 7206SOL    HW133497   1.835   4.466   1.218
 7206SOL    HW233498   1.861   4.396   1.087
 7207SOL     OW33499   1.376   0.946   0.559
 7207SOL    HW133500   1.467   0.954   0.587
 7207SOL    HW233501   1.381   0.920   0.467
 7208SOL     OW33502   2.297   1.485   0.731
 7208SOL    HW133503   2.379   1.520   0.697
 7208SOL    HW233504   2.316   1.462   0.822
 7209SOL     OW33505   2.404   2.951  11.193
 7209SOL    HW133506   2.319   2.907  11.183
 7209SOL    HW233507   2.469   2.881  11.185
 7210SOL     OW33508   4.488   3.683  12.937
 7210SOL    HW133509   4.430   3.622  12.891
 7210SOL    HW233510   4.470   3.768  12.896
 7211SOL     OW33511   2.077   1.591  17.543
 7211SOL    HW133512   2.033   1.506  17.540
 7211SOL    HW233513   2.124   1.596  17.460
 7212SOL     OW33514   0.605   3.044   3.785
 7212SOL    HW133515   0.517   3.007   3.796
 7212SOL    HW233516   0.598   3.132   3.822
 7213SOL     OW33517   1.669   2.722  16.564
 7213SOL    HW133518   1.577   2.744  16.545
 7213SOL    HW233519   1.709   2.712  16.478
 7214SOL     OW33520   4.355   2.635  17.480
 7214SOL    HW133521   4.316   2.626  17.567
 7214SOL    HW233522   4.374   2.729  17.472
 7215SOL     OW33523   3.894   2.692   1.767
 7215SOL    HW133524   3.880   2.786   1.759
 7215SOL    HW233525   3.887   2.675   1.861
 7216SOL     OW33526   1.592   1.286  13.184
 7216SOL    HW133527   1.530   1.232  13.233
 7216SOL    HW233528   1.630   1.345  13.249
 7217SOL     OW33529   0.771   0.017   1.266
 7217SOL    HW133530   0.689   0.063   1.248
 7217SOL    HW233531   0.830   0.086   1.297
 7218SOL     OW33532   0.142   3.953   0.347
 7218SOL    HW133533   0.073   3.964   0.281
 7218SOL    HW233534   0.209   3.900   0.303
 7219SOL     OW33535   1.913   2.119   1.101
 7219SOL    HW133536   1.932   2.150   1.012
 7219SOL    HW233537   1.979   2.160   1.156
 7220SOL     OW33538   1.565   2.825   5.821
 7220SOL    HW133539   1.524   2.771   5.888
 7220SOL    HW233540   1.519   2.909   5.827
 7221SOL     OW33541   0.318   4.100   2.479
 7221SOL    HW133542   0.371   4.167   2.523
 7221SOL    HW233543   0.228   4.121   2.503
 7222SOL     OW33544   1.685   0.004  16.235
 7222SOL    HW133545   1.611   4.753  16.283
 7222SOL    HW233546   1.644   0.064  16.173
 7223SOL     OW33547   2.229   4.553   0.038
 7223SOL    HW133548   2.313   4.580   0.073
 7223SOL    HW233549   2.206   4.474   0.087
 7224SOL     OW33550   3.443   3.516   2.175
 7224SOL    HW133551   3.354   3.516   2.210
 7224SOL    HW233552   3.485   3.592   2.215
 7225SOL     OW33553   2.043   1.252  12.365
 7225SOL    HW133554   2.058   1.158  12.354
 7225SOL    HW233555   1.981   1.275  12.297
 7226SOL     OW33556   0.030   1.188   4.425
 7226SOL    HW133557   4.737   1.239   4.411
 7226SOL    HW233558   0.021   1.155   4.514
 7227SOL     OW33559   2.184   1.758  15.739
 7227SOL    HW133560   2.260   1.812  15.718
 7227SOL    HW233561   2.115   1.791  15.681
 7228SOL     OW33562   4.148   4.443  13.726
 7228SOL    HW133563   4.201   4.366  13.706
 7228SOL    HW233564   4.201   4.517  13.696
 7229SOL     OW33565   1.015   3.482  11.426
 7229SOL    HW133566   1.085   3.545  11.437
 7229SOL    HW233567   1.045   3.404  11.472
 7230SOL     OW33568   1.783   0.067   5.509
 7230SOL    HW133569   1.766   4.763   5.530
 7230SOL    HW233570   1.732   0.083   5.430
 7231SOL     OW33571   3.756   2.709   4.158
 7231SOL    HW133572   3.750   2.678   4.248
 7231SOL    HW233573   3.667   2.737   4.137
 7232SOL     OW33574   4.042   3.305   2.595
 7232SOL    HW133575   4.000   3.391   2.601
 7232SOL    HW233576   3.987   3.256   2.534
 7233SOL     OW33577   1.223   4.779  17.241
 7233SOL    HW133578   1.226   0.087  17.238
 7233SOL    HW233579   1.131   4.758  17.258
 7234SOL     OW33580   4.054   3.405   2.174
 7234SOL    HW133581   4.118   3.415   2.245
 7234SOL    HW233582   4.072   3.318   2.138
 7235SOL     OW33583   0.944   1.985  15.163
 7235SOL    HW133584   0.852   1.959  15.159
 7235SOL    HW233585   0.991   1.904  15.184
 7236SOL     OW33586   4.460   2.367  19.219
 7236SOL    HW133587   4.413   2.430  19.272
 7236SOL    HW233588   4.451   2.400  19.129
 7237SOL     OW33589   4.671   0.987  17.190
 7237SOL    HW133590   4.601   0.923  17.206
 7237SOL    HW233591   4.689   1.025  17.276
 7238SOL     OW33592   0.432   0.733  17.254
 7238SOL    HW133593   0.374   0.807  17.239
 7238SOL    HW233594   0.431   0.684  17.172
 7239SOL     OW33595   3.977   2.104  16.159
 7239SOL    HW133596   3.930   2.021  16.154
 7239SOL    HW233597   3.921   2.167  16.113
 7240SOL     OW33598   4.464   2.958   6.981
 7240SOL    HW133599   4.450   3.031   7.041
 7240SOL    HW233600   4.462   2.998   6.894
 7241SOL     OW33601   1.548   1.376  16.054
 7241SOL    HW133602   1.510   1.452  16.011
 7241SOL    HW233603   1.632   1.407  16.089
 7242SOL     OW33604   4.322   0.231   3.671
 7242SOL    HW133605   4.280   0.315   3.685
 7242SOL    HW233606   4.396   0.250   3.613
 7243SOL     OW33607   1.977   3.984   4.003
 7243SOL    HW133608   1.888   3.990   4.038
 7243SOL    HW233609   2.017   4.068   4.025
 7244SOL     OW33610   4.656   0.629  18.320
 7244SOL    HW133611   4.606   0.617  18.401
 7244SOL    HW233612   4.682   0.722  18.322
 7245SOL     OW33613   2.207   0.585  21.139
 7245SOL    HW133614   2.259   0.655  21.177
 7245SOL    HW233615   2.120   0.622  21.129
 7246SOL     OW33616   2.037   1.661   1.475
 7246SOL    HW133617   1.997   1.578   1.499
 7246SOL    HW233618   1.968   1.709   1.429
 7247SOL     OW33619   4.574   3.275  18.825
 7247SOL    HW133620   4.575   3.290  18.731
 7247SOL    HW233621   4.665   3.289  18.853
 7248SOL     OW33622   4.028   3.601  15.559
 7248SOL    HW133623   3.996   3.557  15.638
 7248SOL    HW233624   4.025   3.534  15.492
 7249SOL     OW33625   3.202   0.758  16.174
 7249SOL    HW133626   3.229   0.828  16.234
 7249SOL    HW233627   3.107   0.750  16.187
 7250SOL     OW33628   1.544   3.801  17.913
 7250SOL    HW133629   1.462   3.764  17.880
 7250SOL    HW233630   1.598   3.725  17.933
 7251SOL     OW33631   1.090   2.372   2.882
 7251SOL    HW133632   1.023   2.359   2.949
 7251SOL    HW233633   1.043   2.368   2.799
 7252SOL     OW33634   2.570   1.359   7.865
 7252SOL    HW133635   2.536   1.403   7.942
 7252SOL    HW233636   2.662   1.342   7.885
 7253SOL     OW33637   3.338   1.220  17.167
 7253SOL    HW133638   3.308   1.150  17.226
 7253SOL    HW233639   3.318   1.301  17.214
 7254SOL     OW33640   3.285   2.552   6.756
 7254SOL    HW133641   3.364   2.591   6.793
 7254SOL    HW233642   3.213   2.596   6.800
 7255SOL     OW33643   4.687   0.551   1.557
 7255SOL    HW133644   4.734   0.593   1.485
 7255SOL    HW233645   4.746   0.555   1.632
 7256SOL     OW33646   0.413   4.629  18.653
 7256SOL    HW133647   0.432   4.560  18.590
 7256SOL    HW233648   0.434   4.591  18.738
 7257SOL     OW33649   3.153   0.148   1.069
 7257SOL    HW133650   3.212   0.147   0.994
 7257SOL    HW233651   3.180   0.223   1.121
 7258SOL     OW33652   3.679   2.809  19.444
 7258SOL    HW133653   3.646   2.747  19.509
 7258SOL    HW233654   3.630   2.789  19.364
 7259SOL     OW33655   0.366   4.452  18.015
 7259SOL    HW133656   0.297   4.465  18.079
 7259SOL    HW233657   0.320   4.442  17.931
 7260SOL     OW33658   0.818   4.258   5.394
 7260SOL    HW133659   0.762   4.325   5.433
 7260SOL    HW233660   0.902   4.302   5.378
 7261SOL     OW33661   3.213   3.631  18.063
 7261SOL    HW133662   3.187   3.540  18.047
 7261SOL    HW233663   3.271   3.652  17.990
 7262SOL     OW33664   1.366   4.061  14.248
 7262SOL    HW133665   1.446   4.085  14.202
 7262SOL    HW233666   1.296   4.106  14.200
 7263SOL     OW33667   3.981   3.972   5.376
 7263SOL    HW133668   4.053   3.932   5.328
 7263SOL    HW233669   3.982   3.930   5.462
 7264SOL     OW33670   4.303   3.752   2.343
 7264SOL    HW133671   4.228   3.807   2.323
 7264SOL    HW233672   4.361   3.762   2.267
 7265SOL     OW33673   3.476   2.164   2.355
 7265SOL    HW133674   3.436   2.077   2.352
 7265SOL    HW233675   3.413   2.221   2.311
 7266SOL     OW33676   1.566   1.044   9.304
 7266SOL    HW133677   1.581   1.037   9.398
 7266SOL    HW233678   1.571   1.138   9.286
 7267SOL     OW33679   3.907   4.095  16.217
 7267SOL    HW133680   3.837   4.157  16.198
 7267SOL    HW233681   3.980   4.149  16.247
 7268SOL     OW33682   3.364   1.392   2.933
 7268SOL    HW133683   3.334   1.448   2.862
 7268SOL    HW233684   3.302   1.320   2.935
 7269SOL     OW33685   2.484   0.985  19.319
 7269SOL    HW133686   2.409   1.027  19.362
 7269SOL    HW233687   2.560   1.019  19.366
 7270SOL     OW33688   2.140   2.294  13.949
 7270SOL    HW133689   2.191   2.276  14.028
 7270SOL    HW233690   2.093   2.375  13.970
 7271SOL     OW33691   3.328   3.192   4.418
 7271SOL    HW133692   3.249   3.228   4.377
 7271SOL    HW233693   3.351   3.255   4.485
 7272SOL     OW33694   2.581   0.822  18.008
 7272SOL    HW133695   2.494   0.838  17.970
 7272SOL    HW233696   2.564   0.795  18.098
 7273SOL     OW33697   0.953   0.716   4.875
 7273SOL    HW133698   0.959   0.640   4.932
 7273SOL    HW233699   0.979   0.684   4.788
 7274SOL     OW33700   1.544   4.230  18.685
 7274SOL    HW133701   1.452   4.208  18.679
 7274SOL    HW233702   1.564   4.225  18.779
 7275SOL     OW33703   4.543   3.640  15.001
 7275SOL    HW133704   4.471   3.639  14.937
 7275SOL    HW233705   4.527   3.718  15.053
 7276SOL     OW33706   3.540   4.182  17.632
 7276SOL    HW133707   3.484   4.203  17.706
 7276SOL    HW233708   3.542   4.086  17.629
 7277SOL     OW33709   1.214   3.104  16.322
 7277SOL    HW133710   1.151   3.165  16.283
 7277SOL    HW233711   1.194   3.020  16.282
 7278SOL     OW33712   1.801   3.137  18.943
 7278SOL    HW133713   1.770   3.047  18.932
 7278SOL    HW233714   1.756   3.169  19.022
 7279SOL     OW33715   3.048   1.351  14.564
 7279SOL    HW133716   3.112   1.335  14.633
 7279SOL    HW233717   3.094   1.407  14.502
 7280SOL     OW33718   2.500   1.130   2.767
 7280SOL    HW133719   2.459   1.168   2.689
 7280SOL    HW233720   2.438   1.147   2.837
 7281SOL     OW33721   1.717   1.617  18.882
 7281SOL    HW133722   1.800   1.641  18.843
 7281SOL    HW233723   1.721   1.650  18.972
 7282SOL     OW33724   4.644   2.349   3.397
 7282SOL    HW133725   4.561   2.358   3.351
 7282SOL    HW233726   4.627   2.284   3.465
 7283SOL     OW33727   2.779   1.833   4.192
 7283SOL    HW133728   2.835   1.823   4.115
 7283SOL    HW233729   2.818   1.907   4.240
 7284SOL     OW33730   1.241   1.226   2.055
 7284SOL    HW133731   1.217   1.137   2.079
 7284SOL    HW233732   1.290   1.260   2.129
 7285SOL     OW33733   2.668   0.764  20.108
 7285SOL    HW133734   2.701   0.709  20.179
 7285SOL    HW233735   2.574   0.773  20.126
 7286SOL     OW33736   0.789   2.955  17.302
 7286SOL    HW133737   0.833   2.911  17.230
 7286SOL    HW233738   0.800   2.897  17.377
 7287SOL     OW33739   1.646   3.546  17.910
 7287SOL    HW133740   1.644   3.490  17.832
 7287SOL    HW233741   1.604   3.493  17.978
 7288SOL     OW33742   3.754   2.695   3.771
 7288SOL    HW133743   3.697   2.768   3.793
 7288SOL    HW233744   3.713   2.654   3.695
 7289SOL     OW33745   3.868   4.400   2.966
 7289SOL    HW133746   3.922   4.405   3.045
 7289SOL    HW233747   3.882   4.483   2.921
 7290SOL     OW33748   4.143   4.082  13.626
 7290SOL    HW133749   4.163   4.157  13.571
 7290SOL    HW233750   4.132   4.118  13.714
 7291SOL     OW33751   2.339   1.331   6.327
 7291SOL    HW133752   2.371   1.281   6.252
 7291SOL    HW233753   2.367   1.421   6.310
 7292SOL     OW33754   1.003   4.587  20.082
 7292SOL    HW133755   1.092   4.599  20.049
 7292SOL    HW233756   1.003   4.631  20.167
 7293SOL     OW33757   2.308   4.221  15.736
 7293SOL    HW133758   2.335   4.146  15.788
 7293SOL    HW233759   2.231   4.256  15.781
 7294SOL     OW33760   2.513   4.577   1.963
 7294SOL    HW133761   2.526   4.501   1.906
 7294SOL    HW233762   2.530   4.544   2.051
 7295SOL     OW33763   4.263   1.264  15.764
 7295SOL    HW133764   4.260   1.356  15.791
 7295SOL    HW233765   4.342   1.257  15.711
 7296SOL     OW33766   4.088   0.877  17.673
 7296SOL    HW133767   4.069   0.807  17.735
 7296SOL    HW233768   4.045   0.954  17.710
 7297SOL     OW33769   1.058   4.342  15.612
 7297SOL    HW133770   1.086   4.310  15.698
 7297SOL    HW233771   0.963   4.355  15.621
 7298SOL     OW33772   0.439   0.335   1.487
 7298SOL    HW133773   0.450   0.429   1.501
 7298SOL    HW233774   0.379   0.329   1.412
 7299SOL     OW33775   4.394   1.177   5.174
 7299SOL    HW133776   4.397   1.268   5.146
 7299SOL    HW233777   4.316   1.141   5.130
 7300SOL     OW33778   1.187   0.508  13.810
 7300SOL    HW133779   1.215   0.598  13.792
 7300SOL    HW233780   1.260   0.469  13.859
 7301SOL     OW33781   3.287   0.579   4.589
 7301SOL    HW133782   3.220   0.631   4.634
 7301SOL    HW233783   3.242   0.500   4.561
 7302SOL     OW33784   1.569   1.581  19.863
 7302SOL    HW133785   1.629   1.527  19.811
 7302SOL    HW233786   1.512   1.622  19.799
 7303SOL     OW33787   0.558   2.950  15.106
 7303SOL    HW133788   0.543   2.893  15.181
 7303SOL    HW233789   0.650   2.976  15.114
 7304SOL     OW33790   3.076   1.257  15.431
 7304SOL    HW133791   3.122   1.310  15.496
 7304SOL    HW233792   3.133   1.181  15.419
 7305SOL     OW33793   2.984   1.810   4.010
 7305SOL    HW133794   2.946   1.793   3.924
 7305SOL    HW233795   2.996   1.723   4.049
 7306SOL     OW33796   4.605   0.135  18.984
 7306SOL    HW133797   4.649   0.220  18.989
 7306SOL    HW233798   4.585   0.112  19.074
 7307SOL     OW33799   1.333   0.992  15.851
 7307SOL    HW133800   1.342   1.078  15.809
 7307SOL    HW233801   1.323   1.012  15.944
 7308SOL     OW33802   3.610   1.809   5.582
 7308SOL    HW133803   3.539   1.746   5.593
 7308SOL    HW233804   3.675   1.762   5.529
 7309SOL     OW33805   4.065   4.493  19.800
 7309SOL    HW133806   4.124   4.568  19.808
 7309SOL    HW233807   4.049   4.465  19.890
 7310SOL     OW33808   0.859   2.364   0.275
 7310SOL    HW133809   0.872   2.288   0.219
 7310SOL    HW233810   0.814   2.329   0.352
 7311SOL     OW33811   3.271   0.693  20.540
 7311SOL    HW133812   3.331   0.624  20.572
 7311SOL    HW233813   3.329   0.760  20.504
 7312SOL     OW33814   3.398   1.043   6.953
 7312SOL    HW133815   3.478   1.068   6.907
 7312SOL    HW233816   3.333   1.032   6.884
 7313SOL     OW33817   3.550   3.312  15.172
 7313SOL    HW133818   3.600   3.363  15.237
 7313SOL    HW233819   3.571   3.221  15.193
 7314SOL     OW33820   0.541   0.374   0.727
 7314SOL    HW133821   0.611   0.371   0.661
 7314SOL    HW233822   0.569   0.313   0.795
 7315SOL     OW33823   0.101   0.840  18.361
 7315SOL    HW133824   0.153   0.794  18.427
 7315SOL    HW233825   0.089   0.928  18.398
 7316SOL     OW33826   0.458   1.456  19.706
 7316SOL    HW133827   0.535   1.462  19.649
 7316SOL    HW233828   0.487   1.404  19.781
 7317SOL     OW33829   3.468   1.905  16.240
 7317SOL    HW133830   3.498   1.823  16.200
 7317SOL    HW233831   3.373   1.899  16.239
 7318SOL     OW33832   3.160   3.681   1.377
 7318SOL    HW133833   3.209   3.610   1.336
 7318SOL    HW233834   3.107   3.637   1.445
 7319SOL     OW33835   0.949   0.975  16.633
 7319SOL    HW133836   0.862   0.935  16.639
 7319SOL    HW233837   0.938   1.046  16.569
 7320SOL     OW33838   1.045   3.711   5.465
 7320SOL    HW133839   1.044   3.800   5.429
 7320SOL    HW233840   1.053   3.654   5.389
 7321SOL     OW33841   4.727   3.504   8.060
 7321SOL    HW133842   4.704   3.536   8.147
 7321SOL    HW233843   4.650   3.520   8.007
 7322SOL     OW33844   0.203   1.086  15.857
 7322SOL    HW133845   0.225   1.178  15.868
 7322SOL    HW233846   0.266   1.040  15.913
 7323SOL     OW33847   3.536   0.560  19.942
 7323SOL    HW133848   3.561   0.588  20.030
 7323SOL    HW233849   3.442   0.545  19.946
 7324SOL     OW33850   1.465   0.675   1.110
 7324SOL    HW133851   1.412   0.596   1.120
 7324SOL    HW233852   1.476   0.685   1.015
 7325SOL     OW33853   4.232   0.075   1.039
 7325SOL    HW133854   4.296   0.006   1.058
 7325SOL    HW233855   4.281   0.140   0.989
 7326SOL     OW33856   4.329   4.489   3.835
 7326SOL    HW133857   4.239   4.519   3.822
 7326SOL    HW233858   4.334   4.470   3.929
 7327SOL     OW33859   0.666   0.408  18.738
 7327SOL    HW133860   0.711   0.381  18.818
 7327SOL    HW233861   0.716   0.483  18.706
 7328SOL     OW33862   2.307   2.890  20.224
 7328SOL    HW133863   2.250   2.966  20.215
 7328SOL    HW233864   2.267   2.838  20.294
 7329SOL     OW33865   0.261   3.923  13.355
 7329SOL    HW133866   0.210   3.928  13.275
 7329SOL    HW233867   0.341   3.972  13.336
 7330SOL     OW33868   1.597   2.630  21.192
 7330SOL    HW133869   1.664   2.565  21.213
 7330SOL    HW233870   1.646   2.707  21.165
 7331SOL     OW33871   3.879   2.879  20.195
 7331SOL    HW133872   3.796   2.924  20.180
 7331SOL    HW233873   3.894   2.828  20.116
 7332SOL     OW33874   4.747   3.469   4.174
 7332SOL    HW133875   0.020   3.463   4.248
 7332SOL    HW233876   4.760   3.558   4.140
 7333SOL     OW33877   0.082   3.702  16.606
 7333SOL    HW133878   0.113   3.790  16.629
 7333SOL    HW233879   0.069   3.706  16.512
 7334SOL     OW33880   4.448   1.713  17.334
 7334SOL    HW133881   4.506   1.723  17.258
 7334SOL    HW233882   4.462   1.793  17.385
 7335SOL     OW33883   0.727   0.604   1.595
 7335SOL    HW133884   0.670   0.548   1.648
 7335SOL    HW233885   0.676   0.684   1.582
 7336SOL     OW33886   4.295   3.225   4.621
 7336SOL    HW133887   4.345   3.290   4.571
 7336SOL    HW233888   4.268   3.161   4.555
 7337SOL     OW33889   1.666   2.999  20.559
 7337SOL    HW133890   1.692   2.946  20.634
 7337SOL    HW233891   1.640   3.083  20.596
 7338SOL     OW33892   3.951   4.700  16.983
 7338SOL    HW133893   4.020   4.658  16.933
 7338SOL    HW233894   3.990   4.781  17.016
 7339SOL     OW33895   1.056   4.664  16.017
 7339SOL    HW133896   0.984   4.633  15.961
 7339SOL    HW233897   1.133   4.616  15.986
 7340SOL     OW33898   1.937   1.499  19.466
 7340SOL    HW133899   1.940   1.564  19.537
 7340SOL    HW233900   1.856   1.520  19.420
 7341SOL     OW33901   0.774   2.885   3.544
 7341SOL    HW133902   0.679   2.872   3.537
 7341SOL    HW233903   0.809   2.844   3.465
 7342SOL     OW33904   1.238   2.385  18.612
 7342SOL    HW133905   1.220   2.384  18.518
 7342SOL    HW233906   1.153   2.367  18.653
 7343SOL     OW33907   3.851   4.649   2.649
 7343SOL    HW133908   3.846   4.588   2.575
 7343SOL    HW233909   3.912   4.716   2.620
 7344SOL     OW33910   1.578   3.064  13.845
 7344SOL    HW133911   1.606   3.017  13.767
 7344SOL    HW233912   1.651   3.123  13.866
 7345SOL     OW33913   3.214   0.903  15.655
 7345SOL    HW133914   3.137   0.923  15.709
 7345SOL    HW233915   3.268   0.847  15.710
 7346SOL     OW33916   3.482   4.459   5.559
 7346SOL    HW133917   3.395   4.472   5.596
 7346SOL    HW233918   3.497   4.536   5.504
 7347SOL     OW33919   0.085   1.760   7.634
 7347SOL    HW133920   0.180   1.751   7.638
 7347SOL    HW233921   0.053   1.709   7.709
 7348SOL     OW33922   3.139   0.225  19.178
 7348SOL    HW133923   3.063   0.225  19.120
 7348SOL    HW233924   3.127   0.148  19.234
 7349SOL     OW33925   0.644   3.684   5.757
 7349SOL    HW133926   0.685   3.637   5.685
 7349SOL    HW233927   0.680   3.644   5.836
 7350SOL     OW33928   3.956   4.509  14.185
 7350SOL    HW133929   3.959   4.457  14.105
 7350SOL    HW233930   3.949   4.599  14.154
 7351SOL     OW33931   0.537   4.441  14.789
 7351SOL    HW133932   0.601   4.442  14.717
 7351SOL    HW233933   0.584   4.479  14.863
 7352SOL     OW33934   3.750   4.770  21.228
 7352SOL    HW133935   3.836   4.771  21.184
 7352SOL    HW233936   3.707   4.692  21.194
 7353SOL     OW33937   1.672   2.213  17.100
 7353SOL    HW133938   1.713   2.271  17.164
 7353SOL    HW233939   1.722   2.226  17.020
 7354SOL     OW33940   0.810   2.084   1.686
 7354SOL    HW133941   0.716   2.076   1.699
 7354SOL    HW233942   0.821   2.159   1.627
 7355SOL     OW33943   1.634   0.045   6.631
 7355SOL    HW133944   1.625   0.044   6.536
 7355SOL    HW233945   1.546   0.066   6.663
 7356SOL     OW33946   0.709   1.038  20.088
 7356SOL    HW133947   0.720   0.954  20.044
 7356SOL    HW233948   0.623   1.031  20.131
 7357SOL     OW33949   0.466   1.389  14.769
 7357SOL    HW133950   0.438   1.380  14.860
 7357SOL    HW233951   0.505   1.304  14.748
 7358SOL     OW33952   1.799   3.225  21.141
 7358SOL    HW133953   1.775   3.202  21.052
 7358SOL    HW233954   1.717   3.220  21.190
 7359SOL     OW33955   0.403   2.447  18.522
 7359SOL    HW133956   0.467   2.499  18.572
 7359SOL    HW233957   0.345   2.410  18.589
 7360SOL     OW33958   4.479   2.860   5.758
 7360SOL    HW133959   4.488   2.774   5.718
 7360SOL    HW233960   4.441   2.915   5.690
 7361SOL     OW33961   3.755   3.790   0.489
 7361SOL    HW133962   3.659   3.782   0.488
 7361SOL    HW233963   3.786   3.699   0.484
 7362SOL     OW33964   1.969   0.129   6.742
 7362SOL    HW133965   1.897   0.107   6.683
 7362SOL    HW233966   2.048   0.106   6.692
 7363SOL     OW33967   0.665   0.975   1.055
 7363SOL    HW133968   0.729   1.019   0.999
 7363SOL    HW233969   0.718   0.927   1.119
 7364SOL     OW33970   4.547   1.565   7.608
 7364SOL    HW133971   4.547   1.655   7.577
 7364SOL    HW233972   4.477   1.522   7.560
 7365SOL     OW33973   2.560   3.735  20.947
 7365SOL    HW133974   2.537   3.772  21.032
 7365SOL    HW233975   2.581   3.643  20.966
 7366SOL     OW33976   3.295   0.413  19.260
 7366SOL    HW133977   3.245   0.336  19.233
 7366SOL    HW233978   3.233   0.485  19.256
 7367SOL     OW33979   2.411   1.903  18.905
 7367SOL    HW133980   2.404   1.837  18.974
 7367SOL    HW233981   2.432   1.984  18.951
 7368SOL     OW33982   0.479   2.952   8.433
 7368SOL    HW133983   0.559   2.998   8.409
 7368SOL    HW233984   0.439   3.006   8.501
 7369SOL     OW33985   4.419   3.376  19.674
 7369SOL    HW133986   4.356   3.447  19.666
 7369SOL    HW233987   4.420   3.335  19.588
 7370SOL     OW33988   3.190   2.924  15.708
 7370SOL    HW133989   3.189   3.008  15.662
 7370SOL    HW233990   3.115   2.929  15.767
 7371SOL     OW33991   1.459   2.264   2.879
 7371SOL    HW133992   1.515   2.338   2.855
 7371SOL    HW233993   1.418   2.290   2.961
 7372SOL     OW33994   1.744   1.611  16.390
 7372SOL    HW133995   1.723   1.517  16.391
 7372SOL    HW233996   1.708   1.644  16.472
 7373SOL     OW33997   2.575   2.652  16.562
 7373SOL    HW133998   2.617   2.644  16.648
 7373SOL    HW233999   2.481   2.642  16.580
 7374SOL     OW34000   3.531   3.506   5.546
 7374SOL    HW134001   3.478   3.572   5.591
 7374SOL    HW234002   3.530   3.533   5.454
 7375SOL     OW34003   3.697   1.751   4.274
 7375SOL    HW134004   3.614   1.720   4.310
 7375SOL    HW234005   3.704   1.841   4.305
 7376SOL     OW34006   2.445   1.181   6.127
 7376SOL    HW134007   2.425   1.114   6.061
 7376SOL    HW234008   2.503   1.137   6.189
 7377SOL     OW34009   0.050   2.998  17.003
 7377SOL    HW134010   4.758   2.975  17.051
 7377SOL    HW234011   0.048   2.942  16.925
 7378SOL     OW34012   2.290   3.943   6.011
 7378SOL    HW134013   2.297   4.032   5.978
 7378SOL    HW234014   2.343   3.943   6.091
 7379SOL     OW34015   1.023   4.058   0.848
 7379SOL    HW134016   0.997   4.110   0.923
 7379SOL    HW234017   1.119   4.066   0.845
 7380SOL     OW34018   4.252   1.637   5.434
 7380SOL    HW134019   4.198   1.703   5.389
 7380SOL    HW234020   4.249   1.561   5.376
 7381SOL     OW34021   0.410   3.664  17.481
 7381SOL    HW134022   0.505   3.658  17.474
 7381SOL    HW234023   0.395   3.713  17.562
 7382SOL     OW34024   2.457   1.405  16.757
 7382SOL    HW134025   2.427   1.372  16.672
 7382SOL    HW234026   2.439   1.333  16.818
 7383SOL     OW34027   3.726   0.413   0.871
 7383SOL    HW134028   3.718   0.335   0.925
 7383SOL    HW234029   3.737   0.379   0.782
 7384SOL     OW34030   3.682   4.558  14.640
 7384SOL    HW134031   3.772   4.573  14.668
 7384SOL    HW234032   3.650   4.643  14.610
 7385SOL     OW34033   1.201   1.619   2.844
 7385SOL    HW134034   1.296   1.617   2.858
 7385SOL    HW234035   1.190   1.675   2.767
 7386SOL     OW34036   4.507   3.213  20.613
 7386SOL    HW134037   4.481   3.142  20.554
 7386SOL    HW234038   4.495   3.176  20.701
 7387SOL     OW34039   1.325   3.470  18.625
 7387SOL    HW134040   1.395   3.522  18.665
 7387SOL    HW234041   1.358   3.448  18.539
 7388SOL     OW34042   2.843   1.652  17.862
 7388SOL    HW134043   2.868   1.566  17.829
 7388SOL    HW234044   2.834   1.639  17.957
 7389SOL     OW34045   2.401   0.559  15.933
 7389SOL    HW134046   2.388   0.472  15.970
 7389SOL    HW234047   2.474   0.549  15.872
 7390SOL     OW34048   4.179   0.209  18.575
 7390SOL    HW134049   4.185   0.291  18.624
 7390SOL    HW234050   4.216   0.144  18.634
 7391SOL     OW34051   2.895   0.178   4.897
 7391SOL    HW134052   2.802   0.172   4.875
 7391SOL    HW234053   2.919   0.089   4.924
 7392SOL     OW34054   2.642   4.499   5.804
 7392SOL    HW134055   2.725   4.507   5.757
 7392SOL    HW234056   2.581   4.465   5.738
 7393SOL     OW34057   0.087   1.142  16.155
 7393SOL    HW134058   0.139   1.222  16.145
 7393SOL    HW234059   0.010   1.156  16.099
 7394SOL     OW34060   3.871   1.682   4.503
 7394SOL    HW134061   3.839   1.704   4.415
 7394SOL    HW234062   3.882   1.587   4.501
 7395SOL     OW34063   0.527   0.598   1.795
 7395SOL    HW134064   0.502   0.582   1.886
 7395SOL    HW234065   0.460   0.658   1.762
 7396SOL     OW34066   4.288   1.250   4.844
 7396SOL    HW134067   4.301   1.158   4.867
 7396SOL    HW234068   4.218   1.279   4.902
 7397SOL     OW34069   2.326   2.371  11.535
 7397SOL    HW134070   2.368   2.431  11.596
 7397SOL    HW234071   2.281   2.429  11.472
 7398SOL     OW34072   4.130   1.857  16.315
 7398SOL    HW134073   4.132   1.796  16.242
 7398SOL    HW234074   4.041   1.852  16.350
 7399SOL     OW34075   2.727   0.701   6.082
 7399SOL    HW134076   2.655   0.641   6.065
 7399SOL    HW234077   2.791   0.648   6.130
 7400SOL     OW34078   2.159   4.234  19.623
 7400SOL    HW134079   2.156   4.306  19.560
 7400SOL    HW234080   2.252   4.215  19.633
 7401SOL     OW34081   3.346   3.874   3.072
 7401SOL    HW134082   3.388   3.885   2.987
 7401SOL    HW234083   3.385   3.942   3.127
 7402SOL     OW34084   4.432   1.169   9.057
 7402SOL    HW134085   4.438   1.199   8.966
 7402SOL    HW234086   4.456   1.077   9.054
 7403SOL     OW34087   2.400   0.892  16.913
 7403SOL    HW134088   2.458   0.911  16.839
 7403SOL    HW234089   2.419   0.801  16.936
 7404SOL     OW34090   4.767   3.581  19.228
 7404SOL    HW134091   4.671   3.582  19.234
 7404SOL    HW234092   0.008   3.541  19.310
 7405SOL     OW34093   0.104   2.460   3.869
 7405SOL    HW134094   0.104   2.556   3.868
 7405SOL    HW234095   0.101   2.437   3.962
 7406SOL     OW34096   4.298   1.851  18.278
 7406SOL    HW134097   4.340   1.892  18.354
 7406SOL    HW234098   4.204   1.863  18.293
 7407SOL     OW34099   2.539   3.304  17.879
 7407SOL    HW134100   2.501   3.366  17.941
 7407SOL    HW234101   2.572   3.359  17.808
 7408SOL     OW34102   2.807   2.475   8.195
 7408SOL    HW134103   2.714   2.451   8.197
 7408SOL    HW234104   2.853   2.392   8.179
 7409SOL     OW34105   2.691   3.006   2.764
 7409SOL    HW134106   2.615   2.966   2.805
 7409SOL    HW234107   2.728   2.937   2.709
 7410SOL     OW34108   1.997   0.583  19.407
 7410SOL    HW134109   2.006   0.492  19.379
 7410SOL    HW234110   2.037   0.634  19.336
 7411SOL     OW34111   2.442   4.244   0.238
 7411SOL    HW134112   2.408   4.163   0.277
 7411SOL    HW234113   2.523   4.262   0.286
 7412SOL     OW34114   0.439   3.886  15.031
 7412SOL    HW134115   0.357   3.837  15.039
 7412SOL    HW234116   0.411   3.978  15.032
 7413SOL     OW34117   0.711   0.168   3.170
 7413SOL    HW134118   0.782   0.231   3.175
 7413SOL    HW234119   0.754   0.084   3.155
 7414SOL     OW34120   3.740   0.389   4.625
 7414SOL    HW134121   3.688   0.470   4.622
 7414SOL    HW234122   3.707   0.343   4.703
 7415SOL     OW34123   4.223   1.706  13.887
 7415SOL    HW134124   4.266   1.791  13.878
 7415SOL    HW234125   4.283   1.654  13.941
 7416SOL     OW34126   3.408   0.530   0.537
 7416SOL    HW134127   3.394   0.597   0.471
 7416SOL    HW234128   3.331   0.474   0.532
 7417SOL     OW34129   2.418   2.671   0.472
 7417SOL    HW134130   2.422   2.767   0.474
 7417SOL    HW234131   2.381   2.651   0.386
 7418SOL     OW34132   3.945   2.912  18.491
 7418SOL    HW134133   4.002   2.874  18.558
 7418SOL    HW234134   4.002   2.975  18.446
 7419SOL     OW34135   0.129   4.271  15.907
 7419SOL    HW134136   0.082   4.339  15.955
 7419SOL    HW234137   0.175   4.317  15.838
 7420SOL     OW34138   0.177   1.285   6.203
 7420SOL    HW134139   0.232   1.207   6.210
 7420SOL    HW234140   0.164   1.314   6.293
 7421SOL     OW34141   2.793   4.682  21.015
 7421SOL    HW134142   2.858   4.644  21.075
 7421SOL    HW234143   2.842   4.697  20.934
 7422SOL     OW34144   0.023   0.319  12.359
 7422SOL    HW134145   0.038   0.365  12.442
 7422SOL    HW234146   0.103   0.268  12.345
 7423SOL     OW34147   4.370   2.835  16.476
 7423SOL    HW134148   4.289   2.794  16.508
 7423SOL    HW234149   4.407   2.878  16.553
 7424SOL     OW34150   3.947   3.619   2.047
 7424SOL    HW134151   3.871   3.586   1.999
 7424SOL    HW234152   3.981   3.543   2.095
 7425SOL     OW34153   3.268   2.717   1.906
 7425SOL    HW134154   3.344   2.685   1.955
 7425SOL    HW234155   3.283   2.811   1.895
 7426SOL     OW34156   1.705   1.729  16.663
 7426SOL    HW134157   1.703   1.663  16.732
 7426SOL    HW234158   1.630   1.785  16.681
 7427SOL     OW34159   0.445   4.454   4.558
 7427SOL    HW134160   0.383   4.396   4.515
 7427SOL    HW234161   0.415   4.542   4.537
 7428SOL     OW34162   0.717   1.809  16.585
 7428SOL    HW134163   0.658   1.824  16.659
 7428SOL    HW234164   0.801   1.787  16.626
 7429SOL     OW34165   1.647   1.158   1.302
 7429SOL    HW134166   1.629   1.086   1.242
 7429SOL    HW234167   1.625   1.124   1.388
 7430SOL     OW34168   1.007   4.293   0.686
 7430SOL    HW134169   1.090   4.332   0.713
 7430SOL    HW234170   1.000   4.211   0.736
 7431SOL     OW34171   0.184   2.004  20.188
 7431SOL    HW134172   0.113   2.062  20.161
 7431SOL    HW234173   0.258   2.028  20.131
 7432SOL     OW34174   3.635   4.188   5.342
 7432SOL    HW134175   3.581   4.162   5.417
 7432SOL    HW234176   3.682   4.109   5.317
 7433SOL     OW34177   3.558   4.318  16.575
 7433SOL    HW134178   3.585   4.386  16.637
 7433SOL    HW234179   3.610   4.242  16.599
 7434SOL     OW34180   4.446   0.226  15.369
 7434SOL    HW134181   4.497   0.221  15.289
 7434SOL    HW234182   4.387   0.300  15.356
 7435SOL     OW34183   2.476   3.320   8.758
 7435SOL    HW134184   2.521   3.383   8.815
 7435SOL    HW234185   2.525   3.239   8.768
 7436SOL     OW34186   4.332   2.841  20.220
 7436SOL    HW134187   4.252   2.890  20.233
 7436SOL    HW234188   4.310   2.775  20.154
 7437SOL     OW34189   1.164   3.277   5.759
 7437SOL    HW134190   1.142   3.286   5.666
 7437SOL    HW234191   1.184   3.184   5.770
 7438SOL     OW34192   2.664   0.168  19.569
 7438SOL    HW134193   2.689   0.085  19.529
 7438SOL    HW234194   2.571   0.177  19.548
 7439SOL     OW34195   0.491   4.178  18.645
 7439SOL    HW134196   0.565   4.199  18.702
 7439SOL    HW234197   0.471   4.261  18.601
 7440SOL     OW34198   0.660   3.774  20.167
 7440SOL    HW134199   0.566   3.784  20.184
 7440SOL    HW234200   0.666   3.696  20.112
 7441SOL     OW34201   2.370   4.199   2.803
 7441SOL    HW134202   2.375   4.125   2.742
 7441SOL    HW234203   2.460   4.211   2.833
 7442SOL     OW34204   0.386   3.659  20.753
 7442SOL    HW134205   0.468   3.612  20.734
 7442SOL    HW234206   0.382   3.727  20.686
 7443SOL     OW34207   3.577   1.706   3.751
 7443SOL    HW134208   3.520   1.741   3.682
 7443SOL    HW234209   3.650   1.666   3.703
 7444SOL     OW34210   1.590   3.250  17.904
 7444SOL    HW134211   1.641   3.186  17.855
 7444SOL    HW234212   1.521   3.277  17.845
 7445SOL     OW34213   0.722   3.447   1.151
 7445SOL    HW134214   0.651   3.507   1.172
 7445SOL    HW234215   0.784   3.499   1.099
 7446SOL     OW34216   3.012   2.035   2.903
 7446SOL    HW134217   2.922   2.003   2.898
 7446SOL    HW234218   3.006   2.116   2.955
 7447SOL     OW34219   0.639   0.361  15.491
 7447SOL    HW134220   0.612   0.449  15.520
 7447SOL    HW234221   0.598   0.302  15.555
 7448SOL     OW34222   1.618   2.638   3.933
 7448SOL    HW134223   1.626   2.557   3.884
 7448SOL    HW234224   1.532   2.672   3.911
 7449SOL     OW34225   0.640   2.906   2.783
 7449SOL    HW134226   0.642   2.814   2.756
 7449SOL    HW234227   0.548   2.929   2.783
 7450SOL     OW34228   2.535   2.798   1.992
 7450SOL    HW134229   2.630   2.792   1.985
 7450SOL    HW234230   2.512   2.880   1.948
 7451SOL     OW34231   2.528   0.493   5.872
 7451SOL    HW134232   2.572   0.420   5.915
 7451SOL    HW234233   2.436   0.465   5.866
 7452SOL     OW34234   0.800   3.800  19.500
 7452SOL    HW134235   0.829   3.759  19.418
 7452SOL    HW234236   0.709   3.822  19.485
 7453SOL     OW34237   1.156   1.265   3.405
 7453SOL    HW134238   1.229   1.262   3.468
 7453SOL    HW234239   1.114   1.180   3.413
 7454SOL     OW34240   0.999   4.465  17.920
 7454SOL    HW134241   1.059   4.448  17.847
 7454SOL    HW234242   1.048   4.522  17.979
 7455SOL     OW34243   3.011   0.899  17.260
 7455SOL    HW134244   3.053   0.839  17.321
 7455SOL    HW234245   2.923   0.912  17.297
 7456SOL     OW34246   1.791   3.711  16.417
 7456SOL    HW134247   1.853   3.735  16.348
 7456SOL    HW234248   1.743   3.792  16.436
 7457SOL     OW34249   2.593   4.234  18.369
 7457SOL    HW134250   2.562   4.325  18.374
 7457SOL    HW234251   2.649   4.232  18.292
 7458SOL     OW34252   0.252   2.752  18.733
 7458SOL    HW134253   0.188   2.715  18.671
 7458SOL    HW234254   0.204   2.758  18.815
 7459SOL     OW34255   4.648   0.055  19.251
 7459SOL    HW134256   4.634   4.750  19.271
 7459SOL    HW234257   4.634   0.100  19.334
 7460SOL     OW34258   0.177   3.359   1.490
 7460SOL    HW134259   0.177   3.284   1.431
 7460SOL    HW234260   0.128   3.329   1.567
 7461SOL     OW34261   4.354   0.288  15.989
 7461SOL    HW134262   4.366   0.380  16.015
 7461SOL    HW234263   4.430   0.243  16.025
 7462SOL     OW34264   3.625   2.526  19.896
 7462SOL    HW134265   3.560   2.507  19.964
 7462SOL    HW234266   3.656   2.440  19.868
 7463SOL     OW34267   2.999   2.212  20.708
 7463SOL    HW134268   3.076   2.269  20.715
 7463SOL    HW234269   2.953   2.243  20.630
 7464SOL     OW34270   2.898   4.547   0.982
 7464SOL    HW134271   2.965   4.481   0.964
 7464SOL    HW234272   2.906   4.610   0.910
 7465SOL     OW34273   4.676   3.884  20.769
 7465SOL    HW134274   4.739   3.943  20.729
 7465SOL    HW234275   4.693   3.799  20.727
 7466SOL     OW34276   4.762   3.682  12.829
 7466SOL    HW134277   4.695   3.680  12.897
 7466SOL    HW234278   4.766   3.592  12.797
 7467SOL     OW34279   1.547   0.856  15.763
 7467SOL    HW134280   1.561   0.896  15.677
 7467SOL    HW234281   1.462   0.890  15.791
 7468SOL     OW34282   4.556   0.533  17.762
 7468SOL    HW134283   4.510   0.451  17.741
 7468SOL    HW234284   4.556   0.536  17.858
 7469SOL     OW34285   2.858   3.374  20.632
 7469SOL    HW134286   2.841   3.287  20.596
 7469SOL    HW234287   2.952   3.388  20.617
 7470SOL     OW34288   1.039   2.113  20.897
 7470SOL    HW134289   0.953   2.120  20.856
 7470SOL    HW234290   1.021   2.118  20.991
 7471SOL     OW34291   4.248   1.022  16.330
 7471SOL    HW134292   4.284   1.000  16.416
 7471SOL    HW234293   4.166   1.067  16.349
 7472SOL     OW34294   4.208   1.571  16.164
 7472SOL    HW134295   4.136   1.563  16.102
 7472SOL    HW234296   4.246   1.483  16.167
 7473SOL     OW34297   1.541   1.400  17.237
 7473SOL    HW134298   1.597   1.432  17.166
 7473SOL    HW234299   1.554   1.463  17.308
 7474SOL     OW34300   4.046   1.950  14.894
 7474SOL    HW134301   4.067   1.937  14.801
 7474SOL    HW234302   4.128   1.981  14.932
 7475SOL     OW34303   3.566   3.776   2.198
 7475SOL    HW134304   3.623   3.741   2.130
 7475SOL    HW234305   3.624   3.790   2.273
 7476SOL     OW34306   0.803   1.317   5.822
 7476SOL    HW134307   0.806   1.413   5.826
 7476SOL    HW234308   0.714   1.297   5.793
 7477SOL     OW34309   3.416   1.129   4.239
 7477SOL    HW134310   3.391   1.038   4.220
 7477SOL    HW234311   3.341   1.181   4.210
 7478SOL     OW34312   2.151   1.249   8.849
 7478SOL    HW134313   2.201   1.331   8.848
 7478SOL    HW234314   2.214   1.183   8.819
 7479SOL     OW34315   1.094   0.270   8.710
 7479SOL    HW134316   1.075   0.220   8.790
 7479SOL    HW234317   1.177   0.314   8.729
 7480SOL     OW34318   1.117   1.210   0.778
 7480SOL    HW134319   1.110   1.292   0.828
 7480SOL    HW234320   1.204   1.176   0.802
 7481SOL     OW34321   3.741   0.952  17.692
 7481SOL    HW134322   3.745   0.962  17.597
 7481SOL    HW234323   3.825   0.987  17.723
 7482SOL     OW34324   2.696   4.043  15.078
 7482SOL    HW134325   2.704   4.027  14.983
 7482SOL    HW234326   2.640   4.120  15.085
 7483SOL     OW34327   4.218   3.612   3.061
 7483SOL    HW134328   4.272   3.689   3.076
 7483SOL    HW234329   4.129   3.646   3.052
 7484SOL     OW34330   4.244   2.402   5.236
 7484SOL    HW134331   4.224   2.456   5.312
 7484SOL    HW234332   4.193   2.441   5.165
 7485SOL     OW34333   3.092   1.251   0.298
 7485SOL    HW134334   3.022   1.248   0.364
 7485SOL    HW234335   3.059   1.198   0.226
 7486SOL     OW34336   4.406   3.875   0.894
 7486SOL    HW134337   4.501   3.882   0.896
 7486SOL    HW234338   4.389   3.785   0.866
 7487SOL     OW34339   2.430   2.531  17.205
 7487SOL    HW134340   2.522   2.526  17.232
 7487SOL    HW234341   2.398   2.441  17.213
 7488SOL     OW34342   4.299   2.499   1.878
 7488SOL    HW134343   4.269   2.451   1.956
 7488SOL    HW234344   4.227   2.492   1.816
 7489SOL     OW34345   1.557   4.195   1.763
 7489SOL    HW134346   1.510   4.113   1.780
 7489SOL    HW234347   1.502   4.240   1.699
 7490SOL     OW34348   0.480   1.973  19.450
 7490SOL    HW134349   0.497   2.067  19.451
 7490SOL    HW234350   0.410   1.961  19.386
 7491SOL     OW34351   1.191   0.081  18.972
 7491SOL    HW134352   1.240   0.161  18.951
 7491SOL    HW234353   1.140   0.063  18.893
 7492SOL     OW34354   2.059   4.586  20.595
 7492SOL    HW134355   2.149   4.600  20.566
 7492SOL    HW234356   2.067   4.549  20.683
 7493SOL     OW34357   1.945   4.565   0.633
 7493SOL    HW134358   2.015   4.559   0.569
 7493SOL    HW234359   1.984   4.532   0.714
 7494SOL     OW34360   4.145   3.766   7.021
 7494SOL    HW134361   4.131   3.778   6.927
 7494SOL    HW234362   4.236   3.793   7.035
 7495SOL     OW34363   2.392   0.073   5.852
 7495SOL    HW134364   2.398   0.160   5.892
 7495SOL    HW234365   2.402   0.088   5.759
 7496SOL     OW34366   4.193   1.778  17.084
 7496SOL    HW134367   4.218   1.686  17.091
 7496SOL    HW234368   4.275   1.823  17.066
 7497SOL     OW34369   0.629   2.314   1.107
 7497SOL    HW134370   0.589   2.353   1.030
 7497SOL    HW234371   0.670   2.233   1.076
 7498SOL     OW34372   4.225   2.902   3.973
 7498SOL    HW134373   4.137   2.926   4.001
 7498SOL    HW234374   4.279   2.978   3.996
 7499SOL     OW34375   0.827   2.772  16.734
 7499SOL    HW134376   0.866   2.822  16.806
 7499SOL    HW234377   0.739   2.750  16.764
 7500SOL     OW34378   1.040   2.878   2.337
 7500SOL    HW134379   1.036   2.893   2.432
 7500SOL    HW234380   1.110   2.813   2.326
 7501SOL     OW34381   1.851   1.044  15.186
 7501SOL    HW134382   1.917   1.047  15.256
 7501SOL    HW234383   1.899   1.071  15.107
 7502SOL     OW34384   1.235   1.474   6.176
 7502SOL    HW134385   1.189   1.397   6.209
 7502SOL    HW234386   1.324   1.465   6.210
 7503SOL     OW34387   3.682   0.946  19.381
 7503SOL    HW134388   3.755   0.896  19.343
 7503SOL    HW234389   3.620   0.879  19.411
 7504SOL     OW34390   0.939   4.472   2.926
 7504SOL    HW134391   0.933   4.473   3.021
 7504SOL    HW234392   0.962   4.381   2.905
 7505SOL     OW34393   4.402   1.066   7.433
 7505SOL    HW134394   4.401   0.997   7.500
 7505SOL    HW234395   4.348   1.136   7.470
 7506SOL     OW34396   1.277   3.567  18.951
 7506SOL    HW134397   1.360   3.594  18.990
 7506SOL    HW234398   1.289   3.475  18.929
 7507SOL     OW34399   2.407   0.240   3.358
 7507SOL    HW134400   2.380   0.308   3.297
 7507SOL    HW234401   2.419   0.162   3.304
 7508SOL     OW34402   2.672   2.594  16.330
 7508SOL    HW134403   2.641   2.614  16.419
 7508SOL    HW234404   2.639   2.667  16.277
 7509SOL     OW34405   3.712   0.188  18.366
 7509SOL    HW134406   3.777   0.188  18.436
 7509SOL    HW234407   3.763   0.172  18.287
 7510SOL     OW34408   0.292   0.008   4.753
 7510SOL    HW134409   0.231   0.081   4.755
 7510SOL    HW234410   0.265   4.745   4.677
 7511SOL     OW34411   4.335   1.620   1.992
 7511SOL    HW134412   4.320   1.685   1.923
 7511SOL    HW234413   4.411   1.570   1.961
 7512SOL     OW34414   4.118   3.670  19.280
 7512SOL    HW134415   4.130   3.764  19.271
 7512SOL    HW234416   4.132   3.635  19.192
 7513SOL     OW34417   2.882   2.819  13.542
 7513SOL    HW134418   2.845   2.737  13.574
 7513SOL    HW234419   2.844   2.830  13.455
 7514SOL     OW34420   4.718   0.030   7.254
 7514SOL    HW134421   4.706   0.041   7.348
 7514SOL    HW234422   4.738   0.118   7.223
 7515SOL     OW34423   2.680   3.477   4.514
 7515SOL    HW134424   2.659   3.567   4.487
 7515SOL    HW234425   2.767   3.461   4.477
 7516SOL     OW34426   3.383   2.823   1.188
 7516SOL    HW134427   3.382   2.861   1.100
 7516SOL    HW234428   3.444   2.750   1.182
 7517SOL     OW34429   3.654   3.384  15.977
 7517SOL    HW134430   3.573   3.419  16.013
 7517SOL    HW234431   3.719   3.451  15.996
 7518SOL     OW34432   2.587   1.665  20.520
 7518SOL    HW134433   2.630   1.604  20.460
 7518SOL    HW234434   2.632   1.652  20.604
 7519SOL     OW34435   2.296   3.073   0.663
 7519SOL    HW134436   2.273   2.998   0.717
 7519SOL    HW234437   2.225   3.135   0.676
 7520SOL     OW34438   0.750   4.137  16.868
 7520SOL    HW134439   0.844   4.123  16.883
 7520SOL    HW234440   0.719   4.055  16.831
 7521SOL     OW34441   3.778   3.087  17.510
 7521SOL    HW134442   3.860   3.041  17.492
 7521SOL    HW234443   3.740   3.039  17.583
 7522SOL     OW34444   3.418   4.109  15.191
 7522SOL    HW134445   3.461   4.155  15.119
 7522SOL    HW234446   3.327   4.140  15.188
 7523SOL     OW34447   0.102   2.980   3.849
 7523SOL    HW134448   0.043   2.907   3.835
 7523SOL    HW234449   0.189   2.946   3.830
 7524SOL     OW34450   4.036   0.752   8.375
 7524SOL    HW134451   4.107   0.746   8.310
 7524SOL    HW234452   3.956   0.736   8.325
 7525SOL     OW34453   1.484   3.477   2.854
 7525SOL    HW134454   1.405   3.519   2.820
 7525SOL    HW234455   1.538   3.550   2.885
 7526SOL     OW34456   0.110   1.729  20.245
 7526SOL    HW134457   0.078   1.681  20.169
 7526SOL    HW234458   0.070   1.815  20.237
 7527SOL     OW34459   0.459   4.544   5.052
 7527SOL    HW134460   0.512   4.559   4.974
 7527SOL    HW234461   0.499   4.467   5.093
 7528SOL     OW34462   4.237   1.187   6.593
 7528SOL    HW134463   4.205   1.142   6.514
 7528SOL    HW234464   4.251   1.277   6.564
 7529SOL     OW34465   2.128   1.689  20.814
 7529SOL    HW134466   2.113   1.734  20.731
 7529SOL    HW234467   2.174   1.608  20.790
 7530SOL     OW34468   4.043   2.542  16.020
 7530SOL    HW134469   4.114   2.533  15.957
 7530SOL    HW234470   4.012   2.632  16.010
 7531SOL     OW34471   1.571   0.423   3.513
 7531SOL    HW134472   1.538   0.419   3.602
 7531SOL    HW234473   1.610   0.338   3.497
 7532SOL     OW34474   1.724   0.339   3.047
 7532SOL    HW134475   1.675   0.268   3.089
 7532SOL    HW234476   1.656   0.399   3.015
 7533SOL     OW34477   3.262   1.397  20.339
 7533SOL    HW134478   3.292   1.464  20.400
 7533SOL    HW234479   3.342   1.360  20.302
 7534SOL     OW34480   0.204   3.779   6.473
 7534SOL    HW134481   0.296   3.805   6.470
 7534SOL    HW234482   0.200   3.714   6.544
 7535SOL     OW34483   2.393   2.365   0.448
 7535SOL    HW134484   2.473   2.313   0.450
 7535SOL    HW234485   2.422   2.452   0.423
 7536SOL     OW34486   4.196   1.849  20.939
 7536SOL    HW134487   4.177   1.856  20.845
 7536SOL    HW234488   4.118   1.886  20.981
 7537SOL     OW34489   0.933   3.935   5.360
 7537SOL    HW134490   0.897   4.017   5.394
 7537SOL    HW234491   0.950   3.953   5.267
 7538SOL     OW34492   1.179   4.512   7.966
 7538SOL    HW134493   1.167   4.464   8.048
 7538SOL    HW234494   1.116   4.473   7.906
 7539SOL     OW34495   0.122   4.313   3.533
 7539SOL    HW134496   0.066   4.238   3.552
 7539SOL    HW234497   0.171   4.287   3.456
 7540SOL     OW34498   4.619   0.969   4.443
 7540SOL    HW134499   4.595   0.973   4.535
 7540SOL    HW234500   4.634   0.875   4.427
 7541SOL     OW34501   3.523   1.982   6.806
 7541SOL    HW134502   3.518   2.058   6.747
 7541SOL    HW234503   3.486   2.013   6.888
 7542SOL     OW34504   0.277   3.733   0.202
 7542SOL    HW134505   0.359   3.694   0.171
 7542SOL    HW234506   0.209   3.673   0.172
 7543SOL     OW34507   0.250   2.077  17.738
 7543SOL    HW134508   0.243   2.006  17.673
 7543SOL    HW234509   0.258   2.032  17.822
 7544SOL     OW34510   1.395   4.133  19.164
 7544SOL    HW134511   1.366   4.212  19.209
 7544SOL    HW234512   1.442   4.083  19.231
 7545SOL     OW34513   0.248   1.650  15.392
 7545SOL    HW134514   0.259   1.604  15.475
 7545SOL    HW234515   0.194   1.592  15.339
 7546SOL     OW34516   2.530   0.789   1.734
 7546SOL    HW134517   2.557   0.880   1.741
 7546SOL    HW234518   2.493   0.768   1.820
 7547SOL     OW34519   0.787   1.496   3.984
 7547SOL    HW134520   0.720   1.449   3.934
 7547SOL    HW234521   0.840   1.427   4.024
 7548SOL     OW34522   0.470   0.318  21.197
 7548SOL    HW134523   0.508   0.304  21.110
 7548SOL    HW234524   0.445   0.231  21.227
 7549SOL     OW34525   4.141   2.373   6.007
 7549SOL    HW134526   4.159   2.280   6.020
 7549SOL    HW234527   4.046   2.380   6.012
 7550SOL     OW34528   0.217   3.632  17.199
 7550SOL    HW134529   0.230   3.614  17.106
 7550SOL    HW234530   0.249   3.554  17.244
 7551SOL     OW34531   2.730   1.255  20.507
 7551SOL    HW134532   2.749   1.323  20.443
 7551SOL    HW234533   2.691   1.302  20.581
 7552SOL     OW34534   3.935   4.361   3.954
 7552SOL    HW134535   3.960   4.441   4.001
 7552SOL    HW234536   3.873   4.390   3.887
 7553SOL     OW34537   1.716   0.422  20.206
 7553SOL    HW134538   1.753   0.458  20.287
 7553SOL    HW234539   1.621   0.422  20.222
 7554SOL     OW34540   4.458   1.420  20.247
 7554SOL    HW134541   4.511   1.360  20.194
 7554SOL    HW234542   4.419   1.364  20.314
 7555SOL     OW34543   2.078   3.357  16.535
 7555SOL    HW134544   2.127   3.395  16.609
 7555SOL    HW234545   2.145   3.342  16.468
 7556SOL     OW34546   4.328   3.544   6.786
 7556SOL    HW134547   4.295   3.632   6.805
 7556SOL    HW234548   4.269   3.486   6.835
 7557SOL     OW34549   1.540   4.399   2.593
 7557SOL    HW134550   1.537   4.312   2.553
 7557SOL    HW234551   1.509   4.458   2.524
 7558SOL     OW34552   0.823   4.761  19.234
 7558SOL    HW134553   0.899   0.031  19.235
 7558SOL    HW234554   0.850   4.686  19.180
 7559SOL     OW34555   0.917   0.897   1.356
 7559SOL    HW134556   0.883   0.986   1.342
 7559SOL    HW234557   0.941   0.896   1.449
 7560SOL     OW34558   1.080   0.851   4.423
 7560SOL    HW134559   0.993   0.883   4.400
 7560SOL    HW234560   1.084   0.762   4.386
 7561SOL     OW34561   3.887   0.016  20.062
 7561SOL    HW134562   3.833   0.094  20.049
 7561SOL    HW234563   3.904   0.014  20.157
 7562SOL     OW34564   0.977   1.494  11.626
 7562SOL    HW134565   1.063   1.475  11.663
 7562SOL    HW234566   0.989   1.484  11.531
 7563SOL     OW34567   2.042   3.544   8.900
 7563SOL    HW134568   2.004   3.521   8.985
 7563SOL    HW234569   2.098   3.619   8.917
 7564SOL     OW34570   1.187   4.006   0.170
 7564SOL    HW134571   1.199   3.953   0.091
 7564SOL    HW234572   1.259   4.069   0.168
 7565SOL     OW34573   3.548   4.106  18.273
 7565SOL    HW134574   3.563   4.100  18.179
 7565SOL    HW234575   3.578   4.194  18.297
 7566SOL     OW34576   0.859   1.191  21.007
 7566SOL    HW134577   0.861   1.204  20.913
 7566SOL    HW234578   0.800   1.260  21.039
 7567SOL     OW34579   1.586   2.843  17.126
 7567SOL    HW134580   1.527   2.787  17.076
 7567SOL    HW234581   1.623   2.902  17.061
 7568SOL     OW34582   2.955   4.540   7.369
 7568SOL    HW134583   3.012   4.574   7.300
 7568SOL    HW234584   2.866   4.550   7.335
 7569SOL     OW34585   0.425   3.857   5.368
 7569SOL    HW134586   0.498   3.796   5.356
 7569SOL    HW234587   0.466   3.943   5.368
 7570SOL     OW34588   4.099   1.302  15.148
 7570SOL    HW134589   4.116   1.263  15.234
 7570SOL    HW234590   4.163   1.373  15.141
 7571SOL     OW34591   1.930   4.705   4.801
 7571SOL    HW134592   1.834   4.707   4.799
 7571SOL    HW234593   1.956   0.004   4.769
 7572SOL     OW34594   2.737   1.661   2.368
 7572SOL    HW134595   2.817   1.682   2.321
 7572SOL    HW234596   2.745   1.706   2.452
 7573SOL     OW34597   1.414   2.484   4.175
 7573SOL    HW134598   1.362   2.405   4.191
 7573SOL    HW234599   1.400   2.504   4.082
 7574SOL     OW34600   4.559   0.607  19.502
 7574SOL    HW134601   4.554   0.609  19.598
 7574SOL    HW234602   4.651   0.585  19.484
 7575SOL     OW34603   3.711   0.405   4.966
 7575SOL    HW134604   3.756   0.326   4.939
 7575SOL    HW234605   3.781   0.467   4.987
 7576SOL     OW34606   2.628   4.283  16.823
 7576SOL    HW134607   2.706   4.330  16.795
 7576SOL    HW234608   2.656   4.192  16.832
 7577SOL     OW34609   4.734   0.155  16.484
 7577SOL    HW134610   4.775   0.128  16.401
 7577SOL    HW234611   4.640   0.142  16.469
 7578SOL     OW34612   3.978   2.378   0.840
 7578SOL    HW134613   3.905   2.332   0.882
 7578SOL    HW234614   3.983   2.461   0.887
 7579SOL     OW34615   3.597   4.014   5.662
 7579SOL    HW134616   3.516   4.056   5.634
 7579SOL    HW234617   3.574   3.969   5.743
 7580SOL     OW34618   2.625   2.528   5.086
 7580SOL    HW134619   2.566   2.566   5.151
 7580SOL    HW234620   2.587   2.443   5.064
 7581SOL     OW34621   4.395   2.324   4.385
 7581SOL    HW134622   4.451   2.290   4.315
 7581SOL    HW234623   4.449   2.319   4.464
 7582SOL     OW34624   1.511   2.497   1.200
 7582SOL    HW134625   1.448   2.569   1.196
 7582SOL    HW234626   1.537   2.492   1.292
 7583SOL     OW34627   2.834   2.303   1.161
 7583SOL    HW134628   2.911   2.333   1.111
 7583SOL    HW234629   2.793   2.384   1.192
 7584SOL     OW34630   0.631   1.623  19.865
 7584SOL    HW134631   0.571   1.622  19.791
 7584SOL    HW234632   0.602   1.552  19.921
 7585SOL     OW34633   1.019   1.718   1.724
 7585SOL    HW134634   0.970   1.748   1.648
 7585SOL    HW234635   1.058   1.635   1.695
 7586SOL     OW34636   2.848   2.281  20.502
 7586SOL    HW134637   2.769   2.333  20.484
 7586SOL    HW234638   2.822   2.190  20.487
 7587SOL     OW34639   4.160   1.091   0.310
 7587SOL    HW134640   4.136   1.149   0.383
 7587SOL    HW234641   4.111   1.125   0.235
 7588SOL     OW34642   0.727   4.521   6.438
 7588SOL    HW134643   0.683   4.572   6.505
 7588SOL    HW234644   0.819   4.520   6.465
 7589SOL     OW34645   2.213   0.265  15.669
 7589SOL    HW134646   2.279   0.334  15.660
 7589SOL    HW234647   2.133   0.310  15.695
 7590SOL     OW34648   2.671   1.247   0.495
 7590SOL    HW134649   2.642   1.328   0.537
 7590SOL    HW234650   2.669   1.266   0.402
 7591SOL     OW34651   1.970   0.749   4.726
 7591SOL    HW134652   1.982   0.687   4.655
 7591SOL    HW234653   1.892   0.799   4.702
 7592SOL     OW34654   3.520   1.877   0.257
 7592SOL    HW134655   3.494   1.788   0.280
 7592SOL    HW234656   3.478   1.892   0.172
 7593SOL     OW34657   4.186   3.998  20.485
 7593SOL    HW134658   4.279   3.983  20.503
 7593SOL    HW234659   4.168   4.081  20.529
 7594SOL     OW34660   2.165   0.251  20.531
 7594SOL    HW134661   2.186   0.288  20.617
 7594SOL    HW234662   2.237   0.191  20.513
 7595SOL     OW34663   0.787   0.926   4.697
 7595SOL    HW134664   0.739   0.881   4.767
 7595SOL    HW234665   0.866   0.958   4.740
 7596SOL     OW34666   3.192   4.739  15.415
 7596SOL    HW134667   3.238   0.026  15.377
 7596SOL    HW234668   3.225   4.735  15.505
 7597SOL     OW34669   0.164   0.881  16.275
 7597SOL    HW134670   0.217   0.871  16.196
 7597SOL    HW234671   0.103   0.952  16.255
 7598SOL     OW34672   3.941   2.567  19.767
 7598SOL    HW134673   3.865   2.527  19.725
 7598SOL    HW234674   3.944   2.528  19.854
 7599SOL     OW34675   1.636   1.960  18.928
 7599SOL    HW134676   1.664   1.888  18.871
 7599SOL    HW234677   1.690   1.950  19.007
 7600SOL     OW34678   4.768   1.867  18.549
 7600SOL    HW134679   4.741   1.797  18.489
 7600SOL    HW234680   4.686   1.910  18.573
 7601SOL     OW34681   2.026   1.272  15.904
 7601SOL    HW134682   2.116   1.297  15.925
 7601SOL    HW234683   2.027   1.254  15.810
 7602SOL     OW34684   4.754   3.733   4.081
 7602SOL    HW134685   4.731   3.799   4.015
 7602SOL    HW234686   0.017   3.782   4.146
 7603SOL     OW34687   4.240   2.078   3.537
 7603SOL    HW134688   4.186   2.069   3.616
 7603SOL    HW234689   4.193   2.142   3.484
 7604SOL     OW34690   0.191   3.304  17.956
 7604SOL    HW134691   0.139   3.364  17.903
 7604SOL    HW234692   0.127   3.254  18.007
 7605SOL     OW34693   3.989   3.847   7.518
 7605SOL    HW134694   4.044   3.811   7.448
 7605SOL    HW234695   4.011   3.794   7.595
 7606SOL     OW34696   3.491   2.203  20.515
 7606SOL    HW134697   3.443   2.121  20.508
 7606SOL    HW234698   3.431   2.269  20.481
 7607SOL     OW34699   2.026   1.142   4.800
 7607SOL    HW134700   1.942   1.104   4.825
 7607SOL    HW234701   2.018   1.235   4.819
 7608SOL     OW34702   2.884   1.730   4.608
 7608SOL    HW134703   2.976   1.742   4.632
 7608SOL    HW234704   2.836   1.784   4.672
 7609SOL     OW34705   0.175   4.676   3.094
 7609SOL    HW134706   0.225   4.755   3.114
 7609SOL    HW234707   0.143   4.646   3.179
 7610SOL     OW34708   2.734   1.299   2.020
 7610SOL    HW134709   2.725   1.356   2.097
 7610SOL    HW234710   2.691   1.347   1.950
 7611SOL     OW34711   2.865   2.023   3.589
 7611SOL    HW134712   2.772   2.043   3.584
 7611SOL    HW234713   2.909   2.108   3.579
 7612SOL     OW34714   0.339   1.916   3.550
 7612SOL    HW134715   0.365   1.934   3.460
 7612SOL    HW234716   0.260   1.863   3.542
 7613SOL     OW34717   2.480   3.729  19.446
 7613SOL    HW134718   2.562   3.751  19.490
 7613SOL    HW234719   2.497   3.644  19.405
 7614SOL     OW34720   2.621   3.156   3.848
 7614SOL    HW134721   2.628   3.099   3.925
 7614SOL    HW234722   2.654   3.103   3.776
 7615SOL     OW34723   0.882   3.587  19.733
 7615SOL    HW134724   0.904   3.571  19.641
 7615SOL    HW234725   0.962   3.566  19.781
 7616SOL     OW34726   3.675   3.003   6.814
 7616SOL    HW134727   3.754   2.955   6.839
 7616SOL    HW234728   3.606   2.965   6.869
 7617SOL     OW34729   3.988   3.382   4.470
 7617SOL    HW134730   4.071   3.427   4.456
 7617SOL    HW234731   3.996   3.345   4.558
 7618SOL     OW34732   3.398   3.289  17.967
 7618SOL    HW134733   3.306   3.314  17.957
 7618SOL    HW234734   3.396   3.195  17.985
 7619SOL     OW34735   4.290   3.112   3.103
 7619SOL    HW134736   4.279   3.119   3.198
 7619SOL    HW234737   4.250   3.192   3.068
 7620SOL     OW34738   1.868   2.619   0.519
 7620SOL    HW134739   1.956   2.598   0.552
 7620SOL    HW234740   1.870   2.714   0.504
 7621SOL     OW34741   2.788   1.344  14.588
 7621SOL    HW134742   2.880   1.366  14.575
 7621SOL    HW234743   2.756   1.409  14.651
 7622SOL     OW34744   0.524   2.000   5.147
 7622SOL    HW134745   0.438   1.966   5.123
 7622SOL    HW234746   0.527   2.087   5.108
 7623SOL     OW34747   0.687   1.001  15.502
 7623SOL    HW134748   0.701   1.089  15.465
 7623SOL    HW234749   0.729   0.942  15.440
 7624SOL     OW34750   0.933   3.253  15.471
 7624SOL    HW134751   0.910   3.307  15.395
 7624SOL    HW234752   1.026   3.234  15.460
 7625SOL     OW34753   1.607   3.391  17.590
 7625SOL    HW134754   1.681   3.331  17.579
 7625SOL    HW234755   1.644   3.478  17.574
 7626SOL     OW34756   1.540   2.838  18.623
 7626SOL    HW134757   1.523   2.905  18.689
 7626SOL    HW234758   1.607   2.876  18.566
 7627SOL     OW34759   3.295   0.812  17.206
 7627SOL    HW134760   3.212   0.824  17.252
 7627SOL    HW234761   3.293   0.877  17.136
 7628SOL     OW34762   2.688   3.850  17.337
 7628SOL    HW134763   2.698   3.943  17.317
 7628SOL    HW234764   2.765   3.808  17.297
 7629SOL     OW34765   4.368   4.127   3.095
 7629SOL    HW134766   4.272   4.124   3.091
 7629SOL    HW234767   4.392   4.200   3.038
 7630SOL     OW34768   1.101   2.895  15.419
 7630SOL    HW134769   1.035   2.858  15.360
 7630SOL    HW234770   1.135   2.820  15.467
 7631SOL     OW34771   1.046   0.807  19.959
 7631SOL    HW134772   1.090   0.885  19.927
 7631SOL    HW234773   1.072   0.738  19.897
 7632SOL     OW34774   4.191   3.748  18.475
 7632SOL    HW134775   4.151   3.662  18.467
 7632SOL    HW234776   4.273   3.741  18.425
 7633SOL     OW34777   2.187   0.925   4.755
 7633SOL    HW134778   2.111   0.878   4.722
 7633SOL    HW234779   2.153   1.009   4.785
 7634SOL     OW34780   4.714   4.712   1.339
 7634SOL    HW134781   4.622   4.722   1.315
 7634SOL    HW234782   4.737   4.624   1.310
 7635SOL     OW34783   1.268   1.454  20.381
 7635SOL    HW134784   1.263   1.404  20.300
 7635SOL    HW234785   1.362   1.468  20.396
 7636SOL     OW34786   3.357   0.075   6.166
 7636SOL    HW134787   3.409   0.102   6.091
 7636SOL    HW234788   3.420   0.068   6.238
 7637SOL     OW34789   2.421   4.231   0.939
 7637SOL    HW134790   2.453   4.279   1.015
 7637SOL    HW234791   2.388   4.148   0.975
 7638SOL     OW34792   3.917   1.075   4.007
 7638SOL    HW134793   3.843   1.016   4.016
 7638SOL    HW234794   3.955   1.080   4.095
 7639SOL     OW34795   2.318   0.967  14.170
 7639SOL    HW134796   2.276   0.931  14.092
 7639SOL    HW234797   2.335   1.059  14.149
 7640SOL     OW34798   2.768   2.825   4.884
 7640SOL    HW134799   2.712   2.861   4.815
 7640SOL    HW234800   2.843   2.884   4.888
 7641SOL     OW34801   0.423   2.470  19.328
 7641SOL    HW134802   0.449   2.413  19.255
 7641SOL    HW234803   0.336   2.438  19.352
 7642SOL     OW34804   1.999   2.109   5.917
 7642SOL    HW134805   2.075   2.121   5.974
 7642SOL    HW234806   1.959   2.028   5.947
 7643SOL     OW34807   1.269   1.203  14.015
 7643SOL    HW134808   1.236   1.210  13.925
 7643SOL    HW234809   1.253   1.289  14.053
 7644SOL     OW34810   4.014   2.257   9.199
 7644SOL    HW134811   4.067   2.228   9.274
 7644SOL    HW234812   4.005   2.352   9.211
 7645SOL     OW34813   3.802   4.699  17.240
 7645SOL    HW134814   3.804   0.005  17.221
 7645SOL    HW234815   3.778   4.658  17.157
 7646SOL     OW34816   1.068   2.402  17.234
 7646SOL    HW134817   1.087   2.309  17.248
 7646SOL    HW234818   1.134   2.447  17.287
 7647SOL     OW34819   0.709   3.056   8.692
 7647SOL    HW134820   0.791   3.088   8.730
 7647SOL    HW234821   0.735   3.024   8.605
 7648SOL     OW34822   3.568   2.715   1.800
 7648SOL    HW134823   3.552   2.749   1.712
 7648SOL    HW234824   3.586   2.793   1.853
 7649SOL     OW34825   1.045   3.027   9.822
 7649SOL    HW134826   1.111   3.021   9.753
 7649SOL    HW234827   0.992   2.948   9.811
 7650SOL     OW34828   3.394   2.488  18.353
 7650SOL    HW134829   3.486   2.464  18.361
 7650SOL    HW234830   3.350   2.440  18.423
 7651SOL     OW34831   2.412   1.139  14.367
 7651SOL    HW134832   2.373   1.071  14.312
 7651SOL    HW234833   2.505   1.138  14.344
 7652SOL     OW34834   2.471   4.036   8.998
 7652SOL    HW134835   2.527   4.079   8.933
 7652SOL    HW234836   2.517   4.046   9.081
 7653SOL     OW34837   1.366   3.418   5.363
 7653SOL    HW134838   1.343   3.502   5.322
 7653SOL    HW234839   1.460   3.409   5.347
 7654SOL     OW34840   2.197   4.028   8.902
 7654SOL    HW134841   2.236   4.004   8.818
 7654SOL    HW234842   2.265   4.078   8.947
 7655SOL     OW34843   3.963   4.371  20.714
 7655SOL    HW134844   3.985   4.460  20.688
 7655SOL    HW234845   3.948   4.377  20.809
 7656SOL     OW34846   4.061   0.215  16.442
 7656SOL    HW134847   3.974   0.209  16.402
 7656SOL    HW234848   4.122   0.201  16.370
 7657SOL     OW34849   1.506   2.455  18.418
 7657SOL    HW134850   1.482   2.428  18.330
 7657SOL    HW234851   1.495   2.376  18.471
 7658SOL     OW34852   2.563   0.548   8.420
 7658SOL    HW134853   2.628   0.599   8.372
 7658SOL    HW234854   2.547   0.472   8.366
 7659SOL     OW34855   0.116   1.871   6.617
 7659SOL    HW134856   0.173   1.948   6.611
 7659SOL    HW234857   0.030   1.903   6.592
 7660SOL     OW34858   4.633   3.212   7.988
 7660SOL    HW134859   4.667   3.123   7.990
 7660SOL    HW234860   4.705   3.267   8.018
 7661SOL     OW34861   0.548   1.276   5.700
 7661SOL    HW134862   0.454   1.287   5.683
 7661SOL    HW234863   0.568   1.188   5.668
 7662SOL     OW34864   0.278   3.809   8.358
 7662SOL    HW134865   0.310   3.803   8.448
 7662SOL    HW234866   0.354   3.838   8.308
 7663SOL     OW34867   3.856   0.706   8.080
 7663SOL    HW134868   3.809   0.624   8.097
 7663SOL    HW234869   3.821   0.736   7.996
 7664SOL     OW34870   3.611   1.051   8.163
 7664SOL    HW134871   3.691   1.037   8.215
 7664SOL    HW234872   3.573   1.130   8.201
 7665SOL     OW34873   0.605   2.773   8.724
 7665SOL    HW134874   0.688   2.821   8.725
 7665SOL    HW234875   0.587   2.758   8.631
 7666SOL     OW34876   0.740   3.015   7.711
 7666SOL    HW134877   0.698   3.015   7.625
 7666SOL    HW234878   0.725   2.927   7.745
 7667SOL     OW34879   2.326   1.467   8.821
 7667SOL    HW134880   2.316   1.502   8.909
 7667SOL    HW234881   2.420   1.467   8.805
 7668SOL     OW34882   0.283   3.810   9.498
 7668SOL    HW134883   0.316   3.721   9.485
 7668SOL    HW234884   0.190   3.804   9.475
 7669SOL     OW34885   3.498   1.908   0.896
 7669SOL    HW134886   3.511   1.898   0.990
 7669SOL    HW234887   3.514   1.821   0.859
 7670SOL     OW34888   3.230   0.991  18.173
 7670SOL    HW134889   3.280   1.062  18.133
 7670SOL    HW234890   3.176   0.956  18.102
 7671SOL     OW34891   0.167   3.920   8.144
 7671SOL    HW134892   0.215   3.890   8.222
 7671SOL    HW234893   0.169   3.845   8.085
 7672SOL     OW34894   1.853   0.690   7.582
 7672SOL    HW134895   1.776   0.675   7.527
 7672SOL    HW234896   1.927   0.661   7.528
 7673SOL     OW34897   3.874   3.583   9.041
 7673SOL    HW134898   3.849   3.613   8.954
 7673SOL    HW234899   3.826   3.501   9.053
 7674SOL     OW34900   1.566   1.547   0.462
 7674SOL    HW134901   1.628   1.616   0.438
 7674SOL    HW234902   1.591   1.472   0.408
 7675SOL     OW34903   1.712   0.751   9.874
 7675SOL    HW134904   1.682   0.722   9.788
 7675SOL    HW234905   1.780   0.815   9.855
 7676SOL     OW34906   1.020   0.102   8.910
 7676SOL    HW134907   0.949   0.070   8.853
 7676SOL    HW234908   0.975   0.141   8.984
 7677SOL     OW34909   1.517   0.548   9.220
 7677SOL    HW134910   1.596   0.551   9.273
 7677SOL    HW234911   1.544   0.504   9.139
 7678SOL     OW34912   3.354   4.314  13.883
 7678SOL    HW134913   3.281   4.260  13.854
 7678SOL    HW234914   3.314   4.391  13.922
 7679SOL     OW34915   4.636   3.100   9.069
 7679SOL    HW134916   4.708   3.162   9.072
 7679SOL    HW234917   4.614   3.092   8.976
 7680SOL     OW34918   3.108   1.396  18.706
 7680SOL    HW134919   3.088   1.419  18.616
 7680SOL    HW234920   3.078   1.305  18.715
 7681SOL     OW34921   1.772   2.044  16.215
 7681SOL    HW134922   1.725   2.127  16.223
 7681SOL    HW234923   1.836   2.047  16.286
 7682SOL     OW34924   0.680   3.790   8.522
 7682SOL    HW134925   0.589   3.819   8.525
 7682SOL    HW234926   0.731   3.866   8.550
 7683SOL     OW34927   4.577   3.763  10.370
 7683SOL    HW134928   4.530   3.680  10.366
 7683SOL    HW234929   4.508   3.829  10.379
 7684SOL     OW34930   2.261   1.379   9.547
 7684SOL    HW134931   2.295   1.419   9.627
 7684SOL    HW234932   2.172   1.351   9.570
 7685SOL     OW34933   0.500   3.938  10.232
 7685SOL    HW134934   0.558   3.928  10.308
 7685SOL    HW234935   0.427   3.992  10.264
 7686SOL     OW34936   2.331   0.118  11.037
 7686SOL    HW134937   2.387   0.117  11.115
 7686SOL    HW234938   2.301   0.209  11.031
 7687SOL     OW34939   1.864   4.434  10.888
 7687SOL    HW134940   1.821   4.443  10.973
 7687SOL    HW234941   1.958   4.436  10.908
 7688SOL     OW34942   2.022   4.075  10.299
 7688SOL    HW134943   1.997   4.066  10.207
 7688SOL    HW234944   2.115   4.100  10.296
 7689SOL     OW34945   0.862   3.211  11.573
 7689SOL    HW134946   0.856   3.301  11.607
 7689SOL    HW234947   0.955   3.190  11.575
 7690SOL     OW34948   4.665   0.421   8.299
 7690SOL    HW134949   4.685   0.469   8.379
 7690SOL    HW234950   4.728   0.455   8.235
 7691SOL     OW34951   2.777   1.038  10.107
 7691SOL    HW134952   2.686   1.035  10.134
 7691SOL    HW234953   2.783   1.113  10.047
 7692SOL     OW34954   0.813   1.870  11.549
 7692SOL    HW134955   0.854   1.953  11.523
 7692SOL    HW234956   0.819   1.815  11.471
 7693SOL     OW34957   0.437   0.477   9.532
 7693SOL    HW134958   0.474   0.389   9.540
 7693SOL    HW234959   0.468   0.523   9.610
 7694SOL     OW34960   1.069   3.788   9.487
 7694SOL    HW134961   1.158   3.789   9.523
 7694SOL    HW234962   1.075   3.732   9.410
 7695SOL     OW34963   0.736   2.612  11.222
 7695SOL    HW134964   0.712   2.528  11.261
 7695SOL    HW234965   0.697   2.610  11.135
 7696SOL     OW34966   1.465   3.323  11.451
 7696SOL    HW134967   1.399   3.297  11.514
 7696SOL    HW234968   1.529   3.253  11.452
 7697SOL     OW34969   0.757   3.239  10.724
 7697SOL    HW134970   0.729   3.155  10.688
 7697SOL    HW234971   0.836   3.219  10.774
 7698SOL     OW34972   1.782   3.571  10.560
 7698SOL    HW134973   1.796   3.498  10.621
 7698SOL    HW234974   1.693   3.600  10.579
 7699SOL     OW34975   3.430   0.884   8.016
 7699SOL    HW134976   3.480   0.923   7.945
 7699SOL    HW234977   3.480   0.904   8.095
 7700SOL     OW34978   4.131   0.620   9.140
 7700SOL    HW134979   4.178   0.545   9.102
 7700SOL    HW234980   4.112   0.677   9.066
 7701SOL     OW34981   2.370   3.495  10.087
 7701SOL    HW134982   2.321   3.569  10.123
 7701SOL    HW234983   2.458   3.529  10.071
 7702SOL     OW34984   0.738   2.901  11.285
 7702SOL    HW134985   0.677   2.924  11.215
 7702SOL    HW234986   0.751   2.807  11.276
 7703SOL     OW34987   2.327   1.106   9.799
 7703SOL    HW134988   2.242   1.096   9.756
 7703SOL    HW234989   2.356   1.016   9.815
 7704SOL     OW34990   2.240   1.236  10.107
 7704SOL    HW134991   2.167   1.296  10.093
 7704SOL    HW234992   2.290   1.241  10.025
 7705SOL     OW34993   1.050   3.263   9.961
 7705SOL    HW134994   1.076   3.189   9.906
 7705SOL    HW234995   1.008   3.324   9.901
 7706SOL     OW34996   3.293   0.662   9.123
 7706SOL    HW134997   3.364   0.640   9.183
 7706SOL    HW234998   3.316   0.618   9.041
 7707SOL     OW34999   0.350   1.888   9.481
 7707SOL    HW135000   0.374   1.887   9.389
 7707SOL    HW235001   0.337   1.796   9.504
 7708SOL     OW35002   4.736   0.431  18.962
 7708SOL    HW135003   0.029   0.394  18.998
 7708SOL    HW235004   4.755   0.446  18.869
 7709SOL     OW35005   2.671   1.137   6.682
 7709SOL    HW135006   2.605   1.143   6.751
 7709SOL    HW235007   2.624   1.160   6.602
 7710SOL     OW35008   1.644   2.053  13.444
 7710SOL    HW135009   1.670   1.989  13.511
 7710SOL    HW235010   1.653   2.137  13.488
 7711SOL     OW35011   0.832   4.462  11.539
 7711SOL    HW135012   0.834   4.529  11.471
 7711SOL    HW235013   0.923   4.434  11.547
 7712SOL     OW35014   0.294   2.740  19.207
 7712SOL    HW135015   0.316   2.720  19.297
 7712SOL    HW235016   0.282   2.655  19.165
 7713SOL     OW35017   4.510   0.259  10.505
 7713SOL    HW135018   4.451   0.237  10.577
 7713SOL    HW235019   4.594   0.275  10.547
 7714SOL     OW35020   2.176   3.115  10.999
 7714SOL    HW135021   2.154   3.105  10.907
 7714SOL    HW235022   2.267   3.146  10.999
 7715SOL     OW35023   3.127   4.275  12.487
 7715SOL    HW135024   3.194   4.288  12.554
 7715SOL    HW235025   3.107   4.182  12.490
 7716SOL     OW35026   1.292   3.701  20.422
 7716SOL    HW135027   1.361   3.646  20.460
 7716SOL    HW235028   1.339   3.764  20.368
 7717SOL     OW35029   4.736   0.457   2.584
 7717SOL    HW135030   4.767   0.514   2.655
 7717SOL    HW235031   4.716   0.374   2.627
 7718SOL     OW35032   0.671   4.377  11.984
 7718SOL    HW135033   0.629   4.423  12.057
 7718SOL    HW235034   0.662   4.285  12.005
 7719SOL     OW35035   1.127   3.270  11.573
 7719SOL    HW135036   1.139   3.318  11.655
 7719SOL    HW235037   1.173   3.188  11.587
 7720SOL     OW35038   1.804   4.747  11.096
 7720SOL    HW135039   1.789   4.653  11.105
 7720SOL    HW235040   1.806   4.762  11.002
 7721SOL     OW35041   2.383   2.443  11.170
 7721SOL    HW135042   2.473   2.411  11.179
 7721SOL    HW235043   2.389   2.536  11.188
 7722SOL     OW35044   4.662   4.742   9.543
 7722SOL    HW135045   4.573   4.754   9.509
 7722SOL    HW235046   4.689   0.042   9.570
 7723SOL     OW35047   1.111   4.121  11.136
 7723SOL    HW135048   1.061   4.116  11.217
 7723SOL    HW235049   1.117   4.031  11.106
 7724SOL     OW35050   1.833   2.377  10.825
 7724SOL    HW135051   1.745   2.410  10.806
 7724SOL    HW235052   1.820   2.317  10.898
 7725SOL     OW35053   0.300   0.644  18.818
 7725SOL    HW135054   0.244   0.718  18.844
 7725SOL    HW235055   0.331   0.608  18.901
 7726SOL     OW35056   1.595   2.168  11.793
 7726SOL    HW135057   1.637   2.219  11.724
 7726SOL    HW235058   1.507   2.205  11.800
 7727SOL     OW35059   2.105   3.338  11.142
 7727SOL    HW135060   2.103   3.249  11.108
 7727SOL    HW235061   2.138   3.329  11.232
 7728SOL     OW35062   2.089   3.922   5.141
 7728SOL    HW135063   2.079   3.990   5.074
 7728SOL    HW235064   2.020   3.941   5.205
 7729SOL     OW35065   1.850   3.655  12.200
 7729SOL    HW135066   1.889   3.683  12.282
 7729SOL    HW235067   1.924   3.621  12.149
 7730SOL     OW35068   2.244   1.342  12.167
 7730SOL    HW135069   2.236   1.432  12.136
 7730SOL    HW235070   2.176   1.333  12.234
 7731SOL     OW35071   2.694   4.068  11.395
 7731SOL    HW135072   2.778   4.089  11.354
 7731SOL    HW235073   2.688   4.127  11.470
 7732SOL     OW35074   2.460   3.470  11.239
 7732SOL    HW135075   2.528   3.466  11.171
 7732SOL    HW235076   2.506   3.500  11.317
 7733SOL     OW35077   2.493   0.870  15.961
 7733SOL    HW135078   2.437   0.911  16.027
 7733SOL    HW235079   2.549   0.809  16.011
 7734SOL     OW35080   3.561   1.248   5.271
 7734SOL    HW135081   3.624   1.237   5.343
 7734SOL    HW235082   3.498   1.311   5.304
 7735SOL     OW35083   0.974   3.528   3.670
 7735SOL    HW135084   0.891   3.555   3.630
 7735SOL    HW235085   0.949   3.496   3.757
 7736SOL     OW35086   2.735   2.627  20.289
 7736SOL    HW135087   2.708   2.643  20.199
 7736SOL    HW235088   2.691   2.695  20.340
 7737SOL     OW35089   3.775   4.758  15.817
 7737SOL    HW135090   3.870   4.759  15.828
 7737SOL    HW235091   3.750   0.062  15.827
 7738SOL     OW35092   0.680   4.435  20.399
 7738SOL    HW135093   0.595   4.458  20.435
 7738SOL    HW235094   0.691   4.493  20.324
 7739SOL     OW35095   4.419   3.148   7.164
 7739SOL    HW135096   4.500   3.193   7.187
 7739SOL    HW235097   4.351   3.195   7.213
 7740SOL     OW35098   3.727   3.189  16.175
 7740SOL    HW135099   3.683   3.259  16.126
 7740SOL    HW235100   3.684   3.109  16.146
 7741SOL     OW35101   4.115   3.730   5.290
 7741SOL    HW135102   4.021   3.714   5.304
 7741SOL    HW235103   4.157   3.646   5.308
 7742SOL     OW35104   3.451   3.501  16.610
 7742SOL    HW135105   3.464   3.519  16.703
 7742SOL    HW235106   3.398   3.422  16.608
 7743SOL     OW35107   3.170   3.862  16.767
 7743SOL    HW135108   3.248   3.880  16.715
 7743SOL    HW235109   3.154   3.769  16.755
 7744SOL     OW35110   3.239   1.218   0.896
 7744SOL    HW135111   3.231   1.260   0.982
 7744SOL    HW235112   3.211   1.128   0.910
 7745SOL     OW35113   0.898   1.236  17.431
 7745SOL    HW135114   0.909   1.213  17.339
 7745SOL    HW235115   0.805   1.252  17.442
 7746SOL     OW35116   4.728   2.059  15.346
 7746SOL    HW135117   4.726   2.108  15.264
 7746SOL    HW235118   4.654   2.093  15.397
 7747SOL     OW35119   3.452   2.432   1.946
 7747SOL    HW135120   3.505   2.364   1.904
 7747SOL    HW235121   3.497   2.514   1.927
 7748SOL     OW35122   1.006   2.179   5.645
 7748SOL    HW135123   0.957   2.254   5.677
 7748SOL    HW235124   0.938   2.118   5.614
 7749SOL     OW35125   4.120   4.659  11.600
 7749SOL    HW135126   4.074   4.743  11.606
 7749SOL    HW235127   4.058   4.600  11.557
 7750SOL     OW35128   0.236   1.232  17.881
 7750SOL    HW135129   0.150   1.250  17.919
 7750SOL    HW235130   0.270   1.318  17.856
 7751SOL     OW35131   3.910   0.231  21.024
 7751SOL    HW135132   3.870   0.172  20.960
 7751SOL    HW235133   3.986   0.183  21.057
 7752SOL     OW35134   4.379   3.618  14.767
 7752SOL    HW135135   4.381   3.697  14.714
 7752SOL    HW235136   4.312   3.563  14.726
 7753SOL     OW35137   1.765   4.753   0.546
 7753SOL    HW135138   1.692   4.693   0.535
 7753SOL    HW235139   1.842   4.697   0.550
 7754SOL     OW35140   2.986   1.863   3.396
 7754SOL    HW135141   2.966   1.937   3.452
 7754SOL    HW235142   3.031   1.800   3.453
 7755SOL     OW35143   2.588   1.200   3.865
 7755SOL    HW135144   2.546   1.284   3.884
 7755SOL    HW235145   2.601   1.161   3.952
 7756SOL     OW35146   1.204   0.042   5.737
 7756SOL    HW135147   1.227   4.741   5.709
 7756SOL    HW235148   1.113   0.036   5.764
 7757SOL     OW35149   0.430   1.332   0.490
 7757SOL    HW135150   0.510   1.345   0.542
 7757SOL    HW235151   0.404   1.242   0.507
 7758SOL     OW35152   2.423   3.258  21.044
 7758SOL    HW135153   2.355   3.321  21.068
 7758SOL    HW235154   2.503   3.310  21.038
 7759SOL     OW35155   3.763   4.775   7.823
 7759SOL    HW135156   3.740   4.682   7.812
 7759SOL    HW235157   3.748   0.026   7.736
 7760SOL     OW35158   0.810   1.557  16.455
 7760SOL    HW135159   0.904   1.568  16.469
 7760SOL    HW235160   0.769   1.602  16.529
 7761SOL     OW35161   1.806   2.907  20.317
 7761SOL    HW135162   1.736   2.958  20.357
 7761SOL    HW235163   1.783   2.816  20.335
 7762SOL     OW35164   2.033   2.020  17.352
 7762SOL    HW135165   1.950   2.009  17.400
 7762SOL    HW235166   2.098   1.974  17.405
 7763SOL     OW35167   1.008   2.051   1.344
 7763SOL    HW135168   0.939   2.115   1.327
 7763SOL    HW235169   1.004   1.990   1.270
 7764SOL     OW35170   3.229   2.985  18.879
 7764SOL    HW135171   3.161   3.050  18.864
 7764SOL    HW235172   3.198   2.906  18.835
 7765SOL     OW35173   0.578   3.179   4.388
 7765SOL    HW135174   0.543   3.129   4.314
 7765SOL    HW235175   0.570   3.270   4.361
 7766SOL     OW35176   4.577   4.160  19.650
 7766SOL    HW135177   4.606   4.098  19.583
 7766SOL    HW235178   4.528   4.226  19.601
 7767SOL     OW35179   2.552   4.660   4.963
 7767SOL    HW135180   2.518   4.662   4.874
 7767SOL    HW235181   2.617   4.590   4.963
 7768SOL     OW35182   3.343   3.503  11.550
 7768SOL    HW135183   3.304   3.485  11.464
 7768SOL    HW235184   3.273   3.484  11.612
 7769SOL     OW35185   0.549   4.536   0.570
 7769SOL    HW135186   0.626   4.485   0.594
 7769SOL    HW235187   0.583   4.623   0.549
 7770SOL     OW35188   3.999   2.355  16.835
 7770SOL    HW135189   3.943   2.429  16.859
 7770SOL    HW235190   4.007   2.303  16.915
 7771SOL     OW35191   2.110   2.653   3.618
 7771SOL    HW135192   2.089   2.591   3.688
 7771SOL    HW235193   2.098   2.739   3.656
 7772SOL     OW35194   2.845   4.380   4.633
 7772SOL    HW135195   2.752   4.395   4.618
 7772SOL    HW235196   2.880   4.356   4.548
 7773SOL     OW35197   4.783   1.839  16.637
 7773SOL    HW135198   0.025   1.834  16.546
 7773SOL    HW235199   0.074   1.859  16.687
 7774SOL     OW35200   0.578   3.821   1.713
 7774SOL    HW135201   0.538   3.904   1.738
 7774SOL    HW235202   0.651   3.810   1.773
 7775SOL     OW35203   2.490   2.378  16.273
 7775SOL    HW135204   2.577   2.413  16.289
 7775SOL    HW235205   2.458   2.350  16.359
 7776SOL     OW35206   2.108   3.861   0.856
 7776SOL    HW135207   2.104   3.945   0.809
 7776SOL    HW235208   2.159   3.804   0.799
 7777SOL     OW35209   4.602   1.221  18.229
 7777SOL    HW135210   4.655   1.159  18.279
 7777SOL    HW235211   4.512   1.191  18.242
 7778SOL     OW35212   0.402   1.263  21.109
 7778SOL    HW135213   0.415   1.176  21.146
 7778SOL    HW235214   0.326   1.254  21.052
 7779SOL     OW35215   4.043   2.850   0.363
 7779SOL    HW135216   3.961   2.900   0.357
 7779SOL    HW235217   4.111   2.916   0.373
 7780SOL     OW35218   3.602   4.258  15.442
 7780SOL    HW135219   3.649   4.210  15.373
 7780SOL    HW235220   3.643   4.228  15.523
 7781SOL     OW35221   2.986   1.219   0.725
 7781SOL    HW135222   2.968   1.138   0.772
 7781SOL    HW235223   3.077   1.240   0.747
 7782SOL     OW35224   4.672   2.308  21.241
 7782SOL    HW135225   4.701   2.364   0.065
 7782SOL    HW235226   4.598   2.260   0.028
 7783SOL     OW35227   1.663   2.093   2.821
 7783SOL    HW135228   1.617   2.172   2.792
 7783SOL    HW235229   1.666   2.100   2.916
 7784SOL     OW35230   2.790   0.883  20.489
 7784SOL    HW135231   2.716   0.941  20.475
 7784SOL    HW235232   2.836   0.920  20.563
 7785SOL     OW35233   4.199   3.727   4.622
 7785SOL    HW135234   4.258   3.682   4.683
 7785SOL    HW235235   4.196   3.670   4.545
 7786SOL     OW35236   0.496   1.488   2.295
 7786SOL    HW135237   0.483   1.413   2.352
 7786SOL    HW235238   0.585   1.518   2.314
 7787SOL     OW35239   3.344   4.642  17.348
 7787SOL    HW135240   3.295   4.713  17.390
 7787SOL    HW235241   3.435   4.659  17.370
 7788SOL     OW35242   0.022   3.665   5.477
 7788SOL    HW135243   4.718   3.689   5.485
 7788SOL    HW235244   0.069   3.728   5.531
 7789SOL     OW35245   1.781   2.101   3.991
 7789SOL    HW135246   1.873   2.107   4.017
 7789SOL    HW235247   1.742   2.181   4.027
 7790SOL     OW35248   0.069   2.755   1.265
 7790SOL    HW135249   4.772   2.784   1.229
 7790SOL    HW235250   0.134   2.794   1.208
 7791SOL     OW35251   1.118   4.546   5.113
 7791SOL    HW135252   1.169   4.545   5.194
 7791SOL    HW235253   1.170   4.494   5.052
 7792SOL     OW35254   3.824   3.849   5.130
 7792SOL    HW135255   3.840   3.870   5.222
 7792SOL    HW235256   3.844   3.930   5.083
 7793SOL     OW35257   2.450   4.213  16.209
 7793SOL    HW135258   2.543   4.222  16.189
 7793SOL    HW235259   2.405   4.231  16.127
 7794SOL     OW35260   4.197   0.128   5.107
 7794SOL    HW135261   4.258   0.136   5.181
 7794SOL    HW235262   4.214   0.206   5.054
 7795SOL     OW35263   2.181   1.473  11.789
 7795SOL    HW135264   2.241   1.401  11.809
 7795SOL    HW235265   2.194   1.490  11.696
 7796SOL     OW35266   0.566   0.964  17.516
 7796SOL    HW135267   0.621   0.991  17.590
 7796SOL    HW235268   0.569   0.868  17.518
 7797SOL     OW35269   0.132   2.493   6.055
 7797SOL    HW135270   0.115   2.463   6.144
 7797SOL    HW235271   0.202   2.557   6.064
 7798SOL     OW35272   4.661   4.359  20.954
 7798SOL    HW135273   4.749   4.388  20.979
 7798SOL    HW235274   4.656   4.378  20.860
 7799SOL     OW35275   3.109   3.438   3.512
 7799SOL    HW135276   3.018   3.451   3.538
 7799SOL    HW235277   3.160   3.490   3.575
 7800SOL     OW35278   1.139   1.962   0.739
 7800SOL    HW135279   1.081   2.024   0.695
 7800SOL    HW235280   1.198   2.017   0.791
 7801SOL     OW35281   4.573   3.232   2.908
 7801SOL    HW135282   4.647   3.233   2.968
 7801SOL    HW235283   4.571   3.320   2.872
 7802SOL     OW35284   1.580   0.979  21.124
 7802SOL    HW135285   1.645   0.927  21.076
 7802SOL    HW235286   1.624   1.003  21.205
 7803SOL     OW35287   1.041   2.289   4.545
 7803SOL    HW135288   0.968   2.298   4.484
 7803SOL    HW235289   1.057   2.194   4.549
 7804SOL     OW35290   2.353   3.784  21.219
 7804SOL    HW135291   2.262   3.752  21.217
 7804SOL    HW235292   2.345   3.879  21.211
 7805SOL     OW35293   1.557   4.254   0.471
 7805SOL    HW135294   1.631   4.267   0.410
 7805SOL    HW235295   1.571   4.318   0.540
 7806SOL     OW35296   1.031   3.405  17.369
 7806SOL    HW135297   1.113   3.356  17.363
 7806SOL    HW235298   0.977   3.371  17.297
 7807SOL     OW35299   1.587   3.554  18.641
 7807SOL    HW135300   1.629   3.468  18.642
 7807SOL    HW235301   1.645   3.610  18.693
 7808SOL     OW35302   3.241   2.550   1.157
 7808SOL    HW135303   3.218   2.634   1.196
 7808SOL    HW235304   3.288   2.503   1.226
 7809SOL     OW35305   1.607   0.118  17.289
 7809SOL    HW135306   1.551   0.184  17.249
 7809SOL    HW235307   1.598   0.133  17.383
 7810SOL     OW35308   0.965   3.265   2.307
 7810SOL    HW135309   1.036   3.212   2.272
 7810SOL    HW235310   0.917   3.295   2.230
 7811SOL     OW35311   3.428   3.665   2.547
 7811SOL    HW135312   3.348   3.714   2.567
 7811SOL    HW235313   3.446   3.687   2.456
 7812SOL     OW35314   1.397   1.978  10.318
 7812SOL    HW135315   1.354   2.015  10.396
 7812SOL    HW235316   1.347   1.899  10.298
 7813SOL     OW35317   2.263   0.995   3.416
 7813SOL    HW135318   2.195   1.060   3.395
 7813SOL    HW235319   2.295   1.021   3.502
 7814SOL     OW35320   2.557   0.110   2.937
 7814SOL    HW135321   2.620   0.116   3.009
 7814SOL    HW235322   2.583   0.032   2.889
 7815SOL     OW35323   2.420   1.810  21.203
 7815SOL    HW135324   2.376   1.893  21.223
 7815SOL    HW235325   2.392   1.790  21.114
 7816SOL     OW35326   2.194   2.657   4.436
 7816SOL    HW135327   2.203   2.586   4.372
 7816SOL    HW235328   2.157   2.730   4.385
 7817SOL     OW35329   3.054   1.392   2.993
 7817SOL    HW135330   3.027   1.468   2.941
 7817SOL    HW235331   3.080   1.429   3.077
 7818SOL     OW35332   3.425   1.338   8.871
 7818SOL    HW135333   3.332   1.348   8.848
 7818SOL    HW235334   3.427   1.264   8.931
 7819SOL     OW35335   0.628   4.374  19.084
 7819SOL    HW135336   0.638   4.305  19.148
 7819SOL    HW235337   0.673   4.342  19.006
 7820SOL     OW35338   3.756   4.223  14.900
 7820SOL    HW135339   3.677   4.265  14.935
 7820SOL    HW235340   3.732   4.198  14.811
 7821SOL     OW35341   1.753   1.035   1.792
 7821SOL    HW135342   1.826   0.973   1.796
 7821SOL    HW235343   1.675   0.983   1.809
 7822SOL     OW35344   0.060   4.340  14.686
 7822SOL    HW135345   0.150   4.367  14.667
 7822SOL    HW235346   0.016   4.420  14.713
 7823SOL     OW35347   1.463   1.643  16.099
 7823SOL    HW135348   1.390   1.688  16.057
 7823SOL    HW235349   1.515   1.714  16.138
 7824SOL     OW35350   0.188   3.238   8.751
 7824SOL    HW135351   0.187   3.303   8.680
 7824SOL    HW235352   0.248   3.170   8.720
 7825SOL     OW35353   1.856   0.949  20.258
 7825SOL    HW135354   1.945   0.913  20.259
 7825SOL    HW235355   1.805   0.889  20.311
 7826SOL     OW35356   3.613   4.619   1.498
 7826SOL    HW135357   3.703   4.587   1.494
 7826SOL    HW235358   3.560   4.539   1.499
 7827SOL     OW35359   3.536   1.010  17.005
 7827SOL    HW135360   3.473   0.985  17.072
 7827SOL    HW235361   3.483   1.027  16.927
 7828SOL     OW35362   0.879   1.989  18.215
 7828SOL    HW135363   0.784   1.999  18.222
 7828SOL    HW235364   0.914   2.075  18.240
 7829SOL     OW35365   0.788   1.194   2.294
 7829SOL    HW135366   0.851   1.122   2.305
 7829SOL    HW235367   0.820   1.264   2.350
 7830SOL     OW35368   1.611   0.147   2.246
 7830SOL    HW135369   1.527   0.192   2.241
 7830SOL    HW235370   1.674   0.208   2.209
 7831SOL     OW35371   4.484   0.479   3.054
 7831SOL    HW135372   4.464   0.459   2.962
 7831SOL    HW235373   4.401   0.467   3.100
 7832SOL     OW35374   3.858   1.235  20.887
 7832SOL    HW135375   3.767   1.247  20.859
 7832SOL    HW235376   3.909   1.237  20.806
 7833SOL     OW35377   3.857   1.634  14.245
 7833SOL    HW135378   3.894   1.573  14.181
 7833SOL    HW235379   3.887   1.720  14.216
 7834SOL     OW35380   1.870   0.160  16.012
 7834SOL    HW135381   1.919   0.161  16.094
 7834SOL    HW235382   1.897   0.078  15.970
 7835SOL     OW35383   2.993   1.720  14.510
 7835SOL    HW135384   3.074   1.670  14.512
 7835SOL    HW235385   2.948   1.695  14.590
 7836SOL     OW35386   2.173   2.039  13.830
 7836SOL    HW135387   2.233   2.003  13.896
 7836SOL    HW235388   2.135   2.116  13.871
 7837SOL     OW35389   4.040   0.535   1.511
 7837SOL    HW135390   3.964   0.547   1.455
 7837SOL    HW235391   4.097   0.476   1.461
 7838SOL     OW35392   3.967   2.926  16.526
 7838SOL    HW135393   3.918   2.862  16.475
 7838SOL    HW235394   3.908   3.001  16.533
 7839SOL     OW35395   2.746   4.502   1.474
 7839SOL    HW135396   2.779   4.426   1.425
 7839SOL    HW235397   2.653   4.483   1.488
 7840SOL     OW35398   4.144   2.714   0.582
 7840SOL    HW135399   4.162   2.794   0.532
 7840SOL    HW235400   4.079   2.668   0.530
 7841SOL     OW35401   4.609   4.674  20.790
 7841SOL    HW135402   4.691   4.692  20.837
 7841SOL    HW235403   4.609   4.578  20.780
 7842SOL     OW35404   1.022   3.413  18.569
 7842SOL    HW135405   1.108   3.451  18.586
 7842SOL    HW235406   0.975   3.481  18.520
 7843SOL     OW35407   4.485   3.616   2.136
 7843SOL    HW135408   4.570   3.654   2.115
 7843SOL    HW235409   4.440   3.611   2.051
 7844SOL     OW35410   2.914   1.275   1.083
 7844SOL    HW135411   2.888   1.270   0.991
 7844SOL    HW235412   2.852   1.336   1.122
 7845SOL     OW35413   4.540   3.448  17.357
 7845SOL    HW135414   4.610   3.410  17.306
 7845SOL    HW235415   4.584   3.496  17.427
 7846SOL     OW35416   3.381   1.998  15.058
 7846SOL    HW135417   3.446   2.034  14.998
 7846SOL    HW235418   3.336   1.930  15.009
 7847SOL     OW35419   4.470   1.445   5.100
 7847SOL    HW135420   4.545   1.469   5.153
 7847SOL    HW235421   4.402   1.509   5.123
 7848SOL     OW35422   3.789   1.170   2.118
 7848SOL    HW135423   3.837   1.228   2.058
 7848SOL    HW235424   3.758   1.228   2.187
 7849SOL     OW35425   4.566   0.898  18.081
 7849SOL    HW135426   4.550   0.816  18.129
 7849SOL    HW235427   4.546   0.967  18.144
 7850SOL     OW35428   4.024   3.263  20.748
 7850SOL    HW135429   4.042   3.205  20.673
 7850SOL    HW235430   4.101   3.253  20.804
 7851SOL     OW35431   3.985   1.970  20.627
 7851SOL    HW135432   4.013   2.036  20.691
 7851SOL    HW235433   4.044   1.896  20.643
 7852SOL     OW35434   0.657   1.111   3.491
 7852SOL    HW135435   0.640   1.027   3.534
 7852SOL    HW235436   0.719   1.155   3.549
 7853SOL     OW35437   2.886   1.817  16.520
 7853SOL    HW135438   2.942   1.786  16.592
 7853SOL    HW235439   2.872   1.909  16.539
 7854SOL     OW35440   3.808   0.600   1.324
 7854SOL    HW135441   3.841   0.650   1.250
 7854SOL    HW235442   3.810   0.663   1.397
 7855SOL     OW35443   4.603   2.882  17.063
 7855SOL    HW135444   4.528   2.941  17.073
 7855SOL    HW235445   4.569   2.795  17.083
 7856SOL     OW35446   1.248   4.548   5.744
 7856SOL    HW135447   1.157   4.521   5.729
 7856SOL    HW235448   1.290   4.471   5.782
 7857SOL     OW35449   3.921   3.327   8.362
 7857SOL    HW135450   3.914   3.404   8.418
 7857SOL    HW235451   3.990   3.349   8.299
 7858SOL     OW35452   4.627   3.778   4.988
 7858SOL    HW135453   4.644   3.733   5.071
 7858SOL    HW235454   4.532   3.791   4.988
 7859SOL     OW35455   2.686   2.426   2.498
 7859SOL    HW135456   2.766   2.426   2.551
 7859SOL    HW235457   2.616   2.446   2.560
 7860SOL     OW35458   4.338   4.702   5.684
 7860SOL    HW135459   4.398   4.627   5.688
 7860SOL    HW235460   4.361   4.747   5.603
 7861SOL     OW35461   0.084   4.222  18.965
 7861SOL    HW135462   0.000   4.265  18.948
 7861SOL    HW235463   0.061   4.137  19.001
 7862SOL     OW35464   1.847   3.907  14.139
 7862SOL    HW135465   1.902   3.984  14.125
 7862SOL    HW235466   1.760   3.943  14.154
 7863SOL     OW35467   4.313   0.215  20.994
 7863SOL    HW135468   4.281   0.299  21.026
 7863SOL    HW235469   4.336   0.231  20.903
 7864SOL     OW35470   1.220   3.634   5.938
 7864SOL    HW135471   1.280   3.708   5.947
 7864SOL    HW235472   1.194   3.635   5.846
 7865SOL     OW35473   0.011   1.639  17.561
 7865SOL    HW135474   4.711   1.615  17.592
 7865SOL    HW235475   4.783   1.694  17.484
 7866SOL     OW35476   1.493   4.086   0.217
 7866SOL    HW135477   1.478   4.134   0.299
 7866SOL    HW235478   1.464   4.145   0.149
 7867SOL     OW35479   0.480   2.661   3.733
 7867SOL    HW135480   0.514   2.634   3.818
 7867SOL    HW235481   0.436   2.583   3.698
 7868SOL     OW35482   2.380   3.068  14.392
 7868SOL    HW135483   2.381   3.098  14.483
 7868SOL    HW235484   2.289   3.044  14.375
 7869SOL     OW35485   1.128   1.826  21.153
 7869SOL    HW135486   1.100   1.791  21.069
 7869SOL    HW235487   1.224   1.824  21.149
 7870SOL     OW35488   4.202   3.679   0.254
 7870SOL    HW135489   4.215   3.632   0.336
 7870SOL    HW235490   4.275   3.741   0.250
 7871SOL     OW35491   4.592   1.033  20.309
 7871SOL    HW135492   4.527   0.988  20.254
 7871SOL    HW235493   4.592   1.123  20.277
 7872SOL     OW35494   2.709   3.718  19.210
 7872SOL    HW135495   2.638   3.668  19.170
 7872SOL    HW235496   2.685   3.809  19.194
 7873SOL     OW35497   3.637   3.327   2.032
 7873SOL    HW135498   3.579   3.373   2.092
 7873SOL    HW235499   3.666   3.250   2.080
 7874SOL     OW35500   0.470   3.864  19.497
 7874SOL    HW135501   0.473   3.939  19.557
 7874SOL    HW235502   0.483   3.902  19.410
 7875SOL     OW35503   3.801   3.525   0.480
 7875SOL    HW135504   3.801   3.525   0.385
 7875SOL    HW235505   3.740   3.455   0.504
 7876SOL     OW35506   0.496   2.547  20.600
 7876SOL    HW135507   0.448   2.486  20.545
 7876SOL    HW235508   0.523   2.494  20.676
 7877SOL     OW35509   0.871   0.952   4.990
 7877SOL    HW135510   0.906   0.874   4.945
 7877SOL    HW235511   0.780   0.929   5.008
 7878SOL     OW35512   0.173   4.352  18.371
 7878SOL    HW135513   0.139   4.436  18.339
 7878SOL    HW235514   0.247   4.332  18.313
 7879SOL     OW35515   0.533   3.180   2.644
 7879SOL    HW135516   0.548   3.130   2.563
 7879SOL    HW235517   0.605   3.242   2.648
 7880SOL     OW35518   2.323   3.701  16.770
 7880SOL    HW135519   2.392   3.733  16.711
 7880SOL    HW235520   2.302   3.776  16.825
 7881SOL     OW35521   4.007   2.867   7.988
 7881SOL    HW135522   3.960   2.785   8.003
 7881SOL    HW235523   3.945   2.923   7.942
 7882SOL     OW35524   2.856   4.198   2.111
 7882SOL    HW135525   2.790   4.267   2.107
 7882SOL    HW235526   2.939   4.245   2.122
 7883SOL     OW35527   2.029   2.491   2.848
 7883SOL    HW135528   2.097   2.530   2.792
 7883SOL    HW235529   2.021   2.401   2.817
 7884SOL     OW35530   4.634   2.479  18.511
 7884SOL    HW135531   4.576   2.452  18.440
 7884SOL    HW235532   4.659   2.397  18.554
 7885SOL     OW35533   1.564   0.404  16.199
 7885SOL    HW135534   1.622   0.357  16.258
 7885SOL    HW235535   1.602   0.391  16.112
 7886SOL     OW35536   0.203   3.554  16.802
 7886SOL    HW135537   0.295   3.543  16.779
 7886SOL    HW235538   0.168   3.609  16.732
 7887SOL     OW35539   3.853   3.922  16.573
 7887SOL    HW135540   3.881   3.841  16.530
 7887SOL    HW235541   3.920   3.939  16.639
 7888SOL     OW35542   0.600   2.005  18.258
 7888SOL    HW135543   0.553   1.972  18.335
 7888SOL    HW235544   0.533   2.052  18.208
 7889SOL     OW35545   3.304   3.958  11.258
 7889SOL    HW135546   3.379   3.935  11.313
 7889SOL    HW235547   3.237   3.893  11.280
 7890SOL     OW35548   3.046   4.342  19.281
 7890SOL    HW135549   3.096   4.420  19.304
 7890SOL    HW235550   3.112   4.280  19.250
 7891SOL     OW35551   0.049   2.591   0.901
 7891SOL    HW135552   0.100   2.665   0.933
 7891SOL    HW235553   4.746   2.611   0.928
 7892SOL     OW35554   4.322   4.745  16.597
 7892SOL    HW135555   4.364   4.786  16.521
 7892SOL    HW235556   4.247   0.014  16.617
 7893SOL     OW35557   1.548   3.212  18.159
 7893SOL    HW135558   1.634   3.185  18.191
 7893SOL    HW235559   1.560   3.224  18.065
 7894SOL     OW35560   3.004   3.687  15.679
 7894SOL    HW135561   2.997   3.603  15.723
 7894SOL    HW235562   3.089   3.684  15.635
 7895SOL     OW35563   3.571   0.893   5.676
 7895SOL    HW135564   3.603   0.934   5.756
 7895SOL    HW235565   3.486   0.934   5.661
 7896SOL     OW35566   2.005   4.339   1.491
 7896SOL    HW135567   2.003   4.417   1.435
 7896SOL    HW235568   1.937   4.355   1.556
 7897SOL     OW35569   0.637   1.251  17.489
 7897SOL    HW135570   0.575   1.181  17.467
 7897SOL    HW235571   0.611   1.324  17.433
 7898SOL     OW35572   4.640   0.528   6.157
 7898SOL    HW135573   4.647   0.619   6.184
 7898SOL    HW235574   4.729   0.503   6.133
 7899SOL     OW35575   4.713   4.609  16.678
 7899SOL    HW135576   0.000   4.565  16.719
 7899SOL    HW235577   4.729   4.702  16.693
 7900SOL     OW35578   2.674   1.011  15.202
 7900SOL    HW135579   2.586   1.048  15.197
 7900SOL    HW235580   2.661   0.917  15.188
 7901SOL     OW35581   3.785   1.966   3.890
 7901SOL    HW135582   3.814   1.875   3.896
 7901SOL    HW235583   3.825   2.009   3.965
 7902SOL     OW35584   3.530   0.150   5.965
 7902SOL    HW135585   3.454   0.146   5.907
 7902SOL    HW235586   3.582   0.223   5.932
 7903SOL     OW35587   4.449   0.924  18.977
 7903SOL    HW135588   4.449   0.882  18.891
 7903SOL    HW235589   4.383   0.993  18.970
 7904SOL     OW35590   2.026   1.181   3.378
 7904SOL    HW135591   2.002   1.231   3.456
 7904SOL    HW235592   1.966   1.213   3.310
 7905SOL     OW35593   3.397   2.841   5.609
 7905SOL    HW135594   3.321   2.784   5.606
 7905SOL    HW235595   3.385   2.901   5.535
 7906SOL     OW35596   3.704   4.085   3.718
 7906SOL    HW135597   3.757   4.016   3.677
 7906SOL    HW235598   3.702   4.061   3.811
 7907SOL     OW35599   2.139   4.527  13.568
 7907SOL    HW135600   2.146   4.468  13.643
 7907SOL    HW235601   2.175   4.477  13.495
 7908SOL     OW35602   0.689   3.421  13.788
 7908SOL    HW135603   0.594   3.434  13.787
 7908SOL    HW235604   0.712   3.425  13.881
 7909SOL     OW35605   4.545   0.977  16.835
 7909SOL    HW135606   4.602   0.909  16.870
 7909SOL    HW235607   4.558   1.052  16.893
 7910SOL     OW35608   4.530   3.294  13.648
 7910SOL    HW135609   4.575   3.248  13.719
 7910SOL    HW235610   4.574   3.378  13.640
 7911SOL     OW35611   1.659   3.388   1.806
 7911SOL    HW135612   1.656   3.483   1.819
 7911SOL    HW235613   1.718   3.356   1.875
 7912SOL     OW35614   0.673   0.996   1.788
 7912SOL    HW135615   0.708   1.045   1.862
 7912SOL    HW235616   0.640   1.062   1.728
 7913SOL     OW35617   1.960   1.492   1.974
 7913SOL    HW135618   1.899   1.434   1.927
 7913SOL    HW235619   2.030   1.434   2.003
 7914SOL     OW35620   3.143   0.525  18.949
 7914SOL    HW135621   3.238   0.516  18.949
 7914SOL    HW235622   3.117   0.507  19.040
 7915SOL     OW35623   3.195   4.654  17.741
 7915SOL    HW135624   3.143   4.674  17.663
 7915SOL    HW235625   3.247   4.577  17.716
 7916SOL     OW35626   0.092   1.100  19.473
 7916SOL    HW135627   0.133   1.168  19.526
 7916SOL    HW235628   0.012   1.077  19.520
 7917SOL     OW35629   0.297   2.065   3.763
 7917SOL    HW135630   0.311   2.004   3.690
 7917SOL    HW235631   0.279   2.149   3.720
 7918SOL     OW35632   3.697   2.569   0.257
 7918SOL    HW135633   3.646   2.629   0.204
 7918SOL    HW235634   3.787   2.601   0.250
 7919SOL     OW35635   1.341   1.514  19.030
 7919SOL    HW135636   1.415   1.490  19.085
 7919SOL    HW235637   1.378   1.568  18.960
 7920SOL     OW35638   1.766   4.653  17.360
 7920SOL    HW135639   1.722   4.738  17.353
 7920SOL    HW235640   1.860   4.675  17.363
 7921SOL     OW35641   4.681   3.440  15.980
 7921SOL    HW135642   4.612   3.381  16.011
 7921SOL    HW235643   4.759   3.384  15.974
 7922SOL     OW35644   0.132   2.739   2.845
 7922SOL    HW135645   0.081   2.677   2.793
 7922SOL    HW235646   0.153   2.693   2.926
 7923SOL     OW35647   0.970   3.982   5.092
 7923SOL    HW135648   1.013   3.911   5.043
 7923SOL    HW235649   1.020   4.061   5.068
 7924SOL     OW35650   2.053   0.040  15.178
 7924SOL    HW135651   2.120   4.772  15.139
 7924SOL    HW235652   2.074   0.128  15.148
 7925SOL     OW35653   2.442   3.423  15.165
 7925SOL    HW135654   2.465   3.513  15.187
 7925SOL    HW235655   2.514   3.371  15.200
 7926SOL     OW35656   0.043   1.147   1.521
 7926SOL    HW135657   0.004   1.149   1.608
 7926SOL    HW235658   0.134   1.172   1.535
 7927SOL     OW35659   1.192   3.150  15.416
 7927SOL    HW135660   1.154   3.073  15.373
 7927SOL    HW235661   1.286   3.138  15.407
 7928SOL     OW35662   2.006   0.992  20.622
 7928SOL    HW135663   1.960   0.942  20.556
 7928SOL    HW235664   2.093   1.008  20.584
 7929SOL     OW35665   3.666   2.203  18.821
 7929SOL    HW135666   3.636   2.284  18.862
 7929SOL    HW235667   3.610   2.135  18.859
 7930SOL     OW35668   0.284   4.704  15.517
 7930SOL    HW135669   0.288   4.752  15.600
 7930SOL    HW235670   0.218   4.637  15.531
 7931SOL     OW35671   1.397   1.761   0.074
 7931SOL    HW135672   1.323   1.725   0.124
 7931SOL    HW235673   1.468   1.767   0.138
 7932SOL     OW35674   2.515   0.082   3.572
 7932SOL    HW135675   2.559   0.136   3.638
 7932SOL    HW235676   2.474   0.146   3.513
 7933SOL     OW35677   2.357   2.244  17.249
 7933SOL    HW135678   2.363   2.257  17.344
 7933SOL    HW235679   2.407   2.163  17.233
 7934SOL     OW35680   4.691   3.403  16.284
 7934SOL    HW135681   4.658   3.412  16.195
 7934SOL    HW235682   4.619   3.433  16.340
 7935SOL     OW35683   1.148   4.768   3.733
 7935SOL    HW135684   1.074   0.015   3.684
 7935SOL    HW235685   1.223   4.778   3.674
 7936SOL     OW35686   0.705   3.137  13.515
 7936SOL    HW135687   0.692   3.161  13.607
 7936SOL    HW235688   0.765   3.203  13.481
 7937SOL     OW35689   3.259   2.141  20.168
 7937SOL    HW135690   3.218   2.072  20.116
 7937SOL    HW235691   3.202   2.150  20.245
 7938SOL     OW35692   3.502   2.608  17.980
 7938SOL    HW135693   3.431   2.558  18.021
 7938SOL    HW235694   3.460   2.688  17.948
 7939SOL     OW35695   1.222   4.471  18.326
 7939SOL    HW135696   1.304   4.488  18.371
 7939SOL    HW235697   1.246   4.417  18.251
 7940SOL     OW35698   3.490   2.597  16.124
 7940SOL    HW135699   3.565   2.539  16.135
 7940SOL    HW235700   3.517   2.657  16.054
 7941SOL     OW35701   2.285   1.178  20.817
 7941SOL    HW135702   2.349   1.167  20.747
 7941SOL    HW235703   2.314   1.255  20.865
 7942SOL     OW35704   0.198   3.430  20.305
 7942SOL    HW135705   0.108   3.401  20.291
 7942SOL    HW235706   0.192   3.526  20.305
 7943SOL     OW35707   3.478   4.685  14.944
 7943SOL    HW135708   3.401   4.734  14.972
 7943SOL    HW235709   3.476   4.689  14.848
 7944SOL     OW35710   0.402   4.636  16.243
 7944SOL    HW135711   0.351   4.616  16.321
 7944SOL    HW235712   0.443   4.552  16.219
 7945SOL     OW35713   0.427   2.872  15.590
 7945SOL    HW135714   0.397   2.808  15.655
 7945SOL    HW235715   0.421   2.957  15.634
 7946SOL     OW35716   0.406   2.222  20.255
 7946SOL    HW135717   0.422   2.268  20.172
 7946SOL    HW235718   0.411   2.129  20.233
 7947SOL     OW35719   3.102   3.138   4.797
 7947SOL    HW135720   3.138   3.082   4.728
 7947SOL    HW235721   3.175   3.151   4.857
 7948SOL     OW35722   0.905   0.605  21.178
 7948SOL    HW135723   0.838   0.550  21.219
 7948SOL    HW235724   0.956   0.639   0.004
 7949SOL     OW35725   0.049   4.130  19.360
 7949SOL    HW135726   0.106   4.070  19.311
 7949SOL    HW235727   4.764   4.076  19.390
 7950SOL     OW35728   3.513   3.933   3.569
 7950SOL    HW135729   3.546   3.859   3.620
 7950SOL    HW235730   3.548   4.010   3.613
 7951SOL     OW35731   0.264   0.145   0.992
 7951SOL    HW135732   0.189   0.203   0.994
 7951SOL    HW235733   0.278   0.127   0.899
 7952SOL     OW35734   3.317   2.199   1.165
 7952SOL    HW135735   3.267   2.267   1.211
 7952SOL    HW235736   3.370   2.157   1.233
 7953SOL     OW35737   2.520   1.776  19.734
 7953SOL    HW135738   2.613   1.755  19.727
 7953SOL    HW235739   2.498   1.754  19.825
 7954SOL     OW35740   2.760   3.433  19.500
 7954SOL    HW135741   2.792   3.471  19.581
 7954SOL    HW235742   2.797   3.487  19.431
 7955SOL     OW35743   4.435   0.284   4.993
 7955SOL    HW135744   4.477   0.251   4.914
 7955SOL    HW235745   4.464   0.225   5.063
 7956SOL     OW35746   1.526   0.338   7.085
 7956SOL    HW135747   1.506   0.362   6.995
 7956SOL    HW235748   1.539   0.243   7.083
 7957SOL     OW35749   2.536   0.639  16.945
 7957SOL    HW135750   2.499   0.558  16.908
 7957SOL    HW235751   2.616   0.654  16.894
 7958SOL     OW35752   0.396   3.863  15.661
 7958SOL    HW135753   0.331   3.887  15.727
 7958SOL    HW235754   0.391   3.768  15.655
 7959SOL     OW35755   4.454   4.563   1.645
 7959SOL    HW135756   4.492   4.535   1.562
 7959SOL    HW235757   4.522   4.616   1.686
 7960SOL     OW35758   3.533   0.628   4.690
 7960SOL    HW135759   3.509   0.686   4.762
 7960SOL    HW235760   3.452   0.615   4.641
 7961SOL     OW35761   3.241   2.334  14.769
 7961SOL    HW135762   3.171   2.270  14.758
 7961SOL    HW235763   3.212   2.389  14.841
 7962SOL     OW35764   0.993   1.397   5.628
 7962SOL    HW135765   1.064   1.461   5.617
 7962SOL    HW235766   0.977   1.395   5.722
 7963SOL     OW35767   0.853   4.747  20.891
 7963SOL    HW135768   0.857   0.048  20.928
 7963SOL    HW235769   0.765   4.717  20.911
 7964SOL     OW35770   3.642   1.084   9.349
 7964SOL    HW135771   3.631   1.163   9.295
 7964SOL    HW235772   3.567   1.085   9.408
 7965SOL     OW35773   4.015   4.401  20.057
 7965SOL    HW135774   3.923   4.427  20.066
 7965SOL    HW235775   4.013   4.306  20.049
 7966SOL     OW35776   2.091   4.653   0.939
 7966SOL    HW135777   2.063   4.570   0.902
 7966SOL    HW235778   2.100   4.711   0.863
 7967SOL     OW35779   2.418   3.794   6.851
 7967SOL    HW135780   2.460   3.847   6.919
 7967SOL    HW235781   2.436   3.841   6.770
 7968SOL     OW35782   0.715   3.529  15.502
 7968SOL    HW135783   0.808   3.532  15.521
 7968SOL    HW235784   0.673   3.514  15.587
 7969SOL     OW35785   0.368   2.135  18.186
 7969SOL    HW135786   0.301   2.124  18.253
 7969SOL    HW235787   0.338   2.081  18.113
 7970SOL     OW35788   2.846   2.724  12.834
 7970SOL    HW135789   2.875   2.796  12.889
 7970SOL    HW235790   2.790   2.671  12.891
 7971SOL     OW35791   1.802   2.766   0.224
 7971SOL    HW135792   1.800   2.783   0.318
 7971SOL    HW235793   1.781   2.673   0.216
 7972SOL     OW35794   1.513   2.216  15.984
 7972SOL    HW135795   1.512   2.126  15.951
 7972SOL    HW235796   1.559   2.210  16.068
 7973SOL     OW35797   0.060   1.991   2.210
 7973SOL    HW135798   0.040   1.945   2.129
 7973SOL    HW235799   0.125   2.056   2.185
 7974SOL     OW35800   0.698   1.816   4.663
 7974SOL    HW135801   0.710   1.896   4.611
 7974SOL    HW235802   0.773   1.816   4.723
 7975SOL     OW35803   3.358   0.252   4.449
 7975SOL    HW135804   3.436   0.243   4.504
 7975SOL    HW235805   3.303   0.315   4.496
 7976SOL     OW35806   0.806   0.852  11.298
 7976SOL    HW135807   0.728   0.824  11.346
 7976SOL    HW235808   0.878   0.834  11.359
 7977SOL     OW35809   0.186   4.005  15.882
 7977SOL    HW135810   0.150   4.094  15.871
 7977SOL    HW235811   0.123   3.948  15.839
 7978SOL     OW35812   4.119   1.362  19.198
 7978SOL    HW135813   4.196   1.308  19.212
 7978SOL    HW235814   4.154   1.451  19.186
 7979SOL     OW35815   4.221   1.266  19.524
 7979SOL    HW135816   4.240   1.359  19.539
 7979SOL    HW235817   4.127   1.264  19.507
 7980SOL     OW35818   0.830   1.812   1.547
 7980SOL    HW135819   0.834   1.902   1.578
 7980SOL    HW235820   0.758   1.811   1.485
 7981SOL     OW35821   3.906   1.164  18.583
 7981SOL    HW135822   3.870   1.152  18.670
 7981SOL    HW235823   3.898   1.078  18.541
 7982SOL     OW35824   4.243   0.609   4.465
 7982SOL    HW135825   4.190   0.539   4.427
 7982SOL    HW235826   4.331   0.570   4.474
 7983SOL     OW35827   4.610   1.834   4.138
 7983SOL    HW135828   4.634   1.851   4.229
 7983SOL    HW235829   4.568   1.747   4.140
 7984SOL     OW35830   0.119   3.721   2.787
 7984SOL    HW135831   0.198   3.726   2.733
 7984SOL    HW235832   0.142   3.661   2.857
 7985SOL     OW35833   2.593   1.562   6.003
 7985SOL    HW135834   2.547   1.643   6.024
 7985SOL    HW235835   2.653   1.548   6.077
 7986SOL     OW35836   2.830   0.963   6.082
 7986SOL    HW135837   2.918   0.942   6.113
 7986SOL    HW235838   2.776   0.891   6.114
 7987SOL     OW35839   4.008   0.304  19.069
 7987SOL    HW135840   4.094   0.274  19.097
 7987SOL    HW235841   3.957   0.224  19.055
 7988SOL     OW35842   1.474   1.122   8.800
 7988SOL    HW135843   1.463   1.027   8.803
 7988SOL    HW235844   1.416   1.150   8.730
 7989SOL     OW35845   3.281   2.515  19.388
 7989SOL    HW135846   3.270   2.437  19.334
 7989SOL    HW235847   3.192   2.540  19.413
 7990SOL     OW35848   1.549   2.730   1.566
 7990SOL    HW135849   1.554   2.721   1.661
 7990SOL    HW235850   1.525   2.643   1.535
 7991SOL     OW35851   3.999   0.912  15.408
 7991SOL    HW135852   4.072   0.850  15.411
 7991SOL    HW235853   3.984   0.935  15.500
 7992SOL     OW35854   2.112   0.858  20.364
 7992SOL    HW135855   2.204   0.847  20.339
 7992SOL    HW235856   2.082   0.769  20.383
 7993SOL     OW35857   1.803   4.498  19.189
 7993SOL    HW135858   1.867   4.508  19.119
 7993SOL    HW235859   1.831   4.560  19.257
 7994SOL     OW35860   3.417   4.406  14.364
 7994SOL    HW135861   3.457   4.485  14.327
 7994SOL    HW235862   3.458   4.334  14.316
 7995SOL     OW35863   0.310   4.471  13.849
 7995SOL    HW135864   0.271   4.385  13.865
 7995SOL    HW235865   0.351   4.463  13.763
 7996SOL     OW35866   0.098   3.878  13.100
 7996SOL    HW135867   0.162   3.813  13.073
 7996SOL    HW235868   0.016   3.851  13.058
 7997SOL     OW35869   2.345   2.650  15.589
 7997SOL    HW135870   2.408   2.580  15.573
 7997SOL    HW235871   2.276   2.608  15.640
 7998SOL     OW35872   0.288   4.040   1.528
 7998SOL    HW135873   0.266   3.962   1.579
 7998SOL    HW235874   0.318   4.006   1.444
 7999SOL     OW35875   3.324   1.424   2.624
 7999SOL    HW135876   3.285   1.337   2.623
 7999SOL    HW235877   3.254   1.482   2.592
 8000SOL     OW35878   1.764   0.284  19.193
 8000SOL    HW135879   1.716   0.363  19.168
 8000SOL    HW235880   1.727   0.215  19.139
 8001SOL     OW35881   1.018   2.670  16.111
 8001SOL    HW135882   0.998   2.720  16.032
 8001SOL    HW235883   0.942   2.614  16.124
 8002SOL     OW35884   3.109   2.063   4.882
 8002SOL    HW135885   3.117   2.097   4.971
 8002SOL    HW235886   3.154   2.127   4.827
 8003SOL     OW35887   3.082   1.378   6.510
 8003SOL    HW135888   3.128   1.424   6.439
 8003SOL    HW235889   3.074   1.288   6.477
 8004SOL     OW35890   1.952   0.171  17.676
 8004SOL    HW135891   2.001   0.228  17.735
 8004SOL    HW235892   1.890   0.229  17.633
 8005SOL     OW35893   4.172   3.698   6.518
 8005SOL    HW135894   4.114   3.663   6.450
 8005SOL    HW235895   4.198   3.622   6.569
 8006SOL     OW35896   3.792   3.556  19.553
 8006SOL    HW135897   3.748   3.507  19.483
 8006SOL    HW235898   3.721   3.585  19.610
 8007SOL     OW35899   2.148   0.547  17.618
 8007SOL    HW135900   2.088   0.613  17.654
 8007SOL    HW235901   2.153   0.568  17.524
 8008SOL     OW35902   2.514   3.403   2.245
 8008SOL    HW135903   2.453   3.465   2.284
 8008SOL    HW235904   2.508   3.325   2.301
 8009SOL     OW35905   2.471   2.906   4.582
 8009SOL    HW135906   2.561   2.919   4.609
 8009SOL    HW235907   2.454   2.813   4.594
 8010SOL     OW35908   0.293   1.599   1.627
 8010SOL    HW135909   0.352   1.663   1.588
 8010SOL    HW235910   0.209   1.614   1.584
 8011SOL     OW35911   4.484   3.889  15.810
 8011SOL    HW135912   4.474   3.902  15.904
 8011SOL    HW235913   4.460   3.797  15.796
 8012SOL     OW35914   0.128   2.266   5.024
 8012SOL    HW135915   0.128   2.309   5.109
 8012SOL    HW235916   0.052   2.207   5.027
 8013SOL     OW35917   1.776   1.923  19.396
 8013SOL    HW135918   1.770   1.845  19.450
 8013SOL    HW235919   1.836   1.980  19.443
 8014SOL     OW35920   1.731   2.292  20.838
 8014SOL    HW135921   1.693   2.375  20.864
 8014SOL    HW235922   1.802   2.278  20.901
 8015SOL     OW35923   3.579   1.665   0.808
 8015SOL    HW135924   3.557   1.572   0.816
 8015SOL    HW235925   3.619   1.673   0.721
 8016SOL     OW35926   0.433   0.355  18.560
 8016SOL    HW135927   0.459   0.383  18.648
 8016SOL    HW235928   0.411   0.262  18.570
 8017SOL     OW35929   2.145   2.051   1.949
 8017SOL    HW135930   2.112   2.097   1.872
 8017SOL    HW235931   2.101   1.966   1.948
 8018SOL     OW35932   4.135   1.850   4.170
 8018SOL    HW135933   4.076   1.918   4.138
 8018SOL    HW235934   4.183   1.892   4.242
 8019SOL     OW35935   3.016   4.078   4.026
 8019SOL    HW135936   3.067   4.148   3.985
 8019SOL    HW235937   2.985   4.025   3.953
 8020SOL     OW35938   2.415   1.845   3.298
 8020SOL    HW135939   2.399   1.805   3.384
 8020SOL    HW235940   2.415   1.771   3.237
 8021SOL     OW35941   2.516   2.731  14.941
 8021SOL    HW135942   2.447   2.759  14.881
 8021SOL    HW235943   2.566   2.811  14.958
 8022SOL     OW35944   0.910   2.332  16.465
 8022SOL    HW135945   0.844   2.334  16.395
 8022SOL    HW235946   0.878   2.396  16.529
 8023SOL     OW35947   0.920   2.385  18.651
 8023SOL    HW135948   0.883   2.375  18.564
 8023SOL    HW235949   0.891   2.308  18.699
 8024SOL     OW35950   1.836   2.278   0.274
 8024SOL    HW135951   1.763   2.340   0.269
 8024SOL    HW235952   1.911   2.332   0.297
 8025SOL     OW35953   0.598   3.870  16.341
 8025SOL    HW135954   0.621   3.805  16.275
 8025SOL    HW235955   0.503   3.865  16.349
 8026SOL     OW35956   1.346   1.171  14.849
 8026SOL    HW135957   1.386   1.181  14.935
 8026SOL    HW235958   1.346   1.259  14.812
 8027SOL     OW35959   2.580   0.140  12.817
 8027SOL    HW135960   2.485   0.131  12.818
 8027SOL    HW235961   2.600   0.189  12.897
 8028SOL     OW35962   0.124   1.157  14.065
 8028SOL    HW135963   0.077   1.074  14.066
 8028SOL    HW235964   0.173   1.156  13.983
 8029SOL     OW35965   4.712   4.767   1.949
 8029SOL    HW135966   4.749   0.062   1.980
 8029SOL    HW235967   4.645   4.744   2.014
 8030SOL     OW35968   1.875   4.231  20.618
 8030SOL    HW135969   1.928   4.308  20.602
 8030SOL    HW235970   1.822   4.221  20.539
 8031SOL     OW35971   4.201   2.636  19.798
 8031SOL    HW135972   4.191   2.725  19.762
 8031SOL    HW235973   4.114   2.597  19.790
 8032SOL     OW35974   1.411   3.299  19.305
 8032SOL    HW135975   1.457   3.287  19.388
 8032SOL    HW235976   1.357   3.377  19.318
 8033SOL     OW35977   1.400   1.454   3.593
 8033SOL    HW135978   1.325   1.448   3.653
 8033SOL    HW235979   1.449   1.530   3.624
 8034SOL     OW35980   0.801   0.794  20.047
 8034SOL    HW135981   0.888   0.769  20.017
 8034SOL    HW235982   0.788   0.745  20.128
 8035SOL     OW35983   1.855   2.932  12.795
 8035SOL    HW135984   1.776   2.893  12.834
 8035SOL    HW235985   1.865   3.016  12.841
 8036SOL     OW35986   3.931   1.905   1.935
 8036SOL    HW135987   3.883   1.963   1.875
 8036SOL    HW235988   4.022   1.931   1.924
 8037SOL     OW35989   1.333   2.209   1.787
 8037SOL    HW135990   1.343   2.196   1.692
 8037SOL    HW235991   1.239   2.221   1.800
 8038SOL     OW35992   3.367   2.876   2.893
 8038SOL    HW135993   3.435   2.866   2.960
 8038SOL    HW235994   3.416   2.887   2.812
 8039SOL     OW35995   1.703   4.384   0.686
 8039SOL    HW135996   1.788   4.422   0.665
 8039SOL    HW235997   1.683   4.417   0.773
 8040SOL     OW35998   1.099   0.848  14.658
 8040SOL    HW135999   1.036   0.914  14.628
 8040SOL    HW236000   1.180   0.897  14.671
 8041SOL     OW36001   4.098   3.173  16.146
 8041SOL    HW136002   4.113   3.091  16.193
 8041SOL    HW236003   4.168   3.231  16.176
 8042SOL     OW36004   0.881   1.004  14.816
 8042SOL    HW136005   0.871   0.909  14.801
 8042SOL    HW236006   0.795   1.040  14.799
 8043SOL     OW36007   1.840   3.233   4.142
 8043SOL    HW136008   1.868   3.314   4.102
 8043SOL    HW236009   1.870   3.164   4.083
 8044SOL     OW36010   2.318   3.457  17.280
 8044SOL    HW136011   2.232   3.480  17.316
 8044SOL    HW236012   2.371   3.536  17.294
 8045SOL     OW36013   0.750   1.027   2.723
 8045SOL    HW136014   0.718   0.939   2.704
 8045SOL    HW236015   0.723   1.043   2.814
 8046SOL     OW36016   3.858   3.239  20.392
 8046SOL    HW136017   3.821   3.247  20.304
 8046SOL    HW236018   3.783   3.253  20.450
 8047SOL     OW36019   4.703   0.127  13.861
 8047SOL    HW136020   4.680   0.089  13.776
 8047SOL    HW236021   4.781   0.079  13.888
 8048SOL     OW36022   2.058   0.141   4.738
 8048SOL    HW136023   2.020   0.228   4.750
 8048SOL    HW236024   2.092   0.142   4.648
 8049SOL     OW36025   2.500   2.959   2.315
 8049SOL    HW136026   2.589   2.949   2.280
 8049SOL    HW236027   2.480   2.873   2.353
 8050SOL     OW36028   1.562   0.202  19.713
 8050SOL    HW136029   1.585   0.208  19.620
 8050SOL    HW236030   1.616   0.268  19.755
 8051SOL     OW36031   0.396   3.584  15.591
 8051SOL    HW136032   0.456   3.563  15.520
 8051SOL    HW236033   0.408   3.512  15.654
 8052SOL     OW36034   0.878   3.087  16.972
 8052SOL    HW136035   0.801   3.029  16.968
 8052SOL    HW236036   0.906   3.095  16.881
 8053SOL     OW36037   3.509   0.103   1.415
 8053SOL    HW136038   3.535   0.151   1.337
 8053SOL    HW236039   3.572   0.031   1.422
 8054SOL     OW36040   3.437   3.623  15.320
 8054SOL    HW136041   3.425   3.565  15.245
 8054SOL    HW236042   3.512   3.677  15.297
 8055SOL     OW36043   2.697   2.768   3.642
 8055SOL    HW136044   2.611   2.737   3.614
 8055SOL    HW236045   2.693   2.863   3.632
 8056SOL     OW36046   2.881   0.189  19.984
 8056SOL    HW136047   2.842   0.136  19.915
 8056SOL    HW236048   2.817   0.259  20.000
 8057SOL     OW36049   1.394   3.124   6.814
 8057SOL    HW136050   1.374   3.218   6.819
 8057SOL    HW236051   1.310   3.082   6.795
 8058SOL     OW36052   1.433   3.090   5.759
 8058SOL    HW136053   1.347   3.060   5.788
 8058SOL    HW236054   1.447   3.171   5.808
 8059SOL     OW36055   1.007   0.030   3.972
 8059SOL    HW136056   0.945   0.103   3.963
 8059SOL    HW236057   1.063   0.037   3.895
 8060SOL     OW36058   4.015   1.161   5.003
 8060SOL    HW136059   4.040   1.081   5.050
 8060SOL    HW236060   3.996   1.225   5.071
 8061SOL     OW36061   0.770   3.454  17.641
 8061SOL    HW136062   0.784   3.361  17.625
 8061SOL    HW236063   0.699   3.457  17.705
 8062SOL     OW36064   2.061   2.769  16.230
 8062SOL    HW136065   2.139   2.807  16.190
 8062SOL    HW236066   2.041   2.828  16.304
 8063SOL     OW36067   3.271   2.542   5.757
 8063SOL    HW136068   3.320   2.469   5.719
 8063SOL    HW236069   3.230   2.584   5.682
 8064SOL     OW36070   1.292   0.718  17.828
 8064SOL    HW136071   1.234   0.692  17.757
 8064SOL    HW236072   1.238   0.716  17.906
 8065SOL     OW36073   3.335   0.704   1.746
 8065SOL    HW136074   3.292   0.690   1.661
 8065SOL    HW236075   3.265   0.735   1.803
 8066SOL     OW36076   2.076   2.026  16.812
 8066SOL    HW136077   2.015   1.992  16.747
 8066SOL    HW236078   2.050   2.117  16.824
 8067SOL     OW36079   4.499   4.599  15.224
 8067SOL    HW136080   4.458   4.619  15.308
 8067SOL    HW236081   4.440   4.537  15.182
 8068SOL     OW36082   4.455   4.665   3.462
 8068SOL    HW136083   4.399   4.705   3.529
 8068SOL    HW236084   4.460   4.573   3.486
 8069SOL     OW36085   2.153   4.781   2.337
 8069SOL    HW136086   2.210   0.013   2.412
 8069SOL    HW236087   2.178   4.692   2.311
 8070SOL     OW36088   2.511   3.906   3.834
 8070SOL    HW136089   2.583   3.968   3.830
 8070SOL    HW236090   2.536   3.843   3.902
 8071SOL     OW36091   0.912   1.692  18.275
 8071SOL    HW136092   0.826   1.676  18.237
 8071SOL    HW236093   0.925   1.786  18.266
 8072SOL     OW36094   4.013   4.483   5.954
 8072SOL    HW136095   3.923   4.457   5.974
 8072SOL    HW236096   4.061   4.466   6.035
 8073SOL     OW36097   4.665   0.214   2.788
 8073SOL    HW136098   4.634   0.153   2.855
 8073SOL    HW236099   4.751   0.242   2.820
 8074SOL     OW36100   2.069   3.295  17.764
 8074SOL    HW136101   2.157   3.294  17.803
 8074SOL    HW236102   2.030   3.377  17.796
 8075SOL     OW36103   3.678   1.506  19.069
 8075SOL    HW136104   3.642   1.492  19.156
 8075SOL    HW236105   3.683   1.418  19.031
 8076SOL     OW36106   3.878   4.327   0.700
 8076SOL    HW136107   3.789   4.349   0.672
 8076SOL    HW236108   3.898   4.390   0.769
 8077SOL     OW36109   0.441   4.013  16.611
 8077SOL    HW136110   0.506   4.051  16.553
 8077SOL    HW236111   0.492   3.969  16.679
 8078SOL     OW36112   3.095   4.760   3.006
 8078SOL    HW136113   3.071   4.715   3.087
 8078SOL    HW236114   3.191   4.760   3.006
 8079SOL     OW36115   3.738   2.576   6.122
 8079SOL    HW136116   3.723   2.538   6.208
 8079SOL    HW236117   3.777   2.662   6.140
 8080SOL     OW36118   2.821   1.175  18.152
 8080SOL    HW136119   2.810   1.081  18.167
 8080SOL    HW236120   2.781   1.216  18.229
 8081SOL     OW36121   4.027   4.062   1.456
 8081SOL    HW136122   3.998   3.997   1.520
 8081SOL    HW236123   4.088   4.014   1.400
 8082SOL     OW36124   0.536   1.522  17.873
 8082SOL    HW136125   0.538   1.489  17.963
 8082SOL    HW236126   0.570   1.450  17.821
 8083SOL     OW36127   3.477   3.869  17.833
 8083SOL    HW136128   3.568   3.846  17.814
 8083SOL    HW236129   3.427   3.790  17.812
 8084SOL     OW36130   2.513   3.085   3.125
 8084SOL    HW136131   2.521   3.176   3.097
 8084SOL    HW236132   2.603   3.052   3.126
 8085SOL     OW36133   3.312   3.855   5.101
 8085SOL    HW136134   3.278   3.839   5.190
 8085SOL    HW236135   3.234   3.855   5.045
 8086SOL     OW36136   1.705   3.638  17.575
 8086SOL    HW136137   1.773   3.705  17.581
 8086SOL    HW236138   1.677   3.642  17.483
 8087SOL     OW36139   1.485   1.652   2.834
 8087SOL    HW136140   1.540   1.719   2.793
 8087SOL    HW236141   1.470   1.589   2.764
 8088SOL     OW36142   0.529   3.405  15.348
 8088SOL    HW136143   0.498   3.474  15.290
 8088SOL    HW236144   0.616   3.435  15.377
 8089SOL     OW36145   1.907   2.552  18.143
 8089SOL    HW136146   1.876   2.628  18.193
 8089SOL    HW236147   1.975   2.586  18.086
 8090SOL     OW36148   2.721   1.883   3.309
 8090SOL    HW136149   2.633   1.858   3.337
 8090SOL    HW236150   2.779   1.848   3.376
 8091SOL     OW36151   1.805   2.626   3.246
 8091SOL    HW136152   1.800   2.710   3.200
 8091SOL    HW236153   1.802   2.649   3.339
 8092SOL     OW36154   1.074   4.290  17.279
 8092SOL    HW136155   1.163   4.276  17.245
 8092SOL    HW236156   1.087   4.335  17.362
 8093SOL     OW36157   1.151   0.000  19.793
 8093SOL    HW136158   1.085   4.722  19.770
 8093SOL    HW236159   1.179   0.036  19.709
 8094SOL     OW36160   3.758   0.184  17.181
 8094SOL    HW136161   3.693   0.237  17.227
 8094SOL    HW236162   3.843   0.221  17.207
 8095SOL     OW36163   0.720   1.602   5.244
 8095SOL    HW136164   0.733   1.567   5.332
 8095SOL    HW236165   0.736   1.527   5.186
 8096SOL     OW36166   4.483   1.068  17.614
 8096SOL    HW136167   4.399   1.053  17.571
 8096SOL    HW236168   4.468   1.046  17.705
 8097SOL     OW36169   0.843   4.697  18.793
 8097SOL    HW136170   0.864   4.630  18.728
 8097SOL    HW236171   0.752   4.721  18.776
 8098SOL     OW36172   4.429   1.103   2.143
 8098SOL    HW136173   4.375   1.123   2.066
 8098SOL    HW236174   4.411   1.011   2.161
 8099SOL     OW36175   3.127   1.864   4.659
 8099SOL    HW136176   3.110   1.937   4.718
 8099SOL    HW236177   3.207   1.824   4.693
 8100SOL     OW36178   1.659   0.538   3.278
 8100SOL    HW136179   1.615   0.491   3.348
 8100SOL    HW236180   1.617   0.507   3.197
 8101SOL     OW36181   4.260   2.517  16.831
 8101SOL    HW136182   4.235   2.483  16.745
 8101SOL    HW236183   4.214   2.460  16.893
 8102SOL     OW36184   1.385   2.851  17.971
 8102SOL    HW136185   1.358   2.897  17.891
 8102SOL    HW236186   1.393   2.759  17.944
 8103SOL     OW36187   3.451   3.651  20.343
 8103SOL    HW136188   3.458   3.702  20.424
 8103SOL    HW236189   3.359   3.626  20.338
 8104SOL     OW36190   4.784   1.582   6.518
 8104SOL    HW136191   4.714   1.588   6.584
 8104SOL    HW236192   0.032   1.671   6.513
 8105SOL     OW36193   0.380   2.750   2.208
 8105SOL    HW136194   0.336   2.763   2.124
 8105SOL    HW236195   0.317   2.784   2.273
 8106SOL     OW36196   0.325   3.413  17.659
 8106SOL    HW136197   0.395   3.366  17.705
 8106SOL    HW236198   0.327   3.501  17.697
 8107SOL     OW36199   0.836   0.739   5.874
 8107SOL    HW136200   0.881   0.675   5.929
 8107SOL    HW236201   0.906   0.777   5.821
 8108SOL     OW36202   2.711   2.991   1.801
 8108SOL    HW136203   2.685   2.924   1.739
 8108SOL    HW236204   2.629   3.029   1.833
 8109SOL     OW36205   2.180   1.397  19.201
 8109SOL    HW136206   2.088   1.412  19.177
 8109SOL    HW236207   2.200   1.466  19.264
 8110SOL     OW36208   2.445   0.597   4.560
 8110SOL    HW136209   2.438   0.563   4.649
 8110SOL    HW236210   2.419   0.688   4.567
 8111SOL     OW36211   2.700   0.410   2.303
 8111SOL    HW136212   2.669   0.331   2.259
 8111SOL    HW236213   2.792   0.417   2.276
 8112SOL     OW36214   0.079   2.979   5.921
 8112SOL    HW136215   0.164   3.008   5.952
 8112SOL    HW236216   0.097   2.901   5.869
 8113SOL     OW36217   2.976   1.479   1.441
 8113SOL    HW136218   2.901   1.423   1.418
 8113SOL    HW236219   2.959   1.561   1.395
 8114SOL     OW36220   0.271   1.546  20.358
 8114SOL    HW136221   0.201   1.497  20.400
 8114SOL    HW236222   0.227   1.621  20.317
 8115SOL     OW36223   1.731   1.492   5.323
 8115SOL    HW136224   1.776   1.557   5.376
 8115SOL    HW236225   1.764   1.506   5.234
 8116SOL     OW36226   2.050   2.266   3.394
 8116SOL    HW136227   2.134   2.221   3.401
 8116SOL    HW236228   1.985   2.198   3.414
 8117SOL     OW36229   2.275   2.650  14.343
 8117SOL    HW136230   2.370   2.643  14.341
 8117SOL    HW236231   2.254   2.684  14.430
 8118SOL     OW36232   0.243   1.384  16.053
 8118SOL    HW136233   0.319   1.382  16.111
 8118SOL    HW236234   0.209   1.473  16.060
 8119SOL     OW36235   3.071   0.862  19.246
 8119SOL    HW136236   3.143   0.876  19.184
 8119SOL    HW236237   3.010   0.934  19.228
 8120SOL     OW36238   0.035   4.441   1.594
 8120SOL    HW136239   0.079   4.461   1.511
 8120SOL    HW236240   0.038   4.346   1.601
 8121SOL     OW36241   0.782   1.931  15.445
 8121SOL    HW136242   0.709   1.993  15.448
 8121SOL    HW236243   0.855   1.981  15.408
 8122SOL     OW36244   0.334   2.658   6.106
 8122SOL    HW136245   0.357   2.750   6.118
 8122SOL    HW236246   0.418   2.615   6.089
 8123SOL     OW36247   3.649   0.468  19.165
 8123SOL    HW136248   3.658   0.385  19.117
 8123SOL    HW236249   3.616   0.442  19.251
 8124SOL     OW36250   3.701   1.910   3.174
 8124SOL    HW136251   3.679   1.834   3.228
 8124SOL    HW236252   3.781   1.884   3.128
 8125SOL     OW36253   1.788   0.440   8.308
 8125SOL    HW136254   1.834   0.465   8.388
 8125SOL    HW236255   1.714   0.501   8.303
 8126SOL     OW36256   2.160   1.283   5.347
 8126SOL    HW136257   2.068   1.293   5.370
 8126SOL    HW236258   2.201   1.248   5.426
 8127SOL     OW36259   3.563   3.382  16.970
 8127SOL    HW136260   3.482   3.332  16.956
 8127SOL    HW236261   3.548   3.465  16.926
 8128SOL     OW36262   1.787   4.109   2.506
 8128SOL    HW136263   1.820   4.034   2.555
 8128SOL    HW236264   1.692   4.098   2.505
 8129SOL     OW36265   3.749   1.898   6.197
 8129SOL    HW136266   3.704   1.926   6.276
 8129SOL    HW236267   3.765   1.978   6.148
 8130SOL     OW36268   2.467   2.530   2.654
 8130SOL    HW136269   2.442   2.440   2.675
 8130SOL    HW236270   2.398   2.583   2.693
 8131SOL     OW36271   3.206   2.595  19.731
 8131SOL    HW136272   3.218   2.679  19.777
 8131SOL    HW236273   3.201   2.530  19.801
 8132SOL     OW36274   3.610   3.698  18.175
 8132SOL    HW136275   3.627   3.649  18.094
 8132SOL    HW236276   3.569   3.634  18.233
 8133SOL     OW36277   0.925   3.493   2.720
 8133SOL    HW136278   0.946   3.559   2.785
 8133SOL    HW236279   0.907   3.543   2.640
 8134SOL     OW36280   2.686   3.796  15.231
 8134SOL    HW136281   2.769   3.770  15.190
 8134SOL    HW236282   2.670   3.884  15.199
 8135SOL     OW36283   3.019   0.262   0.365
 8135SOL    HW136284   2.970   0.343   0.351
 8135SOL    HW236285   3.069   0.249   0.285
 8136SOL     OW36286   3.797   4.469  18.593
 8136SOL    HW136287   3.869   4.411  18.569
 8136SOL    HW236288   3.818   4.552  18.552
 8137SOL     OW36289   2.601   0.371  16.025
 8137SOL    HW136290   2.543   0.300  15.999
 8137SOL    HW236291   2.605   0.428  15.948
 8138SOL     OW36292   0.010   3.884  19.963
 8138SOL    HW136293   4.738   3.954  19.933
 8138SOL    HW236294   0.092   3.901  19.917
 8139SOL     OW36295   0.396   1.007  21.156
 8139SOL    HW136296   0.367   0.945  21.089
 8139SOL    HW236297   0.329   1.001  21.224
 8140SOL     OW36298   2.736   1.953  17.506
 8140SOL    HW136299   2.673   1.908  17.563
 8140SOL    HW236300   2.781   2.015  17.563
 8141SOL     OW36301   0.553   1.743  19.593
 8141SOL    HW136302   0.524   1.810  19.531
 8141SOL    HW236303   0.483   1.740  19.659
 8142SOL     OW36304   0.057   0.571  19.529
 8142SOL    HW136305   0.124   0.633  19.499
 8142SOL    HW236306   0.053   0.505  19.459
 8143SOL     OW36307   3.849   2.398   6.957
 8143SOL    HW136308   3.866   2.491   6.971
 8143SOL    HW236309   3.787   2.374   7.025
 8144SOL     OW36310   1.371   2.089   0.129
 8144SOL    HW136311   1.432   2.127   0.193
 8144SOL    HW236312   1.325   2.164   0.092
 8145SOL     OW36313   0.861   4.660  20.587
 8145SOL    HW136314   0.798   4.642  20.656
 8145SOL    HW236315   0.941   4.617  20.615
 8146SOL     OW36316   2.487   0.459   8.660
 8146SOL    HW136317   2.528   0.373   8.659
 8146SOL    HW236318   2.503   0.495   8.573
 8147SOL     OW36319   1.855   4.610   6.656
 8147SOL    HW136320   1.893   4.666   6.587
 8147SOL    HW236321   1.786   4.663   6.694
 8148SOL     OW36322   2.592   4.143   4.591
 8148SOL    HW136323   2.685   4.144   4.568
 8148SOL    HW236324   2.570   4.050   4.599
 8149SOL     OW36325   3.080   0.801   2.383
 8149SOL    HW136326   3.028   0.780   2.460
 8149SOL    HW236327   3.155   0.849   2.416
 8150SOL     OW36328   3.201   0.326   1.285
 8150SOL    HW136329   3.111   0.330   1.315
 8150SOL    HW236330   3.236   0.414   1.300
 8151SOL     OW36331   3.994   2.928   6.428
 8151SOL    HW136332   4.034   3.015   6.435
 8151SOL    HW236333   4.033   2.878   6.499
 8152SOL     OW36334   3.488   2.491  15.771
 8152SOL    HW136335   3.473   2.562  15.708
 8152SOL    HW236336   3.411   2.492  15.827
 8153SOL     OW36337   3.002   2.899   5.476
 8153SOL    HW136338   3.008   2.871   5.385
 8153SOL    HW236339   2.908   2.894   5.496
 8154SOL     OW36340   1.733   2.530  19.691
 8154SOL    HW136341   1.699   2.525  19.780
 8154SOL    HW236342   1.661   2.564  19.639
 8155SOL     OW36343   4.056   1.137   4.278
 8155SOL    HW136344   4.079   1.225   4.309
 8155SOL    HW236345   4.139   1.100   4.249
 8156SOL     OW36346   4.533   1.595   6.680
 8156SOL    HW136347   4.575   1.632   6.758
 8156SOL    HW236348   4.528   1.501   6.697
 8157SOL     OW36349   1.198   0.276   0.795
 8157SOL    HW136350   1.277   0.307   0.841
 8157SOL    HW236351   1.206   0.181   0.796
 8158SOL     OW36352   3.083   2.330   1.490
 8158SOL    HW136353   3.005   2.278   1.473
 8158SOL    HW236354   3.050   2.410   1.532
 8159SOL     OW36355   0.243   3.002   5.616
 8159SOL    HW136356   0.304   3.035   5.682
 8159SOL    HW236357   0.160   3.045   5.637
 8160SOL     OW36358   2.733   2.763  15.887
 8160SOL    HW136359   2.800   2.696  15.870
 8160SOL    HW236360   2.650   2.721  15.865
 8161SOL     OW36361   3.529   3.636   1.064
 8161SOL    HW136362   3.523   3.649   0.970
 8161SOL    HW236363   3.622   3.651   1.085
 8162SOL     OW36364   2.424   3.904  16.272
 8162SOL    HW136365   2.329   3.895  16.275
 8162SOL    HW236366   2.439   3.997  16.254
 8163SOL     OW36367   2.391   2.931   3.645
 8163SOL    HW136368   2.401   2.892   3.558
 8163SOL    HW236369   2.374   3.023   3.629
 8164SOL     OW36370   2.194   2.880   8.782
 8164SOL    HW136371   2.226   2.953   8.835
 8164SOL    HW236372   2.224   2.900   8.693
 8165SOL     OW36373   0.215   0.130   5.744
 8165SOL    HW136374   0.183   0.200   5.801
 8165SOL    HW236375   0.236   0.175   5.662
 8166SOL     OW36376   3.408   2.777  18.250
 8166SOL    HW136377   3.424   2.685  18.271
 8166SOL    HW236378   3.330   2.776  18.195
 8167SOL     OW36379   4.344   1.657   3.649
 8167SOL    HW136380   4.428   1.700   3.631
 8167SOL    HW236381   4.340   1.652   3.744
 8168SOL     OW36382   3.152   1.825   6.076
 8168SOL    HW136383   3.214   1.858   6.011
 8168SOL    HW236384   3.067   1.858   6.046
 8169SOL     OW36385   1.520   3.014  12.744
 8169SOL    HW136386   1.548   2.945  12.805
 8169SOL    HW236387   1.559   2.989  12.660
 8170SOL     OW36388   1.528   4.600  20.720
 8170SOL    HW136389   1.592   4.533  20.694
 8170SOL    HW236390   1.461   4.597  20.651
 8171SOL     OW36391   4.528   1.083   5.782
 8171SOL    HW136392   4.462   1.149   5.760
 8171SOL    HW236393   4.527   1.023   5.707
 8172SOL     OW36394   1.298   3.914   6.015
 8172SOL    HW136395   1.339   3.904   6.101
 8172SOL    HW236396   1.206   3.932   6.035
 8173SOL     OW36397   0.392   2.632  16.229
 8173SOL    HW136398   0.441   2.554  16.255
 8173SOL    HW236399   0.437   2.664  16.151
 8174SOL     OW36400   4.070   1.188  16.462
 8174SOL    HW136401   3.981   1.164  16.435
 8174SOL    HW236402   4.072   1.283  16.451
 8175SOL     OW36403   0.461   4.357  16.201
 8175SOL    HW136404   0.486   4.266  16.213
 8175SOL    HW236405   0.461   4.369  16.106
 8176SOL     OW36406   3.253   0.042   3.714
 8176SOL    HW136407   3.346   0.024   3.732
 8176SOL    HW236408   3.254   0.115   3.653
 8177SOL     OW36409   1.200   1.005  13.688
 8177SOL    HW136410   1.264   0.963  13.746
 8177SOL    HW236411   1.125   0.945  13.687
 8178SOL     OW36412   1.468   3.640  15.242
 8178SOL    HW136413   1.467   3.617  15.149
 8178SOL    HW236414   1.382   3.677  15.259
 8179SOL     OW36415   3.665   3.066  20.212
 8179SOL    HW136416   3.571   3.071  20.200
 8179SOL    HW236417   3.699   3.147  20.175
 8180SOL     OW36418   0.339   4.626   3.938
 8180SOL    HW136419   0.428   4.658   3.925
 8180SOL    HW236420   0.315   4.587   3.854
 8181SOL     OW36421   1.944   4.310   4.640
 8181SOL    HW136422   1.935   4.252   4.565
 8181SOL    HW236423   1.855   4.322   4.672
 8182SOL     OW36424   0.742   3.166  17.492
 8182SOL    HW136425   0.758   3.123  17.408
 8182SOL    HW236426   0.658   3.211  17.480
 8183SOL     OW36427   1.731   2.920   1.427
 8183SOL    HW136428   1.786   2.971   1.486
 8183SOL    HW236429   1.684   2.858   1.484
 8184SOL     OW36430   3.552   4.592   3.622
 8184SOL    HW136431   3.572   4.500   3.605
 8184SOL    HW236432   3.608   4.640   3.562
 8185SOL     OW36433   3.978   1.872  17.458
 8185SOL    HW136434   3.956   1.804  17.522
 8185SOL    HW236435   3.901   1.877  17.402
 8186SOL     OW36436   1.046   0.506   5.036
 8186SOL    HW136437   0.994   0.475   5.110
 8186SOL    HW236438   1.126   0.539   5.076
 8187SOL     OW36439   1.044   2.411   0.496
 8187SOL    HW136440   1.065   2.504   0.503
 8187SOL    HW236441   1.025   2.397   0.403
 8188SOL     OW36442   0.301   0.232   2.437
 8188SOL    HW136443   0.314   0.323   2.465
 8188SOL    HW236444   0.288   0.183   2.518
 8189SOL     OW36445   4.646   3.950   2.939
 8189SOL    HW136446   4.605   3.892   2.875
 8189SOL    HW236447   4.735   3.964   2.906
 8190SOL     OW36448   2.312   2.855   5.302
 8190SOL    HW136449   2.279   2.933   5.345
 8190SOL    HW236450   2.405   2.873   5.287
 8191SOL     OW36451   0.307   2.826  20.652
 8191SOL    HW136452   0.309   2.905  20.706
 8191SOL    HW236453   0.398   2.797  20.649
 8192SOL     OW36454   3.010   4.453  16.974
 8192SOL    HW136455   2.953   4.518  17.015
 8192SOL    HW236456   3.099   4.478  17.001
 8193SOL     OW36457   1.778   0.135   3.640
 8193SOL    HW136458   1.685   0.127   3.661
 8193SOL    HW236459   1.779   0.166   3.549
 8194SOL     OW36460   1.312   4.119   3.754
 8194SOL    HW136461   1.327   4.206   3.719
 8194SOL    HW236462   1.389   4.069   3.728
 8195SOL     OW36463   4.751   1.723  19.568
 8195SOL    HW136464   0.038   1.678  19.528
 8195SOL    HW236465   4.697   1.750  19.494
 8196SOL     OW36466   2.674   4.547   7.318
 8196SOL    HW136467   2.602   4.602   7.288
 8196SOL    HW236468   2.673   4.557   7.414
 8197SOL     OW36469   4.276   3.555  16.904
 8197SOL    HW136470   4.246   3.637  16.943
 8197SOL    HW236471   4.205   3.493  16.921
 8198SOL     OW36472   2.821   0.603  17.890
 8198SOL    HW136473   2.732   0.622  17.859
 8198SOL    HW236474   2.875   0.603  17.811
 8199SOL     OW36475   0.641   2.461   0.511
 8199SOL    HW136476   0.626   2.454   0.605
 8199SOL    HW236477   0.685   2.379   0.488
 8200SOL     OW36478   3.388   2.308  16.095
 8200SOL    HW136479   3.410   2.389  16.140
 8200SOL    HW236480   3.350   2.336  16.012
 8201SOL     OW36481   4.144   1.041  15.821
 8201SOL    HW136482   4.119   1.078  15.905
 8201SOL    HW236483   4.197   1.109  15.779
 8202SOL     OW36484   3.895   1.822   9.274
 8202SOL    HW136485   3.971   1.797   9.221
 8202SOL    HW236486   3.910   1.781   9.359
 8203SOL     OW36487   1.190   3.849  21.189
 8203SOL    HW136488   1.155   3.898  21.115
 8203SOL    HW236489   1.209   3.762  21.153
 8204SOL     OW36490   0.713   0.103  13.268
 8204SOL    HW136491   0.685   0.016  13.240
 8204SOL    HW236492   0.636   0.158  13.254
 8205SOL     OW36493   4.773   0.009  16.218
 8205SOL    HW136494   0.070   0.010  16.173
 8205SOL    HW236495   0.000   4.741  16.295
 8206SOL     OW36496   2.983   0.092   2.796
 8206SOL    HW136497   3.019   0.055   2.877
 8206SOL    HW236498   3.043   0.164   2.774
 8207SOL     OW36499   3.364   3.685   5.654
 8207SOL    HW136500   3.335   3.768   5.617
 8207SOL    HW236501   3.284   3.641   5.681
 8208SOL     OW36502   3.377   3.437  16.023
 8208SOL    HW136503   3.374   3.531  16.040
 8208SOL    HW236504   3.315   3.399  16.085
 8209SOL     OW36505   0.529   0.781  19.140
 8209SOL    HW136506   0.550   0.765  19.232
 8209SOL    HW236507   0.461   0.716  19.120
 8210SOL     OW36508   3.188   1.015   6.763
 8210SOL    HW136509   3.239   1.093   6.742
 8210SOL    HW236510   3.097   1.043   6.759
 8211SOL     OW36511   4.634   0.569   3.672
 8211SOL    HW136512   4.624   0.488   3.721
 8211SOL    HW236513   4.634   0.542   3.580
 8212SOL     OW36514   2.509   4.324  13.511
 8212SOL    HW136515   2.527   4.313  13.604
 8212SOL    HW236516   2.574   4.270  13.467
 8213SOL     OW36517   1.940   1.395   6.942
 8213SOL    HW136518   1.889   1.335   6.997
 8213SOL    HW236519   1.920   1.482   6.975
 8214SOL     OW36520   3.684   1.729  15.339
 8214SOL    HW136521   3.684   1.639  15.371
 8214SOL    HW236522   3.743   1.775  15.399
 8215SOL     OW36523   4.436   1.952  17.459
 8215SOL    HW136524   4.452   2.020  17.393
 8215SOL    HW236525   4.362   1.985  17.510
 8216SOL     OW36526   1.850   3.753  12.836
 8216SOL    HW136527   1.806   3.830  12.800
 8216SOL    HW236528   1.778   3.697  12.868
 8217SOL     OW36529   0.568   2.796   0.383
 8217SOL    HW136530   0.479   2.775   0.413
 8217SOL    HW236531   0.620   2.796   0.464
 8218SOL     OW36532   0.737   3.150  13.809
 8218SOL    HW136533   0.770   3.105  13.886
 8218SOL    HW236534   0.745   3.243  13.830
 8219SOL     OW36535   4.065   0.939  19.422
 8219SOL    HW136536   4.024   0.853  19.428
 8219SOL    HW236537   4.033   0.986  19.499
 8220SOL     OW36538   3.170   2.068   1.515
 8220SOL    HW136539   3.106   2.009   1.474
 8220SOL    HW236540   3.156   2.152   1.472
 8221SOL     OW36541   0.942   3.912   0.470
 8221SOL    HW136542   0.909   3.892   0.557
 8221SOL    HW236543   1.037   3.908   0.478
 8222SOL     OW36544   2.393   2.173  18.049
 8222SOL    HW136545   2.300   2.152  18.048
 8222SOL    HW236546   2.397   2.266  18.030
 8223SOL     OW36547   2.267   1.800   4.995
 8223SOL    HW136548   2.332   1.867   5.015
 8223SOL    HW236549   2.284   1.730   5.057
 8224SOL     OW36550   4.596   2.538  16.641
 8224SOL    HW136551   4.515   2.531  16.590
 8224SOL    HW236552   4.569   2.581  16.723
 8225SOL     OW36553   0.902   1.571   0.136
 8225SOL    HW136554   0.846   1.542   0.064
 8225SOL    HW236555   0.972   1.620   0.094
 8226SOL     OW36556   0.357   0.066  18.526
 8226SOL    HW136557   0.386   4.774  18.570
 8226SOL    HW236558   0.262   0.063  18.530
 8227SOL     OW36559   1.949   3.042  20.764
 8227SOL    HW136560   1.965   2.969  20.703
 8227SOL    HW236561   2.027   3.043  20.819
 8228SOL     OW36562   3.168   0.378   4.218
 8228SOL    HW136563   3.093   0.421   4.259
 8228SOL    HW236564   3.192   0.308   4.278
 8229SOL     OW36565   1.895   0.718  21.019
 8229SOL    HW136566   1.880   0.640  21.071
 8229SOL    HW236567   1.908   0.788  21.083
 8230SOL     OW36568   3.060   4.112   8.105
 8230SOL    HW136569   2.982   4.068   8.137
 8230SOL    HW236570   3.031   4.201   8.086
 8231SOL     OW36571   3.455   2.768   5.999
 8231SOL    HW136572   3.395   2.698   6.026
 8231SOL    HW236573   3.501   2.732   5.923
 8232SOL     OW36574   4.655   4.631  18.098
 8232SOL    HW136575   4.655   4.605  18.190
 8232SOL    HW236576   4.727   4.693  18.090
 8233SOL     OW36577   0.272   1.958  17.391
 8233SOL    HW136578   0.354   1.993  17.426
 8233SOL    HW236579   0.296   1.873  17.354
 8234SOL     OW36580   4.743   2.622  12.285
 8234SOL    HW136581   4.695   2.541  12.299
 8234SOL    HW236582   4.734   2.670  12.367
 8235SOL     OW36583   3.622   4.761  14.366
 8235SOL    HW136584   3.602   4.714  14.286
 8235SOL    HW236585   3.605   0.065  14.345
 8236SOL     OW36586   1.440   3.190  19.610
 8236SOL    HW136587   1.377   3.127  19.642
 8236SOL    HW236588   1.514   3.138  19.579
 8237SOL     OW36589   3.745   2.212  21.132
 8237SOL    HW136590   3.743   2.134  21.186
 8237SOL    HW236591   3.778   2.281  21.189
 8238SOL     OW36592   1.546   4.626   5.993
 8238SOL    HW136593   1.541   4.586   6.080
 8238SOL    HW236594   1.466   4.679   5.986
 8239SOL     OW36595   3.339   4.169   1.450
 8239SOL    HW136596   3.307   4.079   1.455
 8239SOL    HW236597   3.287   4.217   1.514
 8240SOL     OW36598   2.778   2.994   3.113
 8240SOL    HW136599   2.837   2.961   3.045
 8240SOL    HW236600   2.791   2.934   3.187
 8241SOL     OW36601   0.367   4.772  20.899
 8241SOL    HW136602   0.281   4.780  20.940
 8241SOL    HW236603   0.349   4.735  20.813
 8242SOL     OW36604   1.656   0.186   5.805
 8242SOL    HW136605   1.672   0.260   5.746
 8242SOL    HW236606   1.718   0.119   5.776
 8243SOL     OW36607   4.300   0.979   4.851
 8243SOL    HW136608   4.209   0.967   4.823
 8243SOL    HW236609   4.348   0.907   4.810
 8244SOL     OW36610   4.712   4.751   1.619
 8244SOL    HW136611   4.729   4.738   1.525
 8244SOL    HW236612   4.655   0.041   1.622
 8245SOL     OW36613   2.446   0.663  19.814
 8245SOL    HW136614   2.538   0.690  19.815
 8245SOL    HW236615   2.450   0.567  19.807
 8246SOL     OW36616   3.770   3.662   8.795
 8246SOL    HW136617   3.681   3.690   8.777
 8246SOL    HW236618   3.823   3.741   8.787
 8247SOL     OW36619   4.485   2.678   0.468
 8247SOL    HW136620   4.581   2.678   0.473
 8247SOL    HW236621   4.466   2.657   0.377
 8248SOL     OW36622   0.503   0.375  14.607
 8248SOL    HW136623   0.496   0.343  14.517
 8248SOL    HW236624   0.437   0.325  14.655
 8249SOL     OW36625   0.850   1.784   1.951
 8249SOL    HW136626   0.917   1.781   1.882
 8249SOL    HW236627   0.874   1.712   2.009
 8250SOL     OW36628   2.736   0.262  16.920
 8250SOL    HW136629   2.786   0.218  16.852
 8250SOL    HW236630   2.659   0.207  16.934
 8251SOL     OW36631   1.654   1.040  18.418
 8251SOL    HW136632   1.597   1.113  18.441
 8251SOL    HW236633   1.625   0.968  18.474
 8252SOL     OW36634   1.631   0.104  20.389
 8252SOL    HW136635   1.606   0.168  20.323
 8252SOL    HW236636   1.720   0.128  20.413
 8253SOL     OW36637   2.829   2.281   0.452
 8253SOL    HW136638   2.779   2.269   0.372
 8253SOL    HW236639   2.908   2.329   0.424
 8254SOL     OW36640   4.129   0.411   5.742
 8254SOL    HW136641   4.119   0.436   5.834
 8254SOL    HW236642   4.074   0.332   5.733
 8255SOL     OW36643   0.295   1.676   2.281
 8255SOL    HW136644   0.225   1.630   2.234
 8255SOL    HW236645   0.361   1.609   2.297
 8256SOL     OW36646   3.051   3.467  15.829
 8256SOL    HW136647   3.025   3.397  15.889
 8256SOL    HW236648   3.130   3.504  15.869
 8257SOL     OW36649   3.613   2.546   4.802
 8257SOL    HW136650   3.608   2.462   4.757
 8257SOL    HW236651   3.568   2.608   4.745
 8258SOL     OW36652   1.771   4.532   5.882
 8258SOL    HW136653   1.681   4.563   5.896
 8258SOL    HW236654   1.825   4.611   5.889
 8259SOL     OW36655   4.209   2.129   4.345
 8259SOL    HW136656   4.285   2.185   4.330
 8259SOL    HW236657   4.139   2.190   4.372
 8260SOL     OW36658   0.748   0.696  19.786
 8260SOL    HW136659   0.734   0.732  19.873
 8260SOL    HW236660   0.835   0.655  19.791
 8261SOL     OW36661   0.592   4.118   5.351
 8261SOL    HW136662   0.676   4.158   5.373
 8261SOL    HW236663   0.609   4.065   5.274
 8262SOL     OW36664   2.826   2.983  20.693
 8262SOL    HW136665   2.852   3.026  20.774
 8262SOL    HW236666   2.899   2.925  20.672
 8263SOL     OW36667   1.090   0.575  18.432
 8263SOL    HW136668   1.076   0.604  18.342
 8263SOL    HW236669   1.075   0.481  18.429
 8264SOL     OW36670   0.800   2.251   2.854
 8264SOL    HW136671   0.821   2.211   2.939
 8264SOL    HW236672   0.717   2.212   2.828
 8265SOL     OW36673   3.707   4.264  16.178
 8265SOL    HW136674   3.731   4.354  16.200
 8265SOL    HW236675   3.619   4.254  16.213
 8266SOL     OW36676   1.862   1.715   3.537
 8266SOL    HW136677   1.811   1.648   3.582
 8266SOL    HW236678   1.912   1.667   3.471
 8267SOL     OW36679   4.401   1.728  10.550
 8267SOL    HW136680   4.314   1.689  10.561
 8267SOL    HW236681   4.430   1.699  10.464
 8268SOL     OW36682   1.118   4.002   5.638
 8268SOL    HW136683   1.189   3.939   5.652
 8268SOL    HW236684   1.045   3.949   5.605
 8269SOL     OW36685   4.269   1.319  16.136
 8269SOL    HW136686   4.330   1.320  16.062
 8269SOL    HW236687   4.325   1.313  16.213
 8270SOL     OW36688   4.094   4.715   3.100
 8270SOL    HW136689   4.077   0.003   3.156
 8270SOL    HW236690   4.029   4.721   3.030
 8271SOL     OW36691   4.122   2.428  15.685
 8271SOL    HW136692   4.171   2.408  15.764
 8271SOL    HW236693   4.065   2.352  15.672
 8272SOL     OW36694   3.791   2.574   8.185
 8272SOL    HW136695   3.808   2.564   8.092
 8272SOL    HW236696   3.875   2.604   8.222
 8273SOL     OW36697   3.760   2.298   2.960
 8273SOL    HW136698   3.736   2.320   2.870
 8273SOL    HW236699   3.849   2.334   2.970
 8274SOL     OW36700   2.438   2.115   0.301
 8274SOL    HW136701   2.498   2.041   0.310
 8274SOL    HW236702   2.361   2.091   0.353
 8275SOL     OW36703   0.297   1.305   5.662
 8275SOL    HW136704   0.277   1.330   5.753
 8275SOL    HW236705   0.309   1.388   5.616
 8276SOL     OW36706   0.333   1.374  17.264
 8276SOL    HW136707   0.303   1.436  17.198
 8276SOL    HW236708   0.255   1.322  17.284
 8277SOL     OW36709   4.577   2.914  17.618
 8277SOL    HW136710   4.530   2.942  17.539
 8277SOL    HW236711   4.508   2.891  17.680
 8278SOL     OW36712   3.220   3.460   0.967
 8278SOL    HW136713   3.251   3.416   0.888
 8278SOL    HW236714   3.141   3.505   0.939
 8279SOL     OW36715   0.957   4.084   1.824
 8279SOL    HW136716   0.943   4.179   1.820
 8279SOL    HW236717   0.998   4.063   1.740
 8280SOL     OW36718   2.642   2.734  20.036
 8280SOL    HW136719   2.597   2.677  19.974
 8280SOL    HW236720   2.577   2.801  20.059
 8281SOL     OW36721   4.420   3.844   7.030
 8281SOL    HW136722   4.487   3.782   7.001
 8281SOL    HW236723   4.419   3.912   6.963
 8282SOL     OW36724   3.842   1.643  20.483
 8282SOL    HW136725   3.793   1.560  20.482
 8282SOL    HW236726   3.860   1.659  20.575
 8283SOL     OW36727   1.320   4.015   5.166
 8283SOL    HW136728   1.301   4.001   5.073
 8283SOL    HW236729   1.413   3.994   5.175
 8284SOL     OW36730   1.794   0.321   2.144
 8284SOL    HW136731   1.868   0.262   2.159
 8284SOL    HW236732   1.832   0.396   2.098
 8285SOL     OW36733   0.410   3.748  17.738
 8285SOL    HW136734   0.366   3.677  17.786
 8285SOL    HW236735   0.437   3.810  17.806
 8286SOL     OW36736   3.035   4.202  18.033
 8286SOL    HW136737   3.081   4.163  17.958
 8286SOL    HW236738   3.103   4.211  18.100
 8287SOL     OW36739   0.821   2.466  16.123
 8287SOL    HW136740   0.790   2.376  16.118
 8287SOL    HW236741   0.756   2.512  16.175
 8288SOL     OW36742   1.974   4.571   1.346
 8288SOL    HW136743   1.904   4.634   1.332
 8288SOL    HW236744   2.053   4.616   1.316
 8289SOL     OW36745   1.260   2.928   6.098
 8289SOL    HW136746   1.326   2.970   6.154
 8289SOL    HW236747   1.246   2.843   6.139
 8290SOL     OW36748   1.450   2.735  18.988
 8290SOL    HW136749   1.488   2.652  18.959
 8290SOL    HW236750   1.375   2.748  18.929
 8291SOL     OW36751   4.561   1.198   4.677
 8291SOL    HW136752   4.551   1.285   4.715
 8291SOL    HW236753   4.589   1.143   4.750
 8292SOL     OW36754   3.234   3.490  16.859
 8292SOL    HW136755   3.184   3.515  16.782
 8292SOL    HW236756   3.236   3.394  16.856
 8293SOL     OW36757   0.564   4.779  15.516
 8293SOL    HW136758   0.522   4.693  15.521
 8293SOL    HW236759   0.499   0.052  15.552
 8294SOL     OW36760   3.462   0.907   4.474
 8294SOL    HW136761   3.466   0.908   4.569
 8294SOL    HW236762   3.515   0.982   4.447
 8295SOL     OW36763   3.774   0.641  17.826
 8295SOL    HW136764   3.705   0.647  17.760
 8295SOL    HW236765   3.851   0.612  17.777
 8296SOL     OW36766   2.893   3.352  17.806
 8296SOL    HW136767   2.811   3.402  17.810
 8296SOL    HW236768   2.933   3.378  17.723
 8297SOL     OW36769   2.758   2.127  14.345
 8297SOL    HW136770   2.770   2.059  14.411
 8297SOL    HW236771   2.842   2.173  14.343
 8298SOL     OW36772   3.205   2.002   0.530
 8298SOL    HW136773   3.204   1.908   0.514
 8298SOL    HW236774   3.286   2.017   0.580
 8299SOL     OW36775   4.326   0.837   1.169
 8299SOL    HW136776   4.399   0.814   1.227
 8299SOL    HW236777   4.332   0.775   1.097
 8300SOL     OW36778   3.143   0.774   3.826
 8300SOL    HW136779   3.138   0.740   3.916
 8300SOL    HW236780   3.235   0.796   3.815
 8301SOL     OW36781   0.138   3.495  14.363
 8301SOL    HW136782   0.074   3.548  14.411
 8301SOL    HW236783   0.186   3.559  14.310
 8302SOL     OW36784   4.379   1.809  18.020
 8302SOL    HW136785   4.356   1.850  18.104
 8302SOL    HW236786   4.295   1.802  17.973
 8303SOL     OW36787   2.123   3.553  19.674
 8303SOL    HW136788   2.150   3.609  19.747
 8303SOL    HW236789   2.165   3.592  19.597
 8304SOL     OW36790   1.114   3.359   3.516
 8304SOL    HW136791   1.049   3.420   3.552
 8304SOL    HW236792   1.094   3.276   3.559
 8305SOL     OW36793   1.016   3.334  20.665
 8305SOL    HW136794   1.028   3.250  20.620
 8305SOL    HW236795   0.943   3.318  20.725
 8306SOL     OW36796   3.307   4.640   5.207
 8306SOL    HW136797   3.266   4.691   5.277
 8306SOL    HW236798   3.251   4.653   5.131
 8307SOL     OW36799   0.271   3.763  18.937
 8307SOL    HW136800   0.265   3.757  18.842
 8307SOL    HW236801   0.207   3.700  18.969
 8308SOL     OW36802   4.780   0.693   5.255
 8308SOL    HW136803   0.056   0.659   5.192
 8308SOL    HW236804   4.772   0.623   5.320
 8309SOL     OW36805   2.163   3.980  20.261
 8309SOL    HW136806   2.146   3.919  20.333
 8309SOL    HW236807   2.095   3.961  20.196
 8310SOL     OW36808   2.659   0.203   4.742
 8310SOL    HW136809   2.570   0.193   4.777
 8310SOL    HW236810   2.666   0.135   4.675
 8311SOL     OW36811   2.671   0.800   0.397
 8311SOL    HW136812   2.601   0.735   0.384
 8311SOL    HW236813   2.626   0.876   0.433
 8312SOL     OW36814   0.819   4.411   4.846
 8312SOL    HW136815   0.731   4.444   4.828
 8312SOL    HW236816   0.838   4.440   4.935
 8313SOL     OW36817   1.177   1.153   5.032
 8313SOL    HW136818   1.208   1.140   5.122
 8313SOL    HW236819   1.253   1.187   4.985
 8314SOL     OW36820   2.659   1.341  18.332
 8314SOL    HW136821   2.655   1.295  18.416
 8314SOL    HW236822   2.577   1.390  18.328
 8315SOL     OW36823   0.219   0.301  20.306
 8315SOL    HW136824   0.124   0.308  20.300
 8315SOL    HW236825   0.236   0.207  20.316
 8316SOL     OW36826   4.466   4.105  18.517
 8316SOL    HW136827   4.537   4.164  18.492
 8316SOL    HW236828   4.501   4.055  18.591
 8317SOL     OW36829   2.039   2.285   4.570
 8317SOL    HW136830   2.129   2.311   4.551
 8317SOL    HW236831   1.994   2.366   4.593
 8318SOL     OW36832   2.651   4.551   6.513
 8318SOL    HW136833   2.594   4.573   6.439
 8318SOL    HW236834   2.607   4.588   6.589
 8319SOL     OW36835   3.214   2.995  16.469
 8319SOL    HW136836   3.285   2.962  16.525
 8319SOL    HW236837   3.251   3.074  16.429
 8320SOL     OW36838   2.548   3.910  17.931
 8320SOL    HW136839   2.560   3.816  17.925
 8320SOL    HW236840   2.455   3.924  17.911
 8321SOL     OW36841   0.137   4.418   4.691
 8321SOL    HW136842   0.045   4.397   4.675
 8321SOL    HW236843   0.152   4.394   4.783
 8322SOL     OW36844   2.564   2.664  18.036
 8322SOL    HW136845   2.593   2.661  18.128
 8322SOL    HW236846   2.613   2.737  17.998
 8323SOL     OW36847   3.863   3.756   9.844
 8323SOL    HW136848   3.808   3.829   9.872
 8323SOL    HW236849   3.823   3.679   9.885
 8324SOL     OW36850   0.793   4.338   2.691
 8324SOL    HW136851   0.789   4.426   2.652
 8324SOL    HW236852   0.870   4.340   2.747
 8325SOL     OW36853   2.925   2.911  16.640
 8325SOL    HW136854   2.897   2.985  16.693
 8325SOL    HW236855   2.962   2.950  16.561
 8326SOL     OW36856   4.437   3.707  19.205
 8326SOL    HW136857   4.345   3.689  19.185
 8326SOL    HW236858   4.458   3.649  19.278
 8327SOL     OW36859   2.571   2.184  19.809
 8327SOL    HW136860   2.519   2.227  19.741
 8327SOL    HW236861   2.506   2.159  19.876
 8328SOL     OW36862   3.938   3.846   5.615
 8328SOL    HW136863   3.959   3.792   5.690
 8328SOL    HW236864   3.856   3.811   5.581
 8329SOL     OW36865   0.298   2.357  20.482
 8329SOL    HW136866   0.339   2.290  20.426
 8329SOL    HW236867   0.289   2.433  20.425
 8330SOL     OW36868   4.576   0.424   1.059
 8330SOL    HW136869   4.536   0.510   1.045
 8330SOL    HW236870   4.514   0.378   1.115
 8331SOL     OW36871   3.884   3.583   6.536
 8331SOL    HW136872   3.900   3.611   6.446
 8331SOL    HW236873   3.882   3.488   6.531
 8332SOL     OW36874   2.585   0.071   1.920
 8332SOL    HW136875   2.623   0.089   1.834
 8332SOL    HW236876   2.571   4.764   1.922
 8333SOL     OW36877   2.206   2.950   1.532
 8333SOL    HW136878   2.133   2.941   1.592
 8333SOL    HW236879   2.186   2.890   1.460
 8334SOL     OW36880   0.582   1.480   3.516
 8334SOL    HW136881   0.527   1.462   3.439
 8334SOL    HW236882   0.661   1.428   3.501
 8335SOL     OW36883   1.081   0.028   3.033
 8335SOL    HW136884   1.109   4.735   3.078
 8335SOL    HW236885   1.029   4.785   2.959
 8336SOL     OW36886   4.645   0.184  15.583
 8336SOL    HW136887   4.693   0.267  15.579
 8336SOL    HW236888   4.600   0.179  15.498
 8337SOL     OW36889   4.739   4.700   0.533
 8337SOL    HW136890   0.039   4.711   0.496
 8337SOL    HW236891   4.707   0.001   0.546
 8338SOL     OW36892   0.392   4.218  17.624
 8338SOL    HW136893   0.308   4.214  17.578
 8338SOL    HW236894   0.396   4.308  17.657
 8339SOL     OW36895   3.968   3.211   4.755
 8339SOL    HW136896   4.017   3.258   4.823
 8339SOL    HW236897   4.019   3.132   4.739
 8340SOL     OW36898   3.100   4.600  18.556
 8340SOL    HW136899   3.162   4.620  18.486
 8340SOL    HW236900   3.153   4.597  18.635
 8341SOL     OW36901   2.420   3.767   0.267
 8341SOL    HW136902   2.338   3.729   0.296
 8341SOL    HW236903   2.446   3.714   0.191
 8342SOL     OW36904   1.887   0.049   6.476
 8342SOL    HW136905   1.971   0.082   6.445
 8342SOL    HW236906   1.823   0.085   6.414
 8343SOL     OW36907   3.066   1.407   9.568
 8343SOL    HW136908   3.054   1.484   9.513
 8343SOL    HW236909   3.135   1.432   9.629
 8344SOL     OW36910   3.245   0.120   0.834
 8344SOL    HW136911   3.223   0.096   0.744
 8344SOL    HW236912   3.311   0.056   0.860
 8345SOL     OW36913   2.564   3.409   5.089
 8345SOL    HW136914   2.596   3.369   5.170
 8345SOL    HW236915   2.643   3.440   5.045
 8346SOL     OW36916   3.769   1.278   4.165
 8346SOL    HW136917   3.800   1.208   4.108
 8346SOL    HW236918   3.732   1.233   4.241
 8347SOL     OW36919   3.815   0.486   3.909
 8347SOL    HW136920   3.806   0.480   4.004
 8347SOL    HW236921   3.855   0.403   3.883
 8348SOL     OW36922   1.296   1.220  15.728
 8348SOL    HW136923   1.283   1.308  15.762
 8348SOL    HW236924   1.237   1.214  15.652
 8349SOL     OW36925   4.057   0.334   4.732
 8349SOL    HW136926   3.994   0.393   4.691
 8349SOL    HW236927   4.124   0.392   4.768
 8350SOL     OW36928   4.211   0.881   4.388
 8350SOL    HW136929   4.154   0.915   4.457
 8350SOL    HW236930   4.237   0.794   4.418
 8351SOL     OW36931   3.354   2.378   0.954
 8351SOL    HW136932   3.280   2.425   0.991
 8351SOL    HW236933   3.384   2.321   1.025
 8352SOL     OW36934   1.930   4.767  14.193
 8352SOL    HW136935   1.880   0.017  14.120
 8352SOL    HW236936   1.867   4.764  14.265
 8353SOL     OW36937   0.210   2.655  21.116
 8353SOL    HW136938   0.145   2.723  21.132
 8353SOL    HW236939   0.186   2.617  21.031
 8354SOL     OW36940   0.952   1.256   2.531
 8354SOL    HW136941   0.862   1.280   2.555
 8354SOL    HW236942   1.006   1.324   2.571
 8355SOL     OW36943   0.112   1.176  18.233
 8355SOL    HW136944   0.188   1.161  18.176
 8355SOL    HW236945   0.141   1.145  18.319
 8356SOL     OW36946   0.972   0.960  16.067
 8356SOL    HW136947   0.912   0.984  16.138
 8356SOL    HW236948   0.952   0.868  16.049
 8357SOL     OW36949   2.380   4.697  17.581
 8357SOL    HW136950   2.310   4.635  17.603
 8357SOL    HW236951   2.408   4.733  17.665
 8358SOL     OW36952   4.446   3.469   3.291
 8358SOL    HW136953   4.373   3.497   3.347
 8358SOL    HW236954   4.404   3.429   3.215
 8359SOL     OW36955   4.766   1.829  15.096
 8359SOL    HW136956   4.710   1.874  15.033
 8359SOL    HW236957   4.777   1.740  15.061
 8360SOL     OW36958   3.908   0.567   1.763
 8360SOL    HW136959   3.832   0.514   1.787
 8360SOL    HW236960   3.910   0.566   1.668
 8361SOL     OW36961   2.617   4.371  18.743
 8361SOL    HW136962   2.625   4.290  18.794
 8361SOL    HW236963   2.707   4.399  18.729
 8362SOL     OW36964   0.543   4.261  21.179
 8362SOL    HW136965   0.486   4.248   0.007
 8362SOL    HW236966   0.618   4.204  21.196
 8363SOL     OW36967   0.779   2.603  20.068
 8363SOL    HW136968   0.801   2.692  20.097
 8363SOL    HW236969   0.683   2.602  20.066
 8364SOL     OW36970   0.577   0.892   3.654
 8364SOL    HW136971   0.504   0.835   3.630
 8364SOL    HW236972   0.556   0.921   3.743
 8365SOL     OW36973   2.575   3.745  18.859
 8365SOL    HW136974   2.553   3.652  18.862
 8365SOL    HW236975   2.625   3.755  18.778
 8366SOL     OW36976   4.474   0.464   4.324
 8366SOL    HW136977   4.484   0.550   4.281
 8366SOL    HW236978   4.545   0.411   4.288
 8367SOL     OW36979   3.477   1.237  16.100
 8367SOL    HW136980   3.489   1.312  16.158
 8367SOL    HW236981   3.422   1.269  16.029
 8368SOL     OW36982   0.086   3.557  15.300
 8368SOL    HW136983   0.090   3.527  15.210
 8368SOL    HW236984   0.155   3.624  15.307
 8369SOL     OW36985   2.253   1.436   2.369
 8369SOL    HW136986   2.190   1.366   2.386
 8369SOL    HW236987   2.211   1.515   2.402
 8370SOL     OW36988   1.345   2.966   2.850
 8370SOL    HW136989   1.366   2.895   2.790
 8370SOL    HW236990   1.350   3.045   2.797
 8371SOL     OW36991   2.717   1.696   1.625
 8371SOL    HW136992   2.798   1.668   1.666
 8371SOL    HW236993   2.686   1.620   1.577
 8372SOL     OW36994   3.593   4.066  21.247
 8372SOL    HW136995   3.583   4.147   0.048
 8372SOL    HW236996   3.554   3.998   0.054
 8373SOL     OW36997   2.519   2.694   6.536
 8373SOL    HW136998   2.462   2.751   6.483
 8373SOL    HW236999   2.501   2.606   6.504
 8374SOL     OW37000   0.573   2.996   5.520
 8374SOL    HW137001   0.508   3.002   5.450
 8374SOL    HW237002   0.530   3.035   5.596
 8375SOL     OW37003   2.732   1.027   4.074
 8375SOL    HW137004   2.649   0.981   4.062
 8375SOL    HW237005   2.791   0.989   4.009
 8376SOL     OW37006   3.371   3.815   4.245
 8376SOL    HW137007   3.347   3.786   4.157
 8376SOL    HW237008   3.467   3.806   4.247
 8377SOL     OW37009   4.049   0.117   4.155
 8377SOL    HW137010   4.007   0.088   4.236
 8377SOL    HW237011   3.984   0.097   4.087
 8378SOL     OW37012   1.290   1.796  17.883
 8378SOL    HW137013   1.293   1.779  17.788
 8378SOL    HW237014   1.276   1.710  17.922
 8379SOL     OW37015   2.057   1.065   0.313
 8379SOL    HW137016   2.085   1.157   0.308
 8379SOL    HW237017   2.133   1.019   0.349
 8380SOL     OW37018   3.297   4.124  12.651
 8380SOL    HW137019   3.348   4.045  12.632
 8380SOL    HW237020   3.215   4.091  12.688
 8381SOL     OW37021   3.929   0.749   3.460
 8381SOL    HW137022   3.961   0.837   3.482
 8381SOL    HW237023   3.907   0.710   3.545
 8382SOL     OW37024   3.323   4.609   3.466
 8382SOL    HW137025   3.403   4.605   3.518
 8382SOL    HW237026   3.275   4.683   3.503
 8383SOL     OW37027   2.064   3.868  18.539
 8383SOL    HW137028   2.097   3.937  18.598
 8383SOL    HW237029   2.143   3.835  18.496
 8384SOL     OW37030   0.101   0.195   4.836
 8384SOL    HW137031   0.020   0.214   4.882
 8384SOL    HW237032   0.080   0.205   4.743
 8385SOL     OW37033   4.523   1.422   0.832
 8385SOL    HW137034   4.610   1.436   0.794
 8385SOL    HW237035   4.468   1.489   0.791
 8386SOL     OW37036   3.017   2.849   4.666
 8386SOL    HW137037   3.080   2.913   4.633
 8386SOL    HW237038   3.055   2.764   4.643
 8387SOL     OW37039   4.775   1.252  17.943
 8387SOL    HW137040   4.723   1.231  18.020
 8387SOL    HW237041   4.735   1.331  17.907
 8388SOL     OW37042   4.498   3.907  17.868
 8388SOL    HW137043   4.563   3.938  17.805
 8388SOL    HW237044   4.451   3.986  17.894
 8389SOL     OW37045   4.065   2.800  15.946
 8389SOL    HW137046   4.151   2.763  15.961
 8389SOL    HW237047   4.082   2.891  15.921
 8390SOL     OW37048   3.266   1.473  18.020
 8390SOL    HW137049   3.206   1.488  18.092
 8390SOL    HW237050   3.235   1.531  17.950
 8391SOL     OW37051   4.091   3.214   6.376
 8391SOL    HW137052   4.162   3.276   6.358
 8391SOL    HW237053   4.041   3.254   6.448
 8392SOL     OW37054   3.063   1.335  16.738
 8392SOL    HW137055   3.020   1.251  16.722
 8392SOL    HW237056   3.083   1.335  16.831
 8393SOL     OW37057   3.707   2.002   1.531
 8393SOL    HW137058   3.709   2.076   1.592
 8393SOL    HW237059   3.629   2.018   1.477
 8394SOL     OW37060   1.215   3.201   1.881
 8394SOL    HW137061   1.141   3.166   1.831
 8394SOL    HW237062   1.288   3.202   1.818
 8395SOL     OW37063   4.266   4.574   6.785
 8395SOL    HW137064   4.271   4.664   6.752
 8395SOL    HW237065   4.203   4.532   6.727
 8396SOL     OW37066   2.175   2.609   3.070
 8396SOL    HW137067   2.155   2.549   3.142
 8396SOL    HW237068   2.143   2.564   2.992
 8397SOL     OW37069   3.820   1.028   3.053
 8397SOL    HW137070   3.915   1.034   3.066
 8397SOL    HW237071   3.808   1.040   2.959
 8398SOL     OW37072   3.713   2.496   2.228
 8398SOL    HW137073   3.620   2.506   2.205
 8398SOL    HW237074   3.724   2.402   2.242
 8399SOL     OW37075   4.504   1.042   3.117
 8399SOL    HW137076   4.443   1.088   3.175
 8399SOL    HW237077   4.571   1.007   3.176
 8400SOL     OW37078   2.068   1.353   4.274
 8400SOL    HW137079   2.024   1.280   4.232
 8400SOL    HW237080   2.021   1.366   4.356
 8401SOL     OW37081   3.187   4.034   0.050
 8401SOL    HW137082   3.125   3.962   0.060
 8401SOL    HW237083   3.229   4.042   0.135
 8402SOL     OW37084   1.164   3.217   2.639
 8402SOL    HW137085   1.115   3.278   2.583
 8402SOL    HW237086   1.156   3.254   2.727
 8403SOL     OW37087   2.792   4.698   4.757
 8403SOL    HW137088   2.744   4.622   4.789
 8403SOL    HW237089   2.737   4.733   4.686
 8404SOL     OW37090   4.211   0.995   3.292
 8404SOL    HW137091   4.145   0.974   3.358
 8404SOL    HW237092   4.270   1.057   3.335
 8405SOL     OW37093   3.272   0.124  20.476
 8405SOL    HW137094   3.280   0.189  20.545
 8405SOL    HW237095   3.184   0.090  20.485
 8406SOL     OW37096   0.065   1.635   0.485
 8406SOL    HW137097   0.040   1.684   0.407
 8406SOL    HW237098   0.154   1.664   0.505
 8407SOL     OW37099   3.931   4.158   2.580
 8407SOL    HW137100   3.967   4.247   2.573
 8407SOL    HW237101   3.951   4.118   2.495
 8408SOL     OW37102   1.038   0.819  21.047
 8408SOL    HW137103   0.978   0.756  21.087
 8408SOL    HW237104   1.107   0.764  21.009
 8409SOL     OW37105   0.946   3.033   6.092
 8409SOL    HW137106   1.027   3.044   6.042
 8409SOL    HW237107   0.965   2.964   6.155
 8410SOL     OW37108   2.402   1.341  19.585
 8410SOL    HW137109   2.361   1.416  19.629
 8410SOL    HW237110   2.479   1.321  19.639
 8411SOL     OW37111   2.177   0.041   4.477
 8411SOL    HW137112   2.167   0.070   4.386
 8411SOL    HW237113   2.136   4.743   4.480
 8412SOL     OW37114   1.360   1.470   7.435
 8412SOL    HW137115   1.388   1.552   7.395
 8412SOL    HW237116   1.266   1.468   7.422
 8413SOL     OW37117   3.224   3.195   2.270
 8413SOL    HW137118   3.289   3.211   2.338
 8413SOL    HW237119   3.230   3.272   2.213
 8414SOL     OW37120   3.556   4.207   4.474
 8414SOL    HW137121   3.534   4.182   4.563
 8414SOL    HW237122   3.586   4.298   4.481
 8415SOL     OW37123   2.524   3.661   3.271
 8415SOL    HW137124   2.538   3.666   3.366
 8415SOL    HW237125   2.430   3.677   3.260
 8416SOL     OW37126   0.708   0.733   6.239
 8416SOL    HW137127   0.614   0.736   6.220
 8416SOL    HW237128   0.734   0.643   6.216
 8417SOL     OW37129   3.983   2.487   4.777
 8417SOL    HW137130   3.897   2.459   4.809
 8417SOL    HW237131   4.021   2.536   4.850
 8418SOL     OW37132   1.532   0.880   3.944
 8418SOL    HW137133   1.533   0.891   4.040
 8418SOL    HW237134   1.466   0.943   3.914
 8419SOL     OW37135   4.164   4.271  19.646
 8419SOL    HW137136   4.187   4.210  19.717
 8419SOL    HW237137   4.093   4.325  19.682
 8420SOL     OW37138   2.808   2.892   6.747
 8420SOL    HW137139   2.852   2.965   6.703
 8420SOL    HW237140   2.718   2.920   6.757
 8421SOL     OW37141   4.622   2.057  16.585
 8421SOL    HW137142   4.661   1.971  16.601
 8421SOL    HW237143   4.653   2.081  16.498
 8422SOL     OW37144   0.006   0.056  16.852
 8422SOL    HW137145   4.702   0.062  16.827
 8422SOL    HW237146   0.018   0.123  16.919
 8423SOL     OW37147   0.963   4.031  19.605
 8423SOL    HW137148   0.935   4.043  19.696
 8423SOL    HW237149   0.895   3.977  19.566
 8424SOL     OW37150   4.737   0.407   6.727
 8424SOL    HW137151   4.726   0.337   6.791
 8424SOL    HW237152   4.772   0.364   6.650
 8425SOL     OW37153   4.054   4.114  20.276
 8425SOL    HW137154   4.079   4.024  20.300
 8425SOL    HW237155   3.959   4.116  20.286
 8426SOL     OW37156   2.790   2.712   2.054
 8426SOL    HW137157   2.791   2.745   2.144
 8426SOL    HW237158   2.874   2.668   2.044
 8427SOL     OW37159   3.977   4.267  18.530
 8427SOL    HW137160   4.051   4.275  18.590
 8427SOL    HW237161   3.990   4.184  18.486
 8428SOL     OW37162   2.245   1.773   6.501
 8428SOL    HW137163   2.187   1.724   6.559
 8428SOL    HW237164   2.236   1.864   6.529
 8429SOL     OW37165   4.494   2.304   4.078
 8429SOL    HW137166   4.570   2.261   4.041
 8429SOL    HW237167   4.434   2.315   4.005
 8430SOL     OW37168   2.650   2.131  19.331
 8430SOL    HW137169   2.602   2.064  19.378
 8430SOL    HW237170   2.672   2.090  19.247
 8431SOL     OW37171   1.178   0.260  16.554
 8431SOL    HW137172   1.254   0.305  16.590
 8431SOL    HW237173   1.110   0.327  16.550
 8432SOL     OW37174   4.694   0.754  20.863
 8432SOL    HW137175   4.750   0.676  20.863
 8432SOL    HW237176   4.704   0.791  20.951
 8433SOL     OW37177   3.262   2.979   5.210
 8433SOL    HW137178   3.247   3.033   5.132
 8433SOL    HW237179   3.195   2.911   5.205
 8434SOL     OW37180   1.536   3.653   1.554
 8434SOL    HW137181   1.610   3.692   1.508
 8434SOL    HW237182   1.459   3.700   1.520
 8435SOL     OW37183   1.320   1.770   3.522
 8435SOL    HW137184   1.308   1.703   3.455
 8435SOL    HW237185   1.353   1.846   3.473
 8436SOL     OW37186   3.550   1.549   3.030
 8436SOL    HW137187   3.483   1.500   2.982
 8436SOL    HW237188   3.584   1.487   3.094
 8437SOL     OW37189   4.276   3.351  17.361
 8437SOL    HW137190   4.258   3.315  17.448
 8437SOL    HW237191   4.360   3.396  17.371
 8438SOL     OW37192   4.238   1.836   1.784
 8438SOL    HW137193   4.179   1.911   1.772
 8438SOL    HW237194   4.189   1.761   1.748
 8439SOL     OW37195   3.616   1.720  18.763
 8439SOL    HW137196   3.538   1.671  18.791
 8439SOL    HW237197   3.595   1.811  18.781
 8440SOL     OW37198   1.515   4.011  18.277
 8440SOL    HW137199   1.439   3.966  18.242
 8440SOL    HW237200   1.531   3.971  18.362
 8441SOL     OW37201   3.848   1.569   1.672
 8441SOL    HW137202   3.796   1.502   1.716
 8441SOL    HW237203   3.799   1.650   1.685
 8442SOL     OW37204   1.559   1.436   5.992
 8442SOL    HW137205   1.541   1.415   6.084
 8442SOL    HW237206   1.473   1.440   5.951
 8443SOL     OW37207   0.621   1.574  18.415
 8443SOL    HW137208   0.561   1.649  18.410
 8443SOL    HW237209   0.634   1.548  18.324
 8444SOL     OW37210   1.721   2.865  17.338
 8444SOL    HW137211   1.728   2.960  17.328
 8444SOL    HW237212   1.678   2.836  17.257
 8445SOL     OW37213   0.318   3.709  15.365
 8445SOL    HW137214   0.328   3.692  15.459
 8445SOL    HW237215   0.276   3.796  15.361
 8446SOL     OW37216   2.560   0.502   3.136
 8446SOL    HW137217   2.494   0.433   3.140
 8446SOL    HW237218   2.640   0.457   3.109
 8447SOL     OW37219   2.916   2.259  13.939
 8447SOL    HW137220   2.877   2.184  13.893
 8447SOL    HW237221   3.010   2.241  13.938
 8448SOL     OW37222   3.750   2.722   2.635
 8448SOL    HW137223   3.812   2.736   2.563
 8448SOL    HW237224   3.730   2.810   2.668
 8449SOL     OW37225   3.315   0.763  15.862
 8449SOL    HW137226   3.262   0.695  15.903
 8449SOL    HW237227   3.308   0.838  15.921
 8450SOL     OW37228   0.287   2.313  17.857
 8450SOL    HW137229   0.269   2.228  17.816
 8450SOL    HW237230   0.323   2.366  17.786
 8451SOL     OW37231   2.875   2.418  17.484
 8451SOL    HW137232   2.828   2.345  17.444
 8451SOL    HW237233   2.965   2.386  17.494
 8452SOL     OW37234   4.615   4.288   0.313
 8452SOL    HW137235   4.637   4.203   0.353
 8452SOL    HW237236   4.637   4.352   0.381
 8453SOL     OW37237   2.313   2.188   4.070
 8453SOL    HW137238   2.355   2.145   3.995
 8453SOL    HW237239   2.352   2.146   4.146
 8454SOL     OW37240   1.676   2.851  20.832
 8454SOL    HW137241   1.688   2.767  20.788
 8454SOL    HW237242   1.756   2.862  20.884
 8455SOL     OW37243   3.572   4.007  19.655
 8455SOL    HW137244   3.599   3.958  19.578
 8455SOL    HW237245   3.629   3.976  19.725
 8456SOL     OW37246   2.638   3.869  21.216
 8456SOL    HW137247   2.694   3.938   0.003
 8456SOL    HW237248   2.554   3.882   0.011
 8457SOL     OW37249   2.664   3.609   0.054
 8457SOL    HW137250   2.641   3.701   0.044
 8457SOL    HW237251   2.754   3.604   0.021
 8458SOL     OW37252   4.622   2.070  19.456
 8458SOL    HW137253   4.625   1.977  19.431
 8458SOL    HW237254   4.661   2.116  19.382
 8459SOL     OW37255   1.439   1.556  17.665
 8459SOL    HW137256   1.465   1.467  17.641
 8459SOL    HW237257   1.461   1.563  17.758
 8460SOL     OW37258   1.742   3.236   6.284
 8460SOL    HW137259   1.832   3.252   6.311
 8460SOL    HW237260   1.691   3.301   6.333
 8461SOL     OW37261   3.238   0.935  16.900
 8461SOL    HW137262   3.192   0.873  16.843
 8461SOL    HW237263   3.169   0.989  16.937
 8462SOL     OW37264   0.692   1.378   0.617
 8462SOL    HW137265   0.783   1.400   0.637
 8462SOL    HW237266   0.683   1.287   0.644
 8463SOL     OW37267   3.796   4.219  13.762
 8463SOL    HW137268   3.785   4.165  13.840
 8463SOL    HW237269   3.710   4.258  13.748
 8464SOL     OW37270   3.789   0.449   6.080
 8464SOL    HW137271   3.845   0.526   6.089
 8464SOL    HW237272   3.722   0.461   6.147
 8465SOL     OW37273   3.791   3.257  18.747
 8465SOL    HW137274   3.768   3.226  18.660
 8465SOL    HW237275   3.878   3.296  18.737
 8466SOL     OW37276   4.119   0.118   1.840
 8466SOL    HW137277   4.167   0.151   1.916
 8466SOL    HW237278   4.128   0.187   1.774
 8467SOL     OW37279   2.791   1.937  15.623
 8467SOL    HW137280   2.788   2.028  15.592
 8467SOL    HW237281   2.830   1.943  15.710
 8468SOL     OW37282   2.422   0.374  16.942
 8468SOL    HW137283   2.463   0.369  17.028
 8468SOL    HW237284   2.329   0.389  16.959
 8469SOL     OW37285   0.953   4.323   3.556
 8469SOL    HW137286   0.966   4.343   3.649
 8469SOL    HW237287   1.023   4.371   3.511
 8470SOL     OW37288   0.073   4.464  15.580
 8470SOL    HW137289   4.775   4.488  15.543
 8470SOL    HW237290   0.105   4.394  15.523
 8471SOL     OW37291   4.416   3.630   1.467
 8471SOL    HW137292   4.493   3.590   1.428
 8471SOL    HW237293   4.450   3.693   1.530
 8472SOL     OW37294   2.859   3.428  16.684
 8472SOL    HW137295   2.896   3.479  16.756
 8472SOL    HW237296   2.933   3.385  16.643
 8473SOL     OW37297   2.306   4.607  20.510
 8473SOL    HW137298   2.357   4.569  20.439
 8473SOL    HW237299   2.346   4.692  20.526
 8474SOL     OW37300   1.088   1.738  15.222
 8474SOL    HW137301   1.154   1.690  15.273
 8474SOL    HW237302   1.072   1.682  15.145
 8475SOL     OW37303   0.012   3.516  17.797
 8475SOL    HW137304   0.019   3.452  17.726
 8475SOL    HW237305   0.057   3.594  17.765
 8476SOL     OW37306   3.497   2.672   1.498
 8476SOL    HW137307   3.561   2.627   1.553
 8476SOL    HW237308   3.412   2.641   1.529
 8477SOL     OW37309   4.445   3.986   6.808
 8477SOL    HW137310   4.458   4.075   6.775
 8477SOL    HW237311   4.408   3.938   6.734
 8478SOL     OW37312   2.269   1.742   1.306
 8478SOL    HW137313   2.318   1.749   1.388
 8478SOL    HW237314   2.183   1.709   1.332
 8479SOL     OW37315   0.988   1.853  15.637
 8479SOL    HW137316   0.920   1.869  15.572
 8479SOL    HW237317   0.947   1.875  15.721
 8480SOL     OW37318   3.799   3.529  17.705
 8480SOL    HW137319   3.718   3.495  17.743
 8480SOL    HW237320   3.849   3.451  17.683
 8481SOL     OW37321   1.523   1.574   2.172
 8481SOL    HW137322   1.592   1.630   2.137
 8481SOL    HW237323   1.445   1.596   2.120
 8482SOL     OW37324   0.254   1.906   1.919
 8482SOL    HW137325   0.316   1.962   1.965
 8482SOL    HW237326   0.298   1.821   1.914
 8483SOL     OW37327   1.906   4.627   3.538
 8483SOL    HW137328   1.871   4.702   3.490
 8483SOL    HW237329   1.863   4.629   3.623
 8484SOL     OW37330   4.126   1.562  19.797
 8484SOL    HW137331   4.073   1.642  19.788
 8484SOL    HW237332   4.195   1.586  19.858
 8485SOL     OW37333   2.158   0.625   8.278
 8485SOL    HW137334   2.158   0.595   8.188
 8485SOL    HW237335   2.068   0.655   8.294
 8486SOL     OW37336   3.259   1.245   3.499
 8486SOL    HW137337   3.228   1.155   3.498
 8486SOL    HW237338   3.333   1.244   3.560
 8487SOL     OW37339   2.211   0.447  20.154
 8487SOL    HW137340   2.166   0.369  20.187
 8487SOL    HW237341   2.296   0.414  20.124
 8488SOL     OW37342   0.434   4.271  18.235
 8488SOL    HW137343   0.525   4.238  18.236
 8488SOL    HW237344   0.434   4.338  18.167
 8489SOL     OW37345   1.977   3.599   3.573
 8489SOL    HW137346   1.886   3.568   3.571
 8489SOL    HW237347   2.011   3.579   3.486
 8490SOL     OW37348   1.656   4.169   7.784
 8490SOL    HW137349   1.645   4.237   7.718
 8490SOL    HW237350   1.601   4.097   7.754
 8491SOL     OW37351   1.807   1.034   3.182
 8491SOL    HW137352   1.870   0.993   3.242
 8491SOL    HW237353   1.753   0.961   3.151
 8492SOL     OW37354   1.558   1.651   6.537
 8492SOL    HW137355   1.598   1.584   6.481
 8492SOL    HW237356   1.572   1.618   6.626
 8493SOL     OW37357   4.451   4.576   2.866
 8493SOL    HW137358   4.359   4.553   2.876
 8493SOL    HW237359   4.497   4.516   2.924
 8494SOL     OW37360   4.739   1.690   0.226
 8494SOL    HW137361   4.678   1.720   0.158
 8494SOL    HW237362   4.783   1.615   0.187
 8495SOL     OW37363   3.808   2.500  16.974
 8495SOL    HW137364   3.777   2.588  16.954
 8495SOL    HW237365   3.731   2.454  17.007
 8496SOL     OW37366   0.027   4.128   5.660
 8496SOL    HW137367   0.118   4.150   5.677
 8496SOL    HW237368   0.016   4.141   5.566
 8497SOL     OW37369   2.164   3.368  14.498
 8497SOL    HW137370   2.176   3.314  14.577
 8497SOL    HW237371   2.225   3.441  14.510
 8498SOL     OW37372   0.376   2.904   3.839
 8498SOL    HW137373   0.378   2.858   3.923
 8498SOL    HW237374   0.368   2.834   3.774
 8499SOL     OW37375   3.860   3.386  16.670
 8499SOL    HW137376   3.883   3.345  16.586
 8499SOL    HW237377   3.796   3.326  16.709
 8500SOL     OW37378   0.148   0.830   6.362
 8500SOL    HW137379   0.108   0.752   6.399
 8500SOL    HW237380   0.079   0.897   6.367
 8501SOL     OW37381   2.652   0.941  17.194
 8501SOL    HW137382   2.683   0.912  17.109
 8501SOL    HW237383   2.641   0.860  17.244
 8502SOL     OW37384   2.518   2.348   1.654
 8502SOL    HW137385   2.512   2.389   1.567
 8502SOL    HW237386   2.610   2.322   1.661
 8503SOL     OW37387   1.338   2.994  17.303
 8503SOL    HW137388   1.358   3.076  17.349
 8503SOL    HW237389   1.393   2.996  17.225
 8504SOL     OW37390   4.435   0.599   2.202
 8504SOL    HW137391   4.378   0.550   2.143
 8504SOL    HW237392   4.473   0.532   2.259
 8505SOL     OW37393   2.296   2.345  20.879
 8505SOL    HW137394   2.255   2.409  20.937
 8505SOL    HW237395   2.230   2.278  20.866
 8506SOL     OW37396   1.842   2.869  18.261
 8506SOL    HW137397   1.811   2.915  18.339
 8506SOL    HW237398   1.766   2.820  18.229
 8507SOL     OW37399   4.300   3.914   3.429
 8507SOL    HW137400   4.205   3.915   3.426
 8507SOL    HW237401   4.325   4.007   3.422
 8508SOL     OW37402   2.801   2.095   1.719
 8508SOL    HW137403   2.830   2.018   1.768
 8508SOL    HW237404   2.813   2.168   1.780
 8509SOL     OW37405   0.373   1.866   3.060
 8509SOL    HW137406   0.369   1.907   3.146
 8509SOL    HW237407   0.321   1.786   3.069
 8510SOL     OW37408   3.780   0.612  20.684
 8510SOL    HW137409   3.811   0.623  20.774
 8510SOL    HW237410   3.763   0.518  20.676
 8511SOL     OW37411   3.812   1.362  20.516
 8511SOL    HW137412   3.878   1.370  20.584
 8511SOL    HW237413   3.805   1.268  20.499
 8512SOL     OW37414   0.568   1.070  13.349
 8512SOL    HW137415   0.480   1.038  13.328
 8512SOL    HW237416   0.585   1.138  13.284
 8513SOL     OW37417   2.863   4.663   2.056
 8513SOL    HW137418   2.798   4.729   2.080
 8513SOL    HW237419   2.948   4.707   2.070
 8514SOL     OW37420   1.952   0.453   5.970
 8514SOL    HW137421   1.890   0.518   5.936
 8514SOL    HW237422   1.961   0.474   6.063
 8515SOL     OW37423   1.601   3.957  19.069
 8515SOL    HW137424   1.669   3.975  19.003
 8515SOL    HW237425   1.544   4.034  19.066
 8516SOL     OW37426   1.950   2.891   1.253
 8516SOL    HW137427   2.015   2.821   1.265
 8516SOL    HW237428   1.892   2.881   1.329
 8517SOL     OW37429   2.393   0.949  18.146
 8517SOL    HW137430   2.450   0.999  18.203
 8517SOL    HW237431   2.404   0.989  18.060
 8518SOL     OW37432   2.552   2.207   8.462
 8518SOL    HW137433   2.522   2.194   8.552
 8518SOL    HW237434   2.623   2.144   8.451
 8519SOL     OW37435   0.989   2.432   2.100
 8519SOL    HW137436   1.002   2.341   2.127
 8519SOL    HW237437   0.907   2.457   2.143
 8520SOL     OW37438   3.618   0.908   3.221
 8520SOL    HW137439   3.686   0.952   3.170
 8520SOL    HW237440   3.575   0.978   3.270
 8521SOL     OW37441   1.982   0.255  21.189
 8521SOL    HW137442   2.064   0.241  21.237
 8521SOL    HW237443   1.914   0.227   0.003
 8522SOL     OW37444   3.361   0.686   8.349
 8522SOL    HW137445   3.376   0.693   8.444
 8522SOL    HW237446   3.449   0.676   8.312
 8523SOL     OW37447   3.151   2.462   2.727
 8523SOL    HW137448   3.127   2.375   2.758
 8523SOL    HW237449   3.220   2.446   2.662
 8524SOL     OW37450   2.924   0.332   0.781
 8524SOL    HW137451   2.882   0.369   0.858
 8524SOL    HW237452   2.994   0.276   0.815
 8525SOL     OW37453   2.094   3.518  17.445
 8525SOL    HW137454   2.101   3.603  17.489
 8525SOL    HW237455   2.032   3.533  17.374
 8526SOL     OW37456   0.775   4.081  18.235
 8526SOL    HW137457   0.809   4.041  18.315
 8526SOL    HW237458   0.817   4.032  18.164
 8527SOL     OW37459   0.454   2.646   4.833
 8527SOL    HW137460   0.520   2.696   4.881
 8527SOL    HW237461   0.380   2.639   4.893
 8528SOL     OW37462   2.210   4.122  17.582
 8528SOL    HW137463   2.148   4.192  17.562
 8528SOL    HW237464   2.225   4.078  17.498
 8529SOL     OW37465   2.507   3.675  14.782
 8529SOL    HW137466   2.496   3.643  14.692
 8529SOL    HW237467   2.470   3.763  14.780
 8530SOL     OW37468   1.117   3.592  20.737
 8530SOL    HW137469   1.095   3.501  20.719
 8530SOL    HW237470   1.095   3.638  20.656
 8531SOL     OW37471   1.127   0.490  19.989
 8531SOL    HW137472   1.166   0.489  19.902
 8531SOL    HW237473   1.033   0.498  19.973
 8532SOL     OW37474   0.110   3.609   3.813
 8532SOL    HW137475   0.198   3.610   3.775
 8532SOL    HW237476   0.097   3.698   3.846
 8533SOL     OW37477   0.098   0.798  20.138
 8533SOL    HW137478   0.055   0.717  20.110
 8533SOL    HW237479   0.059   0.818  20.223
 8534SOL     OW37480   1.581   2.723  18.352
 8534SOL    HW137481   1.494   2.760  18.370
 8534SOL    HW237482   1.582   2.639  18.399
 8535SOL     OW37483   1.432   1.926   5.394
 8535SOL    HW137484   1.372   1.927   5.468
 8535SOL    HW237485   1.415   2.008   5.348
 8536SOL     OW37486   0.729   2.730  19.449
 8536SOL    HW137487   0.687   2.655  19.491
 8536SOL    HW237488   0.809   2.695  19.411
 8537SOL     OW37489   0.240   0.651  13.164
 8537SOL    HW137490   0.162   0.669  13.111
 8537SOL    HW237491   0.301   0.722  13.142
 8538SOL     OW37492   0.569   2.890   2.068
 8538SOL    HW137493   0.511   2.861   2.139
 8538SOL    HW237494   0.657   2.886   2.106
 8539SOL     OW37495   1.056   4.091  18.395
 8539SOL    HW137496   1.016   4.021  18.447
 8539SOL    HW237497   1.057   4.056  18.305
 8540SOL     OW37498   3.391   2.227   1.611
 8540SOL    HW137499   3.361   2.266   1.693
 8540SOL    HW237500   3.326   2.159   1.591
 8541SOL     OW37501   0.737   2.897   5.228
 8541SOL    HW137502   0.669   2.858   5.173
 8541SOL    HW237503   0.693   2.970   5.272
 8542SOL     OW37504   3.640   4.471   0.923
 8542SOL    HW137505   3.609   4.387   0.957
 8542SOL    HW237506   3.699   4.503   0.991
 8543SOL     OW37507   0.721   2.792   1.675
 8543SOL    HW137508   0.630   2.820   1.687
 8543SOL    HW237509   0.730   2.715   1.731
 8544SOL     OW37510   0.381   2.521   2.778
 8544SOL    HW137511   0.322   2.479   2.715
 8544SOL    HW237512   0.411   2.450   2.835
 8545SOL     OW37513   0.754   4.069  15.610
 8545SOL    HW137514   0.786   4.155  15.637
 8545SOL    HW237515   0.679   4.087  15.554
 8546SOL     OW37516   0.385   3.860  13.674
 8546SOL    HW137517   0.318   3.794  13.655
 8546SOL    HW237518   0.468   3.813  13.667
 8547SOL     OW37519   2.906   2.650  14.677
 8547SOL    HW137520   2.998   2.636  14.653
 8547SOL    HW237521   2.860   2.657  14.594
 8548SOL     OW37522   1.246   4.230  15.893
 8548SOL    HW137523   1.276   4.195  15.977
 8548SOL    HW237524   1.153   4.208  15.890
 8549SOL     OW37525   2.828   2.931   0.085
 8549SOL    HW137526   2.844   2.839   0.102
 8549SOL    HW237527   2.877   2.978   0.153
 8550SOL     OW37528   0.797   1.948   5.046
 8550SOL    HW137529   0.846   1.906   5.117
 8550SOL    HW237530   0.709   1.959   5.081
 8551SOL     OW37531   2.254   0.913   0.464
 8551SOL    HW137532   2.263   0.823   0.435
 8551SOL    HW237533   2.205   0.907   0.546
 8552SOL     OW37534   3.127   1.471   7.871
 8552SOL    HW137535   3.190   1.500   7.805
 8552SOL    HW237536   3.177   1.413   7.929
 8553SOL     OW37537   3.118   4.300   2.102
 8553SOL    HW137538   3.138   4.369   2.039
 8553SOL    HW237539   3.114   4.345   2.187
 8554SOL     OW37540   4.123   1.439  16.796
 8554SOL    HW137541   4.038   1.461  16.759
 8554SOL    HW237542   4.183   1.502  16.757
 8555SOL     OW37543   3.610   0.285   3.162
 8555SOL    HW137544   3.535   0.342   3.178
 8555SOL    HW237545   3.645   0.315   3.078
 8556SOL     OW37546   1.443   3.849  12.886
 8556SOL    HW137547   1.384   3.774  12.896
 8556SOL    HW237548   1.527   3.819  12.920
 8557SOL     OW37549   3.189   0.934   3.181
 8557SOL    HW137550   3.204   0.876   3.106
 8557SOL    HW237551   3.134   1.004   3.146
 8558SOL     OW37552   2.975   0.189  19.416
 8558SOL    HW137553   2.944   0.226  19.334
 8558SOL    HW237554   2.949   0.096  19.412
 8559SOL     OW37555   1.483   0.347  16.978
 8559SOL    HW137556   1.449   0.362  17.066
 8559SOL    HW237557   1.578   0.352  16.988
 8560SOL     OW37558   2.282   3.253   4.462
 8560SOL    HW137559   2.329   3.181   4.505
 8560SOL    HW237560   2.192   3.246   4.495
 8561SOL     OW37561   1.048   0.576   5.970
 8561SOL    HW137562   1.029   0.522   6.047
 8561SOL    HW237563   1.142   0.564   5.954
 8562SOL     OW37564   4.462   2.705  15.393
 8562SOL    HW137565   4.483   2.612  15.400
 8562SOL    HW237566   4.483   2.740  15.479
 8563SOL     OW37567   2.398   4.044  16.665
 8563SOL    HW137568   2.373   4.075  16.752
 8563SOL    HW237569   2.480   4.090  16.646
 8564SOL     OW37570   3.919   0.389   3.160
 8564SOL    HW137571   3.864   0.462   3.187
 8564SOL    HW237572   3.866   0.341   3.096
 8565SOL     OW37573   3.473   0.764   4.918
 8565SOL    HW137574   3.518   0.800   4.995
 8565SOL    HW237575   3.381   0.765   4.943
 8566SOL     OW37576   1.882   0.367  20.751
 8566SOL    HW137577   1.804   0.375  20.805
 8566SOL    HW237578   1.947   0.325  20.807
 8567SOL     OW37579   4.647   3.876  19.258
 8567SOL    HW137580   4.691   3.849  19.339
 8567SOL    HW237581   4.582   3.808  19.242
 8568SOL     OW37582   0.034   4.210  19.799
 8568SOL    HW137583   0.111   4.192  19.745
 8568SOL    HW237584   4.747   4.189  19.743
 8569SOL     OW37585   4.033   4.771   5.293
 8569SOL    HW137586   4.013   0.051   5.357
 8569SOL    HW237587   4.059   0.032   5.215
 8570SOL     OW37588   1.134   4.464  11.591
 8570SOL    HW137589   1.163   4.474  11.500
 8570SOL    HW237590   1.172   4.539  11.636
 8571SOL     OW37591   2.568   0.092  19.219
 8571SOL    HW137592   2.473   0.108  19.224
 8571SOL    HW237593   2.582   0.066  19.128
 8572SOL     OW37594   4.615   4.730  18.481
 8572SOL    HW137595   4.586   4.703  18.568
 8572SOL    HW237596   4.709   4.745  18.490
 8573SOL     OW37597   3.675   0.732   0.335
 8573SOL    HW137598   3.696   0.722   0.427
 8573SOL    HW237599   3.678   0.643   0.299
 8574SOL     OW37600   1.789   4.144  16.890
 8574SOL    HW137601   1.778   4.069  16.948
 8574SOL    HW237602   1.825   4.212  16.946
 8575SOL     OW37603   3.143   3.284  20.320
 8575SOL    HW137604   3.155   3.285  20.225
 8575SOL    HW237605   3.081   3.213  20.336
 8576SOL     OW37606   1.214   4.659  12.478
 8576SOL    HW137607   1.235   4.593  12.411
 8576SOL    HW237608   1.190   4.737  12.428
 8577SOL     OW37609   2.375   2.507   6.356
 8577SOL    HW137610   2.383   2.547   6.270
 8577SOL    HW237611   2.288   2.533   6.387
 8578SOL     OW37612   2.082   2.706  20.036
 8578SOL    HW137613   2.167   2.751  20.038
 8578SOL    HW237614   2.093   2.634  20.098
 8579SOL     OW37615   1.819   2.533   1.369
 8579SOL    HW137616   1.807   2.576   1.284
 8579SOL    HW237617   1.913   2.519   1.377
 8580SOL     OW37618   0.803   3.910   5.723
 8580SOL    HW137619   0.744   3.834   5.725
 8580SOL    HW237620   0.828   3.924   5.814
 8581SOL     OW37621   2.984   4.411  13.844
 8581SOL    HW137622   2.973   4.500  13.810
 8581SOL    HW237623   2.985   4.421  13.939
 8582SOL     OW37624   1.437   3.547  16.451
 8582SOL    HW137625   1.492   3.590  16.386
 8582SOL    HW237626   1.355   3.528  16.405
 8583SOL     OW37627   0.090   2.950  15.661
 8583SOL    HW137628   0.156   3.016  15.640
 8583SOL    HW237629   0.012   3.000  15.685
 8584SOL     OW37630   4.341   3.287   1.866
 8584SOL    HW137631   4.330   3.292   1.771
 8584SOL    HW237632   4.346   3.378   1.894
 8585SOL     OW37633   0.606   0.283   0.332
 8585SOL    HW137634   0.685   0.304   0.383
 8585SOL    HW237635   0.636   0.220   0.266
 8586SOL     OW37636   1.954   0.704  19.708
 8586SOL    HW137637   1.911   0.676  19.628
 8586SOL    HW237638   1.897   0.772  19.744
 8587SOL     OW37639   1.922   3.589  19.104
 8587SOL    HW137640   1.914   3.496  19.126
 8587SOL    HW237641   1.863   3.601  19.029
 8588SOL     OW37642   3.825   4.246   2.053
 8588SOL    HW137643   3.853   4.160   2.022
 8588SOL    HW237644   3.866   4.308   1.993
 8589SOL     OW37645   3.800   1.476   7.079
 8589SOL    HW137646   3.788   1.542   7.147
 8589SOL    HW237647   3.881   1.502   7.034
 8590SOL     OW37648   3.132   1.505   1.944
 8590SOL    HW137649   3.130   1.425   1.890
 8590SOL    HW237650   3.224   1.533   1.941
 8591SOL     OW37651   4.170   4.283  18.834
 8591SOL    HW137652   4.235   4.218  18.863
 8591SOL    HW237653   4.086   4.240  18.848
 8592SOL     OW37654   4.140   4.296   3.127
 8592SOL    HW137655   4.136   4.309   3.222
 8592SOL    HW237656   4.100   4.210   3.113
 8593SOL     OW37657   0.397   2.319  19.933
 8593SOL    HW137658   0.303   2.315  19.952
 8593SOL    HW237659   0.404   2.293  19.841
 8594SOL     OW37660   4.022   3.773  15.945
 8594SOL    HW137661   4.110   3.735  15.936
 8594SOL    HW237662   4.026   3.824  16.026
 8595SOL     OW37663   2.662   4.013   2.967
 8595SOL    HW137664   2.591   3.953   2.944
 8595SOL    HW237665   2.724   3.959   3.016
 8596SOL     OW37666   2.998   3.341   3.191
 8596SOL    HW137667   3.055   3.276   3.231
 8596SOL    HW237668   2.910   3.320   3.224
 8597SOL     OW37669   3.107   0.645   1.273
 8597SOL    HW137670   3.171   0.593   1.322
 8597SOL    HW237671   3.150   0.662   1.189
 8598SOL     OW37672   2.810   0.375   6.155
 8598SOL    HW137673   2.852   0.291   6.175
 8598SOL    HW237674   2.873   0.441   6.183
 8599SOL     OW37675   1.923   4.252  14.304
 8599SOL    HW137676   1.836   4.277  14.336
 8599SOL    HW237677   1.908   4.226  14.212
 8600SOL     OW37678   0.237   4.081  20.907
 8600SOL    HW137679   0.253   3.987  20.902
 8600SOL    HW237680   0.193   4.094  20.991
 8601SOL     OW37681   2.884   1.841   6.461
 8601SOL    HW137682   2.898   1.884   6.376
 8601SOL    HW237683   2.910   1.750   6.446
 8602SOL     OW37684   2.039   2.580  16.005
 8602SOL    HW137685   2.032   2.637  16.082
 8602SOL    HW237686   2.111   2.617  15.954
 8603SOL     OW37687   4.621   4.461   0.085
 8603SOL    HW137688   4.592   4.423   0.168
 8603SOL    HW237689   4.631   4.555   0.104
 8604SOL     OW37690   3.498   2.739   0.142
 8604SOL    HW137691   3.409   2.773   0.132
 8604SOL    HW237692   3.544   2.808   0.190
 8605SOL     OW37693   3.884   1.525   1.396
 8605SOL    HW137694   3.887   1.615   1.365
 8605SOL    HW237695   3.890   1.531   1.491
 8606SOL     OW37696   0.031   0.442   2.332
 8606SOL    HW137697   0.053   0.529   2.298
 8606SOL    HW237698   0.012   0.457   2.424
 8607SOL     OW37699   0.665   4.346   1.616
 8607SOL    HW137700   0.582   4.301   1.626
 8607SOL    HW237701   0.679   4.351   1.522
 8608SOL     OW37702   1.720   4.415   3.308
 8608SOL    HW137703   1.761   4.396   3.224
 8608SOL    HW237704   1.793   4.420   3.370
 8609SOL     OW37705   2.566   2.945  12.844
 8609SOL    HW137706   2.478   2.938  12.807
 8609SOL    HW237707   2.564   2.889  12.921
 8610SOL     OW37708   0.960   2.750   5.103
 8610SOL    HW137709   0.910   2.812   5.157
 8610SOL    HW237710   0.894   2.697   5.059
 8611SOL     OW37711   3.175   3.541   2.373
 8611SOL    HW137712   3.149   3.480   2.443
 8611SOL    HW237713   3.135   3.624   2.398
 8612SOL     OW37714   1.194   3.420  14.474
 8612SOL    HW137715   1.275   3.453  14.435
 8612SOL    HW237716   1.126   3.441  14.410
 8613SOL     OW37717   0.218   3.660  21.133
 8613SOL    HW137718   0.192   3.678  21.042
 8613SOL    HW237719   0.187   3.570  21.149
 8614SOL     OW37720   4.076   0.172   3.235
 8614SOL    HW137721   4.034   0.156   3.320
 8614SOL    HW237722   4.045   0.259   3.210
 8615SOL     OW37723   1.269   2.266  20.938
 8615SOL    HW137724   1.276   2.272  20.843
 8615SOL    HW237725   1.176   2.251  20.955
 8616SOL     OW37726   4.566   0.076  19.759
 8616SOL    HW137727   4.580   0.010  19.691
 8616SOL    HW237728   4.570   0.028  19.841
 8617SOL     OW37729   1.711   2.180   4.281
 8617SOL    HW137730   1.658   2.210   4.207
 8617SOL    HW237731   1.798   2.219   4.266
 8618SOL     OW37732   0.764   1.563   0.414
 8618SOL    HW137733   0.742   1.482   0.461
 8618SOL    HW237734   0.830   1.537   0.351
 8619SOL     OW37735   1.799   2.416  16.366
 8619SOL    HW137736   1.883   2.392  16.327
 8619SOL    HW237737   1.788   2.508  16.344
 8620SOL     OW37738   4.156   0.364   0.458
 8620SOL    HW137739   4.229   0.403   0.409
 8620SOL    HW237740   4.095   0.335   0.391
 8621SOL     OW37741   3.163   4.392   4.587
 8621SOL    HW137742   3.118   4.473   4.610
 8621SOL    HW237743   3.236   4.387   4.649
 8622SOL     OW37744   2.151   3.709   8.560
 8622SOL    HW137745   2.204   3.641   8.600
 8622SOL    HW237746   2.060   3.684   8.581
 8623SOL     OW37747   3.759   3.587  18.639
 8623SOL    HW137748   3.754   3.493  18.657
 8623SOL    HW237749   3.786   3.626  18.722
 8624SOL     OW37750   3.997   4.398   0.223
 8624SOL    HW137751   4.028   4.332   0.161
 8624SOL    HW237752   3.943   4.350   0.285
 8625SOL     OW37753   3.145   2.392  16.342
 8625SOL    HW137754   3.073   2.411  16.402
 8625SOL    HW237755   3.105   2.399  16.255
 8626SOL     OW37756   0.561   1.265   3.882
 8626SOL    HW137757   0.487   1.231   3.831
 8626SOL    HW237758   0.522   1.297   3.963
 8627SOL     OW37759   1.854   3.744   8.912
 8627SOL    HW137760   1.939   3.702   8.918
 8627SOL    HW237761   1.871   3.825   8.863
 8628SOL     OW37762   2.142   4.011  16.580
 8628SOL    HW137763   2.236   4.021  16.596
 8628SOL    HW237764   2.106   3.986  16.665
 8629SOL     OW37765   3.963   4.686  19.323
 8629SOL    HW137766   3.968   4.770  19.370
 8629SOL    HW237767   3.979   4.620  19.391
 8630SOL     OW37768   1.503   0.420   1.879
 8630SOL    HW137769   1.592   0.449   1.863
 8630SOL    HW237770   1.510   0.325   1.888
 8631SOL     OW37771   4.245   4.347  17.412
 8631SOL    HW137772   4.259   4.433  17.452
 8631SOL    HW237773   4.321   4.333  17.356
 8632SOL     OW37774   2.928   4.714  15.458
 8632SOL    HW137775   2.909   4.630  15.498
 8632SOL    HW237776   3.021   4.709  15.434
 8633SOL     OW37777   0.441   3.912  21.071
 8633SOL    HW137778   0.501   3.928  21.143
 8633SOL    HW237779   0.354   3.928  21.108
 8634SOL     OW37780   0.139   0.155  15.851
 8634SOL    HW137781   0.062   0.111  15.886
 8634SOL    HW237782   0.104   0.217  15.787
 8635SOL     OW37783   0.998   0.633   0.485
 8635SOL    HW137784   1.036   0.616   0.571
 8635SOL    HW237785   1.061   0.690   0.441
 8636SOL     OW37786   0.430   2.909  19.012
 8636SOL    HW137787   0.374   2.987  19.009
 8636SOL    HW237788   0.385   2.849  19.071
 8637SOL     OW37789   4.487   0.540  13.978
 8637SOL    HW137790   4.463   0.624  14.016
 8637SOL    HW237791   4.581   0.532  13.994
 8638SOL     OW37792   4.272   2.851  16.947
 8638SOL    HW137793   4.330   2.778  16.925
 8638SOL    HW237794   4.184   2.813  16.941
 8639SOL     OW37795   3.918   4.120   1.159
 8639SOL    HW137796   3.950   4.122   1.249
 8639SOL    HW237797   3.928   4.028   1.133
 8640SOL     OW37798   1.659   1.148   5.974
 8640SOL    HW137799   1.635   1.240   5.975
 8640SOL    HW237800   1.754   1.147   5.986
 8641SOL     OW37801   3.281   1.135  17.815
 8641SOL    HW137802   3.297   1.213  17.762
 8641SOL    HW237803   3.316   1.157  17.902
 8642SOL     OW37804   2.582   2.448   3.805
 8642SOL    HW137805   2.519   2.519   3.788
 8642SOL    HW237806   2.529   2.369   3.803
 8643SOL     OW37807   1.159   3.351   4.285
 8643SOL    HW137808   1.070   3.323   4.308
 8643SOL    HW237809   1.195   3.387   4.366
 8644SOL     OW37810   1.520   1.573  17.923
 8644SOL    HW137811   1.441   1.536  17.963
 8644SOL    HW237812   1.572   1.605  17.997
 8645SOL     OW37813   1.161   3.641  20.059
 8645SOL    HW137814   1.170   3.736  20.051
 8645SOL    HW237815   1.103   3.629  20.134
 8646SOL     OW37816   0.147   3.966  15.314
 8646SOL    HW137817   0.123   3.972  15.222
 8646SOL    HW237818   0.236   3.998  15.319
 8647SOL     OW37819   0.944   4.733   2.178
 8647SOL    HW137820   0.903   0.006   2.239
 8647SOL    HW237821   0.923   4.768   2.091
 8648SOL     OW37822   4.097   1.697   3.694
 8648SOL    HW137823   4.177   1.676   3.645
 8648SOL    HW237824   4.089   1.626   3.758
 8649SOL     OW37825   3.632   1.092  16.274
 8649SOL    HW137826   3.615   1.000  16.293
 8649SOL    HW237827   3.582   1.109  16.194
 8650SOL     OW37828   0.221   4.745  17.824
 8650SOL    HW137829   0.172   4.664  17.839
 8650SOL    HW237830   0.270   4.729  17.743
 8651SOL     OW37831   1.221   0.594   3.695
 8651SOL    HW137832   1.129   0.567   3.694
 8651SOL    HW237833   1.218   0.689   3.691
 8652SOL     OW37834   0.864   4.154  16.201
 8652SOL    HW137835   0.865   4.073  16.149
 8652SOL    HW237836   0.952   4.160  16.237
 8653SOL     OW37837   1.098   2.798   6.355
 8653SOL    HW137838   1.019   2.762   6.315
 8653SOL    HW237839   1.148   2.721   6.383
 8654SOL     OW37840   0.639   1.549  18.745
 8654SOL    HW137841   0.639   1.619  18.811
 8654SOL    HW237842   0.610   1.592  18.665
 8655SOL     OW37843   0.964   0.859  13.763
 8655SOL    HW137844   1.026   0.787  13.753
 8655SOL    HW237845   0.997   0.910  13.837
 8656SOL     OW37846   1.413   4.673  19.616
 8656SOL    HW137847   1.504   4.692  19.590
 8656SOL    HW237848   1.380   4.755  19.651
 8657SOL     OW37849   3.351   3.487   0.494
 8657SOL    HW137850   3.290   3.462   0.562
 8657SOL    HW237851   3.437   3.482   0.535
 8658SOL     OW37852   1.231   2.804  20.855
 8658SOL    HW137853   1.309   2.818  20.908
 8658SOL    HW237854   1.252   2.843  20.770
 8659SOL     OW37855   0.172   1.160   3.452
 8659SOL    HW137856   0.157   1.077   3.407
 8659SOL    HW237857   0.094   1.212   3.433
 8660SOL     OW37858   1.442   2.231  18.574
 8660SOL    HW137859   1.373   2.289  18.606
 8660SOL    HW237860   1.405   2.193  18.494
 8661SOL     OW37861   0.255   0.354  17.225
 8661SOL    HW137862   0.250   0.392  17.137
 8661SOL    HW237863   0.276   0.427  17.282
 8662SOL     OW37864   1.065   2.506   3.924
 8662SOL    HW137865   1.077   2.577   3.861
 8662SOL    HW237866   1.077   2.548   4.010
 8663SOL     OW37867   1.333   4.442   2.326
 8663SOL    HW137868   1.277   4.380   2.373
 8663SOL    HW237869   1.294   4.528   2.342
 8664SOL     OW37870   1.164   1.818  11.289
 8664SOL    HW137871   1.070   1.824  11.278
 8664SOL    HW237872   1.193   1.759  11.219
 8665SOL     OW37873   4.584   0.563   0.687
 8665SOL    HW137874   4.531   0.497   0.732
 8665SOL    HW237875   4.572   0.642   0.738
 8666SOL     OW37876   2.076   1.250   2.457
 8666SOL    HW137877   2.017   1.289   2.521
 8666SOL    HW237878   2.076   1.157   2.479
 8667SOL     OW37879   0.635   1.576  15.886
 8667SOL    HW137880   0.567   1.538  15.941
 8667SOL    HW237881   0.716   1.534  15.915
 8668SOL     OW37882   4.608   0.817   6.226
 8668SOL    HW137883   4.669   0.889   6.240
 8668SOL    HW237884   4.540   0.830   6.292
 8669SOL     OW37885   1.244   1.155   3.005
 8669SOL    HW137886   1.228   1.250   3.007
 8669SOL    HW237887   1.331   1.146   3.045
 8670SOL     OW37888   1.286   2.265  20.656
 8670SOL    HW137889   1.193   2.272  20.637
 8670SOL    HW237890   1.326   2.240  20.573
 8671SOL     OW37891   4.094   2.496  15.245
 8671SOL    HW137892   4.062   2.433  15.180
 8671SOL    HW237893   4.038   2.573  15.233
 8672SOL     OW37894   2.555   0.200   1.450
 8672SOL    HW137895   2.597   0.196   1.536
 8672SOL    HW237896   2.541   0.109   1.426
 8673SOL     OW37897   0.797   3.903   2.186
 8673SOL    HW137898   0.848   3.825   2.206
 8673SOL    HW237899   0.745   3.879   2.110
 8674SOL     OW37900   4.480   3.143   0.678
 8674SOL    HW137901   4.421   3.193   0.735
 8674SOL    HW237902   4.424   3.077   0.638
 8675SOL     OW37903   0.462   3.368   6.119
 8675SOL    HW137904   0.508   3.367   6.203
 8675SOL    HW237905   0.509   3.434   6.068
 8676SOL     OW37906   4.427   1.112  19.656
 8676SOL    HW137907   4.366   1.182  19.630
 8676SOL    HW237908   4.372   1.049  19.703
 8677SOL     OW37909   3.185   3.370   0.684
 8677SOL    HW137910   3.121   3.442   0.694
 8677SOL    HW237911   3.133   3.297   0.652
 8678SOL     OW37912   0.360   3.196  16.448
 8678SOL    HW137913   0.329   3.272  16.498
 8678SOL    HW237914   0.389   3.134  16.514
 8679SOL     OW37915   2.256   3.096   5.383
 8679SOL    HW137916   2.277   3.171   5.329
 8679SOL    HW237917   2.249   3.131   5.472
 8680SOL     OW37918   2.300   0.368   3.128
 8680SOL    HW137919   2.269   0.312   3.058
 8680SOL    HW237920   2.254   0.451   3.114
 8681SOL     OW37921   1.558   0.491  19.162
 8681SOL    HW137922   1.490   0.425  19.178
 8681SOL    HW237923   1.544   0.520  19.072
 8682SOL     OW37924   2.554   2.853  17.636
 8682SOL    HW137925   2.535   2.798  17.712
 8682SOL    HW237926   2.561   2.792  17.563
 8683SOL     OW37927   0.835   2.401   1.787
 8683SOL    HW137928   0.771   2.400   1.716
 8683SOL    HW237929   0.804   2.468   1.847
 8684SOL     OW37930   4.292   4.600  20.811
 8684SOL    HW137931   4.296   4.516  20.856
 8684SOL    HW237932   4.383   4.627  20.801
 8685SOL     OW37933   2.394   1.604   6.283
 8685SOL    HW137934   2.315   1.637   6.327
 8685SOL    HW237935   2.431   1.681   6.240
 8686SOL     OW37936   0.081   0.853  18.093
 8686SOL    HW137937   4.777   0.882  18.085
 8686SOL    HW237938   0.103   0.870  18.184
 8687SOL     OW37939   4.431   3.584  14.206
 8687SOL    HW137940   4.444   3.542  14.291
 8687SOL    HW237941   4.355   3.640  14.217
 8688SOL     OW37942   1.953   0.972  15.681
 8688SOL    HW137943   1.906   0.949  15.762
 8688SOL    HW237944   1.888   1.019  15.629
 8689SOL     OW37945   1.164   4.128   2.167
 8689SOL    HW137946   1.096   4.180   2.124
 8689SOL    HW237947   1.245   4.177   2.152
 8690SOL     OW37948   3.935   3.696  16.800
 8690SOL    HW137949   3.865   3.690  16.736
 8690SOL    HW237950   4.005   3.641  16.764
 8691SOL     OW37951   3.052   4.215   4.867
 8691SOL    HW137952   3.014   4.253   4.788
 8691SOL    HW237953   3.129   4.168   4.835
 8692SOL     OW37954   1.744   1.677   7.709
 8692SOL    HW137955   1.691   1.754   7.729
 8692SOL    HW237956   1.819   1.684   7.768
 8693SOL     OW37957   4.069   3.629   4.225
 8693SOL    HW137958   4.005   3.563   4.252
 8693SOL    HW237959   4.017   3.709   4.213
 8694SOL     OW37960   4.631   1.280   5.541
 8694SOL    HW137961   4.554   1.292   5.596
 8694SOL    HW237962   4.698   1.337   5.579
 8695SOL     OW37963   3.242   2.818  13.853
 8695SOL    HW137964   3.219   2.825  13.761
 8695SOL    HW237965   3.180   2.875  13.898
 8696SOL     OW37966   0.145   1.343   7.921
 8696SOL    HW137967   0.172   1.318   7.833
 8696SOL    HW237968   0.227   1.348   7.971
 8697SOL     OW37969   1.076   3.412   5.987
 8697SOL    HW137970   1.128   3.492   5.983
 8697SOL    HW237971   1.108   3.358   5.915
 8698SOL     OW37972   4.488   4.533  18.312
 8698SOL    HW137973   4.489   4.598  18.382
 8698SOL    HW237974   4.424   4.566  18.249
 8699SOL     OW37975   3.028   2.014  12.967
 8699SOL    HW137976   3.010   2.085  13.029
 8699SOL    HW237977   3.027   1.935  13.021
 8700SOL     OW37978   4.351   4.496   7.691
 8700SOL    HW137979   4.371   4.429   7.625
 8700SOL    HW237980   4.426   4.495   7.749
 8701SOL     OW37981   0.390   4.470   2.848
 8701SOL    HW137982   0.382   4.558   2.811
 8701SOL    HW237983   0.427   4.417   2.778
 8702SOL     OW37984   1.303   2.877  17.625
 8702SOL    HW137985   1.263   2.835  17.550
 8702SOL    HW237986   1.397   2.875  17.607
 8703SOL     OW37987   4.705   0.139   6.440
 8703SOL    HW137988   4.618   0.118   6.475
 8703SOL    HW237989   4.724   0.068   6.379
 8704SOL     OW37990   0.256   0.045  16.581
 8704SOL    HW137991   0.351   0.057  16.587
 8704SOL    HW237992   0.230   0.017  16.669
 8705SOL     OW37993   2.436   2.828  19.500
 8705SOL    HW137994   2.462   2.769  19.571
 8705SOL    HW237995   2.516   2.842  19.449
 8706SOL     OW37996   2.023   0.580  20.416
 8706SOL    HW137997   1.941   0.535  20.439
 8706SOL    HW237998   2.072   0.582  20.497
 8707SOL     OW37999   2.285   1.729   5.472
 8707SOL    HW138000   2.350   1.689   5.414
 8707SOL    HW238001   2.276   1.667   5.545
 8708SOL     OW38002   2.491   2.836   0.807
 8708SOL    HW138003   2.574   2.843   0.854
 8708SOL    HW238004   2.505   2.766   0.743
 8709SOL     OW38005   2.985   1.016  18.474
 8709SOL    HW138006   2.985   1.044  18.566
 8709SOL    HW238007   3.062   1.058  18.437
 8710SOL     OW38008   0.196   3.746  18.668
 8710SOL    HW138009   0.227   3.828  18.629
 8710SOL    HW238010   0.113   3.769  18.710
 8711SOL     OW38011   0.101   0.938   4.689
 8711SOL    HW138012   0.150   0.981   4.759
 8711SOL    HW238013   0.012   0.931   4.723
 8712SOL     OW38014   4.230   2.072   4.612
 8712SOL    HW138015   4.229   2.091   4.518
 8712SOL    HW238016   4.314   2.106   4.643
 8713SOL     OW38017   1.068   4.271   5.617
 8713SOL    HW138018   1.102   4.273   5.528
 8713SOL    HW238019   1.061   4.178   5.639
 8714SOL     OW38020   3.218   0.234   6.693
 8714SOL    HW138021   3.147   0.223   6.630
 8714SOL    HW238022   3.290   0.182   6.658
 8715SOL     OW38023   3.035   2.363   6.115
 8715SOL    HW138024   3.076   2.307   6.050
 8715SOL    HW238025   2.990   2.303   6.175
 8716SOL     OW38026   3.909   4.526  21.220
 8716SOL    HW138027   3.815   4.519  21.238
 8716SOL    HW238028   3.951   4.488   0.048
 8717SOL     OW38029   0.895   3.668   2.910
 8717SOL    HW138030   0.958   3.699   2.975
 8717SOL    HW238031   0.810   3.696   2.943
 8718SOL     OW38032   2.900   4.029  18.789
 8718SOL    HW138033   2.946   4.102  18.747
 8718SOL    HW238034   2.942   3.951  18.755
 8719SOL     OW38035   1.507   0.616  12.744
 8719SOL    HW138036   1.602   0.626  12.749
 8719SOL    HW238037   1.492   0.565  12.664
 8720SOL     OW38038   0.106   4.774  18.071
 8720SOL    HW138039   0.145   4.764  17.984
 8720SOL    HW238040   0.164   0.047  18.116
 8721SOL     OW38041   4.271   4.728  18.098
 8721SOL    HW138042   4.277   0.033  18.072
 8721SOL    HW238043   4.285   4.729  18.193
 8722SOL     OW38044   2.326   0.173   1.741
 8722SOL    HW138045   2.257   0.189   1.804
 8722SOL    HW238046   2.401   0.145   1.793
 8723SOL     OW38047   3.367   4.599   3.088
 8723SOL    HW138048   3.303   4.547   3.137
 8723SOL    HW238049   3.408   4.536   3.029
 8724SOL     OW38050   3.388   4.014  15.469
 8724SOL    HW138051   3.420   4.043  15.384
 8724SOL    HW238052   3.457   3.957  15.503
 8725SOL     OW38053   3.575   1.508  16.173
 8725SOL    HW138054   3.641   1.516  16.241
 8725SOL    HW238055   3.500   1.556  16.207
 8726SOL     OW38056   2.008   1.855   3.818
 8726SOL    HW138057   2.039   1.928   3.872
 8726SOL    HW238058   2.017   1.886   3.728
 8727SOL     OW38059   1.326   3.507   1.829
 8727SOL    HW138060   1.393   3.521   1.896
 8727SOL    HW238061   1.244   3.531   1.871
 8728SOL     OW38062   3.754   4.529  16.214
 8728SOL    HW138063   3.818   4.508  16.146
 8728SOL    HW238064   3.779   4.616  16.245
 8729SOL     OW38065   1.623   0.688   5.076
 8729SOL    HW138066   1.531   0.714   5.079
 8729SOL    HW238067   1.638   0.665   4.984
 8730SOL     OW38068   4.719   0.949  20.674
 8730SOL    HW138069   4.666   1.027  20.688
 8730SOL    HW238070   4.702   0.894  20.750
 8731SOL     OW38071   4.384   2.052  21.186
 8731SOL    HW138072   4.430   2.078   0.018
 8731SOL    HW238073   4.302   2.101  21.190
 8732SOL     OW38074   3.634   4.011   3.314
 8732SOL    HW138075   3.698   3.941   3.299
 8732SOL    HW238076   3.591   3.986   3.397
 8733SOL     OW38077   0.824   0.044  15.514
 8733SOL    HW138078   0.732   0.021  15.499
 8733SOL    HW238079   0.840   0.022  15.606
 8734SOL     OW38080   0.471   4.550   7.211
 8734SOL    HW138081   0.467   4.618   7.144
 8734SOL    HW238082   0.435   4.591   7.290
 8735SOL     OW38083   1.872   0.086   0.208
 8735SOL    HW138084   1.956   0.057   0.244
 8735SOL    HW238085   1.854   0.025   0.136
 8736SOL     OW38086   3.585   2.769  16.917
 8736SOL    HW138087   3.607   2.744  16.827
 8736SOL    HW238088   3.653   2.832  16.941
 8737SOL     OW38089   4.662   2.629  17.970
 8737SOL    HW138090   4.730   2.696  17.963
 8737SOL    HW238091   4.699   2.562  18.027
 8738SOL     OW38092   2.003   4.189   0.932
 8738SOL    HW138093   1.922   4.140   0.918
 8738SOL    HW238094   2.035   4.159   1.017
 8739SOL     OW38095   0.482   4.744   3.309
 8739SOL    HW138096   0.540   4.730   3.234
 8739SOL    HW238097   0.423   0.026   3.281
 8740SOL     OW38098   2.190   3.331   2.295
 8740SOL    HW138099   2.221   3.417   2.322
 8740SOL    HW238100   2.270   3.278   2.285
 8741SOL     OW38101   4.353   3.343  14.928
 8741SOL    HW138102   4.415   3.331  15.000
 8741SOL    HW238103   4.350   3.258  14.884
 8742SOL     OW38104   2.458   1.159  16.224
 8742SOL    HW138105   2.490   1.219  16.156
 8742SOL    HW238106   2.366   1.184  16.236
 8743SOL     OW38107   4.686   4.399  16.979
 8743SOL    HW138108   4.711   4.343  16.906
 8743SOL    HW238109   4.742   4.370  17.052
 8744SOL     OW38110   1.433   2.405  18.154
 8744SOL    HW138111   1.499   2.341  18.126
 8744SOL    HW238112   1.378   2.417  18.077
 8745SOL     OW38113   4.111   2.119   6.133
 8745SOL    HW138114   4.048   2.172   6.183
 8745SOL    HW238115   4.059   2.079   6.063
 8746SOL     OW38116   0.000   3.165  18.172
 8746SOL    HW138117   4.695   3.145  18.182
 8746SOL    HW238118   0.044   3.081  18.184
 8747SOL     OW38119   2.892   3.657   5.140
 8747SOL    HW138120   2.894   3.615   5.054
 8747SOL    HW238121   2.842   3.597   5.195
 8748SOL     OW38122   2.742   0.057   5.899
 8748SOL    HW138123   2.817   4.785   5.895
 8748SOL    HW238124   2.720   0.074   5.808
 8749SOL     OW38125   1.929   1.450   0.189
 8749SOL    HW138126   2.003   1.465   0.248
 8749SOL    HW238127   1.923   1.529   0.136
 8750SOL     OW38128   1.000   0.400  15.916
 8750SOL    HW138129   0.947   0.401  15.837
 8750SOL    HW238130   1.050   0.319  15.911
 8751SOL     OW38131   4.612   4.412  20.673
 8751SOL    HW138132   4.688   4.374  20.631
 8751SOL    HW238133   4.542   4.403  20.609
 8752SOL     OW38134   3.729   1.265  13.797
 8752SOL    HW138135   3.739   1.176  13.831
 8752SOL    HW238136   3.691   1.315  13.870
 8753SOL     OW38137   2.211   0.441  13.618
 8753SOL    HW138138   2.126   0.420  13.656
 8753SOL    HW238139   2.269   0.370  13.647
 8754SOL     OW38140   1.568   0.600   7.173
 8754SOL    HW138141   1.551   0.508   7.149
 8754SOL    HW238142   1.529   0.651   7.102
 8755SOL     OW38143   3.135   3.810   2.427
 8755SOL    HW138144   3.167   3.796   2.516
 8755SOL    HW238145   3.189   3.881   2.392
 8756SOL     OW38146   2.420   3.787   4.137
 8756SOL    HW138147   2.443   3.741   4.218
 8756SOL    HW238148   2.447   3.728   4.067
 8757SOL     OW38149   0.911   2.987   1.488
 8757SOL    HW138150   0.993   3.026   1.458
 8757SOL    HW238151   0.938   2.912   1.541
 8758SOL     OW38152   2.520   2.105   8.168
 8758SOL    HW138153   2.553   2.020   8.200
 8758SOL    HW238154   2.482   2.146   8.246
 8759SOL     OW38155   4.519   4.391  15.715
 8759SOL    HW138156   4.526   4.300  15.688
 8759SOL    HW238157   4.521   4.440  15.633
 8760SOL     OW38158   4.035   3.213   9.399
 8760SOL    HW138159   4.014   3.301   9.430
 8760SOL    HW238160   4.120   3.222   9.356
 8761SOL     OW38161   3.383   0.245   2.077
 8761SOL    HW138162   3.389   0.152   2.057
 8761SOL    HW238163   3.450   0.286   2.021
 8762SOL     OW38164   0.972   3.885  18.145
 8762SOL    HW138165   0.961   3.816  18.080
 8762SOL    HW238166   1.051   3.932  18.117
 8763SOL     OW38167   3.005   2.668  12.596
 8763SOL    HW138168   2.982   2.588  12.550
 8763SOL    HW238169   2.930   2.685  12.654
 8764SOL     OW38170   0.697   1.846   2.274
 8764SOL    HW138171   0.605   1.851   2.246
 8764SOL    HW238172   0.726   1.937   2.278
 8765SOL     OW38173   4.395   3.254  19.930
 8765SOL    HW138174   4.329   3.186  19.915
 8765SOL    HW238175   4.411   3.292  19.843
 8766SOL     OW38176   3.290   4.503   3.850
 8766SOL    HW138177   3.364   4.498   3.790
 8766SOL    HW238178   3.307   4.579   3.906
 8767SOL     OW38179   4.666   0.506  20.060
 8767SOL    HW138180   4.602   0.574  20.040
 8767SOL    HW238181   4.736   0.520  19.996
 8768SOL     OW38182   1.108   0.285  13.580
 8768SOL    HW138183   1.156   0.360  13.616
 8768SOL    HW238184   1.097   0.307  13.488
 8769SOL     OW38185   2.824   3.529   2.235
 8769SOL    HW138186   2.795   3.483   2.156
 8769SOL    HW238187   2.857   3.460   2.292
 8770SOL     OW38188   2.726   3.024   5.523
 8770SOL    HW138189   2.715   3.119   5.527
 8770SOL    HW238190   2.738   2.997   5.614
 8771SOL     OW38191   3.167   3.580   4.244
 8771SOL    HW138192   3.123   3.591   4.160
 8771SOL    HW238193   3.096   3.558   4.305
 8772SOL     OW38194   3.464   2.072   0.671
 8772SOL    HW138195   3.487   2.016   0.745
 8772SOL    HW238196   3.528   2.050   0.604
 8773SOL     OW38197   1.402   0.390   1.077
 8773SOL    HW138198   1.361   0.309   1.107
 8773SOL    HW238199   1.465   0.361   1.010
 8774SOL     OW38200   3.932   2.030   4.978
 8774SOL    HW138201   3.837   2.038   4.975
 8774SOL    HW238202   3.964   2.096   4.917
 8775SOL     OW38203   3.478   2.482  16.668
 8775SOL    HW138204   3.459   2.457  16.577
 8775SOL    HW238205   3.395   2.468  16.714
 8776SOL     OW38206   1.365   0.018  17.753
 8776SOL    HW138207   1.414   4.740  17.803
 8776SOL    HW238208   1.331   0.078  17.819
 8777SOL     OW38209   3.022   2.061   5.427
 8777SOL    HW138210   3.095   2.015   5.469
 8777SOL    HW238211   2.968   2.091   5.500
 8778SOL     OW38212   2.132   1.371  18.740
 8778SOL    HW138213   2.206   1.408  18.789
 8778SOL    HW238214   2.123   1.282  18.775
 8779SOL     OW38215   3.234   0.690  18.050
 8779SOL    HW138216   3.310   0.666  17.997
 8779SOL    HW238217   3.242   0.637  18.129
 8780SOL     OW38218   4.105   3.120   7.462
 8780SOL    HW138219   4.179   3.066   7.488
 8780SOL    HW238220   4.028   3.066   7.479
 8781SOL     OW38221   3.668   1.113  21.112
 8781SOL    HW138222   3.686   1.020  21.103
 8781SOL    HW238223   3.754   1.154  21.118
 8782SOL     OW38224   0.064   4.519  17.331
 8782SOL    HW138225   0.081   4.452  17.265
 8782SOL    HW238226   0.015   4.587  17.284
 8783SOL     OW38227   1.844   0.625  18.042
 8783SOL    HW138228   1.827   0.720  18.042
 8783SOL    HW238229   1.784   0.591  17.976
 8784SOL     OW38230   1.239   0.503   3.428
 8784SOL    HW138231   1.169   0.558   3.392
 8784SOL    HW238232   1.252   0.537   3.517
 8785SOL     OW38233   2.283   2.788   5.879
 8785SOL    HW138234   2.206   2.732   5.882
 8785SOL    HW238235   2.304   2.794   5.786
 8786SOL     OW38236   2.788   2.674  17.199
 8786SOL    HW138237   2.761   2.583  17.185
 8786SOL    HW238238   2.712   2.726  17.173
 8787SOL     OW38239   4.140   4.528  14.374
 8787SOL    HW138240   4.094   4.556  14.453
 8787SOL    HW238241   4.072   4.525  14.307
 8788SOL     OW38242   1.951   3.976   7.020
 8788SOL    HW138243   1.971   3.907   6.957
 8788SOL    HW238244   1.996   4.054   6.987
 8789SOL     OW38245   1.948   0.742  19.057
 8789SOL    HW138246   1.986   0.686  18.989
 8789SOL    HW238247   2.024   0.788  19.095
 8790SOL     OW38248   3.347   1.378  17.692
 8790SOL    HW138249   3.395   1.399  17.612
 8790SOL    HW238250   3.377   1.442  17.756
 8791SOL     OW38251   2.518   2.962   0.382
 8791SOL    HW138252   2.502   3.020   0.308
 8791SOL    HW238253   2.614   2.963   0.393
 8792SOL     OW38254   2.782   2.961   5.833
 8792SOL    HW138255   2.808   2.870   5.821
 8792SOL    HW238256   2.851   2.999   5.887
 8793SOL     OW38257   3.202   1.312   1.734
 8793SOL    HW138258   3.112   1.290   1.708
 8793SOL    HW238259   3.255   1.239   1.702
 8794SOL     OW38260   0.435   4.193   7.558
 8794SOL    HW138261   0.363   4.151   7.511
 8794SOL    HW238262   0.472   4.255   7.495
 8795SOL     OW38263   4.495   0.340  16.984
 8795SOL    HW138264   4.564   0.276  17.006
 8795SOL    HW238265   4.543   0.420  16.965
 8796SOL     OW38266   2.331   2.991  17.186
 8796SOL    HW138267   2.238   2.985  17.164
 8796SOL    HW238268   2.357   3.079  17.158
 8797SOL     OW38269   0.246   2.233  19.630
 8797SOL    HW138270   0.160   2.257  19.665
 8797SOL    HW238271   0.256   2.287  19.552
 8798SOL     OW38272   2.775   1.494   6.267
 8798SOL    HW138273   2.861   1.537   6.268
 8798SOL    HW238274   2.753   1.483   6.359
 8799SOL     OW38275   3.395   2.925   4.880
 8799SOL    HW138276   3.360   2.933   4.791
 8799SOL    HW238277   3.361   3.003   4.925
 8800SOL     OW38278   3.291   2.638  21.108
 8800SOL    HW138279   3.300   2.544  21.091
 8800SOL    HW238280   3.336   2.679  21.035
 8801SOL     OW38281   4.621   2.998  15.740
 8801SOL    HW138282   4.640   3.052  15.664
 8801SOL    HW238283   4.526   2.996  15.745
 8802SOL     OW38284   4.037   1.096   2.556
 8802SOL    HW138285   4.005   1.185   2.539
 8802SOL    HW238286   4.132   1.103   2.551
 8803SOL     OW38287   2.045   0.747  16.745
 8803SOL    HW138288   2.011   0.808  16.679
 8803SOL    HW238289   2.084   0.676  16.694
 8804SOL     OW38290   0.603   2.108   0.691
 8804SOL    HW138291   0.512   2.095   0.716
 8804SOL    HW238292   0.646   2.025   0.715
 8805SOL     OW38293   3.387   1.962  17.686
 8805SOL    HW138294   3.351   2.046  17.656
 8805SOL    HW238295   3.388   1.908  17.607
 8806SOL     OW38296   3.838   4.349  21.003
 8806SOL    HW138297   3.805   4.438  21.011
 8806SOL    HW238298   3.894   4.336  21.079
 8807SOL     OW38299   1.106   3.268   9.024
 8807SOL    HW138300   1.064   3.204   9.082
 8807SOL    HW238301   1.065   3.351   9.048
 8808SOL     OW38302   0.959   3.566   0.656
 8808SOL    HW138303   0.952   3.651   0.699
 8808SOL    HW238304   0.996   3.585   0.570
 8809SOL     OW38305   0.400   1.392  18.163
 8809SOL    HW138306   0.443   1.310  18.187
 8809SOL    HW238307   0.308   1.367  18.149
 8810SOL     OW38308   0.139   4.557  15.038
 8810SOL    HW138309   0.228   4.577  15.009
 8810SOL    HW238310   0.083   4.585  14.966
 8811SOL     OW38311   3.947   3.998  17.518
 8811SOL    HW138312   3.941   4.044  17.601
 8811SOL    HW238313   3.868   4.023  17.470
 8812SOL     OW38314   0.529   0.946  14.331
 8812SOL    HW138315   0.509   1.006  14.403
 8812SOL    HW238316   0.469   0.872  14.344
 8813SOL     OW38317   3.539   3.876   5.262
 8813SOL    HW138318   3.482   3.902   5.334
 8813SOL    HW238319   3.479   3.861   5.189
 8814SOL     OW38320   0.241   3.082  18.968
 8814SOL    HW138321   0.218   3.082  18.875
 8814SOL    HW238322   0.169   3.128  19.011
 8815SOL     OW38323   1.809   3.825   0.669
 8815SOL    HW138324   1.815   3.911   0.628
 8815SOL    HW238325   1.715   3.805   0.670
 8816SOL     OW38326   0.565   1.707  16.971
 8816SOL    HW138327   0.596   1.798  16.967
 8816SOL    HW238328   0.472   1.714  16.995
 8817SOL     OW38329   3.084   3.894  16.430
 8817SOL    HW138330   3.152   3.923  16.490
 8817SOL    HW238331   3.104   3.937  16.347
 8818SOL     OW38332   3.434   4.105   1.189
 8818SOL    HW138333   3.380   4.118   1.267
 8818SOL    HW238334   3.445   4.010   1.183
 8819SOL     OW38335   1.607   0.947   1.135
 8819SOL    HW138336   1.562   0.869   1.105
 8819SOL    HW238337   1.699   0.930   1.115
 8820SOL     OW38338   4.729   2.684  19.477
 8820SOL    HW138339   4.645   2.720  19.505
 8820SOL    HW238340   4.708   2.598  19.441
 8821SOL     OW38341   3.510   3.564   0.705
 8821SOL    HW138342   3.585   3.611   0.743
 8821SOL    HW238343   3.533   3.472   0.715
 8822SOL     OW38344   0.169   0.844  20.627
 8822SOL    HW138345   0.083   0.877  20.652
 8822SOL    HW238346   0.169   0.753  20.659
 8823SOL     OW38347   1.377   1.324   4.746
 8823SOL    HW138348   1.400   1.415   4.766
 8823SOL    HW238349   1.361   1.323   4.651
 8824SOL     OW38350   0.617   1.349  20.228
 8824SOL    HW138351   0.601   1.443  20.236
 8824SOL    HW238352   0.623   1.317  20.318
 8825SOL     OW38353   0.827   1.276  16.868
 8825SOL    HW138354   0.792   1.337  16.932
 8825SOL    HW238355   0.914   1.310  16.848
 8826SOL     OW38356   4.558   1.644  19.114
 8826SOL    HW138357   4.643   1.646  19.069
 8826SOL    HW238358   4.494   1.660  19.046
 8827SOL     OW38359   2.429   2.097   4.314
 8827SOL    HW138360   2.438   2.021   4.371
 8827SOL    HW238361   2.515   2.139   4.318
 8828SOL     OW38362   1.094   1.612   3.641
 8828SOL    HW138363   1.177   1.650   3.611
 8828SOL    HW238364   1.101   1.613   3.737
 8829SOL     OW38365   0.395   1.352  16.482
 8829SOL    HW138366   0.319   1.319  16.433
 8829SOL    HW238367   0.372   1.339  16.574
 8830SOL     OW38368   2.276   4.550   1.798
 8830SOL    HW138369   2.255   4.589   1.883
 8830SOL    HW238370   2.372   4.547   1.797
 8831SOL     OW38371   3.466   0.923  19.815
 8831SOL    HW138372   3.503   0.962  19.894
 8831SOL    HW238373   3.524   0.953  19.744
 8832SOL     OW38374   1.036   2.885   1.985
 8832SOL    HW138375   1.099   2.903   2.054
 8832SOL    HW238376   1.037   2.790   1.974
 8833SOL     OW38377   4.102   0.697   4.720
 8833SOL    HW138378   4.141   0.651   4.646
 8833SOL    HW238379   4.071   0.780   4.684
 8834SOL     OW38380   1.925   0.364   2.875
 8834SOL    HW138381   1.891   0.427   2.812
 8834SOL    HW238382   1.855   0.353   2.939
 8835SOL     OW38383   3.400   0.198   5.330
 8835SOL    HW138384   3.485   0.155   5.346
 8835SOL    HW238385   3.423   0.287   5.306
 8836SOL     OW38386   3.617   3.846   6.482
 8836SOL    HW138387   3.640   3.803   6.400
 8836SOL    HW238388   3.575   3.777   6.535
 8837SOL     OW38389   3.628   0.624   0.660
 8837SOL    HW138390   3.550   0.605   0.607
 8837SOL    HW238391   3.677   0.542   0.661
 8838SOL     OW38392   4.178   0.478   0.099
 8838SOL    HW138393   4.150   0.389   0.120
 8838SOL    HW238394   4.260   0.490   0.146
 8839SOL     OW38395   0.717   0.409   7.234
 8839SOL    HW138396   0.812   0.416   7.235
 8839SOL    HW238397   0.686   0.498   7.215
 8840SOL     OW38398   1.180   2.922  13.832
 8840SOL    HW138399   1.169   3.013  13.861
 8840SOL    HW238400   1.114   2.911  13.764
 8841SOL     OW38401   2.876   2.163   1.430
 8841SOL    HW138402   2.794   2.180   1.384
 8841SOL    HW238403   2.850   2.118   1.510
 8842SOL     OW38404   1.833   3.726   1.584
 8842SOL    HW138405   1.860   3.776   1.661
 8842SOL    HW238406   1.846   3.786   1.511
 8843SOL     OW38407   0.558   3.038   1.843
 8843SOL    HW138408   0.649   3.057   1.823
 8843SOL    HW238409   0.561   2.986   1.924
 8844SOL     OW38410   1.452   3.075  15.485
 8844SOL    HW138411   1.532   3.092  15.435
 8844SOL    HW238412   1.481   3.068  15.576
 8845SOL     OW38413   4.511   2.578   0.186
 8845SOL    HW138414   4.599   2.541   0.192
 8845SOL    HW238415   4.497   2.590   0.093
 8846SOL     OW38416   1.713   3.155  20.892
 8846SOL    HW138417   1.677   3.208  20.821
 8846SOL    HW238418   1.774   3.095  20.848
 8847SOL     OW38419   4.391   2.831  20.691
 8847SOL    HW138420   4.308   2.877  20.679
 8847SOL    HW238421   4.368   2.739  20.691
 8848SOL     OW38422   1.373   1.886  16.460
 8848SOL    HW138423   1.429   1.809  16.449
 8848SOL    HW238424   1.430   1.961  16.441
 8849SOL     OW38425   1.453   0.326  16.525
 8849SOL    HW138426   1.403   0.279  16.458
 8849SOL    HW238427   1.542   0.293  16.517
 8850SOL     OW38428   4.622   3.654  14.029
 8850SOL    HW138429   4.570   3.627  14.105
 8850SOL    HW238430   4.558   3.667  13.959
 8851SOL     OW38431   4.651   0.268  17.319
 8851SOL    HW138432   4.711   0.298  17.387
 8851SOL    HW238433   4.591   0.209  17.364
 8852SOL     OW38434   1.712   4.033  17.846
 8852SOL    HW138435   1.689   4.090  17.920
 8852SOL    HW238436   1.666   3.951  17.864
 8853SOL     OW38437   0.294   0.005  13.085
 8853SOL    HW138438   0.253   0.051  13.012
 8853SOL    HW238439   0.386   4.783  13.059
 8854SOL     OW38440   4.765   3.671  16.973
 8854SOL    HW138441   0.044   3.617  16.930
 8854SOL    HW238442   4.682   3.638  16.940
 8855SOL     OW38443   4.305   2.775   4.357
 8855SOL    HW138444   4.281   2.710   4.423
 8855SOL    HW238445   4.299   2.729   4.274
 8856SOL     OW38446   4.770   3.520  19.508
 8856SOL    HW138447   0.069   3.487  19.482
 8856SOL    HW238448   0.001   3.588  19.572
 8857SOL     OW38449   1.947   2.665  17.773
 8857SOL    HW138450   1.945   2.581  17.726
 8857SOL    HW238451   1.906   2.727  17.713
 8858SOL     OW38452   4.447   2.609   2.634
 8858SOL    HW138453   4.456   2.571   2.546
 8858SOL    HW238454   4.376   2.559   2.675
 8859SOL     OW38455   0.544   3.629   1.195
 8859SOL    HW138456   0.463   3.630   1.144
 8859SOL    HW238457   0.551   3.718   1.229
 8860SOL     OW38458   2.262   3.329   2.841
 8860SOL    HW138459   2.238   3.416   2.811
 8860SOL    HW238460   2.183   3.276   2.829
 8861SOL     OW38461   3.259   1.609  16.497
 8861SOL    HW138462   3.213   1.525  16.495
 8861SOL    HW238463   3.240   1.645  16.584
 8862SOL     OW38464   2.075   0.555  15.295
 8862SOL    HW138465   2.061   0.650  15.292
 8862SOL    HW238466   2.162   0.543  15.256
 8863SOL     OW38467   2.914   4.385  13.373
 8863SOL    HW138468   2.938   4.294  13.388
 8863SOL    HW238469   2.856   4.407  13.446
 8864SOL     OW38470   1.384   0.282   5.745
 8864SOL    HW138471   1.453   0.221   5.773
 8864SOL    HW238472   1.308   0.225   5.728
 8865SOL     OW38473   4.383   2.128  15.145
 8865SOL    HW138474   4.447   2.063  15.175
 8865SOL    HW238475   4.398   2.204  15.201
 8866SOL     OW38476   1.664   0.632  16.346
 8866SOL    HW138477   1.600   0.584  16.293
 8866SOL    HW238478   1.695   0.568  16.410
 8867SOL     OW38479   2.115   0.598  16.236
 8867SOL    HW138480   2.111   0.503  16.250
 8867SOL    HW238481   2.095   0.609  16.143
 8868SOL     OW38482   2.421   2.726   4.888
 8868SOL    HW138483   2.339   2.681   4.908
 8868SOL    HW238484   2.405   2.817   4.912
 8869SOL     OW38485   2.305   2.460  20.318
 8869SOL    HW138486   2.370   2.426  20.380
 8869SOL    HW238487   2.255   2.524  20.369
 8870SOL     OW38488   1.883   3.873   1.807
 8870SOL    HW138489   1.922   3.952   1.769
 8870SOL    HW238490   1.931   3.860   1.889
 8871SOL     OW38491   4.403   4.672  16.242
 8871SOL    HW138492   4.457   4.611  16.293
 8871SOL    HW238493   4.446   4.757  16.254
 8872SOL     OW38494   2.272   3.631  16.424
 8872SOL    HW138495   2.205   3.631  16.493
 8872SOL    HW238496   2.331   3.561  16.448
 8873SOL     OW38497   3.377   0.548   2.846
 8873SOL    HW138498   3.454   0.547   2.789
 8873SOL    HW238499   3.305   0.577   2.790
 8874SOL     OW38500   0.187   0.278  17.811
 8874SOL    HW138501   0.154   0.359  17.850
 8874SOL    HW238502   0.109   0.222  17.802
 8875SOL     OW38503   1.415   2.083   5.751
 8875SOL    HW138504   1.487   2.036   5.793
 8875SOL    HW238505   1.339   2.026   5.763
 8876SOL     OW38506   0.184   2.826   2.361
 8876SOL    HW138507   0.124   2.751   2.358
 8876SOL    HW238508   0.218   2.825   2.450
 8877SOL     OW38509   3.734   3.672  16.636
 8877SOL    HW138510   3.775   3.589  16.612
 8877SOL    HW238511   3.643   3.649  16.655
 8878SOL     OW38512   3.449   3.383   3.245
 8878SOL    HW138513   3.422   3.460   3.195
 8878SOL    HW238514   3.432   3.309   3.187
 8879SOL     OW38515   1.481   3.935  20.501
 8879SOL    HW138516   1.438   3.937  20.416
 8879SOL    HW238517   1.565   3.891  20.485
 8880SOL     OW38518   4.183   3.337   3.002
 8880SOL    HW138519   4.203   3.426   3.033
 8880SOL    HW238520   4.178   3.345   2.907
 8881SOL     OW38521   3.741   3.036  21.044
 8881SOL    HW138522   3.749   3.052  20.950
 8881SOL    HW238523   3.757   3.122  21.084
 8882SOL     OW38524   0.333   3.378  17.240
 8882SOL    HW138525   0.420   3.363  17.279
 8882SOL    HW238526   0.272   3.347  17.306
 8883SOL     OW38527   4.450   4.238   2.807
 8883SOL    HW138528   4.473   4.190   2.727
 8883SOL    HW238529   4.533   4.249   2.853
 8884SOL     OW38530   4.088   1.942   3.772
 8884SOL    HW138531   4.005   1.989   3.762
 8884SOL    HW238532   4.072   1.856   3.735
 8885SOL     OW38533   3.113   1.433   4.655
 8885SOL    HW138534   3.193   1.463   4.611
 8885SOL    HW238535   3.049   1.424   4.584
 8886SOL     OW38536   2.588   2.240  17.004
 8886SOL    HW138537   2.537   2.316  16.974
 8886SOL    HW238538   2.582   2.177  16.932
 8887SOL     OW38539   0.857   0.343  20.293
 8887SOL    HW138540   0.901   0.284  20.233
 8887SOL    HW238541   0.910   0.340  20.373
 8888SOL     OW38542   2.816   1.653   0.840
 8888SOL    HW138543   2.735   1.620   0.880
 8888SOL    HW238544   2.787   1.717   0.776
 8889SOL     OW38545   1.832   3.277   5.835
 8889SOL    HW138546   1.829   3.369   5.859
 8889SOL    HW238547   1.811   3.231   5.917
 8890SOL     OW38548   3.874   2.454  18.385
 8890SOL    HW138549   3.912   2.535  18.350
 8890SOL    HW238550   3.893   2.457  18.479
 8891SOL     OW38551   2.125   1.669   6.781
 8891SOL    HW138552   2.032   1.681   6.797
 8891SOL    HW238553   2.163   1.756   6.793
 8892SOL     OW38554   2.173   1.955  16.202
 8892SOL    HW138555   2.226   1.915  16.133
 8892SOL    HW238556   2.208   1.920  16.284
 8893SOL     OW38557   4.444   0.080   1.764
 8893SOL    HW138558   4.453   0.113   1.853
 8893SOL    HW238559   4.384   0.005   1.772
 8894SOL     OW38560   0.139   0.953   0.391
 8894SOL    HW138561   0.074   0.883   0.387
 8894SOL    HW238562   0.096   1.028   0.350
 8895SOL     OW38563   1.967   1.934  15.689
 8895SOL    HW138564   1.950   1.938  15.595
 8895SOL    HW238565   1.880   1.927  15.729
 8896SOL     OW38566   1.194   4.606   5.385
 8896SOL    HW138567   1.263   4.557   5.430
 8896SOL    HW238568   1.122   4.610   5.448
 8897SOL     OW38569   3.205   2.400  20.696
 8897SOL    HW138570   3.245   2.401  20.609
 8897SOL    HW238571   3.266   2.448  20.751
 8898SOL     OW38572   3.972   1.795  19.777
 8898SOL    HW138573   3.950   1.813  19.869
 8898SOL    HW238574   3.977   1.882  19.736
 8899SOL     OW38575   3.251   2.251  15.600
 8899SOL    HW138576   3.191   2.177  15.604
 8899SOL    HW238577   3.335   2.215  15.630
 8900SOL     OW38578   0.050   2.286   7.420
 8900SOL    HW138579   4.784   2.326   7.352
 8900SOL    HW238580   0.076   2.201   7.384
 8901SOL     OW38581   4.308   4.370  15.363
 8901SOL    HW138582   4.321   4.374  15.268
 8901SOL    HW238583   4.214   4.377  15.375
 8902SOL     OW38584   2.905   1.412   4.887
 8902SOL    HW138585   2.942   1.413   4.799
 8902SOL    HW238586   2.974   1.376   4.942
 8903SOL     OW38587   3.848   2.327  20.434
 8903SOL    HW138588   3.918   2.275  20.394
 8903SOL    HW238589   3.807   2.372  20.360
 8904SOL     OW38590   0.809   3.585   2.262
 8904SOL    HW138591   0.717   3.607   2.246
 8904SOL    HW238592   0.821   3.501   2.218
 8905SOL     OW38593   0.510   4.778  19.533
 8905SOL    HW138594   0.469   4.692  19.526
 8905SOL    HW238595   0.541   0.010  19.444
 8906SOL     OW38596   1.317   3.394   6.863
 8906SOL    HW138597   1.235   3.390   6.913
 8906SOL    HW238598   1.352   3.481   6.882
 8907SOL     OW38599   3.796   3.360  12.652
 8907SOL    HW138600   3.852   3.283  12.657
 8907SOL    HW238601   3.767   3.375  12.742
 8908SOL     OW38602   0.114   3.327   2.418
 8908SOL    HW138603   0.088   3.237   2.396
 8908SOL    HW238604   0.054   3.353   2.488
 8909SOL     OW38605   4.708   3.580   6.607
 8909SOL    HW138606   4.654   3.547   6.535
 8909SOL    HW238607   4.669   3.665   6.629
 8910SOL     OW38608   0.321   1.472   2.584
 8910SOL    HW138609   0.279   1.540   2.531
 8910SOL    HW238610   0.386   1.519   2.636
 8911SOL     OW38611   2.147   4.762   0.203
 8911SOL    HW138612   2.183   0.056   0.169
 8911SOL    HW238613   2.178   4.695   0.142
 8912SOL     OW38614   1.437   0.504  17.814
 8912SOL    HW138615   1.393   0.589  17.817
 8912SOL    HW238616   1.421   0.465  17.899
 8913SOL     OW38617   4.088   3.053   1.628
 8913SOL    HW138618   4.084   3.140   1.669
 8913SOL    HW238619   4.146   3.003   1.684
 8914SOL     OW38620   0.946   2.590  19.367
 8914SOL    HW138621   1.030   2.630  19.391
 8914SOL    HW238622   0.970   2.517  19.310
 8915SOL     OW38623   3.179   4.301  19.769
 8915SOL    HW138624   3.249   4.268  19.825
 8915SOL    HW238625   3.224   4.353  19.702
 8916SOL     OW38626   1.537   0.914   5.833
 8916SOL    HW138627   1.567   0.997   5.871
 8916SOL    HW238628   1.582   0.910   5.748
 8917SOL     OW38629   2.545   4.737   1.309
 8917SOL    HW138630   2.474   4.679   1.335
 8917SOL    HW238631   2.613   4.678   1.276
 8918SOL     OW38632   2.010   4.253   7.184
 8918SOL    HW138633   1.970   4.334   7.216
 8918SOL    HW238634   2.033   4.271   7.093
 8919SOL     OW38635   3.367   1.658  18.389
 8919SOL    HW138636   3.321   1.729  18.436
 8919SOL    HW238637   3.350   1.677  18.296
 8920SOL     OW38638   0.602   2.293   4.109
 8920SOL    HW138639   0.518   2.248   4.112
 8920SOL    HW238640   0.637   2.287   4.198
 8921SOL     OW38641   1.829   3.505  14.984
 8921SOL    HW138642   1.768   3.487  14.912
 8921SOL    HW238643   1.902   3.445  14.969
 8922SOL     OW38644   1.489   3.698   6.263
 8922SOL    HW138645   1.510   3.787   6.292
 8922SOL    HW238646   1.410   3.675   6.311
 8923SOL     OW38647   4.415   0.343   5.779
 8923SOL    HW138648   4.337   0.379   5.736
 8923SOL    HW238649   4.385   0.317   5.866
 8924SOL     OW38650   3.670   1.123  18.229
 8924SOL    HW138651   3.622   1.181  18.170
 8924SOL    HW238652   3.604   1.060  18.258
 8925SOL     OW38653   2.532   3.790  16.619
 8925SOL    HW138654   2.618   3.802  16.579
 8925SOL    HW238655   2.492   3.877  16.616
 8926SOL     OW38656   2.444   1.887   5.641
 8926SOL    HW138657   2.401   1.835   5.574
 8926SOL    HW238658   2.384   1.884   5.716
 8927SOL     OW38659   0.099   0.804   2.526
 8927SOL    HW138660   0.107   0.893   2.559
 8927SOL    HW238661   0.008   0.798   2.495
 8928SOL     OW38662   0.478   2.340   2.549
 8928SOL    HW138663   0.558   2.392   2.561
 8928SOL    HW238664   0.437   2.377   2.471
 8929SOL     OW38665   3.578   2.281   8.967
 8929SOL    HW138666   3.630   2.218   9.017
 8929SOL    HW238667   3.556   2.349   9.030
 8930SOL     OW38668   0.431   0.334  10.984
 8930SOL    HW138669   0.401   0.296  10.902
 8930SOL    HW238670   0.406   0.426  10.978
 8931SOL     OW38671   1.120   0.050  12.284
 8931SOL    HW138672   1.069   4.759  12.264
 8931SOL    HW238673   1.145   0.084  12.198
 8932SOL     OW38674   3.715   2.228  17.571
 8932SOL    HW138675   3.695   2.258  17.659
 8932SOL    HW238676   3.809   2.244  17.562
 8933SOL     OW38677   4.548   2.140  18.996
 8933SOL    HW138678   4.487   2.172  18.929
 8933SOL    HW238679   4.609   2.213  19.009
 8934SOL     OW38680   4.237   0.036   1.491
 8934SOL    HW138681   4.195   4.766   1.555
 8934SOL    HW238682   4.256   0.116   1.540
 8935SOL     OW38683   2.102   3.851  20.495
 8935SOL    HW138684   2.045   3.775  20.484
 8935SOL    HW238685   2.076   3.888  20.579
 8936SOL     OW38686   0.865   1.313  19.922
 8936SOL    HW138687   0.938   1.323  19.982
 8936SOL    HW238688   0.876   1.383  19.858
 8937SOL     OW38689   0.848   3.686   6.580
 8937SOL    HW138690   0.844   3.702   6.674
 8937SOL    HW238691   0.873   3.594   6.573
 8938SOL     OW38692   2.803   2.611   3.839
 8938SOL    HW138693   2.724   2.558   3.851
 8938SOL    HW238694   2.781   2.672   3.769
 8939SOL     OW38695   1.835   1.413   3.568
 8939SOL    HW138696   1.791   1.415   3.484
 8939SOL    HW238697   1.877   1.327   3.571
 8940SOL     OW38698   1.927   2.069   2.587
 8940SOL    HW138699   2.016   2.103   2.578
 8940SOL    HW238700   1.895   2.062   2.497
 8941SOL     OW38701   2.766   3.920   1.018
 8941SOL    HW138702   2.810   3.980   0.958
 8941SOL    HW238703   2.835   3.890   1.077
 8942SOL     OW38704   0.235   1.631  15.035
 8942SOL    HW138705   0.278   1.695  15.092
 8942SOL    HW238706   0.303   1.603  14.974
 8943SOL     OW38707   3.869   0.916   2.211
 8943SOL    HW138708   3.932   0.895   2.142
 8943SOL    HW238709   3.836   1.003   2.188
 8944SOL     OW38710   2.099   2.674   0.142
 8944SOL    HW138711   2.054   2.755   0.168
 8944SOL    HW238712   2.190   2.702   0.127
 8945SOL     OW38713   3.000   1.863  16.783
 8945SOL    HW138714   3.051   1.799  16.831
 8945SOL    HW238715   2.911   1.856  16.819
 8946SOL     OW38716   1.721   0.754   1.330
 8946SOL    HW138717   1.627   0.771   1.328
 8946SOL    HW238718   1.759   0.835   1.365
 8947SOL     OW38719   4.365   1.212   3.615
 8947SOL    HW138720   4.327   1.205   3.703
 8947SOL    HW238721   4.304   1.267   3.567
 8948SOL     OW38722   3.933   2.388   8.578
 8948SOL    HW138723   3.885   2.356   8.654
 8948SOL    HW238724   4.020   2.349   8.586
 8949SOL     OW38725   2.541   3.222   9.226
 8949SOL    HW138726   2.583   3.284   9.285
 8949SOL    HW238727   2.553   3.259   9.138
 8950SOL     OW38728   1.701   0.145  14.368
 8950SOL    HW138729   1.646   0.179  14.439
 8950SOL    HW238730   1.770   0.095  14.413
 8951SOL     OW38731   1.818   1.731   7.269
 8951SOL    HW138732   1.891   1.756   7.325
 8951SOL    HW238733   1.798   1.640   7.295
 8952SOL     OW38734   0.345   0.536  18.114
 8952SOL    HW138735   0.323   0.629  18.114
 8952SOL    HW238736   0.422   0.530  18.059
 8953SOL     OW38737   2.002   3.312  18.940
 8953SOL    HW138738   1.942   3.255  18.892
 8953SOL    HW238739   1.967   3.315  19.029
 8954SOL     OW38740   3.665   4.302   5.726
 8954SOL    HW138741   3.641   4.212   5.707
 8954SOL    HW238742   3.629   4.353   5.654
 8955SOL     OW38743   0.908   4.214  19.238
 8955SOL    HW138744   0.963   4.212  19.316
 8955SOL    HW238745   0.957   4.269  19.176
 8956SOL     OW38746   0.426   1.335  18.536
 8956SOL    HW138747   0.459   1.245  18.545
 8956SOL    HW238748   0.491   1.379  18.482
 8957SOL     OW38749   4.745   4.012   0.166
 8957SOL    HW138750   4.774   3.988   0.078
 8957SOL    HW238751   4.777   4.101   0.178
 8958SOL     OW38752   0.627   2.725   0.125
 8958SOL    HW138753   0.605   2.789   0.193
 8958SOL    HW238754   0.653   2.646   0.174
 8959SOL     OW38755   0.674   1.459  17.108
 8959SOL    HW138756   0.637   1.373  17.086
 8959SOL    HW238757   0.625   1.521  17.054
 8960SOL     OW38758   3.555   1.450   4.428
 8960SOL    HW138759   3.536   1.478   4.518
 8960SOL    HW238760   3.521   1.520   4.373
 8961SOL     OW38761   1.205   4.184   4.015
 8961SOL    HW138762   1.205   4.130   3.936
 8961SOL    HW238763   1.184   4.123   4.086
 8962SOL     OW38764   0.617   2.079  15.719
 8962SOL    HW138765   0.641   2.171  15.704
 8962SOL    HW238766   0.594   2.047  15.632
 8963SOL     OW38767   2.573   1.523   4.123
 8963SOL    HW138768   2.667   1.506   4.131
 8963SOL    HW238769   2.560   1.608   4.165
 8964SOL     OW38770   1.845   4.694   2.280
 8964SOL    HW138771   1.890   4.628   2.333
 8964SOL    HW238772   1.915   4.739   2.234
 8965SOL     OW38773   4.283   2.423  21.059
 8965SOL    HW138774   4.265   2.421  21.153
 8965SOL    HW238775   4.367   2.467  21.052
 8966SOL     OW38776   2.079   4.645  14.551
 8966SOL    HW138777   2.072   4.566  14.497
 8966SOL    HW238778   2.162   4.684  14.525
 8967SOL     OW38779   0.431   2.761   2.654
 8967SOL    HW138780   0.371   2.820   2.701
 8967SOL    HW238781   0.408   2.674   2.685
 8968SOL     OW38782   3.383   0.134   4.141
 8968SOL    HW138783   3.429   0.211   4.106
 8968SOL    HW238784   3.379   0.150   4.235
 8969SOL     OW38785   2.520   0.613   2.388
 8969SOL    HW138786   2.442   0.617   2.332
 8969SOL    HW238787   2.572   0.542   2.351
 8970SOL     OW38788   1.592   2.222   4.564
 8970SOL    HW138789   1.684   2.195   4.561
 8970SOL    HW238790   1.591   2.309   4.525
 8971SOL     OW38791   4.623   3.007   0.860
 8971SOL    HW138792   4.592   3.074   0.798
 8971SOL    HW238793   4.691   2.960   0.812
 8972SOL     OW38794   1.549   3.970   3.619
 8972SOL    HW138795   1.575   4.030   3.549
 8972SOL    HW238796   1.632   3.940   3.656
 8973SOL     OW38797   4.271   0.710  16.746
 8973SOL    HW138798   4.267   0.777  16.815
 8973SOL    HW238799   4.338   0.649  16.777
 8974SOL     OW38800   0.163   3.545   0.866
 8974SOL    HW138801   0.198   3.462   0.834
 8974SOL    HW238802   0.221   3.611   0.829
 8975SOL     OW38803   2.325   1.353   0.077
 8975SOL    HW138804   2.298   1.422   0.138
 8975SOL    HW238805   2.354   1.282   0.134
 8976SOL     OW38806   0.346   0.494  13.354
 8976SOL    HW138807   0.271   0.460  13.404
 8976SOL    HW238808   0.308   0.558  13.294
 8977SOL     OW38809   1.012   3.194  20.288
 8977SOL    HW138810   1.030   3.142  20.366
 8977SOL    HW238811   0.954   3.264  20.319
 8978SOL     OW38812   2.596   4.356  15.938
 8978SOL    HW138813   2.601   4.369  15.843
 8978SOL    HW238814   2.613   4.263  15.951
 8979SOL     OW38815   2.724   2.414   4.532
 8979SOL    HW138816   2.652   2.470   4.560
 8979SOL    HW238817   2.802   2.456   4.567
 8980SOL     OW38818   3.272   2.272   4.757
 8980SOL    HW138819   3.259   2.356   4.801
 8980SOL    HW238820   3.360   2.279   4.720
 8981SOL     OW38821   2.088   2.759   6.618
 8981SOL    HW138822   2.041   2.842   6.609
 8981SOL    HW238823   2.114   2.755   6.710
 8982SOL     OW38824   4.744   1.459   5.751
 8982SOL    HW138825   4.668   1.461   5.809
 8982SOL    HW238826   0.021   1.514   5.796
 8983SOL     OW38827   2.678   2.632  17.479
 8983SOL    HW138828   2.740   2.560  17.482
 8983SOL    HW238829   2.707   2.686  17.406
 8984SOL     OW38830   4.677   2.075   0.350
 8984SOL    HW138831   4.702   2.155   0.304
 8984SOL    HW238832   4.755   2.052   0.401
 8985SOL     OW38833   2.985   3.443   0.418
 8985SOL    HW138834   2.895   3.412   0.425
 8985SOL    HW238835   2.992   3.511   0.486
 8986SOL     OW38836   3.735   3.354  20.165
 8986SOL    HW138837   3.737   3.352  20.069
 8986SOL    HW238838   3.660   3.409  20.186
 8987SOL     OW38839   3.176   1.354   5.156
 8987SOL    HW138840   3.086   1.342   5.184
 8987SOL    HW238841   3.175   1.332   5.063
 8988SOL     OW38842   4.045   0.601  16.563
 8988SOL    HW138843   3.985   0.548  16.615
 8988SOL    HW238844   4.128   0.595  16.610
 8989SOL     OW38845   3.636   0.018  19.550
 8989SOL    HW138846   3.676   4.736  19.603
 8989SOL    HW238847   3.651   0.098  19.601
 8990SOL     OW38848   2.866   2.912  18.210
 8990SOL    HW138849   2.888   2.827  18.171
 8990SOL    HW238850   2.772   2.907  18.226
 8991SOL     OW38851   1.083   0.412  17.922
 8991SOL    HW138852   1.129   0.384  17.843
 8991SOL    HW238853   0.990   0.410  17.897
 8992SOL     OW38854   2.099   0.400   2.425
 8992SOL    HW138855   2.083   0.483   2.381
 8992SOL    HW238856   2.185   0.409   2.464
 8993SOL     OW38857   1.664   3.735  14.972
 8993SOL    HW138858   1.740   3.679  14.990
 8993SOL    HW238859   1.594   3.673  14.950
 8994SOL     OW38860   1.070   0.943   7.916
 8994SOL    HW138861   1.065   0.984   8.002
 8994SOL    HW238862   0.981   0.947   7.882
 8995SOL     OW38863   1.058   1.506   8.023
 8995SOL    HW138864   1.108   1.579   8.059
 8995SOL    HW238865   1.002   1.546   7.956
 8996SOL     OW38866   1.049   3.691   1.862
 8996SOL    HW138867   1.053   3.647   1.947
 8996SOL    HW238868   1.015   3.625   1.802
 8997SOL     OW38869   0.280   0.140  11.547
 8997SOL    HW138870   0.309   0.125  11.637
 8997SOL    HW238871   0.186   0.124  11.549
 8998SOL     OW38872   3.188   0.421   9.786
 8998SOL    HW138873   3.175   0.391   9.876
 8998SOL    HW238874   3.183   0.517   9.792
 8999SOL     OW38875   4.104   2.143  20.804
 8999SOL    HW138876   4.190   2.144  20.763
 8999SOL    HW238877   4.078   2.235  20.806
 9000SOL     OW38878   3.170   1.084  10.192
 9000SOL    HW138879   3.193   1.121  10.277
 9000SOL    HW238880   3.239   1.115  10.133
 9001SOL     OW38881   1.741   0.524   5.535
 9001SOL    HW138882   1.796   0.463   5.584
 9001SOL    HW238883   1.743   0.604   5.587
 9002SOL     OW38884   4.769   3.577  11.120
 9002SOL    HW138885   4.738   3.637  11.189
 9002SOL    HW238886   0.010   3.634  11.049
 9003SOL     OW38887   2.592   0.772   8.628
 9003SOL    HW138888   2.640   0.846   8.589
 9003SOL    HW238889   2.575   0.713   8.554
 9004SOL     OW38890   2.102   1.437   8.643
 9004SOL    HW138891   2.149   1.504   8.692
 9004SOL    HW238892   2.109   1.358   8.697
 9005SOL     OW38893   2.503   2.095   7.653
 9005SOL    HW138894   2.514   2.003   7.629
 9005SOL    HW238895   2.455   2.093   7.736
 9006SOL     OW38896   4.352   1.165   8.759
 9006SOL    HW138897   4.380   1.076   8.736
 9006SOL    HW238898   4.261   1.154   8.787
 9007SOL     OW38899   1.942   0.946   9.827
 9007SOL    HW138900   1.995   0.974   9.753
 9007SOL    HW238901   1.933   1.025   9.881
 9008SOL     OW38902   4.723   0.563   8.583
 9008SOL    HW138903   4.755   0.476   8.607
 9008SOL    HW238904   4.661   0.586   8.652
 9009SOL     OW38905   0.555   0.543   9.764
 9009SOL    HW138906   0.511   0.475   9.816
 9009SOL    HW238907   0.645   0.542   9.796
 9010SOL     OW38908   3.868   0.456  10.165
 9010SOL    HW138909   3.804   0.516  10.203
 9010SOL    HW238910   3.901   0.405  10.239
 9011SOL     OW38911   3.849   4.599   8.775
 9011SOL    HW138912   3.825   4.551   8.696
 9011SOL    HW238913   3.933   4.561   8.801
 9012SOL     OW38914   1.611   0.918  10.537
 9012SOL    HW138915   1.701   0.938  10.513
 9012SOL    HW238916   1.564   1.001  10.528
 9013SOL     OW38917   4.374   0.413   9.536
 9013SOL    HW138918   4.315   0.471   9.585
 9013SOL    HW238919   4.383   0.336   9.593
 9014SOL     OW38920   3.960   0.297  10.369
 9014SOL    HW138921   4.047   0.279  10.403
 9014SOL    HW238922   3.906   0.225  10.402
 9015SOL     OW38923   0.505   0.786  10.298
 9015SOL    HW138924   0.562   0.855  10.265
 9015SOL    HW238925   0.417   0.825  10.298
 9016SOL     OW38926   0.434   0.319   9.863
 9016SOL    HW138927   0.506   0.257   9.868
 9016SOL    HW238928   0.360   0.268   9.830
 9017SOL     OW38929   2.385   0.473  10.084
 9017SOL    HW138930   2.311   0.424  10.120
 9017SOL    HW238931   2.345   0.538  10.027
 9018SOL     OW38932   1.531   0.980   8.498
 9018SOL    HW138933   1.509   1.073   8.493
 9018SOL    HW238934   1.479   0.940   8.427
 9019SOL     OW38935   0.486   0.104  12.226
 9019SOL    HW138936   0.578   0.080  12.213
 9019SOL    HW238937   0.451   0.115  12.138
 9020SOL     OW38938   0.837   1.366  10.037
 9020SOL    HW138939   0.873   1.333  10.119
 9020SOL    HW238940   0.874   1.454  10.028
 9021SOL     OW38941   0.877   4.757   9.385
 9021SOL    HW138942   0.867   4.703   9.307
 9021SOL    HW238943   0.970   4.778   9.387
 9022SOL     OW38944   4.471   3.995  10.472
 9022SOL    HW138945   4.381   3.995  10.437
 9022SOL    HW238946   4.479   4.078  10.518
 9023SOL     OW38947   0.610   1.250  10.261
 9023SOL    HW138948   0.528   1.291  10.288
 9023SOL    HW238949   0.618   1.272  10.168
 9024SOL     OW38950   2.988   0.893  10.173
 9024SOL    HW138951   3.048   0.964  10.197
 9024SOL    HW238952   2.905   0.937  10.156
 9025SOL     OW38953   4.545   4.482  11.146
 9025SOL    HW138954   4.554   4.387  11.143
 9025SOL    HW238955   4.555   4.505  11.238
 9026SOL     OW38956   1.566   1.264  10.337
 9026SOL    HW138957   1.637   1.328  10.334
 9026SOL    HW238958   1.587   1.202  10.267
 9027SOL     OW38959   1.773   1.570   9.856
 9027SOL    HW138960   1.778   1.634   9.785
 9027SOL    HW238961   1.861   1.567   9.893
 9028SOL     OW38962   1.576   1.548  14.086
 9028SOL    HW138963   1.567   1.457  14.115
 9028SOL    HW238964   1.550   1.547  13.994
 9029SOL     OW38965   3.205   4.283   9.522
 9029SOL    HW138966   3.141   4.212   9.513
 9029SOL    HW238967   3.163   4.359   9.481
 9030SOL     OW38968   0.334   4.459  10.700
 9030SOL    HW138969   0.259   4.429  10.753
 9030SOL    HW238970   0.302   4.538  10.657
 9031SOL     OW38971   4.331   4.589  10.200
 9031SOL    HW138972   4.400   4.605  10.135
 9031SOL    HW238973   4.306   4.676  10.229
 9032SOL     OW38974   4.242   0.065  10.435
 9032SOL    HW138975   4.221   0.095  10.347
 9032SOL    HW238976   4.198   0.128  10.493
 9033SOL     OW38977   2.027   2.272  12.421
 9033SOL    HW138978   2.034   2.255  12.515
 9033SOL    HW238979   1.947   2.228  12.394
 9034SOL     OW38980   4.787   2.161  12.933
 9034SOL    HW138981   0.001   2.254  12.956
 9034SOL    HW238982   4.740   2.119  13.005
 9035SOL     OW38983   2.188   3.586  19.199
 9035SOL    HW138984   2.112   3.597  19.142
 9035SOL    HW238985   2.192   3.492  19.215
 9036SOL     OW38986   1.242   1.652  11.096
 9036SOL    HW138987   1.200   1.582  11.046
 9036SOL    HW238988   1.335   1.631  11.093
 9037SOL     OW38989   0.294   3.997  18.588
 9037SOL    HW138990   0.218   4.055  18.589
 9037SOL    HW238991   0.369   4.055  18.603
 9038SOL     OW38992   0.788   0.548   9.868
 9038SOL    HW138993   0.819   0.468   9.909
 9038SOL    HW238994   0.825   0.546   9.780
 9039SOL     OW38995   0.097   1.471   1.061
 9039SOL    HW138996   0.054   1.524   0.994
 9039SOL    HW238997   0.049   1.388   1.060
 9040SOL     OW38998   4.694   3.759  11.311
 9040SOL    HW138999   4.603   3.744  11.337
 9040SOL    HW239000   4.735   3.795  11.389
 9041SOL     OW39001   1.418   2.745  13.352
 9041SOL    HW139002   1.335   2.769  13.392
 9041SOL    HW239003   1.402   2.658  13.315
 9042SOL     OW39004   0.119   0.238  10.286
 9042SOL    HW139005   0.181   0.275  10.224
 9042SOL    HW239006   0.118   0.144  10.267
 9043SOL     OW39007   2.883   0.533  12.861
 9043SOL    HW139008   2.823   0.461  12.878
 9043SOL    HW239009   2.932   0.544  12.942
 9044SOL     OW39010   0.172   0.253  10.550
 9044SOL    HW139011   0.256   0.298  10.560
 9044SOL    HW239012   0.162   0.243  10.455
 9045SOL     OW39013   3.991   1.532  12.791
 9045SOL    HW139014   3.941   1.605  12.755
 9045SOL    HW239015   4.003   1.553  12.883
 9046SOL     OW39016   3.547   0.723   3.014
 9046SOL    HW139017   3.469   0.670   3.028
 9046SOL    HW239018   3.543   0.791   3.081
 9047SOL     OW39019   4.068   3.157  11.106
 9047SOL    HW139020   4.044   3.080  11.054
 9047SOL    HW239021   4.005   3.224  11.080
 9048SOL     OW39022   0.895   1.145  20.689
 9048SOL    HW139023   0.975   1.181  20.651
 9048SOL    HW239024   0.923   1.062  20.728
 9049SOL     OW39025   1.810   1.717  14.119
 9049SOL    HW139026   1.744   1.651  14.097
 9049SOL    HW239027   1.760   1.793  14.149
 9050SOL     OW39028   3.895   4.487   9.733
 9050SOL    HW139029   3.975   4.537   9.749
 9050SOL    HW239030   3.858   4.473   9.820
 9051SOL     OW39031   2.974   4.261  15.742
 9051SOL    HW139032   2.952   4.354  15.729
 9051SOL    HW239033   2.916   4.215  15.682
 9052SOL     OW39034   4.432   2.293  12.949
 9052SOL    HW139035   4.493   2.299  13.023
 9052SOL    HW239036   4.453   2.370  12.896
 9053SOL     OW39037   0.634   1.532  12.711
 9053SOL    HW139038   0.684   1.608  12.742
 9053SOL    HW239039   0.546   1.566  12.697
 9054SOL     OW39040   0.619   0.379  11.582
 9054SOL    HW139041   0.618   0.293  11.622
 9054SOL    HW239042   0.657   0.365  11.495
 9055SOL     OW39043   0.719   1.000  10.330
 9055SOL    HW139044   0.696   1.091  10.309
 9055SOL    HW239045   0.782   0.975  10.262
 9056SOL     OW39046   0.630   1.337  11.151
 9056SOL    HW139047   0.676   1.362  11.231
 9056SOL    HW239048   0.650   1.407  11.089
 9057SOL     OW39049   1.378   0.175   9.955
 9057SOL    HW139050   1.353   0.205  10.042
 9057SOL    HW239051   1.296   0.169   9.907
 9058SOL     OW39052   1.070   0.159  10.108
 9058SOL    HW139053   1.116   0.149  10.192
 9058SOL    HW239054   1.008   0.086  10.107
 9059SOL     OW39055   2.247   0.521  12.920
 9059SOL    HW139056   2.321   0.574  12.950
 9059SOL    HW239057   2.242   0.449  12.983
 9060SOL     OW39058   0.828   1.127  11.302
 9060SOL    HW139059   0.807   1.133  11.396
 9060SOL    HW239060   0.825   1.033  11.284
 9061SOL     OW39061   1.203   1.199   2.735
 9061SOL    HW139062   1.217   1.172   2.825
 9061SOL    HW239063   1.261   1.142   2.683
 9062SOL     OW39064   3.846   4.276  14.517
 9062SOL    HW139065   3.920   4.268  14.457
 9062SOL    HW239066   3.799   4.354  14.486
 9063SOL     OW39067   4.482   2.372   6.345
 9063SOL    HW139068   4.541   2.413   6.409
 9063SOL    HW239069   4.396   2.409   6.365
 9064SOL     OW39070   3.243   2.576  12.169
 9064SOL    HW139071   3.251   2.484  12.191
 9064SOL    HW239072   3.185   2.578  12.093
 9065SOL     OW39073   0.483   0.182  17.095
 9065SOL    HW139074   0.430   0.163  17.173
 9065SOL    HW239075   0.538   0.256  17.121
 9066SOL     OW39076   1.937   1.658  20.187
 9066SOL    HW139077   1.918   1.736  20.239
 9066SOL    HW239078   1.862   1.600  20.201
 9067SOL     OW39079   0.216   0.669   0.032
 9067SOL    HW139080   0.232   0.623  21.198
 9067SOL    HW239081   0.215   0.600   0.098
 9068SOL     OW39082   1.317   2.032   2.816
 9068SOL    HW139083   1.326   2.015   2.722
 9068SOL    HW239084   1.377   2.105   2.832
 9069SOL     OW39085   0.324   0.361  10.107
 9069SOL    HW139086   0.351   0.347  10.016
 9069SOL    HW239087   0.386   0.426  10.141
 9070SOL     OW39088   4.147   2.676  16.544
 9070SOL    HW139089   4.080   2.664  16.476
 9070SOL    HW239090   4.097   2.700  16.622
 9071SOL     OW39091   3.216   0.710  13.031
 9071SOL    HW139092   3.142   0.767  13.011
 9071SOL    HW239093   3.292   0.768  13.036
 9072SOL     OW39094   1.781   0.709  20.051
 9072SOL    HW139095   1.713   0.742  20.109
 9072SOL    HW239096   1.734   0.649  19.992
 9073SOL     OW39097   2.035   2.431   0.345
 9073SOL    HW139098   2.034   2.505   0.285
 9073SOL    HW239099   2.046   2.469   0.432
 9074SOL     OW39100   0.964   1.485  11.334
 9074SOL    HW139101   0.876   1.451  11.352
 9074SOL    HW239102   1.009   1.413  11.289
 9075SOL     OW39103   2.797   0.893   5.832
 9075SOL    HW139104   2.775   0.937   5.915
 9075SOL    HW239105   2.716   0.850   5.806
 9076SOL     OW39106   0.475   3.541   6.710
 9076SOL    HW139107   0.390   3.499   6.696
 9076SOL    HW239108   0.454   3.631   6.734
 9077SOL     OW39109   4.125   4.602  16.346
 9077SOL    HW139110   4.140   4.560  16.430
 9077SOL    HW239111   4.212   4.623  16.313
 9078SOL     OW39112   0.923   3.115   3.324
 9078SOL    HW139113   0.953   3.072   3.244
 9078SOL    HW239114   0.828   3.113   3.318
 9079SOL     OW39115   1.336   0.322   3.241
 9079SOL    HW139116   1.307   0.387   3.305
 9079SOL    HW239117   1.259   0.307   3.186
 9080SOL     OW39118   4.415   1.425   1.599
 9080SOL    HW139119   4.488   1.479   1.631
 9080SOL    HW239120   4.415   1.439   1.504
 9081SOL     OW39121   0.792   1.206   3.718
 9081SOL    HW139122   0.715   1.200   3.774
 9081SOL    HW239123   0.800   1.299   3.698
 9082SOL     OW39124   4.281   0.843  19.174
 9082SOL    HW139125   4.352   0.848  19.110
 9082SOL    HW239126   4.304   0.909  19.240
 9083SOL     OW39127   0.232   3.203  18.450
 9083SOL    HW139128   0.194   3.279  18.406
 9083SOL    HW239129   0.320   3.197  18.415
 9084SOL     OW39130   3.036   1.456   2.330
 9084SOL    HW139131   3.018   1.368   2.297
 9084SOL    HW239132   2.986   1.462   2.411
 9085SOL     OW39133   3.155   2.508   4.951
 9085SOL    HW139134   3.066   2.534   4.926
 9085SOL    HW239135   3.148   2.486   5.044
 9086SOL     OW39136   1.198   2.913   3.364
 9086SOL    HW139137   1.205   2.837   3.421
 9086SOL    HW239138   1.162   2.879   3.282
 9087SOL     OW39139   0.265   3.241   2.093
 9087SOL    HW139140   0.269   3.187   2.013
 9087SOL    HW239141   0.200   3.197   2.148
 9088SOL     OW39142   1.632   1.360   3.052
 9088SOL    HW139143   1.683   1.333   2.976
 9088SOL    HW239144   1.564   1.293   3.060
 9089SOL     OW39145   2.947   4.009  18.514
 9089SOL    HW139146   2.942   4.101  18.486
 9089SOL    HW239147   2.960   3.960  18.433
 9090SOL     OW39148   0.482   3.618   0.027
 9090SOL    HW139149   0.541   3.623  21.200
 9090SOL    HW239150   0.397   3.646  21.241
 9091SOL     OW39151   2.250   3.050   2.143
 9091SOL    HW139152   2.271   3.097   2.062
 9091SOL    HW239153   2.335   3.017   2.173
 9092SOL     OW39154   0.570   4.547   4.809
 9092SOL    HW139155   0.529   4.505   4.734
 9092SOL    HW239156   0.560   4.641   4.792
 9093SOL     OW39157   4.344   1.190   8.394
 9093SOL    HW139158   4.278   1.258   8.406
 9093SOL    HW239159   4.419   1.235   8.356
 9094SOL     OW39160   0.266   0.042  16.858
 9094SOL    HW139161   0.173   0.050  16.841
 9094SOL    HW239162   0.273   0.035  16.953
 9095SOL     OW39163   3.145   0.461  15.834
 9095SOL    HW139164   3.214   0.409  15.792
 9095SOL    HW239165   3.094   0.495  15.761
 9096SOL     OW39166   1.449   1.703  18.850
 9096SOL    HW139167   1.533   1.669  18.820
 9096SOL    HW239168   1.402   1.727  18.770
 9097SOL     OW39169   1.794   1.899   0.961
 9097SOL    HW139170   1.820   1.980   1.006
 9097SOL    HW239171   1.699   1.895   0.972
 9098SOL     OW39172   4.463   2.605   3.462
 9098SOL    HW139173   4.373   2.604   3.430
 9098SOL    HW239174   4.501   2.684   3.424
 9099SOL     OW39175   1.515   3.090   5.254
 9099SOL    HW139176   1.543   3.044   5.333
 9099SOL    HW239177   1.549   3.179   5.266
 9100SOL     OW39178   2.910   3.791  19.399
 9100SOL    HW139179   2.987   3.825  19.354
 9100SOL    HW239180   2.852   3.762  19.329
 9101SOL     OW39181   2.410   4.387   3.806
 9101SOL    HW139182   2.491   4.418   3.845
 9101SOL    HW239183   2.394   4.303   3.848
 9102SOL     OW39184   1.024   1.949  19.512
 9102SOL    HW139185   1.039   1.859  19.484
 9102SOL    HW239186   0.986   1.942  19.599
 9103SOL     OW39187   2.912   1.874   1.909
 9103SOL    HW139188   2.923   1.791   1.864
 9103SOL    HW239189   2.829   1.865   1.956
 9104SOL     OW39190   4.324   0.061   0.332
 9104SOL    HW139191   4.273   0.129   0.288
 9104SOL    HW239192   4.316   4.772   0.275
 9105SOL     OW39193   2.320   2.353  13.720
 9105SOL    HW139194   2.257   2.317  13.783
 9105SOL    HW239195   2.406   2.330  13.756
 9106SOL     OW39196   3.427   2.327   0.308
 9106SOL    HW139197   3.421   2.379   0.228
 9106SOL    HW239198   3.352   2.266   0.302
 9107SOL     OW39199   2.339   4.320  20.536
 9107SOL    HW139200   2.359   4.311  20.629
 9107SOL    HW239201   2.357   4.412  20.517
 9108SOL     OW39202   1.352   3.205  13.910
 9108SOL    HW139203   1.427   3.154  13.879
 9108SOL    HW239204   1.388   3.291  13.932
 9109SOL     OW39205   1.147   2.767  18.894
 9109SOL    HW139206   1.164   2.678  18.862
 9109SOL    HW239207   1.068   2.795  18.847
 9110SOL     OW39208   2.591   3.235   4.541
 9110SOL    HW139209   2.571   3.204   4.452
 9110SOL    HW239210   2.610   3.328   4.530
 9111SOL     OW39211   1.543   4.205   3.389
 9111SOL    HW139212   1.591   4.264   3.447
 9111SOL    HW239213   1.606   4.185   3.319
 9112SOL     OW39214   1.248   4.671   6.371
 9112SOL    HW139215   1.233   4.764   6.390
 9112SOL    HW239216   1.176   4.647   6.312
 9113SOL     OW39217   4.303   3.148   6.818
 9113SOL    HW139218   4.261   3.203   6.884
 9113SOL    HW239219   4.341   3.210   6.756
 9114SOL     OW39220   0.897   1.791  20.198
 9114SOL    HW139221   0.948   1.728  20.249
 9114SOL    HW239222   0.862   1.852  20.263
 9115SOL     OW39223   0.467   3.263   3.327
 9115SOL    HW139224   0.549   3.260   3.277
 9115SOL    HW239225   0.452   3.172   3.354
 9116SOL     OW39226   0.346   0.073  11.805
 9116SOL    HW139227   0.321   0.147  11.860
 9116SOL    HW239228   0.426   0.039  11.844
 9117SOL     OW39229   1.823   1.131  16.529
 9117SOL    HW139230   1.794   1.099  16.444
 9117SOL    HW239231   1.850   1.052  16.576
 9118SOL     OW39232   1.797   4.167   1.428
 9118SOL    HW139233   1.758   4.206   1.507
 9118SOL    HW239234   1.880   4.213   1.418
 9119SOL     OW39235   1.460   2.663  15.510
 9119SOL    HW139236   1.480   2.715  15.587
 9119SOL    HW239237   1.365   2.664  15.503
 9120SOL     OW39238   1.190   2.651  19.443
 9120SOL    HW139239   1.261   2.621  19.386
 9120SOL    HW239240   1.198   2.597  19.522
 9121SOL     OW39241   0.328   3.073   1.225
 9121SOL    HW139242   0.243   3.106   1.253
 9121SOL    HW239243   0.328   3.082   1.130
 9122SOL     OW39244   3.884   1.818  15.786
 9122SOL    HW139245   3.819   1.795  15.853
 9122SOL    HW239246   3.930   1.736  15.768
 9123SOL     OW39247   0.241   2.599   4.206
 9123SOL    HW139248   0.179   2.634   4.269
 9123SOL    HW239249   0.206   2.514   4.182
 9124SOL     OW39250   1.372   0.092   8.925
 9124SOL    HW139251   1.436   0.151   8.965
 9124SOL    HW239252   1.313   0.069   8.997
 9125SOL     OW39253   0.770   2.871   5.785
 9125SOL    HW139254   0.744   2.956   5.820
 9125SOL    HW239255   0.860   2.860   5.815
 9126SOL     OW39256   1.596   2.816   1.201
 9126SOL    HW139257   1.625   2.871   1.273
 9126SOL    HW239258   1.515   2.857   1.170
 9127SOL     OW39259   4.763   3.632   1.686
 9127SOL    HW139260   0.039   3.619   1.757
 9127SOL    HW239261   4.732   3.544   1.666
 9128SOL     OW39262   3.814   1.650   3.584
 9128SOL    HW139263   3.909   1.641   3.584
 9128SOL    HW239264   3.799   1.743   3.569
 9129SOL     OW39265   3.624   4.546  16.765
 9129SOL    HW139266   3.711   4.567  16.730
 9129SOL    HW239267   3.619   4.597  16.846
 9130SOL     OW39268   0.519   2.130  15.150
 9130SOL    HW139269   0.462   2.056  15.125
 9130SOL    HW239270   0.604   2.109  15.110
 9131SOL     OW39271   3.319   3.903   4.513
 9131SOL    HW139272   3.377   3.834   4.545
 9131SOL    HW239273   3.323   3.895   4.418
 9132SOL     OW39274   2.024   0.404  17.856
 9132SOL    HW139275   2.008   0.450  17.774
 9132SOL    HW239276   2.111   0.365  17.845
 9133SOL     OW39277   3.472   2.995  17.567
 9133SOL    HW139278   3.475   2.928  17.499
 9133SOL    HW239279   3.467   3.077  17.519
 9134SOL     OW39280   0.443   4.659   8.118
 9134SOL    HW139281   0.473   4.584   8.169
 9134SOL    HW239282   0.382   4.704   8.177
 9135SOL     OW39283   2.230   3.217   8.582
 9135SOL    HW139284   2.293   3.230   8.652
 9135SOL    HW239285   2.281   3.177   8.511
 9136SOL     OW39286   2.840   0.220  21.228
 9136SOL    HW139287   2.844   0.278  21.151
 9136SOL    HW239288   2.927   0.179  21.231
 9137SOL     OW39289   3.098   2.378  15.020
 9137SOL    HW139290   3.135   2.452  15.068
 9137SOL    HW239291   3.133   2.300  15.064
 9138SOL     OW39292   2.964   0.146   6.211
 9138SOL    HW139293   3.004   0.116   6.129
 9138SOL    HW239294   2.895   0.082   6.229
 9139SOL     OW39295   2.909   4.636  18.023
 9139SOL    HW139296   2.824   4.597  18.043
 9139SOL    HW239297   2.955   4.639  18.106
 9140SOL     OW39298   3.617   3.675   5.067
 9140SOL    HW139299   3.609   3.677   4.972
 9140SOL    HW239300   3.685   3.740   5.087
 9141SOL     OW39301   3.817   4.581   1.124
 9141SOL    HW139302   3.806   4.664   1.171
 9141SOL    HW239303   3.867   4.526   1.185
 9142SOL     OW39304   4.690   1.112   2.001
 9142SOL    HW139305   4.605   1.110   2.046
 9142SOL    HW239306   4.740   1.041   2.042
 9143SOL     OW39307   2.341   3.883  19.108
 9143SOL    HW139308   2.368   3.816  19.045
 9143SOL    HW239309   2.295   3.835  19.176
 9144SOL     OW39310   4.352   0.949  16.587
 9144SOL    HW139311   4.369   1.002  16.665
 9144SOL    HW239312   4.328   0.863  16.622
 9145SOL     OW39313   1.331   1.262   8.562
 9145SOL    HW139314   1.346   1.357   8.564
 9145SOL    HW239315   1.241   1.252   8.531
 9146SOL     OW39316   1.867   0.108   5.035
 9146SOL    HW139317   1.881   0.202   5.041
 9146SOL    HW239318   1.811   0.096   4.959
 9147SOL     OW39319   1.860   2.466  19.129
 9147SOL    HW139320   1.784   2.445  19.183
 9147SOL    HW239321   1.935   2.449  19.185
 9148SOL     OW39322   0.402   1.941  20.360
 9148SOL    HW139323   0.335   1.936  20.291
 9148SOL    HW239324   0.362   1.995  20.428
 9149SOL     OW39325   1.435   3.331  16.635
 9149SOL    HW139326   1.469   3.385  16.564
 9149SOL    HW239327   1.441   3.241  16.602
 9150SOL     OW39328   4.295   1.200  21.168
 9150SOL    HW139329   4.264   1.260  21.236
 9150SOL    HW239330   4.291   1.113  21.209
 9151SOL     OW39331   4.251   1.348   4.034
 9151SOL    HW139332   4.208   1.410   4.092
 9151SOL    HW239333   4.302   1.291   4.092
 9152SOL     OW39334   2.793   4.425   1.732
 9152SOL    HW139335   2.863   4.377   1.689
 9152SOL    HW239336   2.759   4.484   1.664
 9153SOL     OW39337   2.770   4.427   2.001
 9153SOL    HW139338   2.804   4.430   1.911
 9153SOL    HW239339   2.816   4.498   2.046
 9154SOL     OW39340   3.014   1.556  18.947
 9154SOL    HW139341   3.054   1.484  18.897
 9154SOL    HW239342   3.068   1.563  19.025
 9155SOL     OW39343   0.485   1.651   4.586
 9155SOL    HW139344   0.527   1.565   4.586
 9155SOL    HW239345   0.550   1.710   4.625
 9156SOL     OW39346   0.629   1.255  13.164
 9156SOL    HW139347   0.612   1.228  13.074
 9156SOL    HW239348   0.656   1.346  13.158
 9157SOL     OW39349   2.652   4.028  20.126
 9157SOL    HW139350   2.593   4.101  20.144
 9157SOL    HW239351   2.608   3.977  20.058
 9158SOL     OW39352   1.409   4.763   3.433
 9158SOL    HW139353   1.405   4.708   3.511
 9158SOL    HW239354   1.496   4.749   3.397
 9159SOL     OW39355   3.784   4.338   1.275
 9159SOL    HW139356   3.689   4.332   1.285
 9159SOL    HW239357   3.810   4.249   1.251
 9160SOL     OW39358   4.607   1.111   2.573
 9160SOL    HW139359   4.554   1.151   2.642
 9160SOL    HW239360   4.558   1.032   2.549
 9161SOL     OW39361   3.306   2.194  14.493
 9161SOL    HW139362   3.371   2.124  14.486
 9161SOL    HW239363   3.326   2.238  14.575
 9162SOL     OW39364   4.264   2.103  16.335
 9162SOL    HW139365   4.218   2.021  16.317
 9162SOL    HW239366   4.291   2.095  16.427
 9163SOL     OW39367   4.516   1.896   2.500
 9163SOL    HW139368   4.470   1.869   2.421
 9163SOL    HW239369   4.479   1.841   2.569
 9164SOL     OW39370   0.865   1.025  16.964
 9164SOL    HW139371   0.846   1.108  16.921
 9164SOL    HW239372   0.797   0.966  16.933
 9165SOL     OW39373   2.891   4.179  17.430
 9165SOL    HW139374   2.972   4.137  17.401
 9165SOL    HW239375   2.920   4.247  17.491
 9166SOL     OW39376   0.507   2.788   5.849
 9166SOL    HW139377   0.582   2.809   5.794
 9166SOL    HW239378   0.465   2.872   5.866
 9167SOL     OW39379   0.750   0.811   3.182
 9167SOL    HW139380   0.755   0.868   3.105
 9167SOL    HW239381   0.829   0.831   3.232
 9168SOL     OW39382   2.704   2.707  14.499
 9168SOL    HW139383   2.701   2.694  14.404
 9168SOL    HW239384   2.637   2.649  14.533
 9169SOL     OW39385   3.293   2.402  20.443
 9169SOL    HW139386   3.247   2.357  20.372
 9169SOL    HW239387   3.267   2.494  20.435
 9170SOL     OW39388   1.293   2.835   1.471
 9170SOL    HW139389   1.369   2.791   1.509
 9170SOL    HW239390   1.283   2.914   1.524
 9171SOL     OW39391   1.552   1.609   3.099
 9171SOL    HW139392   1.520   1.615   3.009
 9171SOL    HW239393   1.592   1.522   3.104
 9172SOL     OW39394   3.527   3.336  16.387
 9172SOL    HW139395   3.517   3.400  16.458
 9172SOL    HW239396   3.613   3.357  16.349
 9173SOL     OW39397   2.768   3.692   1.201
 9173SOL    HW139398   2.695   3.744   1.165
 9173SOL    HW239399   2.763   3.609   1.155
 9174SOL     OW39400   3.177   4.627  18.846
 9174SOL    HW139401   3.212   4.625  18.935
 9174SOL    HW239402   3.163   4.720  18.828
 9175SOL     OW39403   0.888   4.086   0.271
 9175SOL    HW139404   0.978   4.086   0.240
 9175SOL    HW239405   0.887   4.025   0.345
 9176SOL     OW39406   4.316   4.509  14.605
 9176SOL    HW139407   4.252   4.495  14.535
 9176SOL    HW239408   4.401   4.511  14.560
 9177SOL     OW39409   1.937   3.693   4.967
 9177SOL    HW139410   2.006   3.735   4.915
 9177SOL    HW239411   1.912   3.760   5.031
 9178SOL     OW39412   2.212   2.285  21.191
 9178SOL    HW139413   2.208   2.376  21.162
 9178SOL    HW239414   2.231   2.292   0.037
 9179SOL     OW39415   3.244   4.035   7.944
 9179SOL    HW139416   3.305   4.109   7.946
 9179SOL    HW239417   3.181   4.054   8.013
 9180SOL     OW39418   0.983   4.091  16.635
 9180SOL    HW139419   1.049   4.061  16.574
 9180SOL    HW239420   0.902   4.050  16.605
 9181SOL     OW39421   0.741   1.708   2.762
 9181SOL    HW139422   0.810   1.690   2.699
 9181SOL    HW239423   0.671   1.749   2.711
 9182SOL     OW39424   2.214   3.409   3.144
 9182SOL    HW139425   2.228   3.323   3.183
 9182SOL    HW239426   2.225   3.396   3.050
 9183SOL     OW39427   1.246   2.765   5.119
 9183SOL    HW139428   1.230   2.843   5.171
 9183SOL    HW239429   1.159   2.729   5.102
 9184SOL     OW39430   4.117   1.049   8.494
 9184SOL    HW139431   4.199   1.090   8.469
 9184SOL    HW239432   4.129   0.956   8.472
 9185SOL     OW39433   1.641   4.615   4.845
 9185SOL    HW139434   1.589   4.586   4.920
 9185SOL    HW239435   1.577   4.639   4.779
 9186SOL     OW39436   0.949   2.331   3.389
 9186SOL    HW139437   0.855   2.315   3.380
 9186SOL    HW239438   0.986   2.244   3.408
 9187SOL     OW39439   3.736   2.626  18.997
 9187SOL    HW139440   3.664   2.679  19.032
 9187SOL    HW239441   3.803   2.689  18.973
 9188SOL     OW39442   1.781   0.701   2.041
 9188SOL    HW139443   1.829   0.751   1.975
 9188SOL    HW239444   1.742   0.629   1.992
 9189SOL     OW39445   3.388   3.846  21.180
 9189SOL    HW139446   3.348   3.897   0.002
 9189SOL    HW239447   3.314   3.810  21.131
 9190SOL     OW39448   0.135   3.321  15.582
 9190SOL    HW139449   0.211   3.273  15.550
 9190SOL    HW239450   0.161   3.350  15.670
 9191SOL     OW39451   4.452   3.676   3.999
 9191SOL    HW139452   4.513   3.644   4.066
 9191SOL    HW239453   4.504   3.739   3.949
 9192SOL     OW39454   4.071   4.279  13.425
 9192SOL    HW139455   3.986   4.309  13.458
 9192SOL    HW239456   4.049   4.220  13.353
 9193SOL     OW39457   1.325   3.299   3.762
 9193SOL    HW139458   1.356   3.384   3.791
 9193SOL    HW239459   1.396   3.265   3.707
 9194SOL     OW39460   2.965   1.226   2.114
 9194SOL    HW139461   2.877   1.250   2.087
 9194SOL    HW239462   2.957   1.136   2.145
 9195SOL     OW39463   3.236   2.009   3.181
 9195SOL    HW139464   3.206   1.977   3.266
 9195SOL    HW239465   3.310   2.066   3.200
 9196SOL     OW39466   1.219   1.080   7.129
 9196SOL    HW139467   1.291   1.140   7.148
 9196SOL    HW239468   1.144   1.117   7.175
 9197SOL     OW39469   4.546   0.364   2.301
 9197SOL    HW139470   4.523   0.271   2.303
 9197SOL    HW239471   4.641   0.366   2.298
 9198SOL     OW39472   2.868   3.726   5.631
 9198SOL    HW139473   2.915   3.648   5.661
 9198SOL    HW239474   2.805   3.693   5.567
 9199SOL     OW39475   2.470   3.853   5.617
 9199SOL    HW139476   2.493   3.937   5.658
 9199SOL    HW239477   2.545   3.833   5.562
 9200SOL     OW39478   2.820   4.332   5.196
 9200SOL    HW139479   2.725   4.328   5.212
 9200SOL    HW239480   2.850   4.403   5.253
 9201SOL     OW39481   0.651   4.335   3.598
 9201SOL    HW139482   0.739   4.342   3.561
 9201SOL    HW239483   0.595   4.380   3.535
 9202SOL     OW39484   3.942   3.402  15.724
 9202SOL    HW139485   3.917   3.362  15.808
 9202SOL    HW239486   3.881   3.364  15.661
 9203SOL     OW39487   1.919   4.214   4.386
 9203SOL    HW139488   1.889   4.267   4.312
 9203SOL    HW239489   1.890   4.125   4.365
 9204SOL     OW39490   3.545   0.387  17.275
 9204SOL    HW139491   3.592   0.462  17.237
 9204SOL    HW239492   3.464   0.381  17.225
 9205SOL     OW39493   3.941   2.577   2.382
 9205SOL    HW139494   3.872   2.528   2.338
 9205SOL    HW239495   4.022   2.547   2.340
 9206SOL     OW39496   2.807   0.854  20.820
 9206SOL    HW139497   2.846   0.798  20.753
 9206SOL    HW239498   2.840   0.942  20.800
 9207SOL     OW39499   4.635   4.657   4.867
 9207SOL    HW139500   4.622   4.625   4.956
 9207SOL    HW239501   4.728   4.677   4.861
 9208SOL     OW39502   4.281   0.167   4.002
 9208SOL    HW139503   4.233   0.122   3.932
 9208SOL    HW239504   4.219   0.172   4.074
 9209SOL     OW39505   2.691   4.026  14.799
 9209SOL    HW139506   2.704   4.109  14.754
 9209SOL    HW239507   2.605   3.996  14.771
 9210SOL     OW39508   1.005   0.834   5.684
 9210SOL    HW139509   0.954   0.895   5.631
 9210SOL    HW239510   1.078   0.809   5.627
 9211SOL     OW39511   0.706   3.150   1.530
 9211SOL    HW139512   0.789   3.105   1.515
 9211SOL    HW239513   0.641   3.080   1.530
 9212SOL     OW39514   0.303   4.214  16.915
 9212SOL    HW139515   0.306   4.119  16.930
 9212SOL    HW239516   0.352   4.227  16.834
 9213SOL     OW39517   4.614   3.660   5.218
 9213SOL    HW139518   4.565   3.593   5.171
 9213SOL    HW239519   4.595   3.643   5.310
 9214SOL     OW39520   1.271   3.777   1.709
 9214SOL    HW139521   1.306   3.688   1.706
 9214SOL    HW239522   1.184   3.768   1.747
 9215SOL     OW39523   1.477   3.390  16.934
 9215SOL    HW139524   1.441   3.337  17.005
 9215SOL    HW239525   1.427   3.364  16.857
 9216SOL     OW39526   1.883   2.362  20.198
 9216SOL    HW139527   1.823   2.305  20.245
 9216SOL    HW239528   1.830   2.402  20.129
 9217SOL     OW39529   3.136   0.770  17.473
 9217SOL    HW139530   3.154   0.820  17.553
 9217SOL    HW239531   3.201   0.700  17.473
 9218SOL     OW39532   3.852   3.803   4.164
 9218SOL    HW139533   3.862   3.780   4.072
 9218SOL    HW239534   3.876   3.896   4.169
 9219SOL     OW39535   4.771   4.787   4.070
 9219SOL    HW139536   4.695   0.049   4.039
 9219SOL    HW239537   4.756   4.698   4.039
 9220SOL     OW39538   3.739   2.332  12.244
 9220SOL    HW139539   3.650   2.336  12.211
 9220SOL    HW239540   3.792   2.374  12.175
 9221SOL     OW39541   1.558   4.650  18.575
 9221SOL    HW139542   1.539   4.736  18.538
 9221SOL    HW239543   1.521   4.588  18.512
 9222SOL     OW39544   2.645   0.772  15.714
 9222SOL    HW139545   2.723   0.828  15.706
 9222SOL    HW239546   2.572   0.833  15.710
 9223SOL     OW39547   1.994   0.322   4.526
 9223SOL    HW139548   1.971   0.280   4.443
 9223SOL    HW239549   2.044   0.399   4.500
 9224SOL     OW39550   2.454   2.428  17.503
 9224SOL    HW139551   2.510   2.392  17.571
 9224SOL    HW239552   2.495   2.512  17.480
 9225SOL     OW39553   4.125   4.442   3.511
 9225SOL    HW139554   4.068   4.437   3.434
 9225SOL    HW239555   4.089   4.513   3.564
 9226SOL     OW39556   2.256   4.231  20.061
 9226SOL    HW139557   2.220   4.320  20.065
 9226SOL    HW239558   2.180   4.174  20.052
 9227SOL     OW39559   4.739   1.610  18.472
 9227SOL    HW139560   4.746   1.547  18.544
 9227SOL    HW239561   4.664   1.580  18.420
 9228SOL     OW39562   4.333   3.712   3.622
 9228SOL    HW139563   4.403   3.735   3.684
 9228SOL    HW239564   4.349   3.768   3.546
 9229SOL     OW39565   1.123   1.838  20.056
 9229SOL    HW139566   1.087   1.874  19.975
 9229SOL    HW239567   1.047   1.811  20.107
 9230SOL     OW39568   1.269   3.663  20.960
 9230SOL    HW139569   1.355   3.644  20.921
 9230SOL    HW239570   1.207   3.644  20.890
 9231SOL     OW39571   1.867   3.458  15.274
 9231SOL    HW139572   1.850   3.479  15.183
 9231SOL    HW239573   1.910   3.373  15.272
 9232SOL     OW39574   4.284   1.525  15.832
 9232SOL    HW139575   4.327   1.556  15.912
 9232SOL    HW239576   4.299   1.595  15.768
 9233SOL     OW39577   3.563   1.166  20.659
 9233SOL    HW139578   3.572   1.102  20.730
 9233SOL    HW239579   3.520   1.117  20.588
 9234SOL     OW39580   0.785   1.475   5.483
 9234SOL    HW139581   0.875   1.444   5.495
 9234SOL    HW239582   0.740   1.450   5.564
 9235SOL     OW39583   4.776   4.291   0.859
 9235SOL    HW139584   4.787   4.343   0.779
 9235SOL    HW239585   4.705   4.230   0.838
 9236SOL     OW39586   1.259   2.094  20.117
 9236SOL    HW139587   1.247   2.001  20.102
 9236SOL    HW239588   1.170   2.129  20.125
 9237SOL     OW39589   4.247   4.699   2.127
 9237SOL    HW139590   4.325   4.670   2.079
 9237SOL    HW239591   4.277   4.775   2.178
 9238SOL     OW39592   0.113   3.391  18.759
 9238SOL    HW139593   0.092   3.464  18.818
 9238SOL    HW239594   0.126   3.432  18.674
 9239SOL     OW39595   3.398   2.133  16.750
 9239SOL    HW139596   3.323   2.185  16.776
 9239SOL    HW239597   3.459   2.195  16.710
 9240SOL     OW39598   3.495   2.108   3.774
 9240SOL    HW139599   3.403   2.125   3.796
 9240SOL    HW239600   3.524   2.044   3.839
 9241SOL     OW39601   0.543   2.398  17.387
 9241SOL    HW139602   0.483   2.362  17.322
 9241SOL    HW239603   0.630   2.386  17.349
 9242SOL     OW39604   0.464   0.774   2.041
 9242SOL    HW139605   0.401   0.844   2.022
 9242SOL    HW239606   0.443   0.747   2.131
 9243SOL     OW39607   1.796   1.433   5.867
 9243SOL    HW139608   1.715   1.445   5.916
 9243SOL    HW239609   1.779   1.474   5.782
 9244SOL     OW39610   0.990   0.588   4.644
 9244SOL    HW139611   1.035   0.598   4.560
 9244SOL    HW239612   0.936   0.511   4.633
 9245SOL     OW39613   0.903   1.976  17.079
 9245SOL    HW139614   0.810   1.975  17.101
 9245SOL    HW239615   0.946   2.013  17.156
 9246SOL     OW39616   1.503   0.598  15.861
 9246SOL    HW139617   1.534   0.689  15.857
 9246SOL    HW239618   1.425   0.602  15.916
 9247SOL     OW39619   1.477   2.668   5.022
 9247SOL    HW139620   1.486   2.626   5.108
 9247SOL    HW239621   1.402   2.726   5.030
 9248SOL     OW39622   3.963   4.647   3.602
 9248SOL    HW139623   4.014   4.725   3.625
 9248SOL    HW239624   3.884   4.682   3.561
 9249SOL     OW39625   3.418   0.214  16.544
 9249SOL    HW139626   3.460   0.250  16.622
 9249SOL    HW239627   3.452   0.124  16.538
 9250SOL     OW39628   0.520   4.033   0.865
 9250SOL    HW139629   0.497   4.042   0.772
 9250SOL    HW239630   0.561   3.947   0.871
 9251SOL     OW39631   0.029   3.342   3.614
 9251SOL    HW139632   4.750   3.323   3.548
 9251SOL    HW239633   0.011   3.432   3.642
 9252SOL     OW39634   2.435   0.396  21.200
 9252SOL    HW139635   2.419   0.339  21.125
 9252SOL    HW239636   2.364   0.461  21.196
 9253SOL     OW39637   4.591   4.242   4.405
 9253SOL    HW139638   4.643   4.283   4.474
 9253SOL    HW239639   4.515   4.299   4.395
 9254SOL     OW39640   0.856   4.756  19.800
 9254SOL    HW139641   0.766   4.724  19.801
 9254SOL    HW239642   0.883   4.754  19.892
 9255SOL     OW39643   4.026   2.914   3.478
 9255SOL    HW139644   4.021   2.887   3.570
 9255SOL    HW239645   4.073   2.998   3.481
 9256SOL     OW39646   0.233   2.052  11.846
 9256SOL    HW139647   0.241   2.114  11.774
 9256SOL    HW239648   0.308   1.994  11.837
 9257SOL     OW39649   0.963   3.489  18.212
 9257SOL    HW139650   1.010   3.522  18.135
 9257SOL    HW239651   1.022   3.426  18.252
 9258SOL     OW39652   3.503   2.221  15.741
 9258SOL    HW139653   3.499   2.316  15.753
 9258SOL    HW239654   3.578   2.194  15.793
 9259SOL     OW39655   0.612   3.225  16.320
 9259SOL    HW139656   0.522   3.231  16.352
 9259SOL    HW239657   0.610   3.266  16.234
 9260SOL     OW39658   4.185   3.347   0.410
 9260SOL    HW139659   4.182   3.428   0.462
 9260SOL    HW239660   4.273   3.345   0.373
 9261SOL     OW39661   2.711   0.455   5.653
 9261SOL    HW139662   2.675   0.373   5.685
 9261SOL    HW239663   2.680   0.521   5.716
 9262SOL     OW39664   1.507   0.780  15.391
 9262SOL    HW139665   1.510   0.846  15.322
 9262SOL    HW239666   1.422   0.793  15.433
 9263SOL     OW39667   3.114   1.928   3.780
 9263SOL    HW139668   3.029   1.891   3.806
 9263SOL    HW239669   3.173   1.853   3.781
 9264SOL     OW39670   1.980   3.434   4.051
 9264SOL    HW139671   1.927   3.509   4.024
 9264SOL    HW239672   2.003   3.452   4.142
 9265SOL     OW39673   3.461   3.534   4.723
 9265SOL    HW139674   3.502   3.615   4.693
 9265SOL    HW239675   3.374   3.561   4.752
 9266SOL     OW39676   4.418   4.408   5.704
 9266SOL    HW139677   4.457   4.436   5.787
 9266SOL    HW239678   4.327   4.388   5.726
 9267SOL     OW39679   2.613   4.323  17.105
 9267SOL    HW139680   2.608   4.329  17.010
 9267SOL    HW239681   2.607   4.414  17.135
 9268SOL     OW39682   4.767   2.024   2.493
 9268SOL    HW139683   4.682   1.981   2.484
 9268SOL    HW239684   0.015   2.026   2.404
 9269SOL     OW39685   1.248   0.868   5.198
 9269SOL    HW139686   1.188   0.921   5.145
 9269SOL    HW239687   1.334   0.908   5.184
 9270SOL     OW39688   1.851   2.248  13.877
 9270SOL    HW139689   1.942   2.269  13.858
 9270SOL    HW239690   1.852   2.215  13.967
 9271SOL     OW39691   2.206   4.509   5.060
 9271SOL    HW139692   2.181   4.460   4.981
 9271SOL    HW239693   2.132   4.569   5.075
 9272SOL     OW39694   0.032   1.694  21.016
 9272SOL    HW139695   0.065   1.696  20.926
 9272SOL    HW239696   0.110   1.678  21.069
 9273SOL     OW39697   0.966   1.567  17.734
 9273SOL    HW139698   0.885   1.549  17.687
 9273SOL    HW239699   1.005   1.640  17.687
 9274SOL     OW39700   4.075   2.837  15.121
 9274SOL    HW139701   4.002   2.825  15.182
 9274SOL    HW239702   4.075   2.930  15.102
 9275SOL     OW39703   0.797   4.170   2.231
 9275SOL    HW139704   0.780   4.149   2.323
 9275SOL    HW239705   0.819   4.085   2.192
 9276SOL     OW39706   4.214   4.207   5.544
 9276SOL    HW139707   4.169   4.181   5.464
 9276SOL    HW239708   4.149   4.256   5.593
 9277SOL     OW39709   2.666   1.924   8.323
 9277SOL    HW139710   2.757   1.920   8.293
 9277SOL    HW239711   2.654   1.843   8.373
 9278SOL     OW39712   3.541   3.929   2.463
 9278SOL    HW139713   3.450   3.931   2.495
 9278SOL    HW239714   3.545   3.998   2.398
 9279SOL     OW39715   2.662   1.973   7.881
 9279SOL    HW139716   2.669   1.997   7.788
 9279SOL    HW239717   2.690   2.051   7.928
 9280SOL     OW39718   0.666   1.691   4.320
 9280SOL    HW139719   0.597   1.654   4.265
 9280SOL    HW239720   0.620   1.749   4.380
 9281SOL     OW39721   1.818   3.941   5.077
 9281SOL    HW139722   1.726   3.961   5.060
 9281SOL    HW239723   1.866   3.991   5.011
 9282SOL     OW39724   3.227   1.655  17.079
 9282SOL    HW139725   3.202   1.747  17.078
 9282SOL    HW239726   3.230   1.632  17.172
 9283SOL     OW39727   3.480   2.200   8.723
 9283SOL    HW139728   3.525   2.209   8.639
 9283SOL    HW239729   3.543   2.230   8.788
 9284SOL     OW39730   2.382   4.552  14.863
 9284SOL    HW139731   2.382   4.643  14.832
 9284SOL    HW239732   2.473   4.524  14.856
 9285SOL     OW39733   4.033   2.195   4.759
 9285SOL    HW139734   4.054   2.289   4.762
 9285SOL    HW239735   4.093   2.159   4.694
 9286SOL     OW39736   4.770   1.059   5.531
 9286SOL    HW139737   4.706   1.131   5.528
 9286SOL    HW239738   0.017   1.054   5.442
 9287SOL     OW39739   3.155   4.063  17.343
 9287SOL    HW139740   3.200   4.147  17.332
 9287SOL    HW239741   3.116   4.046  17.257
 9288SOL     OW39742   0.019   3.835  20.273
 9288SOL    HW139743   0.016   3.769  20.203
 9288SOL    HW239744   4.716   3.864  20.282
 9289SOL     OW39745   0.409   1.280   4.399
 9289SOL    HW139746   0.336   1.320   4.447
 9289SOL    HW239747   0.385   1.188   4.393
 9290SOL     OW39748   3.187   1.735  20.677
 9290SOL    HW139749   3.235   1.753  20.596
 9290SOL    HW239750   3.252   1.747  20.746
 9291SOL     OW39751   0.872   1.243  19.373
 9291SOL    HW139752   0.837   1.190  19.302
 9291SOL    HW239753   0.963   1.257  19.349
 9292SOL     OW39754   3.521   2.669   6.848
 9292SOL    HW139755   3.571   2.721   6.911
 9292SOL    HW239756   3.536   2.711   6.764
 9293SOL     OW39757   1.554   1.944   2.103
 9293SOL    HW139758   1.636   1.990   2.085
 9293SOL    HW239759   1.501   1.956   2.024
 9294SOL     OW39760   0.076   0.917  15.337
 9294SOL    HW139761   0.108   0.974  15.267
 9294SOL    HW239762   0.116   0.953  15.417
 9295SOL     OW39763   2.586   2.124  13.017
 9295SOL    HW139764   2.675   2.152  12.993
 9295SOL    HW239765   2.531   2.158  12.947
 9296SOL     OW39766   0.746   0.275   1.830
 9296SOL    HW139767   0.713   0.302   1.744
 9296SOL    HW239768   0.745   0.179   1.826
 9297SOL     OW39769   1.572   4.250   5.177
 9297SOL    HW139770   1.566   4.204   5.093
 9297SOL    HW239771   1.582   4.180   5.242
 9298SOL     OW39772   2.082   1.622  18.326
 9298SOL    HW139773   2.114   1.644  18.414
 9298SOL    HW239774   2.148   1.660  18.267
 9299SOL     OW39775   2.600   0.223  14.359
 9299SOL    HW139776   2.585   0.167  14.435
 9299SOL    HW239777   2.526   0.205  14.300
 9300SOL     OW39778   3.072   4.595  21.022
 9300SOL    HW139779   3.041   4.531  20.958
 9300SOL    HW239780   3.165   4.607  21.001
 9301SOL     OW39781   3.939   4.630  14.691
 9301SOL    HW139782   3.908   4.706  14.740
 9301SOL    HW239783   3.928   4.654  14.599
 9302SOL     OW39784   1.432   0.318  17.258
 9302SOL    HW139785   1.336   0.317  17.257
 9302SOL    HW239786   1.455   0.401  17.300
 9303SOL     OW39787   2.914   1.575   6.698
 9303SOL    HW139788   2.993   1.553   6.650
 9303SOL    HW239789   2.855   1.501   6.684
 9304SOL     OW39790   1.273   0.196  20.533
 9304SOL    HW139791   1.201   0.156  20.581
 9304SOL    HW239792   1.351   0.168  20.579
 9305SOL     OW39793   2.799   1.664  14.259
 9305SOL    HW139794   2.752   1.741  14.226
 9305SOL    HW239795   2.845   1.694  14.337
 9306SOL     OW39796   3.792   2.730   4.507
 9306SOL    HW139797   3.844   2.808   4.489
 9306SOL    HW239798   3.857   2.661   4.519
 9307SOL     OW39799   2.903   1.308   2.661
 9307SOL    HW139800   2.868   1.267   2.583
 9307SOL    HW239801   2.826   1.328   2.715
 9308SOL     OW39802   3.580   2.521   2.513
 9308SOL    HW139803   3.637   2.508   2.437
 9308SOL    HW239804   3.596   2.611   2.540
 9309SOL     OW39805   2.970   3.962   5.527
 9309SOL    HW139806   2.956   3.950   5.433
 9309SOL    HW239807   2.920   3.891   5.568
 9310SOL     OW39808   3.078   2.041  17.442
 9310SOL    HW139809   3.160   2.088  17.453
 9310SOL    HW239810   3.049   2.062  17.353
 9311SOL     OW39811   2.149   0.615  18.019
 9311SOL    HW139812   2.131   0.649  17.931
 9311SOL    HW239813   2.097   0.534  18.024
 9312SOL     OW39814   2.149   4.359  14.064
 9312SOL    HW139815   2.226   4.309  14.092
 9312SOL    HW239816   2.170   4.450  14.085
 9313SOL     OW39817   3.659   2.955   0.255
 9313SOL    HW139818   3.623   3.034   0.215
 9313SOL    HW239819   3.742   2.941   0.209
 9314SOL     OW39820   3.650   3.040   4.464
 9314SOL    HW139821   3.569   2.993   4.447
 9314SOL    HW239822   3.627   3.132   4.453
 9315SOL     OW39823   0.775   0.745   1.858
 9315SOL    HW139824   0.741   0.826   1.821
 9315SOL    HW239825   0.705   0.681   1.845
 9316SOL     OW39826   2.965   1.513  17.381
 9316SOL    HW139827   2.917   1.509  17.299
 9316SOL    HW239828   2.898   1.513  17.449
 9317SOL     OW39829   0.255   2.835  15.983
 9317SOL    HW139830   0.186   2.895  16.010
 9317SOL    HW239831   0.210   2.770  15.929
 9318SOL     OW39832   3.204   0.861  17.766
 9318SOL    HW139833   3.145   0.854  17.841
 9318SOL    HW239834   3.237   0.950  17.768
 9319SOL     OW39835   1.147   3.021  15.688
 9319SOL    HW139836   1.110   3.103  15.722
 9319SOL    HW239837   1.169   3.040  15.597
 9320SOL     OW39838   1.189   3.008   5.851
 9320SOL    HW139839   1.136   2.930   5.834
 9320SOL    HW239840   1.195   3.012   5.947
 9321SOL     OW39841   4.188   4.522   2.946
 9321SOL    HW139842   4.137   4.446   2.970
 9321SOL    HW239843   4.172   4.586   3.016
 9322SOL     OW39844   0.520   3.072  21.152
 9322SOL    HW139845   0.508   3.069  21.247
 9322SOL    HW239846   0.545   3.162  21.134
 9323SOL     OW39847   4.497   2.157   4.594
 9323SOL    HW139848   4.551   2.134   4.519
 9323SOL    HW239849   4.517   2.091   4.660
 9324SOL     OW39850   1.340   3.573  17.874
 9324SOL    HW139851   1.321   3.559  17.781
 9324SOL    HW239852   1.259   3.547  17.919
 9325SOL     OW39853   0.479   2.751   3.039
 9325SOL    HW139854   0.448   2.698   2.965
 9325SOL    HW239855   0.552   2.701   3.075
 9326SOL     OW39856   1.308   0.120  16.336
 9326SOL    HW139857   1.256   0.193  16.300
 9326SOL    HW239858   1.265   0.097  16.418
 9327SOL     OW39859   0.865   3.830   0.723
 9327SOL    HW139860   0.796   3.814   0.788
 9327SOL    HW239861   0.920   3.897   0.763
 9328SOL     OW39862   1.722   0.337   7.465
 9328SOL    HW139863   1.630   0.359   7.475
 9328SOL    HW239864   1.748   0.378   7.382
 9329SOL     OW39865   0.180   2.152   0.157
 9329SOL    HW139866   0.185   2.058   0.174
 9329SOL    HW239867   0.138   2.158   0.071
 9330SOL     OW39868   1.229   3.362  19.606
 9330SOL    HW139869   1.201   3.411  19.683
 9330SOL    HW239870   1.291   3.297  19.639
 9331SOL     OW39871   3.764   1.575  17.063
 9331SOL    HW139872   3.836   1.514  17.080
 9331SOL    HW239873   3.685   1.522  17.069
 9332SOL     OW39874   0.155   3.012  12.990
 9332SOL    HW139875   0.237   3.060  12.981
 9332SOL    HW239876   0.182   2.921  13.005
 9333SOL     OW39877   2.544   1.471  16.394
 9333SOL    HW139878   2.455   1.482  16.426
 9333SOL    HW239879   2.583   1.405  16.451
 9334SOL     OW39880   2.719   1.771  18.359
 9334SOL    HW139881   2.718   1.845  18.419
 9334SOL    HW239882   2.779   1.708  18.399
 9335SOL     OW39883   2.615   0.166   5.644
 9335SOL    HW139884   2.533   0.129   5.611
 9335SOL    HW239885   2.666   0.184   5.565
 9336SOL     OW39886   2.795   0.087  17.419
 9336SOL    HW139887   2.848   0.129  17.351
 9336SOL    HW239888   2.710   0.130  17.413
 9337SOL     OW39889   1.174   2.171   6.784
 9337SOL    HW139890   1.163   2.213   6.870
 9337SOL    HW239891   1.151   2.080   6.799
 9338SOL     OW39892   3.895   1.878  20.041
 9338SOL    HW139893   3.858   1.938  20.106
 9338SOL    HW239894   3.917   1.799  20.091
 9339SOL     OW39895   3.509   1.084   0.785
 9339SOL    HW139896   3.551   1.148   0.842
 9339SOL    HW239897   3.541   0.999   0.816
 9340SOL     OW39898   1.903   1.703  17.183
 9340SOL    HW139899   1.961   1.726  17.110
 9340SOL    HW239900   1.820   1.681  17.141
 9341SOL     OW39901   1.696   4.114   0.893
 9341SOL    HW139902   1.636   4.187   0.908
 9341SOL    HW239903   1.740   4.136   0.811
 9342SOL     OW39904   0.671   1.776  13.172
 9342SOL    HW139905   0.766   1.777  13.162
 9342SOL    HW239906   0.642   1.698  13.124
 9343SOL     OW39907   0.789   2.288  13.614
 9343SOL    HW139908   0.753   2.221  13.555
 9343SOL    HW239909   0.765   2.257  13.701
 9344SOL     OW39910   1.119   3.624   0.432
 9344SOL    HW139911   1.212   3.609   0.417
 9344SOL    HW239912   1.088   3.667   0.353
 9345SOL     OW39913   4.094   1.340   0.371
 9345SOL    HW139914   4.045   1.347   0.289
 9345SOL    HW239915   4.169   1.399   0.359
 9346SOL     OW39916   1.672   0.422  15.366
 9346SOL    HW139917   1.673   0.495  15.304
 9346SOL    HW239918   1.763   0.414  15.394
 9347SOL     OW39919   3.508   1.631   7.277
 9347SOL    HW139920   3.419   1.612   7.247
 9347SOL    HW239921   3.497   1.692   7.350
 9348SOL     OW39922   0.966   1.486   1.281
 9348SOL    HW139923   0.986   1.392   1.277
 9348SOL    HW239924   0.943   1.501   1.372
 9349SOL     OW39925   2.834   2.168  20.911
 9349SOL    HW139926   2.769   2.142  20.845
 9349SOL    HW239927   2.907   2.202  20.860
 9350SOL     OW39928   2.266   4.628  15.141
 9350SOL    HW139929   2.329   4.604  15.073
 9350SOL    HW239930   2.318   4.679  15.204
 9351SOL     OW39931   2.122   4.326  13.772
 9351SOL    HW139932   2.128   4.324  13.867
 9351SOL    HW239933   2.028   4.319  13.754
 9352SOL     OW39934   0.504   1.975   6.112
 9352SOL    HW139935   0.485   1.998   6.021
 9352SOL    HW239936   0.420   1.978   6.156
 9353SOL     OW39937   2.727   3.573   0.341
 9353SOL    HW139938   2.648   3.519   0.351
 9353SOL    HW239939   2.749   3.566   0.248
 9354SOL     OW39940   4.057   3.015   8.219
 9354SOL    HW139941   4.027   2.956   8.149
 9354SOL    HW239942   4.003   3.093   8.208
 9355SOL     OW39943   0.155   3.894  16.972
 9355SOL    HW139944   0.233   3.859  17.015
 9355SOL    HW239945   0.094   3.821  16.969
 9356SOL     OW39946   4.392   4.332  19.513
 9356SOL    HW139947   4.307   4.304  19.548
 9356SOL    HW239948   4.406   4.277  19.436
 9357SOL     OW39949   1.258   3.955  19.788
 9357SOL    HW139950   1.216   3.880  19.747
 9357SOL    HW239951   1.215   3.964  19.873
 9358SOL     OW39952   3.391   2.074   2.621
 9358SOL    HW139953   3.433   2.086   2.536
 9358SOL    HW239954   3.441   2.004   2.663
 9359SOL     OW39955   0.904   3.864  15.643
 9359SOL    HW139956   0.991   3.898  15.663
 9359SOL    HW239957   0.844   3.935  15.665
 9360SOL     OW39958   2.445   1.078  15.515
 9360SOL    HW139959   2.534   1.059  15.483
 9360SOL    HW239960   2.428   1.010  15.579
 9361SOL     OW39961   1.058   3.913  17.576
 9361SOL    HW139962   0.971   3.951  17.565
 9361SOL    HW239963   1.107   3.976  17.628
 9362SOL     OW39964   3.839   2.146   1.316
 9362SOL    HW139965   3.903   2.087   1.275
 9362SOL    HW239966   3.802   2.095   1.388
 9363SOL     OW39967   4.573   3.759   3.773
 9363SOL    HW139968   4.602   3.685   3.720
 9363SOL    HW239969   4.633   3.829   3.751
 9364SOL     OW39970   0.831   3.954  19.089
 9364SOL    HW139971   0.843   4.010  19.166
 9364SOL    HW239972   0.799   3.871  19.125
 9365SOL     OW39973   0.286   0.489   3.904
 9365SOL    HW139974   0.280   0.397   3.931
 9365SOL    HW239975   0.195   0.518   3.898
 9366SOL     OW39976   0.450   3.989   0.595
 9366SOL    HW139977   0.394   3.918   0.627
 9366SOL    HW239978   0.394   4.039   0.537
 9367SOL     OW39979   0.919   3.404  15.703
 9367SOL    HW139980   0.946   3.492  15.679
 9367SOL    HW239981   0.912   3.357  15.620
 9368SOL     OW39982   3.763   1.431  15.712
 9368SOL    HW139983   3.709   1.485  15.769
 9368SOL    HW239984   3.849   1.472  15.713
 9369SOL     OW39985   0.031   3.637  14.821
 9369SOL    HW139986   4.747   3.602  14.873
 9369SOL    HW239987   4.781   3.713  14.776
 9370SOL     OW39988   3.271   2.407  16.866
 9370SOL    HW139989   3.298   2.409  16.958
 9370SOL    HW239990   3.175   2.408  16.869
 9371SOL     OW39991   1.711   3.978   6.255
 9371SOL    HW139992   1.761   3.898   6.267
 9371SOL    HW239993   1.762   4.045   6.301
 9372SOL     OW39994   3.784   0.788   1.547
 9372SOL    HW139995   3.808   0.780   1.640
 9372SOL    HW239996   3.831   0.865   1.517
 9373SOL     OW39997   2.115   2.181  15.491
 9373SOL    HW139998   2.045   2.158  15.551
 9373SOL    HW239999   2.194   2.178  15.544
 9374SOL     OW40000   3.553   4.624  15.765
 9374SOL    HW140001   3.511   4.592  15.845
 9374SOL    HW240002   3.617   4.689  15.796
 9375SOL     OW40003   0.152   4.343  20.690
 9375SOL    HW140004   0.117   4.316  20.605
 9375SOL    HW240005   0.144   4.264  20.745
 9376SOL     OW40006   0.679   3.352   6.724
 9376SOL    HW140007   0.738   3.421   6.694
 9376SOL    HW240008   0.597   3.397   6.743
 9377SOL     OW40009   1.991   3.097  19.860
 9377SOL    HW140010   1.963   3.130  19.946
 9377SOL    HW240011   1.911   3.060  19.822
 9378SOL     OW40012   3.401   3.271  19.990
 9378SOL    HW140013   3.429   3.339  20.051
 9378SOL    HW240014   3.311   3.250  20.017
 9379SOL     OW40015   3.156   2.734   6.453
 9379SOL    HW140016   3.082   2.736   6.392
 9379SOL    HW240017   3.186   2.643   6.449
 9380SOL     OW40018   1.818   1.174  17.490
 9380SOL    HW140019   1.819   1.084  17.521
 9380SOL    HW240020   1.774   1.170  17.405
 9381SOL     OW40021   0.925   4.662  15.154
 9381SOL    HW140022   0.972   4.579  15.142
 9381SOL    HW240023   0.844   4.638  15.198
 9382SOL     OW40024   0.909   3.285   8.416
 9382SOL    HW140025   1.003   3.305   8.419
 9382SOL    HW240026   0.905   3.193   8.390
 9383SOL     OW40027   2.716   3.710   0.821
 9383SOL    HW140028   2.743   3.627   0.860
 9383SOL    HW240029   2.783   3.772   0.848
 9384SOL     OW40030   2.187   3.958  18.837
 9384SOL    HW140031   2.219   3.868  18.847
 9384SOL    HW240032   2.092   3.951  18.840
 9385SOL     OW40033   1.018   1.754  20.892
 9385SOL    HW140034   1.008   1.812  20.816
 9385SOL    HW240035   0.991   1.668  20.860
 9386SOL     OW40036   3.957   0.271   0.254
 9386SOL    HW140037   3.901   0.193   0.259
 9386SOL    HW240038   4.012   0.256   0.177
 9387SOL     OW40039   2.543   4.305   6.165
 9387SOL    HW140040   2.558   4.220   6.124
 9387SOL    HW240041   2.472   4.344   6.114
 9388SOL     OW40042   4.171   0.986   5.132
 9388SOL    HW140043   4.175   0.913   5.070
 9388SOL    HW240044   4.193   0.947   5.216
 9389SOL     OW40045   0.755   3.706  11.544
 9389SOL    HW140046   0.796   3.792  11.530
 9389SOL    HW240047   0.727   3.678  11.457
 9390SOL     OW40048   4.422   3.351  16.032
 9390SOL    HW140049   4.378   3.306  15.960
 9390SOL    HW240050   4.443   3.281  16.095
 9391SOL     OW40051   0.629   0.186  11.156
 9391SOL    HW140052   0.566   0.238  11.108
 9391SOL    HW240053   0.714   0.211  11.120
 9392SOL     OW40054   4.462   2.980  20.476
 9392SOL    HW140055   4.423   2.914  20.418
 9392SOL    HW240056   4.445   2.948  20.564
 9393SOL     OW40057   0.713   1.258  16.362
 9393SOL    HW140058   0.697   1.230  16.453
 9393SOL    HW240059   0.708   1.353  16.365
 9394SOL     OW40060   4.112   4.022  18.382
 9394SOL    HW140061   4.124   3.929  18.401
 9394SOL    HW240062   4.184   4.044  18.323
 9395SOL     OW40063   3.560   0.912  15.611
 9395SOL    HW140064   3.599   0.982  15.560
 9395SOL    HW240065   3.527   0.954  15.690
 9396SOL     OW40066   3.704   3.616   3.002
 9396SOL    HW140067   3.651   3.639   3.079
 9396SOL    HW240068   3.702   3.521   2.999
 9397SOL     OW40069   2.276   3.585   1.017
 9397SOL    HW140070   2.301   3.547   0.933
 9397SOL    HW240071   2.231   3.514   1.063
 9398SOL     OW40072   3.275   3.232  18.364
 9398SOL    HW140073   3.205   3.274  18.314
 9398SOL    HW240074   3.269   3.140  18.339
 9399SOL     OW40075   3.466   4.025  11.830
 9399SOL    HW140076   3.469   4.103  11.775
 9399SOL    HW240077   3.415   3.962  11.779
 9400SOL     OW40078   3.508   3.093   1.436
 9400SOL    HW140079   3.582   3.147   1.465
 9400SOL    HW240080   3.542   3.003   1.440
 9401SOL     OW40081   1.480   1.164   0.130
 9401SOL    HW140082   1.458   1.202   0.045
 9401SOL    HW240083   1.497   1.240   0.186
 9402SOL     OW40084   4.187   0.972  18.527
 9402SOL    HW140085   4.112   0.942  18.578
 9402SOL    HW240086   4.211   0.896  18.473
 9403SOL     OW40087   2.466   3.091   7.874
 9403SOL    HW140088   2.387   3.088   7.820
 9403SOL    HW240089   2.433   3.088   7.964
 9404SOL     OW40090   0.705   4.076  20.779
 9404SOL    HW140091   0.774   4.046  20.720
 9404SOL    HW240092   0.642   4.004  20.782
 9405SOL     OW40093   0.077   4.646  16.433
 9405SOL    HW140094   0.143   4.705  16.469
 9405SOL    HW240095   0.046   4.596  16.508
 9406SOL     OW40096   1.843   3.352  20.500
 9406SOL    HW140097   1.921   3.297  20.501
 9406SOL    HW240098   1.817   3.355  20.408
 9407SOL     OW40099   0.007   1.467   5.070
 9407SOL    HW140100   0.100   1.486   5.058
 9407SOL    HW240101   4.752   1.553   5.062
 9408SOL     OW40102   2.837   4.073   4.750
 9408SOL    HW140103   2.769   4.061   4.816
 9408SOL    HW240104   2.904   4.126   4.793
 9409SOL     OW40105   3.636   4.443  18.348
 9409SOL    HW140106   3.576   4.511  18.319
 9409SOL    HW240107   3.659   4.467  18.438
 9410SOL     OW40108   2.526   1.782  15.872
 9410SOL    HW140109   2.552   1.766  15.781
 9410SOL    HW240110   2.535   1.876  15.884
 9411SOL     OW40111   1.560   4.641   2.183
 9411SOL    HW140112   1.589   4.558   2.222
 9411SOL    HW240113   1.497   4.615   2.116
 9412SOL     OW40114   2.258   4.017  16.922
 9412SOL    HW140115   2.164   4.032  16.914
 9412SOL    HW240116   2.269   3.977  17.008
 9413SOL     OW40117   2.173   1.829  17.954
 9413SOL    HW140118   2.200   1.789  17.871
 9413SOL    HW240119   2.077   1.828  17.951
 9414SOL     OW40120   1.235   0.483   5.399
 9414SOL    HW140121   1.205   0.527   5.479
 9414SOL    HW240122   1.255   0.394   5.427
 9415SOL     OW40123   1.214   0.029   9.120
 9415SOL    HW140124   1.162   0.084   9.062
 9415SOL    HW240125   1.178   0.045   9.208
 9416SOL     OW40126   3.707   4.031  19.190
 9416SOL    HW140127   3.623   4.050  19.231
 9416SOL    HW240128   3.772   4.069  19.249
 9417SOL     OW40129   4.336   3.895   5.334
 9417SOL    HW140130   4.287   3.832   5.282
 9417SOL    HW240131   4.341   3.855   5.421
 9418SOL     OW40132   0.686   1.495   1.934
 9418SOL    HW140133   0.602   1.461   1.965
 9418SOL    HW240134   0.663   1.552   1.861
 9419SOL     OW40135   0.724   3.024   6.513
 9419SOL    HW140136   0.633   3.001   6.529
 9419SOL    HW240137   0.721   3.085   6.439
 9420SOL     OW40138   0.376   4.245   0.129
 9420SOL    HW140139   0.385   4.208   0.217
 9420SOL    HW240140   0.284   4.232   0.107
 9421SOL     OW40141   3.192   0.796   5.018
 9421SOL    HW140142   3.160   0.845   5.094
 9421SOL    HW240143   3.113   0.761   4.977
 9422SOL     OW40144   3.747   3.134   2.191
 9422SOL    HW140145   3.789   3.185   2.261
 9422SOL    HW240146   3.677   3.086   2.236
 9423SOL     OW40147   0.470   0.713  13.442
 9423SOL    HW140148   0.467   0.624  13.407
 9423SOL    HW240149   0.393   0.755  13.406
 9424SOL     OW40150   0.060   2.313   2.523
 9424SOL    HW140151   0.096   2.278   2.605
 9424SOL    HW240152   0.001   2.244   2.492
 9425SOL     OW40153   3.086   0.824  16.704
 9425SOL    HW140154   3.125   0.764  16.641
 9425SOL    HW240155   3.020   0.872  16.654
 9426SOL     OW40156   2.425   4.137   1.653
 9426SOL    HW140157   2.380   4.061   1.690
 9426SOL    HW240158   2.355   4.198   1.629
 9427SOL     OW40159   1.836   0.068  20.973
 9427SOL    HW140160   1.780   0.085  20.898
 9427SOL    HW240161   1.907   0.132  20.966
 9428SOL     OW40162   1.950   1.699   0.981
 9428SOL    HW140163   1.910   1.649   1.052
 9428SOL    HW240164   1.898   1.779   0.975
 9429SOL     OW40165   4.313   1.443  20.969
 9429SOL    HW140166   4.295   1.384  21.042
 9429SOL    HW240167   4.373   1.394  20.913
 9430SOL     OW40168   2.688   2.039  16.493
 9430SOL    HW140169   2.615   2.006  16.545
 9430SOL    HW240170   2.723   2.112  16.544
 9431SOL     OW40171   2.866   4.291  18.486
 9431SOL    HW140172   2.894   4.345  18.412
 9431SOL    HW240173   2.773   4.275  18.470
 9432SOL     OW40174   3.863   3.838  18.200
 9432SOL    HW140175   3.870   3.861  18.292
 9432SOL    HW240176   3.769   3.822  18.187
 9433SOL     OW40177   1.055   4.561   4.729
 9433SOL    HW140178   0.978   4.510   4.755
 9433SOL    HW240179   1.109   4.565   4.808
 9434SOL     OW40180   2.386   0.663   4.201
 9434SOL    HW140181   2.316   0.716   4.238
 9434SOL    HW240182   2.341   0.588   4.162
 9435SOL     OW40183   1.526   1.801  20.057
 9435SOL    HW140184   1.539   1.723  20.003
 9435SOL    HW240185   1.501   1.766  20.143
 9436SOL     OW40186   1.865   4.384   5.602
 9436SOL    HW140187   1.794   4.434   5.562
 9436SOL    HW240188   1.884   4.430   5.684
 9437SOL     OW40189   4.583   2.941   2.930
 9437SOL    HW140190   4.648   2.902   2.989
 9437SOL    HW240191   4.579   3.032   2.957
 9438SOL     OW40192   3.560   3.842  19.436
 9438SOL    HW140193   3.606   3.797  19.365
 9438SOL    HW240194   3.514   3.914  19.393
 9439SOL     OW40195   1.883   1.726  17.977
 9439SOL    HW140196   1.791   1.724  17.949
 9439SOL    HW240197   1.924   1.653  17.930
 9440SOL     OW40198   2.789   1.395   3.430
 9440SOL    HW140199   2.720   1.346   3.385
 9440SOL    HW240200   2.851   1.328   3.460
 9441SOL     OW40201   0.157   0.862  14.285
 9441SOL    HW140202   0.074   0.822  14.312
 9441SOL    HW240203   0.219   0.790  14.285
 9442SOL     OW40204   1.377   3.111   2.368
 9442SOL    HW140205   1.302   3.125   2.312
 9442SOL    HW240206   1.355   3.033   2.419
 9443SOL     OW40207   4.272   0.595  11.967
 9443SOL    HW140208   4.263   0.500  11.961
 9443SOL    HW240209   4.365   0.611  11.952
 9444SOL     OW40210   2.542   0.146  16.334
 9444SOL    HW140211   2.566   0.105  16.251
 9444SOL    HW240212   2.449   0.127  16.345
 9445SOL     OW40213   4.639   2.438  19.427
 9445SOL    HW140214   4.586   2.396  19.495
 9445SOL    HW240215   4.603   2.405  19.345
 9446SOL     OW40216   3.540   3.802   1.295
 9446SOL    HW140217   3.547   3.753   1.377
 9446SOL    HW240218   3.567   3.739   1.228
 9447SOL     OW40219   2.123   3.819  13.177
 9447SOL    HW140220   2.136   3.914  13.182
 9447SOL    HW240221   2.206   3.786  13.142
 9448SOL     OW40222   1.902   1.270   5.418
 9448SOL    HW140223   1.832   1.333   5.401
 9448SOL    HW240224   1.888   1.244   5.509
 9449SOL     OW40225   3.121   1.906   6.827
 9449SOL    HW140226   3.066   1.836   6.862
 9449SOL    HW240227   3.095   1.984   6.877
 9450SOL     OW40228   0.186   0.836  18.988
 9450SOL    HW140229   0.204   0.875  19.074
 9450SOL    HW240230   0.095   0.857  18.970
 9451SOL     OW40231   3.223   2.046  20.590
 9451SOL    HW140232   3.282   1.996  20.648
 9451SOL    HW240233   3.140   2.048  20.637
 9452SOL     OW40234   1.966   2.676   2.185
 9452SOL    HW140235   1.890   2.689   2.128
 9452SOL    HW240236   1.958   2.586   2.215
 9453SOL     OW40237   3.810   2.686  17.676
 9453SOL    HW140238   3.824   2.632  17.753
 9453SOL    HW240239   3.759   2.761  17.706
 9454SOL     OW40240   3.941   1.178  18.227
 9454SOL    HW140241   3.852   1.176  18.264
 9454SOL    HW240242   3.977   1.262  18.255
 9455SOL     OW40243   2.664   3.184  17.576
 9455SOL    HW140244   2.571   3.166  17.593
 9455SOL    HW240245   2.711   3.125  17.634
 9456SOL     OW40246   4.325   3.433   5.719
 9456SOL    HW140247   4.392   3.392   5.665
 9456SOL    HW240248   4.243   3.395   5.689
 9457SOL     OW40249   3.515   2.842  17.335
 9457SOL    HW140250   3.567   2.769  17.370
 9457SOL    HW240251   3.454   2.800  17.274
 9458SOL     OW40252   1.731   2.448   5.962
 9458SOL    HW140253   1.750   2.500   5.884
 9458SOL    HW240254   1.699   2.365   5.927
 9459SOL     OW40255   4.738   4.723  17.184
 9459SOL    HW140256   0.006   4.774  17.124
 9459SOL    HW240257   4.666   4.782  17.206
 9460SOL     OW40258   0.204   3.698  20.425
 9460SOL    HW140259   0.269   3.753  20.469
 9460SOL    HW240260   0.133   3.759  20.403
 9461SOL     OW40261   2.570   3.591  19.773
 9461SOL    HW140262   2.625   3.621  19.846
 9461SOL    HW240263   2.572   3.662  19.710
 9462SOL     OW40264   0.442   2.032   3.303
 9462SOL    HW140265   0.535   2.047   3.290
 9462SOL    HW240266   0.410   2.113   3.343
 9463SOL     OW40267   1.036   1.244  18.439
 9463SOL    HW140268   1.086   1.313  18.395
 9463SOL    HW240269   0.990   1.290  18.509
 9464SOL     OW40270   2.736   1.730  18.736
 9464SOL    HW140271   2.722   1.653  18.790
 9464SOL    HW240272   2.796   1.700  18.667
 9465SOL     OW40273   4.107   2.339   3.679
 9465SOL    HW140274   4.038   2.276   3.702
 9465SOL    HW240275   4.063   2.424   3.678
 9466SOL     OW40276   2.563   2.775  13.067
 9466SOL    HW140277   2.522   2.689  13.078
 9466SOL    HW240278   2.590   2.800  13.156
 9467SOL     OW40279   3.719   1.383  18.342
 9467SOL    HW140280   3.701   1.462  18.393
 9467SOL    HW240281   3.719   1.413  18.251
 9468SOL     OW40282   2.100   3.563   1.812
 9468SOL    HW140283   2.083   3.652   1.842
 9468SOL    HW240284   2.090   3.509   1.891
 9469SOL     OW40285   1.686   0.419  20.992
 9469SOL    HW140286   1.602   0.459  21.015
 9469SOL    HW240287   1.750   0.464  21.047
 9470SOL     OW40288   3.929   2.909   1.440
 9470SOL    HW140289   3.967   2.974   1.500
 9470SOL    HW240290   4.003   2.879   1.387
 9471SOL     OW40291   2.872   2.076   2.560
 9471SOL    HW140292   2.859   2.094   2.467
 9471SOL    HW240293   2.963   2.100   2.577
 9472SOL     OW40294   2.840   0.935  14.899
 9472SOL    HW140295   2.891   0.957  14.821
 9472SOL    HW240296   2.902   0.944  14.971
 9473SOL     OW40297   0.140   2.153  20.850
 9473SOL    HW140298   0.086   2.092  20.899
 9473SOL    HW240299   0.078   2.208  20.803
 9474SOL     OW40300   1.468   2.461   4.844
 9474SOL    HW140301   1.487   2.535   4.900
 9474SOL    HW240302   1.376   2.441   4.859
 9475SOL     OW40303   2.308   1.131  19.863
 9475SOL    HW140304   2.262   1.050  19.887
 9475SOL    HW240305   2.238   1.192  19.841
 9476SOL     OW40306   0.549   0.712   5.864
 9476SOL    HW140307   0.640   0.741   5.854
 9476SOL    HW240308   0.500   0.765   5.801
 9477SOL     OW40309   4.369   4.227  20.709
 9477SOL    HW140310   4.363   4.278  20.628
 9477SOL    HW240311   4.358   4.291  20.779
 9478SOL     OW40312   1.813   0.887  17.972
 9478SOL    HW140313   1.719   0.907  17.965
 9478SOL    HW240314   1.847   0.957  18.028
 9479SOL     OW40315   0.509   0.219  20.936
 9479SOL    HW140316   0.517   0.264  20.852
 9479SOL    HW240317   0.457   0.141  20.917
 9480SOL     OW40318   2.378   0.772  16.257
 9480SOL    HW140319   2.330   0.832  16.200
 9480SOL    HW240320   2.312   0.709  16.286
 9481SOL     OW40321   2.729   2.626  20.784
 9481SOL    HW140322   2.655   2.635  20.723
 9481SOL    HW240323   2.688   2.612  20.869
 9482SOL     OW40324   3.202   1.606  16.820
 9482SOL    HW140325   3.170   1.518  16.799
 9482SOL    HW240326   3.210   1.606  16.916
 9483SOL     OW40327   0.872   0.023   1.930
 9483SOL    HW140328   0.876   0.014   1.835
 9483SOL    HW240329   0.780   0.040   1.949
 9484SOL     OW40330   3.600   0.153  19.306
 9484SOL    HW140331   3.595   0.093  19.380
 9484SOL    HW240332   3.595   0.240  19.344
 9485SOL     OW40333   3.688   4.239   6.233
 9485SOL    HW140334   3.777   4.226   6.265
 9485SOL    HW240335   3.699   4.257   6.140
 9486SOL     OW40336   1.504   1.244   3.781
 9486SOL    HW140337   1.499   1.273   3.872
 9486SOL    HW240338   1.564   1.306   3.739
 9487SOL     OW40339   2.302   1.740  16.000
 9487SOL    HW140340   2.390   1.761  15.970
 9487SOL    HW240341   2.249   1.739  15.920
 9488SOL     OW40342   1.589   3.430  15.358
 9488SOL    HW140343   1.679   3.461  15.351
 9488SOL    HW240344   1.536   3.509  15.344
 9489SOL     OW40345   2.190   3.287   1.090
 9489SOL    HW140346   2.146   3.230   1.028
 9489SOL    HW240347   2.227   3.228   1.156
 9490SOL     OW40348   2.397   4.685   4.726
 9490SOL    HW140349   2.321   4.632   4.749
 9490SOL    HW240350   2.360   4.766   4.691
 9491SOL     OW40351   3.964   1.005  16.779
 9491SOL    HW140352   3.962   1.095  16.749
 9491SOL    HW240353   3.990   0.954  16.703
 9492SOL     OW40354   2.313   0.025  16.058
 9492SOL    HW140355   2.277   4.787  15.973
 9492SOL    HW240356   2.312   4.732  16.109
 9493SOL     OW40357   3.030   4.595  12.792
 9493SOL    HW140358   3.123   4.615  12.785
 9493SOL    HW240359   3.013   4.593  12.886
 9494SOL     OW40360   2.152   0.409  14.230
 9494SOL    HW140361   2.075   0.365  14.193
 9494SOL    HW240362   2.202   0.437  14.153
 9495SOL     OW40363   4.592   3.872  18.133
 9495SOL    HW140364   4.539   3.844  18.059
 9495SOL    HW240365   4.682   3.862  18.103
 9496SOL     OW40366   2.308   0.410   5.641
 9496SOL    HW140367   2.390   0.423   5.593
 9496SOL    HW240368   2.240   0.425   5.576
 9497SOL     OW40369   1.660   2.772  15.267
 9497SOL    HW140370   1.723   2.806  15.331
 9497SOL    HW240371   1.631   2.689  15.305
 9498SOL     OW40372   0.896   3.226  14.532
 9498SOL    HW140373   0.949   3.295  14.573
 9498SOL    HW240374   0.901   3.245  14.438
 9499SOL     OW40375   3.353   1.029  14.512
 9499SOL    HW140376   3.388   1.114  14.538
 9499SOL    HW240377   3.414   0.997  14.445
 9500SOL     OW40378   3.608   4.780   3.843
 9500SOL    HW140379   3.599   4.733   3.760
 9500SOL    HW240380   3.605   0.085   3.818
 9501SOL     OW40381   1.952   1.167  19.528
 9501SOL    HW140382   1.999   1.212  19.598
 9501SOL    HW240383   1.941   1.233  19.459
 9502SOL     OW40384   4.121   3.260   0.686
 9502SOL    HW140385   4.128   3.177   0.732
 9502SOL    HW240386   4.105   3.235   0.595
 9503SOL     OW40387   2.165   0.812  14.577
 9503SOL    HW140388   2.108   0.744  14.543
 9503SOL    HW240389   2.113   0.892  14.574
 9504SOL     OW40390   3.431   2.371  17.656
 9504SOL    HW140391   3.524   2.368  17.680
 9504SOL    HW240392   3.410   2.464  17.652
 9505SOL     OW40393   1.196   2.489   0.930
 9505SOL    HW140394   1.244   2.542   0.866
 9505SOL    HW240395   1.107   2.485   0.896
 9506SOL     OW40396   1.349   0.582   2.658
 9506SOL    HW140397   1.286   0.652   2.673
 9506SOL    HW240398   1.308   0.504   2.696
 9507SOL     OW40399   4.308   2.355   3.872
 9507SOL    HW140400   4.249   2.376   3.944
 9507SOL    HW240401   4.250   2.339   3.798
 9508SOL     OW40402   4.177   1.859  16.660
 9508SOL    HW140403   4.236   1.932  16.643
 9508SOL    HW240404   4.208   1.822  16.742
 9509SOL     OW40405   3.667   4.097   6.606
 9509SOL    HW140406   3.606   4.169   6.595
 9509SOL    HW240407   3.618   4.019   6.578
 9510SOL     OW40408   1.867   2.908  15.395
 9510SOL    HW140409   1.852   2.954  15.478
 9510SOL    HW240410   1.954   2.870  15.404
 9511SOL     OW40411   3.623   0.030   2.693
 9511SOL    HW140412   3.664   4.732   2.678
 9511SOL    HW240413   3.685   0.093   2.658
 9512SOL     OW40414   4.440   1.979   3.061
 9512SOL    HW140415   4.507   2.045   3.078
 9512SOL    HW240416   4.441   1.924   3.140
 9513SOL     OW40417   4.395   1.831  16.428
 9513SOL    HW140418   4.415   1.894  16.497
 9513SOL    HW240419   4.300   1.832  16.421
 9514SOL     OW40420   0.732   3.211   6.302
 9514SOL    HW140421   0.755   3.254   6.220
 9514SOL    HW240422   0.685   3.277   6.352
 9515SOL     OW40423   2.592   2.336  18.996
 9515SOL    HW140424   2.560   2.388  19.070
 9515SOL    HW240425   2.513   2.301  18.956
 9516SOL     OW40426   4.451   4.457  18.780
 9516SOL    HW140427   4.416   4.546  18.787
 9516SOL    HW240428   4.373   4.403  18.766
 9517SOL     OW40429   4.382   0.099  20.550
 9517SOL    HW140430   4.406   0.024  20.603
 9517SOL    HW240431   4.394   0.175  20.607
 9518SOL     OW40432   0.399   2.324  14.309
 9518SOL    HW140433   0.351   2.393  14.355
 9518SOL    HW240434   0.333   2.279  14.258
 9519SOL     OW40435   3.567   3.293   1.727
 9519SOL    HW140436   3.512   3.346   1.670
 9519SOL    HW240437   3.561   3.336   1.813
 9520SOL     OW40438   2.963   2.458  12.856
 9520SOL    HW140439   2.895   2.440  12.921
 9520SOL    HW240440   2.941   2.544  12.820
 9521SOL     OW40441   2.627   3.583   1.877
 9521SOL    HW140442   2.546   3.532   1.870
 9521SOL    HW240443   2.696   3.517   1.880
 9522SOL     OW40444   2.275   1.998   3.031
 9522SOL    HW140445   2.217   1.955   2.968
 9522SOL    HW240446   2.287   1.934   3.101
 9523SOL     OW40447   2.598   2.945  18.240
 9523SOL    HW140448   2.513   2.906  18.261
 9523SOL    HW240449   2.583   2.995  18.161
 9524SOL     OW40450   2.485   0.195   6.254
 9524SOL    HW140451   2.532   0.206   6.172
 9524SOL    HW240452   2.410   0.140   6.232
 9525SOL     OW40453   1.639   4.115   4.916
 9525SOL    HW140454   1.663   4.204   4.889
 9525SOL    HW240455   1.660   4.060   4.840
 9526SOL     OW40456   2.393   0.932   5.998
 9526SOL    HW140457   2.377   0.886   6.080
 9526SOL    HW240458   2.405   0.863   5.933
 9527SOL     OW40459   2.319   1.781   3.942
 9527SOL    HW140460   2.232   1.768   3.979
 9527SOL    HW240461   2.373   1.807   4.017
 9528SOL     OW40462   0.102   1.561   2.170
 9528SOL    HW140463   0.044   1.597   2.103
 9528SOL    HW240464   0.047   1.500   2.219
 9529SOL     OW40465   4.530   2.760   6.681
 9529SOL    HW140466   4.455   2.747   6.739
 9529SOL    HW240467   4.497   2.814   6.610
 9530SOL     OW40468   4.354   1.163  18.899
 9530SOL    HW140469   4.285   1.225  18.877
 9530SOL    HW240470   4.380   1.186  18.988
 9531SOL     OW40471   2.453   4.550   3.069
 9531SOL    HW140472   2.390   4.518   3.005
 9531SOL    HW240473   2.538   4.543   3.026
 9532SOL     OW40474   2.162   1.188   4.574
 9532SOL    HW140475   2.135   1.165   4.663
 9532SOL    HW240476   2.085   1.229   4.535
 9533SOL     OW40477   2.472   3.553  18.416
 9533SOL    HW140478   2.514   3.638  18.406
 9533SOL    HW240479   2.393   3.571  18.467
 9534SOL     OW40480   2.892   4.745   1.547
 9534SOL    HW140481   2.916   4.780   1.462
 9534SOL    HW240482   2.848   4.662   1.528
 9535SOL     OW40483   2.066   3.363   7.436
 9535SOL    HW140484   2.022   3.328   7.514
 9535SOL    HW240485   2.027   3.315   7.364
 9536SOL     OW40486   4.119   4.591   2.365
 9536SOL    HW140487   4.164   4.615   2.284
 9536SOL    HW240488   4.188   4.586   2.431
 9537SOL     OW40489   1.597   0.162   1.898
 9537SOL    HW140490   1.656   0.116   1.837
 9537SOL    HW240491   1.607   0.114   1.980
 9538SOL     OW40492   2.077   0.797   0.668
 9538SOL    HW140493   2.030   0.841   0.740
 9538SOL    HW240494   2.010   0.744   0.625
 9539SOL     OW40495   4.357   2.948   0.932
 9539SOL    HW140496   4.359   2.977   1.023
 9539SOL    HW240497   4.440   2.980   0.895
 9540SOL     OW40498   4.643   1.447   2.292
 9540SOL    HW140499   4.579   1.494   2.345
 9540SOL    HW240500   4.598   1.427   2.210
 9541SOL     OW40501   2.313   0.300   0.364
 9541SOL    HW140502   2.385   0.256   0.410
 9541SOL    HW240503   2.349   0.386   0.341
 9542SOL     OW40504   2.061   2.882  18.913
 9542SOL    HW140505   2.150   2.914  18.898
 9542SOL    HW240506   2.032   2.851  18.827
 9543SOL     OW40507   3.704   0.114   0.924
 9543SOL    HW140508   3.683   0.061   0.847
 9543SOL    HW240509   3.793   0.088   0.947
 9544SOL     OW40510   4.449   4.197  21.081
 9544SOL    HW140511   4.469   4.115  21.037
 9544SOL    HW240512   4.493   4.264  21.029
 9545SOL     OW40513   1.974   1.611  16.709
 9545SOL    HW140514   1.897   1.569  16.671
 9545SOL    HW240515   2.043   1.545  16.702
 9546SOL     OW40516   1.805   1.599   1.195
 9546SOL    HW140517   1.719   1.567   1.167
 9546SOL    HW240518   1.848   1.523   1.233
 9547SOL     OW40519   0.708   2.854  18.585
 9547SOL    HW140520   0.738   2.924  18.528
 9547SOL    HW240521   0.630   2.889  18.628
 9548SOL     OW40522   2.869   2.239   6.290
 9548SOL    HW140523   2.797   2.300   6.307
 9548SOL    HW240524   2.874   2.184   6.368
 9549SOL     OW40525   3.268   1.527   8.249
 9549SOL    HW140526   3.230   1.602   8.295
 9549SOL    HW240527   3.361   1.531   8.269
 9550SOL     OW40528   2.855   3.337  15.568
 9550SOL    HW140529   2.778   3.378  15.529
 9550SOL    HW240530   2.924   3.403  15.561
 9551SOL     OW40531   0.358   2.036  15.580
 9551SOL    HW140532   0.368   1.948  15.615
 9551SOL    HW240533   0.284   2.073  15.628
 9552SOL     OW40534   1.649   4.713  15.729
 9552SOL    HW140535   1.605   0.006  15.702
 9552SOL    HW240536   1.599   4.683  15.805
 9553SOL     OW40537   3.538   4.672   5.389
 9553SOL    HW140538   3.611   4.669   5.326
 9553SOL    HW240539   3.466   4.710   5.339
 9554SOL     OW40540   3.342   3.291  19.220
 9554SOL    HW140541   3.309   3.306  19.132
 9554SOL    HW240542   3.360   3.378  19.255
 9555SOL     OW40543   3.749   2.290   0.892
 9555SOL    HW140544   3.718   2.294   0.802
 9555SOL    HW240545   3.707   2.364   0.935
 9556SOL     OW40546   2.311   2.338   0.189
 9556SOL    HW140547   2.236   2.357   0.244
 9556SOL    HW240548   2.357   2.267   0.234
 9557SOL     OW40549   0.897   0.235  13.803
 9557SOL    HW140550   0.881   0.325  13.831
 9557SOL    HW240551   0.982   0.238  13.758
 9558SOL     OW40552   3.266   2.987   3.794
 9558SOL    HW140553   3.259   3.044   3.871
 9558SOL    HW240554   3.296   2.903   3.829
 9559SOL     OW40555   3.940   3.180   3.093
 9559SOL    HW140556   3.972   3.100   3.052
 9559SOL    HW240557   4.019   3.234   3.106
 9560SOL     OW40558   1.985   3.929  16.151
 9560SOL    HW140559   2.058   3.913  16.210
 9560SOL    HW240560   1.986   4.024  16.137
 9561SOL     OW40561   4.497   3.873  14.332
 9561SOL    HW140562   4.478   3.885  14.425
 9561SOL    HW240563   4.412   3.856  14.291
 9562SOL     OW40564   1.349   0.035  18.243
 9562SOL    HW140565   1.383   4.762  18.178
 9562SOL    HW240566   1.426   0.067  18.289
 9563SOL     OW40567   4.533   4.022   4.023
 9563SOL    HW140568   4.506   4.102   4.069
 9563SOL    HW240569   4.487   3.952   4.069
 9564SOL     OW40570   0.896   2.088  19.295
 9564SOL    HW140571   0.843   2.016  19.259
 9564SOL    HW240572   0.935   2.052  19.375
 9565SOL     OW40573   2.540   1.047   2.289
 9565SOL    HW140574   2.557   1.002   2.206
 9565SOL    HW240575   2.560   0.981   2.355
 9566SOL     OW40576   2.919   2.539   5.761
 9566SOL    HW140577   2.996   2.569   5.712
 9566SOL    HW240578   2.914   2.597   5.837
 9567SOL     OW40579   2.704   3.737  14.592
 9567SOL    HW140580   2.729   3.749  14.683
 9567SOL    HW240581   2.733   3.649  14.569
 9568SOL     OW40582   3.537   3.681   1.585
 9568SOL    HW140583   3.516   3.769   1.618
 9568SOL    HW240584   3.627   3.666   1.613
 9569SOL     OW40585   4.344   2.951  21.070
 9569SOL    HW140586   4.292   2.872  21.086
 9569SOL    HW240587   4.347   2.996  21.154
 9570SOL     OW40588   1.814   4.756  17.826
 9570SOL    HW140589   1.851   0.045  17.782
 9570SOL    HW240590   1.862   4.750  17.909
 9571SOL     OW40591   4.285   2.642   5.478
 9571SOL    HW140592   4.367   2.647   5.527
 9571SOL    HW240593   4.217   2.644   5.545
 9572SOL     OW40594   1.432   0.584   1.601
 9572SOL    HW140595   1.494   0.532   1.550
 9572SOL    HW240596   1.434   0.544   1.688
 9573SOL     OW40597   2.397   1.252   4.242
 9573SOL    HW140598   2.443   1.329   4.275
 9573SOL    HW240599   2.304   1.274   4.251
 9574SOL     OW40600   3.402   4.240  19.991
 9574SOL    HW140601   3.497   4.244  19.989
 9574SOL    HW240602   3.381   4.209  20.079
 9575SOL     OW40603   2.262   0.821   3.877
 9575SOL    HW140604   2.214   0.844   3.797
 9575SOL    HW240605   2.279   0.906   3.919
 9576SOL     OW40606   4.770   3.132   6.936
 9576SOL    HW140607   0.013   3.118   7.026
 9576SOL    HW240608   4.752   3.226   6.931
 9577SOL     OW40609   3.443   4.177  17.356
 9577SOL    HW140610   3.366   4.235  17.356
 9577SOL    HW240611   3.476   4.181  17.446
 9578SOL     OW40612   0.118   3.076   0.699
 9578SOL    HW140613   0.167   3.086   0.618
 9578SOL    HW240614   0.082   2.987   0.695
 9579SOL     OW40615   4.541   1.345  17.611
 9579SOL    HW140616   4.539   1.250  17.607
 9579SOL    HW240617   4.592   1.366  17.689
 9580SOL     OW40618   0.823   0.605   4.139
 9580SOL    HW140619   0.903   0.555   4.152
 9580SOL    HW240620   0.771   0.553   4.078
 9581SOL     OW40621   1.651   3.817   5.527
 9581SOL    HW140622   1.681   3.771   5.449
 9581SOL    HW240623   1.590   3.883   5.494
 9582SOL     OW40624   1.529   3.756   4.933
 9582SOL    HW140625   1.555   3.665   4.948
 9582SOL    HW240626   1.537   3.797   5.019
 9583SOL     OW40627   0.429   2.014   5.849
 9583SOL    HW140628   0.346   2.060   5.840
 9583SOL    HW240629   0.491   2.067   5.800
 9584SOL     OW40630   0.399   3.031   2.825
 9584SOL    HW140631   0.436   3.106   2.779
 9584SOL    HW240632   0.307   3.030   2.799
 9585SOL     OW40633   4.435   4.033  19.412
 9585SOL    HW140634   4.343   4.030  19.389
 9585SOL    HW240635   4.480   3.995  19.337
 9586SOL     OW40636   0.574   3.591  17.187
 9586SOL    HW140637   0.589   3.516  17.129
 9586SOL    HW240638   0.632   3.576  17.262
 9587SOL     OW40639   1.349   2.406   2.398
 9587SOL    HW140640   1.278   2.461   2.368
 9587SOL    HW240641   1.417   2.415   2.331
 9588SOL     OW40642   4.541   4.339  13.307
 9588SOL    HW140643   4.600   4.276  13.266
 9588SOL    HW240644   4.544   4.415  13.249
 9589SOL     OW40645   3.166   3.140   6.506
 9589SOL    HW140646   3.221   3.109   6.578
 9589SOL    HW240647   3.205   3.102   6.427
 9590SOL     OW40648   3.044   2.863  17.860
 9590SOL    HW140649   3.026   2.794  17.797
 9590SOL    HW240650   2.961   2.911  17.868
 9591SOL     OW40651   0.242   4.261  15.428
 9591SOL    HW140652   0.235   4.263  15.333
 9591SOL    HW240653   0.303   4.189  15.446
 9592SOL     OW40654   2.087   4.574   4.466
 9592SOL    HW140655   2.047   4.524   4.537
 9592SOL    HW240656   2.017   4.584   4.401
 9593SOL     OW40657   1.323   1.735  18.599
 9593SOL    HW140658   1.385   1.665  18.581
 9593SOL    HW240659   1.291   1.762  18.512
 9594SOL     OW40660   0.595   0.073   5.192
 9594SOL    HW140661   0.667   0.041   5.139
 9594SOL    HW240662   0.527   0.097   5.129
 9595SOL     OW40663   1.777   2.581  15.832
 9595SOL    HW140664   1.802   2.598  15.741
 9595SOL    HW240665   1.860   2.580  15.880
 9596SOL     OW40666   3.759   1.925  19.021
 9596SOL    HW140667   3.821   1.946  18.951
 9596SOL    HW240668   3.673   1.934  18.980
 9597SOL     OW40669   4.215   2.427   0.082
 9597SOL    HW140670   4.171   2.512   0.082
 9597SOL    HW240671   4.239   2.413   0.173
 9598SOL     OW40672   4.000   4.082   5.792
 9598SOL    HW140673   3.931   4.030   5.749
 9598SOL    HW240674   4.079   4.030   5.781
 9599SOL     OW40675   3.746   1.894  20.501
 9599SOL    HW140676   3.776   1.806  20.477
 9599SOL    HW240677   3.806   1.922  20.570
 9600SOL     OW40678   2.724   1.068   2.911
 9600SOL    HW140679   2.794   1.063   2.846
 9600SOL    HW240680   2.645   1.083   2.860
 9601SOL     OW40681   3.785   1.979   2.153
 9601SOL    HW140682   3.693   1.965   2.129
 9601SOL    HW240683   3.834   1.957   2.074
 9602SOL     OW40684   0.639   2.245   5.781
 9602SOL    HW140685   0.694   2.168   5.795
 9602SOL    HW240686   0.700   2.315   5.760
 9603SOL     OW40687   0.800   3.598   5.521
 9603SOL    HW140688   0.867   3.661   5.495
 9603SOL    HW240689   0.739   3.597   5.447
 9604SOL     OW40690   3.102   1.677   8.405
 9604SOL    HW140691   3.035   1.610   8.420
 9604SOL    HW240692   3.057   1.760   8.425
 9605SOL     OW40693   2.885   3.084  17.729
 9605SOL    HW140694   2.979   3.085  17.709
 9605SOL    HW240695   2.870   3.164  17.780
 9606SOL     OW40696   4.073   3.128  17.248
 9606SOL    HW140697   4.135   3.088  17.187
 9606SOL    HW240698   4.117   3.208  17.277
 9607SOL     OW40699   3.555   3.918  14.830
 9607SOL    HW140700   3.636   3.908  14.880
 9607SOL    HW240701   3.485   3.909  14.895
 9608SOL     OW40702   3.347   4.560  19.896
 9608SOL    HW140703   3.294   4.603  19.829
 9608SOL    HW240704   3.291   4.489  19.928
 9609SOL     OW40705   1.872   4.504  20.387
 9609SOL    HW140706   1.935   4.520  20.457
 9609SOL    HW240707   1.897   4.565  20.317
 9610SOL     OW40708   3.103   0.205  20.252
 9610SOL    HW140709   3.154   0.178  20.175
 9610SOL    HW240710   3.168   0.210  20.322
 9611SOL     OW40711   2.175   3.802   1.131
 9611SOL    HW140712   2.224   3.726   1.098
 9611SOL    HW240713   2.128   3.835   1.054
 9612SOL     OW40714   0.058   4.662   4.635
 9612SOL    HW140715   0.112   4.587   4.661
 9612SOL    HW240716   4.786   4.626   4.568
 9613SOL     OW40717   1.626   2.310   4.069
 9613SOL    HW140718   1.605   2.281   3.980
 9613SOL    HW240719   1.575   2.389   4.081
 9614SOL     OW40720   2.074   0.539   1.182
 9614SOL    HW140721   1.997   0.588   1.153
 9614SOL    HW240722   2.038   0.460   1.223
 9615SOL     OW40723   0.123   4.750  19.132
 9615SOL    HW140724   0.036   0.002  19.133
 9615SOL    HW240725   0.127   4.698  19.212
 9616SOL     OW40726   2.850   4.208  19.795
 9616SOL    HW140727   2.921   4.186  19.735
 9616SOL    HW240728   2.810   4.124  19.817
 9617SOL     OW40729   2.403   2.478  18.739
 9617SOL    HW140730   2.352   2.521  18.671
 9617SOL    HW240731   2.426   2.549  18.800
 9618SOL     OW40732   1.992   4.329   3.780
 9618SOL    HW140733   2.057   4.396   3.757
 9618SOL    HW240734   2.013   4.304   3.870
 9619SOL     OW40735   1.268   1.133  21.144
 9619SOL    HW140736   1.274   1.062  21.207
 9619SOL    HW240737   1.230   1.092  21.065
 9620SOL     OW40738   1.720   1.140   4.523
 9620SOL    HW140739   1.736   1.053   4.558
 9620SOL    HW240740   1.625   1.146   4.516
 9621SOL     OW40741   2.237   1.198  16.496
 9621SOL    HW140742   2.220   1.203  16.402
 9621SOL    HW240743   2.233   1.104  16.516
 9622SOL     OW40744   4.028   1.695   5.814
 9622SOL    HW140745   4.089   1.747   5.762
 9622SOL    HW240746   4.074   1.679   5.896
 9623SOL     OW40747   1.737   3.000  19.842
 9623SOL    HW140748   1.780   2.936  19.899
 9623SOL    HW240749   1.676   3.047  19.899
 9624SOL     OW40750   1.815   0.746   0.487
 9624SOL    HW140751   1.769   0.756   0.404
 9624SOL    HW240752   1.794   0.656   0.514
 9625SOL     OW40753   0.333   1.563   5.549
 9625SOL    HW140754   0.357   1.647   5.588
 9625SOL    HW240755   0.309   1.585   5.459
 9626SOL     OW40756   0.035   4.017   1.892
 9626SOL    HW140757   4.761   4.086   1.866
 9626SOL    HW240758   0.106   4.063   1.936
 9627SOL     OW40759   0.584   0.062  17.842
 9627SOL    HW140760   0.571   0.149  17.880
 9627SOL    HW240761   0.599   0.005  17.918
 9628SOL     OW40762   2.002   0.284   1.286
 9628SOL    HW140763   1.907   0.289   1.274
 9628SOL    HW240764   2.030   0.214   1.226
 9629SOL     OW40765   3.334   3.207   3.466
 9629SOL    HW140766   3.380   3.276   3.419
 9629SOL    HW240767   3.296   3.251   3.542
 9630SOL     OW40768   3.738   4.069  11.789
 9630SOL    HW140769   3.788   4.076  11.870
 9630SOL    HW240770   3.646   4.071  11.817
 9631SOL     OW40771   1.743   4.619  20.913
 9631SOL    HW140772   1.803   4.694  20.914
 9631SOL    HW240773   1.681   4.638  20.843
 9632SOL     OW40774   2.825   0.784  14.081
 9632SOL    HW140775   2.751   0.784  14.143
 9632SOL    HW240776   2.899   0.817  14.132
 9633SOL     OW40777   3.033   0.037   3.442
 9633SOL    HW140778   3.113   0.081   3.472
 9633SOL    HW240779   2.982   0.106   3.400
 9634SOL     OW40780   4.777   2.619   4.773
 9634SOL    HW140781   0.044   2.542   4.784
 9634SOL    HW240782   4.718   2.617   4.848
 9635SOL     OW40783   1.450   1.957  17.350
 9635SOL    HW140784   1.456   2.018  17.276
 9635SOL    HW240785   1.368   1.910  17.335
 9636SOL     OW40786   3.342   0.593  17.788
 9636SOL    HW140787   3.434   0.595  17.761
 9636SOL    HW240788   3.307   0.677  17.758
 9637SOL     OW40789   1.092   1.430   5.887
 9637SOL    HW140790   1.086   1.398   5.977
 9637SOL    HW240791   1.186   1.444   5.873
 9638SOL     OW40792   2.276   3.257  19.986
 9638SOL    HW140793   2.293   3.349  20.002
 9638SOL    HW240794   2.315   3.240  19.900
 9639SOL     OW40795   3.544   4.596   2.421
 9639SOL    HW140796   3.601   4.522   2.441
 9639SOL    HW240797   3.458   4.570   2.455
 9640SOL     OW40798   2.915   0.987  16.520
 9640SOL    HW140799   2.846   0.960  16.461
 9640SOL    HW240800   2.963   1.054  16.472
 9641SOL     OW40801   1.387   0.570   0.759
 9641SOL    HW140802   1.294   0.558   0.740
 9641SOL    HW240803   1.393   0.659   0.793
 9642SOL     OW40804   2.315   4.347   0.729
 9642SOL    HW140805   2.370   4.329   0.804
 9642SOL    HW240806   2.366   4.407   0.675
 9643SOL     OW40807   2.584   1.120  19.089
 9643SOL    HW140808   2.543   1.198  19.051
 9643SOL    HW240809   2.532   1.102  19.168
 9644SOL     OW40810   2.712   3.426  18.506
 9644SOL    HW140811   2.758   3.351  18.467
 9644SOL    HW240812   2.626   3.425  18.464
 9645SOL     OW40813   2.725   2.218   2.777
 9645SOL    HW140814   2.796   2.169   2.737
 9645SOL    HW240815   2.765   2.258   2.854
 9646SOL     OW40816   3.467   3.946  16.058
 9646SOL    HW140817   3.462   3.990  15.973
 9646SOL    HW240818   3.559   3.952  16.082
 9647SOL     OW40819   3.944   1.942  17.790
 9647SOL    HW140820   3.967   1.876  17.725
 9647SOL    HW240821   3.849   1.946  17.789
 9648SOL     OW40822   1.331   2.744   4.187
 9648SOL    HW140823   1.358   2.805   4.256
 9648SOL    HW240824   1.385   2.667   4.201
 9649SOL     OW40825   2.175   3.693  15.577
 9649SOL    HW140826   2.192   3.619  15.519
 9649SOL    HW240827   2.202   3.770  15.527
 9650SOL     OW40828   2.182   0.049   6.614
 9650SOL    HW140829   2.177   4.742   6.618
 9650SOL    HW240830   2.276   0.069   6.618
 9651SOL     OW40831   0.583   2.836  18.301
 9651SOL    HW140832   0.540   2.822  18.385
 9651SOL    HW240833   0.527   2.898  18.255
 9652SOL     OW40834   0.023   2.599   2.465
 9652SOL    HW140835   0.022   2.509   2.497
 9652SOL    HW240836   4.755   2.647   2.526
 9653SOL     OW40837   2.367   2.724   1.127
 9653SOL    HW140838   2.434   2.693   1.067
 9653SOL    HW240839   2.412   2.787   1.183
 9654SOL     OW40840   1.198   2.513  17.968
 9654SOL    HW140841   1.177   2.567  18.044
 9654SOL    HW240842   1.274   2.556  17.928
 9655SOL     OW40843   3.563   3.338   1.094
 9655SOL    HW140844   3.495   3.352   1.159
 9655SOL    HW240845   3.518   3.339   1.010
 9656SOL     OW40846   4.031   1.324   3.033
 9656SOL    HW140847   3.968   1.346   3.102
 9656SOL    HW240848   4.096   1.394   3.037
 9657SOL     OW40849   2.017   2.567  14.369
 9657SOL    HW140850   2.096   2.610  14.338
 9657SOL    HW240851   1.963   2.557  14.290
 9658SOL     OW40852   2.359   0.865   2.090
 9658SOL    HW140853   2.308   0.925   2.037
 9658SOL    HW240854   2.450   0.881   2.063
 9659SOL     OW40855   0.258   0.868   1.480
 9659SOL    HW140856   0.292   0.954   1.458
 9659SOL    HW240857   0.174   0.862   1.433
 9660SOL     OW40858   1.696   2.037   7.060
 9660SOL    HW140859   1.691   1.942   7.050
 9660SOL    HW240860   1.634   2.057   7.130
 9661SOL     OW40861   2.242   1.449  17.078
 9661SOL    HW140862   2.336   1.431  17.081
 9661SOL    HW240863   2.228   1.492  16.994
 9662SOL     OW40864   4.486   2.982  19.745
 9662SOL    HW140865   4.531   3.066  19.751
 9662SOL    HW240866   4.509   2.936  19.825
 9663SOL     OW40867   3.529   1.107   3.335
 9663SOL    HW140868   3.462   1.166   3.300
 9663SOL    HW240869   3.547   1.140   3.422
 9664SOL     OW40870   3.127   1.838   4.396
 9664SOL    HW140871   3.063   1.902   4.366
 9664SOL    HW240872   3.131   1.850   4.491
 9665SOL     OW40873   1.163   0.280  17.257
 9665SOL    HW140874   1.165   0.362  17.308
 9665SOL    HW240875   1.086   0.288  17.202
 9666SOL     OW40876   3.417   4.657   1.701
 9666SOL    HW140877   3.491   4.659   1.640
 9666SOL    HW240878   3.340   4.656   1.645
 9667SOL     OW40879   2.796   0.067   2.297
 9667SOL    HW140880   2.731   0.089   2.231
 9667SOL    HW240881   2.773   0.121   2.372
 9668SOL     OW40882   2.485   4.313   4.162
 9668SOL    HW140883   2.410   4.339   4.110
 9668SOL    HW240884   2.447   4.285   4.246
 9669SOL     OW40885   0.213   4.577  20.364
 9669SOL    HW140886   0.182   4.580  20.455
 9669SOL    HW240887   0.148   4.523  20.319
 9670SOL     OW40888   0.106   1.967   8.364
 9670SOL    HW140889   0.112   2.062   8.376
 9670SOL    HW240890   0.014   1.947   8.379
 9671SOL     OW40891   2.013   3.958  17.212
 9671SOL    HW140892   2.022   4.053  17.205
 9671SOL    HW240893   1.919   3.943  17.223
 9672SOL     OW40894   1.517   1.228   6.484
 9672SOL    HW140895   1.538   1.202   6.394
 9672SOL    HW240896   1.601   1.228   6.529
 9673SOL     OW40897   2.278   1.353  15.911
 9673SOL    HW140898   2.323   1.395  15.837
 9673SOL    HW240899   2.337   1.364  15.985
 9674SOL     OW40900   1.820   3.809   6.015
 9674SOL    HW140901   1.814   3.902   5.993
 9674SOL    HW240902   1.738   3.771   5.983
 9675SOL     OW40903   1.573   4.215   2.202
 9675SOL    HW140904   1.538   4.165   2.276
 9675SOL    HW240905   1.498   4.265   2.169
 9676SOL     OW40906   1.276   1.698  13.912
 9676SOL    HW140907   1.212   1.638  13.873
 9676SOL    HW240908   1.361   1.665  13.883
 9677SOL     OW40909   0.001   2.885   4.735
 9677SOL    HW140910   4.764   2.793   4.724
 9677SOL    HW240911   0.059   2.885   4.811
 9678SOL     OW40912   0.343   2.722   0.108
 9678SOL    HW140913   0.431   2.686   0.119
 9678SOL    HW240914   0.317   2.695   0.020
 9679SOL     OW40915   3.670   2.311   7.161
 9679SOL    HW140916   3.675   2.247   7.232
 9679SOL    HW240917   3.584   2.296   7.121
 9680SOL     OW40918   3.744   3.191  16.900
 9680SOL    HW140919   3.773   3.158  16.985
 9680SOL    HW240920   3.682   3.261  16.921
 9681SOL     OW40921   3.105   2.309   0.299
 9681SOL    HW140922   3.138   2.357   0.375
 9681SOL    HW240923   3.094   2.375   0.231
 9682SOL     OW40924   3.064   2.269   2.046
 9682SOL    HW140925   3.128   2.263   1.975
 9682SOL    HW240926   2.979   2.256   2.003
 9683SOL     OW40927   2.333   1.168   0.271
 9683SOL    HW140928   2.392   1.100   0.239
 9683SOL    HW240929   2.342   1.165   0.366
 9684SOL     OW40930   2.008   4.395  16.731
 9684SOL    HW140931   1.972   4.309  16.710
 9684SOL    HW240932   2.001   4.402  16.826
 9685SOL     OW40933   4.340   0.053   6.788
 9685SOL    HW140934   4.387   0.054   6.872
 9685SOL    HW240935   4.403   0.018   6.726
 9686SOL     OW40936   2.511   4.134  21.226
 9686SOL    HW140937   2.500   4.161   0.070
 9686SOL    HW240938   2.421   4.120  21.195
 9687SOL     OW40939   4.330   3.098  18.008
 9687SOL    HW140940   4.373   3.020  17.972
 9687SOL    HW240941   4.241   3.095  17.972
 9688SOL     OW40942   3.579   1.399   6.872
 9688SOL    HW140943   3.634   1.420   6.947
 9688SOL    HW240944   3.636   1.413   6.796
 9689SOL     OW40945   3.846   2.986  15.672
 9689SOL    HW140946   3.822   2.904  15.715
 9689SOL    HW240947   3.782   3.050  15.705
 9690SOL     OW40948   0.596   1.365  19.974
 9690SOL    HW140949   0.687   1.346  19.952
 9690SOL    HW240950   0.592   1.357  20.069
 9691SOL     OW40951   4.320   1.384   2.353
 9691SOL    HW140952   4.389   1.437   2.393
 9691SOL    HW240953   4.283   1.334   2.426
 9692SOL     OW40954   3.211   2.682  20.403
 9692SOL    HW140955   3.178   2.765  20.370
 9692SOL    HW240956   3.133   2.627  20.411
 9693SOL     OW40957   4.368   0.514   6.549
 9693SOL    HW140958   4.290   0.463   6.528
 9693SOL    HW240959   4.395   0.482   6.635
 9694SOL     OW40960   4.434   0.180  17.433
 9694SOL    HW140961   4.427   0.218  17.520
 9694SOL    HW240962   4.393   0.094  17.441
 9695SOL     OW40963   0.378   2.929  16.209
 9695SOL    HW140964   0.331   3.012  16.226
 9695SOL    HW240965   0.314   2.874  16.164
 9696SOL     OW40966   4.057   2.290   2.714
 9696SOL    HW140967   4.036   2.252   2.628
 9696SOL    HW240968   3.992   2.360   2.725
 9697SOL     OW40969   2.241   4.293  13.379
 9697SOL    HW140970   2.205   4.210  13.412
 9697SOL    HW240971   2.326   4.301  13.422
 9698SOL     OW40972   2.627   4.171   0.766
 9698SOL    HW140973   2.645   4.254   0.721
 9698SOL    HW240974   2.555   4.192   0.826
 9699SOL     OW40975   3.886   3.718   9.340
 9699SOL    HW140976   3.935   3.636   9.343
 9699SOL    HW240977   3.904   3.759   9.425
 9700SOL     OW40978   4.428   3.387   0.083
 9700SOL    HW140979   4.438   3.375   0.178
 9700SOL    HW240980   4.336   3.410   0.071
 9701SOL     OW40981   4.007   3.420  19.651
 9701SOL    HW140982   3.999   3.392  19.742
 9701SOL    HW240983   3.919   3.451  19.629
 9702SOL     OW40984   3.654   0.159   5.419
 9702SOL    HW140985   3.669   0.093   5.487
 9702SOL    HW240986   3.690   0.240   5.455
 9703SOL     OW40987   4.343   3.125  13.950
 9703SOL    HW140988   4.415   3.110  13.889
 9703SOL    HW240989   4.298   3.202  13.915
 9704SOL     OW40990   1.221   0.384  18.694
 9704SOL    HW140991   1.196   0.476  18.700
 9704SOL    HW240992   1.148   0.342  18.649
 9705SOL     OW40993   3.773   1.821   2.359
 9705SOL    HW140994   3.862   1.794   2.379
 9705SOL    HW240995   3.782   1.886   2.290
 9706SOL     OW40996   4.664   4.313  14.978
 9706SOL    HW140997   4.716   4.334  15.055
 9706SOL    HW240998   4.706   4.361  14.907
 9707SOL     OW40999   0.388   4.560   4.203
 9707SOL    HW141000   0.320   4.606   4.251
 9707SOL    HW241001   0.357   4.558   4.113
 9708SOL     OW41002   1.075   3.589   5.722
 9708SOL    HW141003   1.023   3.514   5.752
 9708SOL    HW241004   1.029   3.619   5.643
 9709SOL     OW41005   3.954   3.395   6.009
 9709SOL    HW141006   4.046   3.396   5.985
 9709SOL    HW241007   3.933   3.302   6.019
 9710SOL     OW41008   3.435   0.127  19.978
 9710SOL    HW141009   3.425   0.070  20.055
 9710SOL    HW241010   3.345   0.145  19.951
 9711SOL     OW41011   1.351   4.010   2.791
 9711SOL    HW141012   1.269   3.964   2.810
 9711SOL    HW241013   1.419   3.944   2.803
 9712SOL     OW41014   0.177   0.238  19.364
 9712SOL    HW141015   0.246   0.261  19.302
 9712SOL    HW241016   0.106   0.299  19.344
 9713SOL     OW41017   3.944   0.650   3.723
 9713SOL    HW141018   3.994   0.718   3.767
 9713SOL    HW241019   3.896   0.606   3.794
 9714SOL     OW41020   4.481   0.818   5.991
 9714SOL    HW141021   4.562   0.800   5.942
 9714SOL    HW241022   4.505   0.807   6.082
 9715SOL     OW41023   0.792   1.034  16.240
 9715SOL    HW141024   0.712   0.984  16.222
 9715SOL    HW241025   0.763   1.111  16.288
 9716SOL     OW41026   4.487   1.259  17.117
 9716SOL    HW141027   4.402   1.216  17.124
 9716SOL    HW241028   4.495   1.310  17.197
 9717SOL     OW41029   3.311   3.941   2.623
 9717SOL    HW141030   3.231   3.957   2.674
 9717SOL    HW241031   3.363   3.883   2.677
 9718SOL     OW41032   0.222   3.542  13.743
 9718SOL    HW141033   0.179   3.582  13.819
 9718SOL    HW241034   0.195   3.596  13.669
 9719SOL     OW41035   0.473   0.102  16.228
 9719SOL    HW141036   0.444   0.011  16.224
 9719SOL    HW241037   0.522   0.108  16.309
 9720SOL     OW41038   1.049   3.678  14.629
 9720SOL    HW141039   1.118   3.667  14.564
 9720SOL    HW241040   0.984   3.611  14.607
 9721SOL     OW41041   4.033   1.158   5.434
 9721SOL    HW141042   4.000   1.076   5.470
 9721SOL    HW241043   4.049   1.213   5.510
 9722SOL     OW41044   1.896   1.165   4.101
 9722SOL    HW141045   1.892   1.253   4.065
 9722SOL    HW241046   1.903   1.108   4.024
 9723SOL     OW41047   2.350   2.695   6.132
 9723SOL    HW141048   2.343   2.736   6.046
 9723SOL    HW241049   2.387   2.763   6.188
 9724SOL     OW41050   1.455   1.524   2.591
 9724SOL    HW141051   1.402   1.574   2.529
 9724SOL    HW241052   1.437   1.432   2.570
 9725SOL     OW41053   4.525   4.063   1.705
 9725SOL    HW141054   4.607   4.101   1.737
 9725SOL    HW241055   4.458   4.125   1.731
 9726SOL     OW41056   2.075   2.933  17.107
 9726SOL    HW141057   1.994   2.980  17.087
 9726SOL    HW241058   2.117   2.920  17.022
 9727SOL     OW41059   0.647   1.702  15.405
 9727SOL    HW141060   0.698   1.781  15.424
 9727SOL    HW241061   0.678   1.638  15.470
 9728SOL     OW41062   3.896   1.691  18.732
 9728SOL    HW141063   3.940   1.644  18.802
 9728SOL    HW241064   3.804   1.662  18.737
 9729SOL     OW41065   1.573   4.172  18.067
 9729SOL    HW141066   1.644   4.232  18.091
 9729SOL    HW241067   1.566   4.112  18.142
 9730SOL     OW41068   4.381   4.409   3.550
 9730SOL    HW141069   4.354   4.400   3.642
 9730SOL    HW241070   4.298   4.414   3.502
 9731SOL     OW41071   0.788   3.741   5.106
 9731SOL    HW141072   0.853   3.785   5.051
 9731SOL    HW241073   0.754   3.810   5.162
 9732SOL     OW41074   0.914   1.257   1.748
 9732SOL    HW141075   0.987   1.255   1.809
 9732SOL    HW241076   0.836   1.252   1.804
 9733SOL     OW41077   1.706   2.269   2.610
 9733SOL    HW141078   1.741   2.182   2.591
 9733SOL    HW241079   1.783   2.326   2.615
 9734SOL     OW41080   0.081   0.222   3.447
 9734SOL    HW141081   0.090   0.127   3.436
 9734SOL    HW241082   0.108   0.239   3.537
 9735SOL     OW41083   2.340   1.229  20.508
 9735SOL    HW141084   2.356   1.324  20.506
 9735SOL    HW241085   2.292   1.212  20.427
 9736SOL     OW41086   1.469   1.929   1.491
 9736SOL    HW141087   1.507   1.890   1.412
 9736SOL    HW241088   1.523   1.897   1.562
 9737SOL     OW41089   4.028   1.377  13.715
 9737SOL    HW141090   3.957   1.361  13.653
 9737SOL    HW241091   4.007   1.462  13.754
 9738SOL     OW41092   4.107   1.349   1.429
 9738SOL    HW141093   4.086   1.268   1.382
 9738SOL    HW241094   4.045   1.413   1.396
 9739SOL     OW41095   0.758   1.032  19.129
 9739SOL    HW141096   0.839   0.981  19.125
 9739SOL    HW241097   0.712   0.998  19.207
 9740SOL     OW41098   3.513   1.991  18.930
 9740SOL    HW141099   3.486   2.053  18.997
 9740SOL    HW241100   3.440   1.929  18.923
 9741SOL     OW41101   2.151   4.469  20.201
 9741SOL    HW141102   2.152   4.437  20.291
 9741SOL    HW241103   2.063   4.505  20.189
 9742SOL     OW41104   2.351   0.023   2.085
 9742SOL    HW141105   2.396   4.732   2.055
 9742SOL    HW241106   2.319   4.787   2.173
 9743SOL     OW41107   3.287   1.144   5.309
 9743SOL    HW141108   3.246   1.216   5.260
 9743SOL    HW241109   3.376   1.139   5.275
 9744SOL     OW41110   1.266   0.929  14.040
 9744SOL    HW141111   1.173   0.908  14.033
 9744SOL    HW241112   1.268   1.022  14.061
 9745SOL     OW41113   3.792   3.781   5.937
 9745SOL    HW141114   3.702   3.749   5.933
 9745SOL    HW241115   3.844   3.707   5.905
 9746SOL     OW41116   0.839   4.435  18.641
 9746SOL    HW141117   0.832   4.374  18.714
 9746SOL    HW241118   0.920   4.410  18.596
 9747SOL     OW41119   2.393   3.953   8.355
 9747SOL    HW141120   2.334   3.988   8.288
 9747SOL    HW241121   2.378   3.859   8.353
 9748SOL     OW41122   1.215   3.546   4.107
 9748SOL    HW141123   1.201   3.601   4.184
 9748SOL    HW241124   1.204   3.457   4.139
 9749SOL     OW41125   3.603   4.712   0.739
 9749SOL    HW141126   3.657   4.643   0.777
 9749SOL    HW241127   3.526   4.718   0.795
 9750SOL     OW41128   2.820   3.429   2.950
 9750SOL    HW141129   2.738   3.479   2.951
 9750SOL    HW241130   2.850   3.433   3.041
 9751SOL     OW41131   2.378   1.928  20.249
 9751SOL    HW141132   2.289   1.895  20.237
 9751SOL    HW241133   2.406   1.888  20.332
 9752SOL     OW41134   0.850   3.324   1.345
 9752SOL    HW141135   0.791   3.390   1.309
 9752SOL    HW241136   0.810   3.298   1.428
 9753SOL     OW41137   2.858   1.522   9.696
 9753SOL    HW141138   2.904   1.534   9.778
 9753SOL    HW241139   2.906   1.453   9.650
 9754SOL     OW41140   4.727   0.765   5.790
 9754SOL    HW141141   4.685   0.807   5.716
 9754SOL    HW241142   4.704   0.672   5.782
 9755SOL     OW41143   1.639   2.364   2.304
 9755SOL    HW141144   1.730   2.367   2.274
 9755SOL    HW241145   1.644   2.326   2.392
 9756SOL     OW41146   2.408   2.877   6.915
 9756SOL    HW141147   2.431   2.810   6.979
 9756SOL    HW241148   2.317   2.858   6.892
 9757SOL     OW41149   3.890   2.350   6.088
 9757SOL    HW141150   3.833   2.297   6.144
 9757SOL    HW241151   3.839   2.429   6.071
 9758SOL     OW41152   0.416   4.020  20.071
 9758SOL    HW141153   0.396   4.002  19.979
 9758SOL    HW241154   0.387   3.942  20.118
 9759SOL     OW41155   1.687   2.090   5.646
 9759SOL    HW141156   1.747   2.162   5.628
 9759SOL    HW241157   1.687   2.038   5.566
 9760SOL     OW41158   3.134   0.401   3.944
 9760SOL    HW141159   3.140   0.400   4.040
 9760SOL    HW241160   3.075   0.475   3.925
 9761SOL     OW41161   0.668   0.116  13.933
 9761SOL    HW141162   0.714   0.193  13.898
 9761SOL    HW241163   0.622   0.080  13.857
 9762SOL     OW41164   0.207   4.750   1.982
 9762SOL    HW141165   0.120   4.717   2.003
 9762SOL    HW241166   0.205   4.768   1.888
 9763SOL     OW41167   0.250   3.630   3.034
 9763SOL    HW141168   0.267   3.559   3.096
 9763SOL    HW241169   0.237   3.707   3.090
 9764SOL     OW41170   3.701   0.690   4.433
 9764SOL    HW141171   3.668   0.666   4.519
 9764SOL    HW241172   3.624   0.725   4.387
 9765SOL     OW41173   3.774   0.744  15.616
 9765SOL    HW141174   3.832   0.817  15.640
 9765SOL    HW241175   3.690   0.785  15.597
 9766SOL     OW41176   0.193   2.223   1.270
 9766SOL    HW141177   0.134   2.292   1.241
 9766SOL    HW241178   0.190   2.157   1.201
 9767SOL     OW41179   0.137   4.360   3.076
 9767SOL    HW141180   0.125   4.435   3.017
 9767SOL    HW241181   0.209   4.385   3.133
 9768SOL     OW41182   1.447   3.707  14.651
 9768SOL    HW141183   1.526   3.727  14.601
 9768SOL    HW241184   1.375   3.738  14.596
 9769SOL     OW41185   1.661   0.732   0.246
 9769SOL    HW141186   1.740   0.770   0.208
 9769SOL    HW241187   1.623   0.681   0.175
 9770SOL     OW41188   0.206   1.052   5.668
 9770SOL    HW141189   0.231   1.144   5.665
 9770SOL    HW241190   0.115   1.051   5.641
 9771SOL     OW41191   3.067   1.308  20.158
 9771SOL    HW141192   3.118   1.236  20.120
 9771SOL    HW241193   3.125   1.346  20.223
 9772SOL     OW41194   1.233   3.893   7.877
 9772SOL    HW141195   1.248   3.921   7.967
 9772SOL    HW241196   1.144   3.857   7.878
 9773SOL     OW41197   3.352   1.384  19.084
 9773SOL    HW141198   3.271   1.344  19.114
 9773SOL    HW241199   3.421   1.322  19.110
 9774SOL     OW41200   4.182   4.293  16.874
 9774SOL    HW141201   4.187   4.275  16.967
 9774SOL    HW241202   4.269   4.271  16.840
 9775SOL     OW41203   3.828   4.528  17.998
 9775SOL    HW141204   3.888   4.485  18.059
 9775SOL    HW241205   3.773   4.457  17.966
 9776SOL     OW41206   3.265   2.665   1.631
 9776SOL    HW141207   3.280   2.694   1.722
 9776SOL    HW241208   3.169   2.660   1.624
 9777SOL     OW41209   2.691   1.055  20.025
 9777SOL    HW141210   2.614   1.056  20.081
 9777SOL    HW241211   2.713   0.963  20.016
 9778SOL     OW41212   3.795   1.063   7.357
 9778SOL    HW141213   3.746   1.047   7.438
 9778SOL    HW241214   3.732   1.048   7.287
 9779SOL     OW41215   4.506   3.436   2.660
 9779SOL    HW141216   4.489   3.443   2.567
 9779SOL    HW241217   4.430   3.389   2.695
 9780SOL     OW41218   0.272   0.165  11.271
 9780SOL    HW141219   0.297   0.085  11.225
 9780SOL    HW241220   0.283   0.144  11.363
 9781SOL     OW41221   2.306   0.900   2.372
 9781SOL    HW141222   2.300   0.873   2.281
 9781SOL    HW241223   2.399   0.895   2.392
 9782SOL     OW41224   1.559   4.465  19.062
 9782SOL    HW141225   1.588   4.432  18.977
 9782SOL    HW241226   1.639   4.495  19.106
 9783SOL     OW41227   3.087   3.350  16.558
 9783SOL    HW141228   3.032   3.336  16.481
 9783SOL    HW241229   3.173   3.318  16.531
 9784SOL     OW41230   1.874   3.884   2.622
 9784SOL    HW141231   1.827   3.824   2.564
 9784SOL    HW241232   1.949   3.833   2.653
 9785SOL     OW41233   4.658   0.966  19.638
 9785SOL    HW141234   4.578   1.007  19.671
 9785SOL    HW241235   4.700   0.929  19.716
 9786SOL     OW41236   4.454   1.187  14.836
 9786SOL    HW141237   4.386   1.134  14.878
 9786SOL    HW241238   4.426   1.278  14.850
 9787SOL     OW41239   4.727   4.149   5.373
 9787SOL    HW141240   4.646   4.167   5.422
 9787SOL    HW241241   4.703   4.082   5.310
 9788SOL     OW41242   0.263   4.064   4.045
 9788SOL    HW141243   0.172   4.038   4.030
 9788SOL    HW241244   0.265   4.158   4.024
 9789SOL     OW41245   1.878   1.046  18.624
 9789SOL    HW141246   1.794   1.057  18.580
 9789SOL    HW241247   1.897   0.953  18.617
 9790SOL     OW41248   2.060   3.111  16.604
 9790SOL    HW141249   2.049   3.203  16.582
 9790SOL    HW241250   2.154   3.097  16.604
 9791SOL     OW41251   2.789   0.049  19.781
 9791SOL    HW141252   2.751   0.111  19.720
 9791SOL    HW241253   2.726   4.765  19.786
 9792SOL     OW41254   1.006   0.611  19.741
 9792SOL    HW141255   1.002   0.516  19.737
 9792SOL    HW241256   0.961   0.641  19.662
 9793SOL     OW41257   3.749   3.133  18.475
 9793SOL    HW141258   3.705   3.083  18.406
 9793SOL    HW241259   3.815   3.073  18.510
 9794SOL     OW41260   2.835   1.949   5.234
 9794SOL    HW141261   2.817   2.004   5.158
 9794SOL    HW241262   2.906   1.993   5.279
 9795SOL     OW41263   1.270   3.184  18.610
 9795SOL    HW141264   1.190   3.158  18.565
 9795SOL    HW241265   1.266   3.279  18.613
 9796SOL     OW41266   1.503   1.943  17.986
 9796SOL    HW141267   1.535   1.889  18.058
 9796SOL    HW241268   1.427   1.896  17.953
 9797SOL     OW41269   0.433   0.266  15.675
 9797SOL    HW141270   0.423   0.277  15.770
 9797SOL    HW241271   0.349   0.295  15.639
 9798SOL     OW41272   0.204   1.800   4.175
 9798SOL    HW141273   0.110   1.818   4.188
 9798SOL    HW241274   0.220   1.824   4.084
 9799SOL     OW41275   3.814   3.440   1.872
 9799SOL    HW141276   3.883   3.375   1.858
 9799SOL    HW241277   3.744   3.391   1.916
 9800SOL     OW41278   1.089   0.445   2.736
 9800SOL    HW141279   1.170   0.398   2.754
 9800SOL    HW241280   1.020   0.385   2.766
 9801SOL     OW41281   2.857   1.703   1.298
 9801SOL    HW141282   2.773   1.746   1.313
 9801SOL    HW241283   2.880   1.726   1.208
 9802SOL     OW41284   2.389   2.424   8.885
 9802SOL    HW141285   2.351   2.480   8.818
 9802SOL    HW241286   2.331   2.435   8.960
 9803SOL     OW41287   2.377   3.146  15.861
 9803SOL    HW141288   2.328   3.081  15.912
 9803SOL    HW241289   2.425   3.094  15.797
 9804SOL     OW41290   2.918   2.075   4.342
 9804SOL    HW141291   2.922   2.135   4.417
 9804SOL    HW241292   2.992   2.101   4.287
 9805SOL     OW41293   0.563   1.136  19.636
 9805SOL    HW141294   0.617   1.115  19.712
 9805SOL    HW241295   0.515   1.056  19.618
 9806SOL     OW41296   2.590   4.686  16.551
 9806SOL    HW141297   2.668   4.689  16.606
 9806SOL    HW241298   2.597   4.762  16.494
 9807SOL     OW41299   2.315   1.012   4.393
 9807SOL    HW141300   2.348   1.094   4.357
 9807SOL    HW241301   2.238   1.037   4.444
 9808SOL     OW41302   2.227   3.262  15.207
 9808SOL    HW141303   2.280   3.325  15.158
 9808SOL    HW241304   2.282   3.185  15.215
 9809SOL     OW41305   2.678   0.769   8.294
 9809SOL    HW141306   2.744   0.813   8.348
 9809SOL    HW241307   2.607   0.833   8.285
 9810SOL     OW41308   3.760   0.337  16.521
 9810SOL    HW141309   3.771   0.361  16.429
 9810SOL    HW241310   3.739   0.244  16.519
 9811SOL     OW41311   3.572   3.538  14.265
 9811SOL    HW141312   3.563   3.517  14.357
 9811SOL    HW241313   3.486   3.521  14.228
 9812SOL     OW41314   4.376   4.345  13.563
 9812SOL    HW141315   4.415   4.336  13.476
 9812SOL    HW241316   4.445   4.318  13.623
 9813SOL     OW41317   0.232   3.415  15.848
 9813SOL    HW141318   0.322   3.399  15.818
 9813SOL    HW241319   0.216   3.347  15.913
 9814SOL     OW41320   3.788   3.439   5.636
 9814SOL    HW141321   3.702   3.453   5.597
 9814SOL    HW241322   3.811   3.350   5.610
 9815SOL     OW41323   1.810   0.440  20.488
 9815SOL    HW141324   1.715   0.442  20.500
 9815SOL    HW241325   1.845   0.422  20.575
 9816SOL     OW41326   2.038   2.745  18.445
 9816SOL    HW141327   1.992   2.769  18.525
 9816SOL    HW241328   1.979   2.771  18.374
 9817SOL     OW41329   4.783   4.655  15.273
 9817SOL    HW141330   4.699   4.644  15.228
 9817SOL    HW241331   0.061   4.629  15.208
 9818SOL     OW41332   3.360   0.092  12.700
 9818SOL    HW141333   3.291   0.157  12.714
 9818SOL    HW241334   3.329   0.014  12.744
 9819SOL     OW41335   3.757   1.878  17.288
 9819SOL    HW141336   3.722   1.790  17.300
 9819SOL    HW241337   3.807   1.872  17.206
 9820SOL     OW41338   4.089   0.251   5.435
 9820SOL    HW141339   4.089   0.346   5.452
 9820SOL    HW241340   4.030   0.215   5.502
 9821SOL     OW41341   1.812   1.541   2.424
 9821SOL    HW141342   1.880   1.519   2.360
 9821SOL    HW241343   1.753   1.465   2.422
 9822SOL     OW41344   2.298   0.776  19.393
 9822SOL    HW141345   2.373   0.833  19.376
 9822SOL    HW241346   2.282   0.784  19.487
 9823SOL     OW41347   0.442   1.901   2.210
 9823SOL    HW141348   0.383   1.831   2.238
 9823SOL    HW241349   0.420   1.975   2.266
 9824SOL     OW41350   4.760   1.245   0.480
 9824SOL    HW141351   4.704   1.321   0.498
 9824SOL    HW241352   4.736   1.182   0.548
 9825SOL     OW41353   0.324   0.496   3.050
 9825SOL    HW141354   0.332   0.411   3.008
 9825SOL    HW241355   0.384   0.553   3.001
 9826SOL     OW41356   1.672   1.310   0.311
 9826SOL    HW141357   1.721   1.230   0.332
 9826SOL    HW241358   1.714   1.344   0.233
 9827SOL     OW41359   2.018   3.044   1.750
 9827SOL    HW141360   2.072   3.115   1.716
 9827SOL    HW241361   2.003   3.068   1.842
 9828SOL     OW41362   2.505   0.843   0.708
 9828SOL    HW141363   2.528   0.913   0.648
 9828SOL    HW241364   2.438   0.880   0.765
 9829SOL     OW41365   3.561   4.340  13.678
 9829SOL    HW141366   3.559   4.320  13.584
 9829SOL    HW241367   3.470   4.333  13.706
 9830SOL     OW41368   0.081   0.719  15.925
 9830SOL    HW141369   0.037   0.678  16.000
 9830SOL    HW241370   0.011   0.740  15.864
 9831SOL     OW41371   2.048   1.898   3.542
 9831SOL    HW141372   2.002   1.978   3.518
 9831SOL    HW241373   1.979   1.831   3.546
 9832SOL     OW41374   3.120   2.648  16.814
 9832SOL    HW141375   3.198   2.604  16.848
 9832SOL    HW241376   3.089   2.701  16.888
 9833SOL     OW41377   4.338   4.332   4.071
 9833SOL    HW141378   4.412   4.390   4.085
 9833SOL    HW241379   4.309   4.307   4.159
 9834SOL     OW41380   2.548   1.351  17.381
 9834SOL    HW141381   2.586   1.425  17.428
 9834SOL    HW241382   2.535   1.384  17.292
 9835SOL     OW41383   1.858   0.876   1.081
 9835SOL    HW141384   1.899   0.891   1.167
 9835SOL    HW241385   1.928   0.838   1.028
 9836SOL     OW41386   4.525   1.841   3.853
 9836SOL    HW141387   4.563   1.873   3.935
 9836SOL    HW241388   4.431   1.839   3.869
 9837SOL     OW41389   0.926   0.992  19.611
 9837SOL    HW141390   0.872   1.029  19.681
 9837SOL    HW241391   1.007   1.042  19.614
 9838SOL     OW41392   3.214   4.264   3.954
 9838SOL    HW141393   3.299   4.220   3.949
 9838SOL    HW241394   3.230   4.351   3.918
 9839SOL     OW41395   1.277   2.970  12.601
 9839SOL    HW141396   1.308   2.885  12.570
 9839SOL    HW241397   1.340   2.996  12.668
 9840SOL     OW41398   0.243   4.264   1.235
 9840SOL    HW141399   0.230   4.170   1.249
 9840SOL    HW241400   0.159   4.295   1.201
 9841SOL     OW41401   2.139   3.952   3.490
 9841SOL    HW141402   2.170   3.881   3.546
 9841SOL    HW241403   2.046   3.960   3.510
 9842SOL     OW41404   0.573   4.785  18.819
 9842SOL    HW141405   0.494   0.016  18.869
 9842SOL    HW241406   0.542   4.751  18.735
 9843SOL     OW41407   1.567   0.437   5.988
 9843SOL    HW141408   1.613   0.354   5.990
 9843SOL    HW241409   1.551   0.459   6.080
 9844SOL     OW41410   4.363   1.583   0.642
 9844SOL    HW141411   4.307   1.506   0.642
 9844SOL    HW241412   4.354   1.620   0.555
 9845SOL     OW41413   4.507   1.641  20.885
 9845SOL    HW141414   4.521   1.688  20.967
 9845SOL    HW241415   4.427   1.590  20.900
 9846SOL     OW41416   2.750   3.259   3.238
 9846SOL    HW141417   2.682   3.310   3.195
 9846SOL    HW241418   2.770   3.189   3.176
 9847SOL     OW41419   2.770   3.071   4.382
 9847SOL    HW141420   2.832   2.998   4.376
 9847SOL    HW241421   2.754   3.082   4.475
 9848SOL     OW41422   2.984   3.904   3.753
 9848SOL    HW141423   2.964   3.811   3.769
 9848SOL    HW241424   3.074   3.903   3.720
 9849SOL     OW41425   3.678   3.543  13.861
 9849SOL    HW141426   3.733   3.492  13.920
 9849SOL    HW241427   3.725   3.626  13.849
 9850SOL     OW41428   4.218   2.762  19.498
 9850SOL    HW141429   4.191   2.839  19.449
 9850SOL    HW241430   4.138   2.735  19.545
 9851SOL     OW41431   3.903   4.363  18.240
 9851SOL    HW141432   3.820   4.409  18.255
 9851SOL    HW241433   3.928   4.330  18.327
 9852SOL     OW41434   4.625   4.578   4.492
 9852SOL    HW141435   4.561   4.538   4.433
 9852SOL    HW241436   4.575   4.596   4.572
 9853SOL     OW41437   2.891   0.833   5.525
 9853SOL    HW141438   2.890   0.740   5.501
 9853SOL    HW241439   2.845   0.876   5.453
 9854SOL     OW41440   3.149   3.285  17.653
 9854SOL    HW141441   3.162   3.240  17.737
 9854SOL    HW241442   3.199   3.366  17.662
 9855SOL     OW41443   1.845   2.245   4.886
 9855SOL    HW141444   1.867   2.276   4.973
 9855SOL    HW241445   1.918   2.187   4.862
 9856SOL     OW41446   4.719   0.418   4.997
 9856SOL    HW141447   4.671   0.492   5.035
 9856SOL    HW241448   4.661   0.343   5.010
 9857SOL     OW41449   4.715   0.176   5.394
 9857SOL    HW141450   4.685   0.266   5.406
 9857SOL    HW241451   0.021   0.179   5.412
 9858SOL     OW41452   2.241   4.191   6.651
 9858SOL    HW141453   2.334   4.214   6.657
 9858SOL    HW241454   2.236   4.128   6.579
 9859SOL     OW41455   1.076   1.941   3.663
 9859SOL    HW141456   1.055   1.924   3.755
 9859SOL    HW241457   1.032   1.871   3.615
 9860SOL     OW41458   1.360   0.381   4.004
 9860SOL    HW141459   1.283   0.333   3.973
 9860SOL    HW241460   1.325   0.454   4.054
 9861SOL     OW41461   4.537   2.139  20.964
 9861SOL    HW141462   4.572   2.228  20.973
 9861SOL    HW241463   4.477   2.130  21.039
 9862SOL     OW41464   0.148   3.751  13.564
 9862SOL    HW141465   0.077   3.800  13.607
 9862SOL    HW241466   0.178   3.809  13.494
 9863SOL     OW41467   1.825   1.198  16.980
 9863SOL    HW141468   1.859   1.264  16.920
 9863SOL    HW241469   1.818   1.119  16.927
 9864SOL     OW41470   1.742   3.053   3.085
 9864SOL    HW141471   1.688   3.114   3.035
 9864SOL    HW241472   1.690   2.973   3.089
 9865SOL     OW41473   3.825   0.837  15.094
 9865SOL    HW141474   3.896   0.783  15.127
 9865SOL    HW241475   3.856   0.927  15.104
 9866SOL     OW41476   4.301   0.212  19.084
 9866SOL    HW141477   4.333   0.217  18.994
 9866SOL    HW241478   4.348   0.281  19.131
 9867SOL     OW41479   4.319   2.996   1.212
 9867SOL    HW141480   4.295   3.087   1.229
 9867SOL    HW241481   4.243   2.945   1.242
 9868SOL     OW41482   2.431   1.184  17.159
 9868SOL    HW141483   2.515   1.141  17.175
 9868SOL    HW241484   2.390   1.188  17.245
 9869SOL     OW41485   0.750   0.881   2.117
 9869SOL    HW141486   0.663   0.913   2.140
 9869SOL    HW241487   0.735   0.823   2.042
 9870SOL     OW41488   2.732   1.631  20.758
 9870SOL    HW141489   2.786   1.691  20.810
 9870SOL    HW241490   2.691   1.574  20.823
 9871SOL     OW41491   0.221   1.191  15.414
 9871SOL    HW141492   0.280   1.162  15.345
 9871SOL    HW241493   0.225   1.121  15.480
 9872SOL     OW41494   1.551   1.748  18.182
 9872SOL    HW141495   1.638   1.760  18.221
 9872SOL    HW241496   1.490   1.781  18.248
 9873SOL     OW41497   2.172   0.779   3.568
 9873SOL    HW141498   2.225   0.704   3.546
 9873SOL    HW241499   2.209   0.851   3.518
 9874SOL     OW41500   3.278   1.423   5.601
 9874SOL    HW141501   3.318   1.498   5.645
 9874SOL    HW241502   3.324   1.418   5.517
 9875SOL     OW41503   0.993   1.894   1.044
 9875SOL    HW141504   1.048   1.844   1.104
 9875SOL    HW241505   1.029   1.876   0.957
 9876SOL     OW41506   1.288   0.582   7.030
 9876SOL    HW141507   1.287   0.671   6.997
 9876SOL    HW241508   1.250   0.588   7.118
 9877SOL     OW41509   3.857   3.686  16.303
 9877SOL    HW141510   3.885   3.623  16.237
 9877SOL    HW241511   3.913   3.668  16.379
 9878SOL     OW41512   2.390   4.557   4.411
 9878SOL    HW141513   2.427   4.618   4.347
 9878SOL    HW241514   2.309   4.599   4.439
 9879SOL     OW41515   3.354   4.773  21.221
 9879SOL    HW141516   3.373   4.700  21.163
 9879SOL    HW241517   3.431   0.043  21.214
 9880SOL     OW41518   3.694   1.249  18.969
 9880SOL    HW141519   3.694   1.155  18.952
 9880SOL    HW241520   3.631   1.284  18.905
 9881SOL     OW41521   0.114   0.545  14.775
 9881SOL    HW141522   0.044   0.486  14.746
 9881SOL    HW241523   0.070   0.629  14.787
 9882SOL     OW41524   4.295   0.193   3.062
 9882SOL    HW141525   4.227   0.166   3.123
 9882SOL    HW241526   4.283   0.288   3.053
 9883SOL     OW41527   1.059   2.009   4.544
 9883SOL    HW141528   1.100   1.988   4.628
 9883SOL    HW241529   0.966   2.013   4.562
 9884SOL     OW41530   1.030   4.109  16.948
 9884SOL    HW141531   1.098   4.175  16.963
 9884SOL    HW241532   1.037   4.089  16.854
 9885SOL     OW41533   3.313   1.012   5.578
 9885SOL    HW141534   3.248   1.029   5.646
 9885SOL    HW241535   3.285   1.065   5.503
 9886SOL     OW41536   0.197   0.930   1.050
 9886SOL    HW141537   0.146   0.963   0.977
 9886SOL    HW241538   0.281   0.976   1.044
 9887SOL     OW41539   2.245   0.475  20.843
 9887SOL    HW141540   2.245   0.388  20.883
 9887SOL    HW241541   2.193   0.529  20.902
 9888SOL     OW41542   3.666   0.577  18.076
 9888SOL    HW141543   3.672   0.662  18.118
 9888SOL    HW241544   3.696   0.592  17.986
 9889SOL     OW41545   3.283   1.562   2.326
 9889SOL    HW141546   3.337   1.538   2.251
 9889SOL    HW241547   3.202   1.512   2.314
 9890SOL     OW41548   2.766   1.825   2.613
 9890SOL    HW141549   2.758   1.816   2.708
 9890SOL    HW241550   2.815   1.906   2.600
 9891SOL     OW41551   2.651   2.546  15.522
 9891SOL    HW141552   2.667   2.622  15.465
 9891SOL    HW241553   2.667   2.470  15.465
 9892SOL     OW41554   0.315   4.466  14.630
 9892SOL    HW141555   0.356   4.435  14.549
 9892SOL    HW241556   0.382   4.451  14.697
 9893SOL     OW41557   2.476   0.489  15.467
 9893SOL    HW141558   2.479   0.410  15.520
 9893SOL    HW241559   2.565   0.501  15.435
 9894SOL     OW41560   2.097   3.382   2.025
 9894SOL    HW141561   2.010   3.359   2.059
 9894SOL    HW241562   2.158   3.344   2.088
 9895SOL     OW41563   1.733   1.461  20.265
 9895SOL    HW141564   1.647   1.472  20.224
 9895SOL    HW241565   1.715   1.450  20.358
 9896SOL     OW41566   2.915   2.780  20.048
 9896SOL    HW141567   2.821   2.771  20.036
 9896SOL    HW241568   2.947   2.690  20.051
 9897SOL     OW41569   1.508   4.176  15.830
 9897SOL    HW141570   1.430   4.232  15.835
 9897SOL    HW241571   1.475   4.092  15.797
 9898SOL     OW41572   3.081   2.578  17.334
 9898SOL    HW141573   3.101   2.506  17.394
 9898SOL    HW241574   2.987   2.591  17.342
 9899SOL     OW41575   1.387   4.412  16.198
 9899SOL    HW141576   1.482   4.397  16.196
 9899SOL    HW241577   1.351   4.332  16.235
 9900SOL     OW41578   2.991   2.649  21.069
 9900SOL    HW141579   3.084   2.631  21.086
 9900SOL    HW241580   2.991   2.716  21.001
 9901SOL     OW41581   4.241   3.110  14.873
 9901SOL    HW141582   4.212   3.129  14.962
 9901SOL    HW241583   4.174   3.050  14.838
 9902SOL     OW41584   1.211   4.042  15.326
 9902SOL    HW141585   1.299   4.030  15.364
 9902SOL    HW241586   1.199   4.137  15.322
 9903SOL     OW41587   2.457   4.007  13.005
 9903SOL    HW141588   2.430   3.920  13.034
 9903SOL    HW241589   2.402   4.067  13.054
 9904SOL     OW41590   2.495   1.889   2.570
 9904SOL    HW141591   2.491   1.888   2.474
 9904SOL    HW241592   2.584   1.861   2.591
 9905SOL     OW41593   0.620   2.533   3.932
 9905SOL    HW141594   0.610   2.444   3.968
 9905SOL    HW241595   0.653   2.585   4.006
 9906SOL     OW41596   1.576   0.631  19.420
 9906SOL    HW141597   1.581   0.593  19.332
 9906SOL    HW241598   1.509   0.699  19.413
 9907SOL     OW41599   2.983   3.472   5.489
 9907SOL    HW141600   2.930   3.399   5.459
 9907SOL    HW241601   3.048   3.485   5.420
 9908SOL     OW41602   2.845   2.460   3.206
 9908SOL    HW141603   2.797   2.503   3.276
 9908SOL    HW241604   2.936   2.488   3.218
 9909SOL     OW41605   3.913   2.651   6.998
 9909SOL    HW141606   3.961   2.685   7.073
 9909SOL    HW241607   3.883   2.728   6.951
 9910SOL     OW41608   2.633   3.194  14.879
 9910SOL    HW141609   2.628   3.180  14.785
 9910SOL    HW241610   2.621   3.289  14.890
 9911SOL     OW41611   4.218   2.689   3.348
 9911SOL    HW141612   4.163   2.743   3.404
 9911SOL    HW241613   4.248   2.748   3.279
 9912SOL     OW41614   1.181   1.400   3.028
 9912SOL    HW141615   1.190   1.473   2.966
 9912SOL    HW241616   1.132   1.437   3.102
 9913SOL     OW41617   4.054   0.927   1.962
 9913SOL    HW141618   4.113   0.986   1.915
 9913SOL    HW241619   4.106   0.848   1.978
 9914SOL     OW41620   2.988   0.225   5.858
 9914SOL    HW141621   2.906   0.203   5.902
 9914SOL    HW241622   2.997   0.320   5.870
 9915SOL     OW41623   3.381   1.458   5.317
 9915SOL    HW141624   3.375   1.550   5.290
 9915SOL    HW241625   3.315   1.413   5.264
 9916SOL     OW41626   0.694   3.459   0.866
 9916SOL    HW141627   0.647   3.400   0.925
 9916SOL    HW241628   0.665   3.434   0.778
 9917SOL     OW41629   4.438   0.237  14.000
 9917SOL    HW141630   4.506   0.202  13.943
 9917SOL    HW241631   4.451   0.332  13.997
 9918SOL     OW41632   3.924   0.778  18.410
 9918SOL    HW141633   4.015   0.770  18.382
 9918SOL    HW241634   3.929   0.782  18.506
 9919SOL     OW41635   1.901   4.373   6.897
 9919SOL    HW141636   1.918   4.467   6.898
 9919SOL    HW241637   1.806   4.367   6.882
 9920SOL     OW41638   3.383   4.419  17.994
 9920SOL    HW141639   3.471   4.394  18.023
 9920SOL    HW241640   3.325   4.386  18.063
 9921SOL     OW41641   0.574   1.922  12.859
 9921SOL    HW141642   0.545   2.012  12.842
 9921SOL    HW241643   0.498   1.880  12.899
 9922SOL     OW41644   1.057   0.484   2.102
 9922SOL    HW141645   1.153   0.478   2.104
 9922SOL    HW241646   1.040   0.578   2.095
 9923SOL     OW41647   2.001   0.696   0.918
 9923SOL    HW141648   2.037   0.636   0.853
 9923SOL    HW241649   2.077   0.726   0.968
 9924SOL     OW41650   3.364   2.718  17.111
 9924SOL    HW141651   3.383   2.627  17.135
 9924SOL    HW241652   3.438   2.745  17.057
 9925SOL     OW41653   2.829   0.533  20.790
 9925SOL    HW141654   2.909   0.579  20.765
 9925SOL    HW241655   2.764   0.561  20.726
 9926SOL     OW41656   3.753   3.093   4.015
 9926SOL    HW141657   3.691   3.046   3.960
 9926SOL    HW241658   3.728   3.185   4.006
 9927SOL     OW41659   0.376   2.342   3.206
 9927SOL    HW141660   0.411   2.270   3.154
 9927SOL    HW241661   0.445   2.409   3.204
 9928SOL     OW41662   3.423   4.235   7.636
 9928SOL    HW141663   3.378   4.153   7.618
 9928SOL    HW241664   3.493   4.239   7.571
 9929SOL     OW41665   2.947   1.771   9.085
 9929SOL    HW141666   3.025   1.819   9.056
 9929SOL    HW241667   2.909   1.826   9.153
 9930SOL     OW41668   0.574   2.553   6.009
 9930SOL    HW141669   0.618   2.632   5.978
 9930SOL    HW241670   0.643   2.503   6.053
 9931SOL     OW41671   2.643   3.826   5.429
 9931SOL    HW141672   2.694   3.905   5.412
 9931SOL    HW241673   2.642   3.780   5.345
 9932SOL     OW41674   1.740   2.649  20.365
 9932SOL    HW141675   1.649   2.679  20.372
 9932SOL    HW241676   1.734   2.560  20.330
 9933SOL     OW41677   0.042   0.510  17.840
 9933SOL    HW141678   0.101   0.584  17.825
 9933SOL    HW241679   4.765   0.516  17.769
 9934SOL     OW41680   1.487   2.610  16.989
 9934SOL    HW141681   1.393   2.599  17.005
 9934SOL    HW241682   1.503   2.560  16.909
 9935SOL     OW41683   0.559   2.529   1.732
 9935SOL    HW141684   0.534   2.506   1.822
 9935SOL    HW241685   0.489   2.587   1.702
 9936SOL     OW41686   1.138   4.675  18.133
 9936SOL    HW141687   1.134   4.609  18.202
 9936SOL    HW241688   1.188   4.747  18.171
 9937SOL     OW41689   1.346   4.394  19.653
 9937SOL    HW141690   1.346   4.486  19.626
 9937SOL    HW241691   1.380   4.347  19.577
 9938SOL     OW41692   2.046   1.816  16.970
 9938SOL    HW141693   2.000   1.777  16.896
 9938SOL    HW241694   2.095   1.888  16.932
 9939SOL     OW41695   1.555   0.579   0.050
 9939SOL    HW141696   1.472   0.566   0.096
 9939SOL    HW241697   1.610   0.506   0.079
 9940SOL     OW41698   0.490   3.134   0.342
 9940SOL    HW141699   0.535   3.091   0.414
 9940SOL    HW241700   0.553   3.198   0.309
 9941SOL     OW41701   2.350   1.148  14.762
 9941SOL    HW141702   2.344   1.092  14.685
 9941SOL    HW241703   2.438   1.134  14.796
 9942SOL     OW41704   3.010   3.710  19.649
 9942SOL    HW141705   2.991   3.795  19.690
 9942SOL    HW241706   2.996   3.725  19.555
 9943SOL     OW41707   2.022   1.109  15.386
 9943SOL    HW141708   2.072   1.181  15.348
 9943SOL    HW241709   2.004   1.137  15.476
 9944SOL     OW41710   0.239   2.451  15.881
 9944SOL    HW141711   0.201   2.425  15.796
 9944SOL    HW241712   0.327   2.414  15.879
 9945SOL     OW41713   2.889   0.491   8.962
 9945SOL    HW141714   2.808   0.524   8.923
 9945SOL    HW241715   2.924   0.566   9.011
 9946SOL     OW41716   1.182   3.121   4.478
 9946SOL    HW141717   1.138   3.190   4.529
 9946SOL    HW241718   1.255   3.094   4.534
 9947SOL     OW41719   1.387   4.132   5.589
 9947SOL    HW141720   1.293   4.119   5.575
 9947SOL    HW241721   1.400   4.115   5.682
 9948SOL     OW41722   2.593   1.061   1.733
 9948SOL    HW141723   2.589   1.124   1.806
 9948SOL    HW241724   2.504   1.062   1.696
 9949SOL     OW41725   4.634   2.349   7.202
 9949SOL    HW141726   4.588   2.410   7.144
 9949SOL    HW241727   4.649   2.399   7.283
 9950SOL     OW41728   1.472   1.227  18.503
 9950SOL    HW141729   1.465   1.286  18.578
 9950SOL    HW241730   1.394   1.172  18.507
 9951SOL     OW41731   2.595   2.312  20.811
 9951SOL    HW141732   2.512   2.358  20.819
 9951SOL    HW241733   2.649   2.347  20.881
 9952SOL     OW41734   4.153   1.426   5.021
 9952SOL    HW141735   4.209   1.500   5.046
 9952SOL    HW241736   4.116   1.396   5.104
 9953SOL     OW41737   3.673   3.243   2.547
 9953SOL    HW141738   3.629   3.299   2.611
 9953SOL    HW241739   3.730   3.301   2.498
 9954SOL     OW41740   2.280   3.771  17.919
 9954SOL    HW141741   2.298   3.712  17.846
 9954SOL    HW241742   2.186   3.788  17.912
 9955SOL     OW41743   3.985   1.936   0.045
 9955SOL    HW141744   3.891   1.946   0.032
 9955SOL    HW241745   4.020   2.025   0.035
 9956SOL     OW41746   3.948   1.645  13.804
 9956SOL    HW141747   3.933   1.705  13.731
 9956SOL    HW241748   4.023   1.682  13.850
 9957SOL     OW41749   3.280   0.345  18.670
 9957SOL    HW141750   3.372   0.371  18.677
 9957SOL    HW241751   3.244   0.403  18.603
 9958SOL     OW41752   3.231   1.831  18.601
 9958SOL    HW141753   3.157   1.874  18.644
 9958SOL    HW241754   3.303   1.839  18.663
 9959SOL     OW41755   0.928   3.382   5.583
 9959SOL    HW141756   0.895   3.466   5.550
 9959SOL    HW241757   0.875   3.316   5.537
 9960SOL     OW41758   3.337   0.253   1.576
 9960SOL    HW141759   3.385   0.184   1.529
 9960SOL    HW241760   3.322   0.321   1.510
 9961SOL     OW41761   2.322   3.029  16.694
 9961SOL    HW141762   2.297   3.104  16.748
 9961SOL    HW241763   2.378   2.976  16.752
 9962SOL     OW41764   1.150   4.487  16.474
 9962SOL    HW141765   1.066   4.516  16.511
 9962SOL    HW241766   1.204   4.567  16.472
 9963SOL     OW41767   2.271   2.375  19.866
 9963SOL    HW141768   2.321   2.313  19.917
 9963SOL    HW241769   2.196   2.397  19.921
 9964SOL     OW41770   0.615   4.752   3.587
 9964SOL    HW141771   0.562   4.754   3.507
 9964SOL    HW241772   0.706   4.748   3.555
 9965SOL     OW41773   1.726   1.848  15.026
 9965SOL    HW141774   1.767   1.850  14.940
 9965SOL    HW241775   1.635   1.871  15.010
 9966SOL     OW41776   4.693   2.145  18.302
 9966SOL    HW141777   4.689   2.153  18.398
 9966SOL    HW241778   4.702   2.051  18.287
 9967SOL     OW41779   1.306   1.365  19.784
 9967SOL    HW141780   1.398   1.379  19.760
 9967SOL    HW241781   1.275   1.451  19.814
 9968SOL     OW41782   2.051   1.587  14.223
 9968SOL    HW141783   1.982   1.631  14.173
 9968SOL    HW241784   2.070   1.647  14.295
 9969SOL     OW41785   3.527   1.894   3.943
 9969SOL    HW141786   3.518   1.804   3.913
 9969SOL    HW241787   3.621   1.909   3.946
 9970SOL     OW41788   0.469   0.185  19.942
 9970SOL    HW141789   0.373   0.186  19.948
 9970SOL    HW241790   0.498   0.202  20.032
 9971SOL     OW41791   4.203   0.781  18.314
 9971SOL    HW141792   4.185   0.847  18.247
 9971SOL    HW241793   4.225   0.702  18.264
 9972SOL     OW41794   1.511   3.439   8.499
 9972SOL    HW141795   1.533   3.515   8.444
 9972SOL    HW241796   1.596   3.398   8.518
 9973SOL     OW41797   0.407   3.397  20.118
 9973SOL    HW141798   0.351   3.418  20.043
 9973SOL    HW241799   0.347   3.394  20.193
 9974SOL     OW41800   3.677   2.317   0.371
 9974SOL    HW141801   3.584   2.298   0.368
 9974SOL    HW241802   3.687   2.400   0.323
 9975SOL     OW41803   4.099   1.580   4.710
 9975SOL    HW141804   4.023   1.607   4.659
 9975SOL    HW241805   4.144   1.662   4.731
 9976SOL     OW41806   2.766   2.294  18.608
 9976SOL    HW141807   2.792   2.203  18.623
 9976SOL    HW241808   2.746   2.299  18.515
 9977SOL     OW41809   0.518   1.751   1.512
 9977SOL    HW141810   0.536   1.835   1.555
 9977SOL    HW241811   0.539   1.767   1.420
 9978SOL     OW41812   2.921   3.988   1.534
 9978SOL    HW141813   2.932   3.919   1.599
 9978SOL    HW241814   2.829   3.982   1.508
 9979SOL     OW41815   2.342   4.328  18.581
 9979SOL    HW141816   2.380   4.271  18.648
 9979SOL    HW241817   2.416   4.379  18.548
 9980SOL     OW41818   1.090   4.295  19.044
 9980SOL    HW141819   1.149   4.337  19.107
 9980SOL    HW241820   1.149   4.250  18.983
 9981SOL     OW41821   1.222   4.586   1.860
 9981SOL    HW141822   1.181   4.555   1.941
 9981SOL    HW241823   1.242   4.507   1.811
 9982SOL     OW41824   3.335   3.294  17.254
 9982SOL    HW141825   3.408   3.299  17.316
 9982SOL    HW241826   3.358   3.220  17.197
 9983SOL     OW41827   1.680   2.226  18.120
 9983SOL    HW141828   1.688   2.219  18.025
 9983SOL    HW241829   1.769   2.218  18.153
 9984SOL     OW41830   3.860   0.776  17.366
 9984SOL    HW141831   3.767   0.779  17.343
 9984SOL    HW241832   3.904   0.746  17.287
 9985SOL     OW41833   2.270   0.604  14.736
 9985SOL    HW141834   2.247   0.691  14.703
 9985SOL    HW241835   2.280   0.551  14.657
 9986SOL     OW41836   0.155   1.398   1.845
 9986SOL    HW141837   0.198   1.464   1.790
 9986SOL    HW241838   0.219   1.380   1.915
 9987SOL     OW41839   1.275   1.502   1.251
 9987SOL    HW141840   1.239   1.414   1.263
 9987SOL    HW241841   1.363   1.498   1.286
 9988SOL     OW41842   0.198   4.676   1.661
 9988SOL    HW141843   0.203   4.582   1.645
 9988SOL    HW241844   0.105   4.693   1.675
 9989SOL     OW41845   4.224   4.385   2.713
 9989SOL    HW141846   4.183   4.442   2.778
 9989SOL    HW241847   4.297   4.344   2.760
 9990SOL     OW41848   2.157   3.627   9.236
 9990SOL    HW141849   2.167   3.699   9.174
 9990SOL    HW241850   2.063   3.621   9.252
 9991SOL     OW41851   3.765   0.317   0.623
 9991SOL    HW141852   3.853   0.279   0.631
 9991SOL    HW241853   3.709   0.242   0.602
 9992SOL     OW41854   0.810   0.345  19.193
 9992SOL    HW141855   0.736   0.290  19.218
 9992SOL    HW241856   0.839   0.309  19.109
 9993SOL     OW41857   3.178   3.671   2.685
 9993SOL    HW141858   3.089   3.644   2.707
 9993SOL    HW241859   3.234   3.602   2.720
 9994SOL     OW41860   4.756   3.127   1.515
 9994SOL    HW141861   4.738   3.034   1.527
 9994SOL    HW241862   4.770   3.160   1.604
 9995SOL     OW41863   4.591   0.569   9.667
 9995SOL    HW141864   4.602   0.474   9.679
 9995SOL    HW241865   4.550   0.598   9.748
 9996SOL     OW41866   2.652   2.793   9.557
 9996SOL    HW141867   2.561   2.822   9.564
 9996SOL    HW241868   2.688   2.807   9.645
 9997SOL     OW41869   1.111   2.557   9.645
 9997SOL    HW141870   1.200   2.560   9.680
 9997SOL    HW241871   1.120   2.516   9.559
 9998SOL     OW41872   1.392   3.128   9.505
 9998SOL    HW141873   1.445   3.113   9.583
 9998SOL    HW241874   1.320   3.066   9.513
 9999SOL     OW41875   0.505   3.167  16.928
 9999SOL    HW141876   0.517   3.072  16.923
 9999SOL    HW241877   0.414   3.179  16.955
10000SOL     OW41878   2.240   2.636   9.640
10000SOL    HW141879   2.155   2.680   9.645
10000SOL    HW241880   2.303   2.707   9.629
10001SOL     OW41881   2.346   0.798  18.425
10001SOL    HW141882   2.255   0.808  18.395
10001SOL    HW241883   2.398   0.834  18.353
10002SOL     OW41884   2.263   3.942   8.631
10002SOL    HW141885   2.208   3.866   8.613
10002SOL    HW241886   2.314   3.953   8.551
10003SOL     OW41887   2.672   2.886   7.930
10003SOL    HW141888   2.598   2.943   7.910
10003SOL    HW241889   2.742   2.918   7.873
10004SOL     OW41890   2.855   2.317   0.786
10004SOL    HW141891   2.862   2.319   0.690
10004SOL    HW241892   2.945   2.328   0.817
10005SOL     OW41893   2.283   2.370   9.664
10005SOL    HW141894   2.275   2.464   9.654
10005SOL    HW241895   2.377   2.354   9.669
10006SOL     OW41896   2.667   1.741   8.020
10006SOL    HW141897   2.674   1.825   7.974
10006SOL    HW241898   2.733   1.746   8.089
10007SOL     OW41899   1.587   1.918   9.141
10007SOL    HW141900   1.536   1.962   9.074
10007SOL    HW241901   1.675   1.910   9.104
10008SOL     OW41902   1.686   2.880  10.391
10008SOL    HW141903   1.729   2.938  10.329
10008SOL    HW241904   1.701   2.920  10.477
10009SOL     OW41905   2.987   3.220  10.943
10009SOL    HW141906   2.947   3.133  10.941
10009SOL    HW241907   2.913   3.281  10.937
10010SOL     OW41908   1.695   2.638  10.481
10010SOL    HW141909   1.697   2.731  10.458
10010SOL    HW241910   1.616   2.604  10.440
10011SOL     OW41911   2.897   2.908   9.861
10011SOL    HW141912   2.975   2.877   9.907
10011SOL    HW241913   2.926   2.921   9.771
10012SOL     OW41914   1.772   2.105  10.934
10012SOL    HW141915   1.816   2.097  11.019
10012SOL    HW241916   1.815   2.039  10.879
10013SOL     OW41917   1.102   1.458  10.943
10013SOL    HW141918   1.060   1.402  11.008
10013SOL    HW241919   1.124   1.398  10.871
10014SOL     OW41920   2.298   3.300  11.421
10014SOL    HW141921   2.273   3.363  11.489
10014SOL    HW241922   2.337   3.354  11.352
10015SOL     OW41923   2.498   3.324  10.860
10015SOL    HW141924   2.474   3.266  10.933
10015SOL    HW241925   2.594   3.320  10.857
10016SOL     OW41926   4.504   3.161   9.716
10016SOL    HW141927   4.521   3.178   9.623
10016SOL    HW241928   4.418   3.202   9.731
10017SOL     OW41929   2.085   0.528  10.460
10017SOL    HW141930   2.038   0.611  10.454
10017SOL    HW241931   2.123   0.528  10.548
10018SOL     OW41932   1.943   2.087  10.090
10018SOL    HW141933   1.939   2.153  10.021
10018SOL    HW241934   2.013   2.028  10.062
10019SOL     OW41935   0.894   1.763  11.319
10019SOL    HW141936   0.842   1.776  11.240
10019SOL    HW241937   0.933   1.676  11.309
10020SOL     OW41938   3.063   3.992  11.044
10020SOL    HW141939   3.142   3.980  11.097
10020SOL    HW241940   3.063   4.085  11.021
10021SOL     OW41941   2.814   2.693  11.379
10021SOL    HW141942   2.785   2.623  11.436
10021SOL    HW241943   2.909   2.695  11.388
10022SOL     OW41944   3.089   1.544  11.626
10022SOL    HW141945   3.167   1.596  11.642
10022SOL    HW241946   3.119   1.471  11.572
10023SOL     OW41947   3.892   2.793  12.044
10023SOL    HW141948   3.811   2.750  12.019
10023SOL    HW241949   3.923   2.745  12.121
10024SOL     OW41950   2.120   2.255  12.856
10024SOL    HW141951   2.100   2.348  12.845
10024SOL    HW241952   2.064   2.211  12.793
10025SOL     OW41953   2.994   1.840  10.965
10025SOL    HW141954   2.960   1.903  11.029
10025SOL    HW241955   2.939   1.853  10.888
10026SOL     OW41956   2.627   2.127  12.043
10026SOL    HW141957   2.540   2.161  12.065
10026SOL    HW241958   2.640   2.151  11.952
10027SOL     OW41959   2.195   2.507  12.255
10027SOL    HW141960   2.162   2.426  12.217
10027SOL    HW241961   2.271   2.530  12.201
10028SOL     OW41962   2.408   2.266  12.876
10028SOL    HW141963   2.444   2.216  12.803
10028SOL    HW241964   2.314   2.268  12.861
10029SOL     OW41965   1.640   3.098  11.445
10029SOL    HW141966   1.704   3.059  11.505
10029SOL    HW241967   1.653   3.051  11.362
10030SOL     OW41968   2.267   3.485  12.193
10030SOL    HW141969   2.292   3.432  12.268
10030SOL    HW241970   2.301   3.572  12.214
10031SOL     OW41971   2.274   3.144  12.912
10031SOL    HW141972   2.247   3.222  12.863
10031SOL    HW241973   2.291   3.079  12.844
10032SOL     OW41974   3.199   2.048  11.019
10032SOL    HW141975   3.162   1.964  10.992
10032SOL    HW241976   3.135   2.113  10.988
10033SOL     OW41977   0.914   0.759  16.352
10033SOL    HW141978   0.891   0.847  16.321
10033SOL    HW241979   1.006   0.748  16.328
10034SOL     OW41980   4.707   0.605  21.244
10034SOL    HW141981   4.622   0.647   0.009
10034SOL    HW241982   4.771   0.676  21.245
10035SOL     OW41983   3.357   2.599   7.055
10035SOL    HW141984   3.395   2.621   6.971
10035SOL    HW241985   3.421   2.629   7.119
10036SOL     OW41986   2.836   3.521  18.207
10036SOL    HW141987   2.781   3.568  18.270
10036SOL    HW241988   2.864   3.587  18.144
10037SOL     OW41989   0.838   1.266  18.267
10037SOL    HW141990   0.897   1.239  18.338
10037SOL    HW241991   0.893   1.320  18.210
10038SOL     OW41992   2.890   0.578  16.901
10038SOL    HW141993   2.983   0.579  16.924
10038SOL    HW241994   2.889   0.563  16.806
10039SOL     OW41995   3.779   0.042   6.088
10039SOL    HW141996   3.707   0.081   6.039
10039SOL    HW241997   3.749   0.043   6.179
10040SOL     OW41998   3.452   2.053  18.687
10040SOL    HW141999   3.476   2.057  18.779
10040SOL    HW242000   3.387   2.123  18.676
10041SOL     OW42001   4.571   0.256   1.502
10041SOL    HW142002   4.532   0.218   1.581
10041SOL    HW242003   4.622   0.330   1.534
10042SOL     OW42004   0.645   4.579  18.304
10042SOL    HW142005   0.612   4.594  18.215
10042SOL    HW242006   0.699   4.657  18.323
10043SOL     OW42007   3.391   2.792  12.168
10043SOL    HW142008   3.324   2.859  12.155
10043SOL    HW242009   3.342   2.713  12.189
10044SOL     OW42010   2.007   3.153  15.777
10044SOL    HW142011   2.009   3.175  15.683
10044SOL    HW242012   2.061   3.221  15.818
10045SOL     OW42013   1.601   2.258  16.264
10045SOL    HW142014   1.681   2.303  16.293
10045SOL    HW242015   1.531   2.322  16.277
10046SOL     OW42016   4.297   1.996   6.698
10046SOL    HW142017   4.294   2.019   6.605
10046SOL    HW242018   4.390   1.999   6.719
10047SOL     OW42019   2.131   3.689  19.440
10047SOL    HW142020   2.143   3.640  19.359
10047SOL    HW242021   2.159   3.778  19.420
10048SOL     OW42022   0.649   4.373  13.370
10048SOL    HW142023   0.676   4.306  13.307
10048SOL    HW242024   0.731   4.408  13.404
10049SOL     OW42025   3.549   0.223  15.696
10049SOL    HW142026   3.575   0.309  15.730
10049SOL    HW242027   3.623   0.196  15.641
10050SOL     OW42028   3.740   2.235  13.145
10050SOL    HW142029   3.811   2.267  13.089
10050SOL    HW242030   3.689   2.313  13.166
10051SOL     OW42031   3.205   4.100   2.360
10051SOL    HW142032   3.132   4.070   2.306
10051SOL    HW242033   3.173   4.094   2.450
10052SOL     OW42034   0.664   1.012  17.771
10052SOL    HW142035   0.700   1.092  17.810
10052SOL    HW242036   0.658   0.951  17.844
10053SOL     OW42037   3.800   0.395  16.256
10053SOL    HW142038   3.731   0.425  16.198
10053SOL    HW242039   3.854   0.473  16.271
10054SOL     OW42040   3.544   2.700   4.591
10054SOL    HW142041   3.497   2.728   4.512
10054SOL    HW242042   3.636   2.719   4.572
10055SOL     OW42043   2.680   2.444   4.140
10055SOL    HW142044   2.764   2.424   4.099
10055SOL    HW242045   2.661   2.368   4.195
10056SOL     OW42046   2.254   3.825  15.220
10056SOL    HW142047   2.199   3.753  15.253
10056SOL    HW242048   2.323   3.781  15.169
10057SOL     OW42049   2.377   4.428   5.631
10057SOL    HW142050   2.423   4.489   5.574
10057SOL    HW242051   2.298   4.405   5.582
10058SOL     OW42052   4.507   1.797  17.675
10058SOL    HW142053   4.494   1.833  17.587
10058SOL    HW242054   4.538   1.870  17.727
10059SOL     OW42055   0.131   1.880   4.556
10059SOL    HW142056   0.193   1.948   4.584
10059SOL    HW242057   0.148   1.807   4.616
10060SOL     OW42058   1.135   2.459  18.956
10060SOL    HW142059   1.207   2.470  19.018
10060SOL    HW242060   1.154   2.376  18.911
10061SOL     OW42061   4.722   3.867   6.689
10061SOL    HW142062   0.025   3.869   6.719
10061SOL    HW242063   4.688   3.954   6.710
10062SOL     OW42064   3.883   2.890  13.757
10062SOL    HW142065   3.936   2.910  13.835
10062SOL    HW242066   3.940   2.837  13.702
10063SOL     OW42067   2.649   2.749  13.344
10063SOL    HW142068   2.571   2.738  13.397
10063SOL    HW242069   2.692   2.664  13.346
10064SOL     OW42070   4.637   1.706  11.960
10064SOL    HW142071   4.546   1.677  11.954
10064SOL    HW242072   4.687   1.636  11.918
10065SOL     OW42073   1.506   2.677   1.818
10065SOL    HW142074   1.542   2.613   1.879
10065SOL    HW242075   1.421   2.641   1.792
10066SOL     OW42076   3.095   2.589   4.579
10066SOL    HW142077   3.125   2.516   4.525
10066SOL    HW242078   3.033   2.550   4.640
10067SOL     OW42079   0.378   3.872   2.613
10067SOL    HW142080   0.350   3.798   2.560
10067SOL    HW242081   0.337   3.948   2.572
10068SOL     OW42082   1.798   0.325  18.043
10068SOL    HW142083   1.868   0.375  18.001
10068SOL    HW242084   1.818   0.234  18.022
10069SOL     OW42085   1.142   2.948   4.017
10069SOL    HW142086   1.094   2.932   3.935
10069SOL    HW242087   1.154   2.862   4.055
10070SOL     OW42088   0.824   3.950   1.388
10070SOL    HW142089   0.796   3.909   1.470
10070SOL    HW242090   0.879   3.883   1.346
10071SOL     OW42091   2.271   1.954  14.166
10071SOL    HW142092   2.318   1.888  14.116
10071SOL    HW242093   2.184   1.957  14.125
10072SOL     OW42094   4.216   3.616  19.026
10072SOL    HW142095   4.138   3.564  19.006
10072SOL    HW242096   4.267   3.614  18.945
10073SOL     OW42097   2.763   1.604  18.130
10073SOL    HW142098   2.729   1.671  18.189
10073SOL    HW242099   2.702   1.531  18.139
10074SOL     OW42100   4.218   4.451   0.978
10074SOL    HW142101   4.286   4.515   0.999
10074SOL    HW242102   4.242   4.416   0.893
10075SOL     OW42103   0.396   3.597  18.571
10075SOL    HW142104   0.447   3.574  18.648
10075SOL    HW242105   0.336   3.666  18.601
10076SOL     OW42106   2.211   4.018  13.493
10076SOL    HW142107   2.119   4.025  13.519
10076SOL    HW242108   2.257   3.995  13.573
10077SOL     OW42109   0.759   0.485   6.181
10077SOL    HW142110   0.752   0.460   6.089
10077SOL    HW242111   0.707   0.419   6.228
10078SOL     OW42112   2.254   4.313   6.309
10078SOL    HW142113   2.255   4.218   6.297
10078SOL    HW242114   2.346   4.339   6.298
10079SOL     OW42115   0.217   0.056  20.060
10079SOL    HW142116   0.160   4.768  20.069
10079SOL    HW242117   0.162   0.123  20.020
10080SOL     OW42118   1.552   3.026   6.201
10080SOL    HW142119   1.637   3.069   6.206
10080SOL    HW242120   1.530   3.004   6.292
10081SOL     OW42121   1.495   4.774   1.392
10081SOL    HW142122   1.417   4.720   1.401
10081SOL    HW242123   1.465   0.075   1.412
10082SOL     OW42124   1.259   2.958   0.453
10082SOL    HW142125   1.234   3.041   0.493
10082SOL    HW242126   1.349   2.943   0.483
10083SOL     OW42127   1.927   1.239   1.537
10083SOL    HW142128   1.861   1.304   1.562
10083SOL    HW242129   1.993   1.244   1.606
10084SOL     OW42130   4.667   1.475  18.713
10084SOL    HW142131   4.747   1.425  18.732
10084SOL    HW242132   4.600   1.409  18.697
10085SOL     OW42133   0.514   4.770  16.747
10085SOL    HW142134   0.543   4.686  16.781
10085SOL    HW242135   0.434   0.002  16.797
10086SOL     OW42136   1.652   3.895  19.695
10086SOL    HW142137   1.621   3.906  19.785
10086SOL    HW242138   1.651   3.983  19.658
10087SOL     OW42139   3.714   4.368  11.712
10087SOL    HW142140   3.741   4.452  11.751
10087SOL    HW242141   3.736   4.377  11.619
10088SOL     OW42142   0.521   1.643   0.807
10088SOL    HW142143   0.488   1.597   0.884
10088SOL    HW242144   0.519   1.577   0.737
10089SOL     OW42145   4.217   0.531   6.002
10089SOL    HW142146   4.164   0.455   6.026
10089SOL    HW242147   4.307   0.504   6.017
10090SOL     OW42148   3.765   2.195  16.709
10090SOL    HW142149   3.804   2.133  16.771
10090SOL    HW242150   3.812   2.277  16.725
10091SOL     OW42151   1.776   0.912  15.879
10091SOL    HW142152   1.761   0.923  15.972
10091SOL    HW242153   1.694   0.876  15.845
10092SOL     OW42154   2.162   0.277  18.156
10092SOL    HW142155   2.192   0.307  18.241
10092SOL    HW242156   2.239   0.238  18.115
10093SOL     OW42157   0.537   4.313   6.417
10093SOL    HW142158   0.606   4.375   6.442
10093SOL    HW242159   0.476   4.365   6.365
10094SOL     OW42160   4.777   4.248   1.125
10094SOL    HW142161   4.766   4.154   1.119
10094SOL    HW242162   4.780   4.278   1.034
10095SOL     OW42163   0.079   2.136   1.805
10095SOL    HW142164   0.127   2.123   1.724
10095SOL    HW242165   0.135   2.099   1.873
10096SOL     OW42166   4.200   0.807  13.340
10096SOL    HW142167   4.168   0.852  13.262
10096SOL    HW242168   4.205   0.715  13.315
10097SOL     OW42169   3.401   2.180   2.874
10097SOL    HW142170   3.402   2.143   2.786
10097SOL    HW242171   3.446   2.115   2.928
10098SOL     OW42172   2.629   1.118  14.906
10098SOL    HW142173   2.674   1.188  14.953
10098SOL    HW242174   2.691   1.046  14.903
10099SOL     OW42175   0.599   2.340  20.801
10099SOL    HW142176   0.644   2.385  20.873
10099SOL    HW242177   0.506   2.343  20.825
10100SOL     OW42178   3.429   2.130   5.571
10100SOL    HW142179   3.445   2.219   5.601
10100SOL    HW242180   3.376   2.090   5.640
10101SOL     OW42181   3.352   3.836   1.913
10101SOL    HW142182   3.327   3.869   2.000
10101SOL    HW242183   3.416   3.900   1.881
10102SOL     OW42184   3.077   1.495  18.214
10102SOL    HW142185   3.009   1.521  18.276
10102SOL    HW242186   3.030   1.454  18.142
10103SOL     OW42187   2.489   1.544  18.486
10103SOL    HW142188   2.478   1.470  18.546
10103SOL    HW242189   2.492   1.621  18.543
10104SOL     OW42190   3.786   3.007  19.691
10104SOL    HW142191   3.713   3.047  19.739
10104SOL    HW242192   3.784   2.915  19.718
10105SOL     OW42193   2.962   2.946   7.935
10105SOL    HW142194   2.955   3.039   7.954
10105SOL    HW242195   3.026   2.941   7.863
10106SOL     OW42196   4.486   3.474   2.365
10106SOL    HW142197   4.391   3.473   2.372
10106SOL    HW242198   4.505   3.517   2.282
10107SOL     OW42199   3.546   4.723  19.817
10107SOL    HW142200   3.501   4.650  19.860
10107SOL    HW242201   3.504   0.013  19.853
10108SOL     OW42202   2.293   2.047  19.799
10108SOL    HW142203   2.214   2.075  19.753
10108SOL    HW242204   2.260   2.003  19.878
10109SOL     OW42205   2.223   2.253  17.741
10109SOL    HW142206   2.169   2.301  17.678
10109SOL    HW242207   2.199   2.291  17.826
10110SOL     OW42208   4.116   1.504  12.112
10110SOL    HW142209   4.023   1.517  12.132
10110SOL    HW242210   4.157   1.492  12.197
10111SOL     OW42211   0.521   0.974  18.956
10111SOL    HW142212   0.610   0.999  18.977
10111SOL    HW242213   0.507   0.893  19.006
10112SOL     OW42214   2.545   3.918  19.906
10112SOL    HW142215   2.475   3.895  19.967
10112SOL    HW242216   2.502   3.919  19.820
10113SOL     OW42217   0.704   4.547   2.356
10113SOL    HW142218   0.720   4.640   2.339
10113SOL    HW242219   0.781   4.517   2.404
10114SOL     OW42220   1.299   0.803   5.918
10114SOL    HW142221   1.288   0.731   5.856
10114SOL    HW242222   1.385   0.839   5.898
10115SOL     OW42223   1.392   1.125   0.930
10115SOL    HW142224   1.471   1.166   0.895
10115SOL    HW242225   1.392   1.146   1.023
10116SOL     OW42226   2.111   3.005  21.203
10116SOL    HW142227   2.018   3.016  21.225
10116SOL    HW242228   2.154   3.080  21.244
10117SOL     OW42229   0.490   4.375  15.943
10117SOL    HW142230   0.555   4.420  15.890
10117SOL    HW242231   0.411   4.373  15.889
10118SOL     OW42232   2.570   1.546   4.779
10118SOL    HW142233   2.580   1.640   4.760
10118SOL    HW242234   2.486   1.522   4.739
10119SOL     OW42235   0.532   3.006   3.064
10119SOL    HW142236   0.517   2.913   3.077
10119SOL    HW242237   0.475   3.029   2.990
10120SOL     OW42238   0.596   4.508   2.084
10120SOL    HW142239   0.659   4.476   2.149
10120SOL    HW242240   0.552   4.581   2.128
10121SOL     OW42241   3.386   1.854  20.287
10121SOL    HW142242   3.411   1.831  20.377
10121SOL    HW242243   3.464   1.836  20.235
10122SOL     OW42244   2.054   1.462   6.335
10122SOL    HW142245   2.036   1.490   6.246
10122SOL    HW242246   2.128   1.402   6.327
10123SOL     OW42247   0.614   3.643  14.057
10123SOL    HW142248   0.534   3.593  14.038
10123SOL    HW242249   0.590   3.698  14.132
10124SOL     OW42250   4.124   2.484  17.148
10124SOL    HW142251   4.198   2.461  17.204
10124SOL    HW242252   4.074   2.403  17.141
10125SOL     OW42253   1.679   0.342   0.112
10125SOL    HW142254   1.683   0.306   0.201
10125SOL    HW242255   1.594   0.313   0.079
10126SOL     OW42256   3.817   1.698   5.405
10126SOL    HW142257   3.820   1.604   5.391
10126SOL    HW242258   3.757   1.731   5.338
10127SOL     OW42259   3.779   2.451   6.655
10127SOL    HW142260   3.727   2.471   6.733
10127SOL    HW242261   3.870   2.463   6.683
10128SOL     OW42262   0.404   4.627   0.229
10128SOL    HW142263   0.444   4.581   0.156
10128SOL    HW242264   0.476   4.644   0.290
10129SOL     OW42265   3.898   3.495   8.605
10129SOL    HW142266   3.810   3.521   8.576
10129SOL    HW242267   3.911   3.543   8.687
10130SOL     OW42268   0.294   0.448   1.991
10130SOL    HW142269   0.371   0.397   2.019
10130SOL    HW242270   0.279   0.420   1.901
10131SOL     OW42271   0.627   3.896   4.598
10131SOL    HW142272   0.632   3.856   4.685
10131SOL    HW242273   0.585   3.980   4.613
10132SOL     OW42274   0.647   2.295   3.410
10132SOL    HW142275   0.636   2.390   3.410
10132SOL    HW242276   0.633   2.269   3.501
10133SOL     OW42277   3.015   1.612   5.474
10133SOL    HW142278   2.933   1.656   5.497
10133SOL    HW242279   3.006   1.524   5.510
10134SOL     OW42280   3.474   2.796   2.450
10134SOL    HW142281   3.391   2.823   2.412
10134SOL    HW242282   3.476   2.701   2.439
10135SOL     OW42283   2.241   0.851   5.691
10135SOL    HW142284   2.172   0.795   5.655
10135SOL    HW242285   2.318   0.829   5.639
10136SOL     OW42286   0.622   2.788   2.471
10136SOL    HW142287   0.541   2.797   2.521
10136SOL    HW242288   0.654   2.877   2.458
10137SOL     OW42289   3.217   1.621  19.142
10137SOL    HW142290   3.252   1.649  19.226
10137SOL    HW242291   3.279   1.554  19.111
10138SOL     OW42292   4.157   0.323  17.485
10138SOL    HW142293   4.148   0.230  17.464
10138SOL    HW242294   4.177   0.365  17.402
10139SOL     OW42295   4.582   2.364   2.798
10139SOL    HW142296   4.623   2.448   2.819
10139SOL    HW242297   4.491   2.386   2.778
10140SOL     OW42298   1.347   1.666   6.020
10140SOL    HW142299   1.298   1.595   6.063
10140SOL    HW242300   1.388   1.713   6.092
10141SOL     OW42301   0.986   3.184   4.089
10141SOL    HW142302   1.031   3.240   4.027
10141SOL    HW242303   1.026   3.098   4.078
10142SOL     OW42304   2.186   3.629  20.166
10142SOL    HW142305   2.103   3.673  20.186
10142SOL    HW242306   2.221   3.603  20.251
10143SOL     OW42307   4.721   4.681   6.263
10143SOL    HW142308   4.721   4.600   6.314
10143SOL    HW242309   0.006   4.670   6.201
10144SOL     OW42310   3.840   1.967  13.151
10144SOL    HW142311   3.837   2.062  13.166
10144SOL    HW242312   3.776   1.931  13.212
10145SOL     OW42313   4.618   0.861  13.834
10145SOL    HW142314   4.655   0.776  13.810
10145SOL    HW242315   4.651   0.877  13.922
10146SOL     OW42316   2.997   3.040  16.310
10146SOL    HW142317   3.031   3.029  16.222
10146SOL    HW242318   3.061   2.998  16.367
10147SOL     OW42319   1.378   3.373   2.461
10147SOL    HW142320   1.313   3.378   2.531
10147SOL    HW242321   1.394   3.279   2.450
10148SOL     OW42322   3.140   3.673  16.244
10148SOL    HW142323   3.108   3.749  16.294
10148SOL    HW242324   3.180   3.711  16.166
10149SOL     OW42325   1.939   2.926   2.845
10149SOL    HW142326   1.851   2.942   2.809
10149SOL    HW242327   1.924   2.897   2.935
10150SOL     OW42328   2.173   3.680  13.461
10150SOL    HW142329   2.146   3.761  13.418
10150SOL    HW242330   2.237   3.641  13.401
10151SOL     OW42331   2.122   3.575   6.883
10151SOL    HW142332   2.182   3.621   6.941
10151SOL    HW242333   2.105   3.491   6.926
10152SOL     OW42334   0.849   1.661   1.103
10152SOL    HW142335   0.907   1.726   1.064
10152SOL    HW242336   0.902   1.618   1.171
10153SOL     OW42337   0.789   3.856   6.024
10153SOL    HW142338   0.711   3.912   6.021
10153SOL    HW242339   0.784   3.814   6.110
10154SOL     OW42340   1.405   4.079  20.696
10154SOL    HW142341   1.436   4.025  20.624
10154SOL    HW242342   1.362   4.017  20.755
10155SOL     OW42343   3.817   4.612   5.255
10155SOL    HW142344   3.908   4.637   5.272
10155SOL    HW242345   3.821   4.518   5.238
10156SOL     OW42346   3.140   1.270  19.718
10156SOL    HW142347   3.191   1.343  19.682
10156SOL    HW242348   3.153   1.275  19.812
10157SOL     OW42349   4.163   2.967  20.606
10157SOL    HW142350   4.188   3.054  20.576
10157SOL    HW242351   4.090   2.942  20.549
10158SOL     OW42352   4.496   3.177   3.646
10158SOL    HW142353   4.560   3.150   3.580
10158SOL    HW242354   4.546   3.186   3.727
10159SOL     OW42355   2.028   3.379  19.858
10159SOL    HW142356   2.086   3.311  19.894
10159SOL    HW242357   2.084   3.428  19.798
10160SOL     OW42358   3.550   2.687  15.138
10160SOL    HW142359   3.553   2.615  15.199
10160SOL    HW242360   3.508   2.651  15.060
10161SOL     OW42361   1.382   0.182   6.364
10161SOL    HW142362   1.474   0.180   6.392
10161SOL    HW242363   1.384   0.223   6.278
10162SOL     OW42364   4.090   2.118   0.927
10162SOL    HW142365   4.153   2.089   0.861
10162SOL    HW242366   4.050   2.196   0.889
10163SOL     OW42367   3.842   1.195   5.929
10163SOL    HW142368   3.772   1.260   5.922
10163SOL    HW242369   3.915   1.244   5.968
10164SOL     OW42370   0.685   2.722  15.025
10164SOL    HW142371   0.646   2.806  15.052
10164SOL    HW242372   0.618   2.657  15.047
10165SOL     OW42373   2.702   3.069  20.086
10165SOL    HW142374   2.635   3.006  20.060
10165SOL    HW242375   2.714   3.125  20.009
10166SOL     OW42376   1.474   0.552  17.373
10166SOL    HW142377   1.408   0.615  17.345
10166SOL    HW242378   1.554   0.604  17.383
10167SOL     OW42379   4.514   0.597   2.532
10167SOL    HW142380   4.563   0.529   2.576
10167SOL    HW242381   4.579   0.640   2.475
10168SOL     OW42382   3.164   1.818   2.830
10168SOL    HW142383   3.131   1.905   2.854
10168SOL    HW242384   3.258   1.831   2.821
10169SOL     OW42385   0.048   1.887  20.574
10169SOL    HW142386   0.121   1.943  20.548
10169SOL    HW242387   0.087   1.815  20.622
10170SOL     OW42388   2.424   1.386   7.474
10170SOL    HW142389   2.476   1.427   7.543
10170SOL    HW242390   2.473   1.307   7.451
10171SOL     OW42391   2.385   3.043  15.230
10171SOL    HW142392   2.478   3.060  15.216
10171SOL    HW242393   2.382   2.975  15.297
10172SOL     OW42394   3.011   2.615   8.082
10172SOL    HW142395   2.997   2.708   8.063
10172SOL    HW242396   2.928   2.587   8.121
10173SOL     OW42397   2.607   2.623   0.645
10173SOL    HW142398   2.549   2.632   0.568
10173SOL    HW242399   2.693   2.648   0.613
10174SOL     OW42400   1.220   3.227  14.226
10174SOL    HW142401   1.197   3.139  14.252
10174SOL    HW242402   1.137   3.268  14.201
10175SOL     OW42403   2.926   3.635   2.822
10175SOL    HW142404   2.844   3.625   2.774
10175SOL    HW242405   2.925   3.564   2.886
10176SOL     OW42406   1.888   4.118  20.004
10176SOL    HW142407   1.885   4.026  20.030
10176SOL    HW242408   1.860   4.166  20.082
10177SOL     OW42409   2.698   3.793  19.567
10177SOL    HW142410   2.742   3.820  19.648
10177SOL    HW242411   2.764   3.806  19.499
10178SOL     OW42412   1.050   0.046  15.377
10178SOL    HW142413   1.049   4.779  15.299
10178SOL    HW242414   0.958   0.051  15.404
10179SOL     OW42415   2.316   1.869   3.611
10179SOL    HW142416   2.222   1.878   3.596
10179SOL    HW242417   2.328   1.778   3.638
10180SOL     OW42418   0.377   2.698  19.490
10180SOL    HW142419   0.314   2.678  19.559
10180SOL    HW242420   0.394   2.614  19.447
10181SOL     OW42421   2.399   0.735  20.980
10181SOL    HW142422   2.448   0.816  20.964
10181SOL    HW242423   2.358   0.716  20.895
10182SOL     OW42424   4.639   3.074   5.785
10182SOL    HW142425   4.709   3.043   5.842
10182SOL    HW242426   4.570   3.007   5.793
10183SOL     OW42427   2.862   0.317   6.495
10183SOL    HW142428   2.946   0.272   6.490
10183SOL    HW242429   2.845   0.347   6.405
10184SOL     OW42430   2.088   2.376   6.552
10184SOL    HW142431   2.049   2.309   6.496
10184SOL    HW242432   2.086   2.337   6.640
10185SOL     OW42433   1.733   3.015   4.574
10185SOL    HW142434   1.825   3.026   4.595
10185SOL    HW242435   1.731   2.990   4.482
10186SOL     OW42436   4.229   2.655  14.836
10186SOL    HW142437   4.305   2.656  14.895
10186SOL    HW242438   4.223   2.744  14.803
10187SOL     OW42439   1.926   3.628  20.509
10187SOL    HW142440   1.898   3.538  20.493
10187SOL    HW242441   1.960   3.627  20.598
10188SOL     OW42442   3.910   4.519  15.544
10188SOL    HW142443   3.921   4.438  15.495
10188SOL    HW242444   3.879   4.491  15.630
10189SOL     OW42445   3.538   1.131  19.610
10189SOL    HW142446   3.465   1.125  19.549
10189SOL    HW242447   3.614   1.103  19.559
10190SOL     OW42448   3.989   4.017  18.015
10190SOL    HW142449   4.056   3.987  17.953
10190SOL    HW242450   3.962   3.937  18.061
10191SOL     OW42451   1.979   4.197   0.430
10191SOL    HW142452   2.032   4.276   0.444
10191SOL    HW242453   1.916   4.223   0.363
10192SOL     OW42454   1.935   1.500  15.079
10192SOL    HW142455   1.979   1.438  15.021
10192SOL    HW242456   1.910   1.448  15.156
10193SOL     OW42457   4.402   3.292  20.288
10193SOL    HW142458   4.360   3.235  20.223
10193SOL    HW242459   4.492   3.260  20.293
10194SOL     OW42460   2.970   0.646   4.599
10194SOL    HW142461   2.945   0.594   4.676
10194SOL    HW242462   2.935   0.733   4.617
10195SOL     OW42463   2.906   3.509  19.789
10195SOL    HW142464   2.938   3.591  19.752
10195SOL    HW242465   2.864   3.534  19.871
10196SOL     OW42466   0.810   0.549   5.603
10196SOL    HW142467   0.904   0.536   5.598
10196SOL    HW242468   0.798   0.611   5.675
10197SOL     OW42469   3.841   2.416  13.408
10197SOL    HW142470   3.797   2.471  13.343
10197SOL    HW242471   3.921   2.385  13.363
10198SOL     OW42472   2.623   1.264  17.984
10198SOL    HW142473   2.697   1.225  18.031
10198SOL    HW242474   2.549   1.254  18.043
10199SOL     OW42475   2.313   0.144   5.565
10199SOL    HW142476   2.229   0.121   5.525
10199SOL    HW242477   2.300   0.234   5.596
10200SOL     OW42478   0.946   1.939  20.666
10200SOL    HW142479   0.916   2.025  20.694
10200SOL    HW242480   1.008   1.957  20.595
10201SOL     OW42481   2.607   2.056  15.860
10201SOL    HW142482   2.669   2.027  15.927
10201SOL    HW242483   2.556   2.125  15.904
10202SOL     OW42484   2.708   3.949   2.196
10202SOL    HW142485   2.762   4.028   2.199
10202SOL    HW242486   2.682   3.941   2.105
10203SOL     OW42487   3.958   2.608   0.184
10203SOL    HW142488   3.952   2.651   0.099
10203SOL    HW242489   3.993   2.674   0.243
10204SOL     OW42490   0.060   1.518  11.902
10204SOL    HW142491   0.123   1.580  11.941
10204SOL    HW242492   0.034   1.462  11.975
10205SOL     OW42493   2.349   2.366  15.814
10205SOL    HW142494   2.399   2.316  15.879
10205SOL    HW242495   2.270   2.315  15.800
10206SOL     OW42496   3.449   0.856  20.373
10206SOL    HW142497   3.416   0.922  20.434
10206SOL    HW242498   3.399   0.871  20.293
10207SOL     OW42499   1.346   2.949   1.188
10207SOL    HW142500   1.327   3.040   1.213
10207SOL    HW242501   1.346   2.901   1.270
10208SOL     OW42502   2.463   3.306   5.866
10208SOL    HW142503   2.400   3.350   5.810
10208SOL    HW242504   2.470   3.363   5.943
10209SOL     OW42505   1.726   2.519  17.928
10209SOL    HW142506   1.765   2.593  17.881
10209SOL    HW242507   1.756   2.530  18.018
10210SOL     OW42508   4.749   2.238   3.777
10210SOL    HW142509   4.743   2.191   3.861
10210SOL    HW242510   0.026   2.307   3.793
10211SOL     OW42511   3.422   1.225  19.846
10211SOL    HW142512   3.468   1.188  19.770
10211SOL    HW242513   3.440   1.164  19.917
10212SOL     OW42514   4.263   2.000  18.913
10212SOL    HW142515   4.197   1.972  18.850
10212SOL    HW242516   4.297   2.082  18.877
10213SOL     OW42517   1.868   2.832  19.542
10213SOL    HW142518   1.832   2.744  19.541
10213SOL    HW242519   1.944   2.827  19.600
10214SOL     OW42520   3.305   4.063   2.049
10214SOL    HW142521   3.398   4.089   2.047
10214SOL    HW242522   3.258   4.144   2.069
10215SOL     OW42523   3.441   1.967  20.825
10215SOL    HW142524   3.364   1.997  20.873
10215SOL    HW242525   3.509   2.031  20.846
10216SOL     OW42526   0.737   1.623   6.861
10216SOL    HW142527   0.700   1.535   6.850
10216SOL    HW242528   0.662   1.679   6.877
10217SOL     OW42529   4.546   4.666   3.783
10217SOL    HW142530   4.487   4.593   3.802
10217SOL    HW242531   4.633   4.632   3.804
10218SOL     OW42532   1.395   1.847  14.125
10218SOL    HW142533   1.366   1.822  14.037
10218SOL    HW242534   1.323   1.821  14.182
10219SOL     OW42535   0.301   2.520  17.084
10219SOL    HW142536   0.280   2.605  17.125
10219SOL    HW242537   0.333   2.542  16.997
10220SOL     OW42538   1.973   4.142   1.922
10220SOL    HW142539   2.027   4.212   1.959
10220SOL    HW242540   1.883   4.165   1.947
10221SOL     OW42541   0.720   0.746   0.758
10221SOL    HW142542   0.806   0.780   0.784
10221SOL    HW242543   0.740   0.674   0.698
10222SOL     OW42544   4.329   0.130   2.295
10222SOL    HW142545   4.328   0.076   2.373
10222SOL    HW242546   4.274   0.205   2.318
10223SOL     OW42547   3.983   1.880   0.632
10223SOL    HW142548   4.012   1.861   0.721
10223SOL    HW242549   4.060   1.918   0.589
10224SOL     OW42550   4.578   1.588   1.717
10224SOL    HW142551   4.619   1.620   1.797
10224SOL    HW242552   4.550   1.667   1.671
10225SOL     OW42553   1.343   0.078  21.227
10225SOL    HW142554   1.265   0.068  21.172
10225SOL    HW242555   1.414   0.043  21.172
10226SOL     OW42556   4.656   2.320   1.723
10226SOL    HW142557   4.656   2.231   1.761
10226SOL    HW242558   4.669   2.306   1.629
10227SOL     OW42559   4.565   3.167  16.832
10227SOL    HW142560   4.645   3.142  16.878
10227SOL    HW242561   4.549   3.257  16.858
10228SOL     OW42562   3.836   0.468  11.341
10228SOL    HW142563   3.815   0.516  11.261
10228SOL    HW242564   3.833   0.534  11.410
10229SOL     OW42565   0.452   0.547  20.478
10229SOL    HW142566   0.448   0.476  20.414
10229SOL    HW242567   0.404   0.619  20.436
10230SOL     OW42568   2.860   4.570  20.641
10230SOL    HW142569   2.909   4.527  20.711
10230SOL    HW242570   2.831   4.652  20.679
10231SOL     OW42571   3.646   3.592  19.929
10231SOL    HW142572   3.699   3.518  19.900
10231SOL    HW242573   3.632   3.644  19.849
10232SOL     OW42574   4.491   2.169   0.166
10232SOL    HW142575   4.559   2.122   0.215
10232SOL    HW242576   4.425   2.191   0.232
10233SOL     OW42577   2.271   1.587  16.827
10233SOL    HW142578   2.260   1.658  16.765
10233SOL    HW242579   2.345   1.537  16.793
10234SOL     OW42580   1.971   0.592  15.550
10234SOL    HW142581   2.017   0.575  15.468
10234SOL    HW242582   1.895   0.645  15.524
10235SOL     OW42583   0.489   0.197   3.945
10235SOL    HW142584   0.530   0.111   3.936
10235SOL    HW242585   0.421   0.184   4.011
10236SOL     OW42586   3.454   3.900  12.108
10236SOL    HW142587   3.416   3.960  12.044
10236SOL    HW242588   3.479   3.956  12.182
10237SOL     OW42589   2.320   3.657  17.675
10237SOL    HW142590   2.324   3.562  17.686
10237SOL    HW242591   2.411   3.684  17.664
10238SOL     OW42592   3.296   3.018   6.308
10238SOL    HW142593   3.387   2.994   6.290
10238SOL    HW242594   3.244   2.947   6.270
10239SOL     OW42595   3.747   0.374  21.216
10239SOL    HW142596   3.750   0.469  21.208
10239SOL    HW242597   3.793   0.342  21.139
10240SOL     OW42598   1.926   2.140  12.647
10240SOL    HW142599   1.832   2.125  12.636
10240SOL    HW242600   1.967   2.063  12.608
10241SOL     OW42601   0.208   4.086   5.250
10241SOL    HW142602   0.272   4.116   5.314
10241SOL    HW242603   0.124   4.087   5.297
10242SOL     OW42604   1.432   4.434   1.628
10242SOL    HW142605   1.456   4.466   1.541
10242SOL    HW242606   1.358   4.375   1.612
10243SOL     OW42607   3.225   2.804   4.450
10243SOL    HW142608   3.201   2.719   4.485
10243SOL    HW242609   3.191   2.805   4.361
10244SOL     OW42610   4.039   1.142   1.267
10244SOL    HW142611   4.089   1.163   1.189
10244SOL    HW242612   3.953   1.117   1.234
10245SOL     OW42613   4.303   1.516   8.373
10245SOL    HW142614   4.373   1.510   8.437
10245SOL    HW242615   4.325   1.593   8.321
10246SOL     OW42616   1.148   2.301   0.162
10246SOL    HW142617   1.082   2.235   0.139
10246SOL    HW242618   1.100   2.383   0.168
10247SOL     OW42619   4.506   4.626  16.968
10247SOL    HW142620   4.536   4.689  16.902
10247SOL    HW242621   4.560   4.549  16.953
10248SOL     OW42622   0.938   2.502  15.480
10248SOL    HW142623   0.864   2.562  15.469
10248SOL    HW242624   0.902   2.416  15.458
10249SOL     OW42625   2.506   3.184  19.131
10249SOL    HW142626   2.528   3.253  19.195
10249SOL    HW242627   2.448   3.124  19.179
10250SOL     OW42628   1.366   2.836  16.814
10250SOL    HW142629   1.404   2.749  16.820
10250SOL    HW242630   1.409   2.876  16.738
10251SOL     OW42631   3.517   4.245  20.641
10251SOL    HW142632   3.552   4.201  20.719
10251SOL    HW242633   3.465   4.178  20.597
10252SOL     OW42634   2.441   1.247   2.137
10252SOL    HW142635   2.498   1.314   2.175
10252SOL    HW242636   2.456   1.169   2.190
10253SOL     OW42637   1.393   1.003  16.674
10253SOL    HW142638   1.347   1.054  16.742
10253SOL    HW242639   1.324   0.952  16.632
10254SOL     OW42640   2.630   0.479   0.861
10254SOL    HW142641   2.681   0.531   0.923
10254SOL    HW242642   2.650   0.388   0.884
10255SOL     OW42643   4.039   1.859   5.371
10255SOL    HW142644   3.987   1.927   5.328
10255SOL    HW242645   3.975   1.793   5.399
10256SOL     OW42646   0.400   3.736   6.192
10256SOL    HW142647   0.464   3.679   6.149
10256SOL    HW242648   0.399   3.706   6.283
10257SOL     OW42649   4.200   1.846   4.765
10257SOL    HW142650   4.215   1.922   4.708
10257SOL    HW242651   4.151   1.881   4.839
10258SOL     OW42652   3.120   1.612  20.038
10258SOL    HW142653   3.115   1.567  20.122
10258SOL    HW242654   3.182   1.560  19.987
10259SOL     OW42655   1.148   2.762   3.134
10259SOL    HW142656   1.136   2.686   3.192
10259SOL    HW242657   1.173   2.724   3.050
10260SOL     OW42658   0.489   2.696  15.967
10260SOL    HW142659   0.544   2.735  15.898
10260SOL    HW242660   0.412   2.751  15.969
10261SOL     OW42661   2.071   1.880   5.529
10261SOL    HW142662   2.161   1.849   5.524
10261SOL    HW242663   2.041   1.851   5.616
10262SOL     OW42664   4.775   4.701  19.520
10262SOL    HW142665   0.034   4.653  19.452
10262SOL    HW242666   0.056   4.747  19.569
10263SOL     OW42667   3.124   0.623   2.727
10263SOL    HW142668   3.170   0.627   2.644
10263SOL    HW242669   3.037   0.658   2.708
10264SOL     OW42670   4.409   4.617   1.071
10264SOL    HW142671   4.443   4.546   1.125
10264SOL    HW242672   4.478   4.634   1.007
10265SOL     OW42673   1.538   1.877   1.225
10265SOL    HW142674   1.482   1.943   1.186
10265SOL    HW242675   1.552   1.813   1.155
10266SOL     OW42676   4.591   3.970  16.660
10266SOL    HW142677   4.603   3.882  16.696
10266SOL    HW242678   4.647   3.971  16.582
10267SOL     OW42679   3.921   4.424  13.866
10267SOL    HW142680   3.871   4.360  13.815
10267SOL    HW242681   4.003   4.435  13.817
10268SOL     OW42682   2.860   1.365  19.239
10268SOL    HW142683   2.802   1.324  19.304
10268SOL    HW242684   2.821   1.451  19.224
10269SOL     OW42685   2.527   4.271   2.023
10269SOL    HW142686   2.608   4.321   2.022
10269SOL    HW242687   2.545   4.196   1.966
10270SOL     OW42688   3.887   2.323  16.019
10270SOL    HW142689   3.939   2.396  16.052
10270SOL    HW242690   3.871   2.344  15.928
10271SOL     OW42691   1.096   1.541  15.712
10271SOL    HW142692   1.119   1.533  15.619
10271SOL    HW242693   1.178   1.527  15.758
10272SOL     OW42694   4.448   0.271   1.272
10272SOL    HW142695   4.492   0.292   1.354
10272SOL    HW242696   4.442   0.176   1.272
10273SOL     OW42697   1.547   3.353   0.597
10273SOL    HW142698   1.639   3.332   0.610
10273SOL    HW242699   1.499   3.285   0.644
10274SOL     OW42700   3.071   3.073  21.053
10274SOL    HW142701   2.976   3.088  21.060
10274SOL    HW242702   3.105   3.095  21.140
10275SOL     OW42703   4.099   1.025   6.405
10275SOL    HW142704   4.024   1.018   6.464
10275SOL    HW242705   4.062   1.021   6.317
10276SOL     OW42706   2.087   2.470  16.454
10276SOL    HW142707   2.072   2.528  16.529
10276SOL    HW242708   2.147   2.518  16.397
10277SOL     OW42709   1.046   2.618   1.942
10277SOL    HW142710   1.128   2.604   1.893
10277SOL    HW242711   1.026   2.532   1.979
10278SOL     OW42712   1.446   3.430  12.946
10278SOL    HW142713   1.506   3.368  12.903
10278SOL    HW242714   1.382   3.374  12.990
10279SOL     OW42715   3.655   0.987  20.264
10279SOL    HW142716   3.604   0.932  20.323
10279SOL    HW242717   3.744   0.950  20.267
10280SOL     OW42718   4.149   0.164  16.705
10280SOL    HW142719   4.066   0.137  16.743
10280SOL    HW242720   4.125   0.202  16.620
10281SOL     OW42721   2.604   1.291   4.768
10281SOL    HW142722   2.541   1.307   4.698
10281SOL    HW242723   2.633   1.379   4.794
10282SOL     OW42724   4.776   2.440   0.216
10282SOL    HW142725   4.768   2.394   0.299
10282SOL    HW242726   0.056   2.506   0.232
10283SOL     OW42727   0.522   3.407   0.234
10283SOL    HW142728   0.585   3.463   0.280
10283SOL    HW242729   0.517   3.444   0.146
10284SOL     OW42730   0.113   0.459  15.418
10284SOL    HW142731   0.182   0.525  15.427
10284SOL    HW242732   0.087   0.440  15.508
10285SOL     OW42733   2.199   1.066  12.954
10285SOL    HW142734   2.113   1.101  12.980
10285SOL    HW242735   2.237   1.134  12.899
10286SOL     OW42736   0.406   1.912   0.811
10286SOL    HW142737   0.468   1.847   0.844
10286SOL    HW242738   0.377   1.877   0.726
10287SOL     OW42739   0.230   1.064  12.108
10287SOL    HW142740   0.198   1.141  12.061
10287SOL    HW242741   0.243   0.998  12.041
10288SOL     OW42742   1.004   2.603  20.402
10288SOL    HW142743   0.987   2.682  20.350
10288SOL    HW242744   0.955   2.617  20.483
10289SOL     OW42745   4.063   4.049   3.085
10289SOL    HW142746   4.045   3.976   3.144
10289SOL    HW242747   4.033   4.019   2.999
10290SOL     OW42748   4.630   2.099   2.800
10290SOL    HW142749   4.721   2.094   2.772
10290SOL    HW242750   4.610   2.192   2.802
10291SOL     OW42751   1.344   1.090   3.632
10291SOL    HW142752   1.271   1.074   3.692
10291SOL    HW242753   1.406   1.142   3.684
10292SOL     OW42754   0.097   1.211  20.071
10292SOL    HW142755   0.093   1.167  19.986
10292SOL    HW242756   0.191   1.217  20.091
10293SOL     OW42757   2.281   4.096  20.876
10293SOL    HW142758   2.300   4.043  20.799
10293SOL    HW242759   2.331   4.177  20.863
10294SOL     OW42760   4.221   0.774  15.432
10294SOL    HW142761   4.290   0.783  15.497
10294SOL    HW242762   4.242   0.692  15.386
10295SOL     OW42763   3.853   3.407   1.129
10295SOL    HW142764   3.858   3.502   1.120
10295SOL    HW242765   3.762   3.385   1.109
10296SOL     OW42766   4.771   2.248  19.730
10296SOL    HW142767   4.705   2.179  19.735
10296SOL    HW242768   4.720   2.329  19.734
10297SOL     OW42769   0.057   3.691  19.741
10297SOL    HW142770   0.143   3.732  19.747
10297SOL    HW242771   0.015   3.710  19.825
10298SOL     OW42772   1.851   4.382  18.075
10298SOL    HW142773   1.944   4.393  18.054
10298SOL    HW242774   1.826   4.464  18.117
10299SOL     OW42775   3.487   1.905  15.754
10299SOL    HW142776   3.497   1.871  15.665
10299SOL    HW242777   3.525   1.993  15.751
10300SOL     OW42778   3.983   2.158   3.309
10300SOL    HW142779   3.946   2.200   3.232
10300SOL    HW242780   4.018   2.075   3.277
10301SOL     OW42781   3.497   1.415   3.760
10301SOL    HW142782   3.525   1.506   3.764
10301SOL    HW242783   3.454   1.399   3.844
10302SOL     OW42784   2.820   0.899  17.795
10302SOL    HW142785   2.797   0.859  17.879
10302SOL    HW242786   2.914   0.884  17.787
10303SOL     OW42787   4.651   4.422   2.325
10303SOL    HW142788   4.602   4.464   2.395
10303SOL    HW242789   4.714   4.366   2.370
10304SOL     OW42790   0.362   3.484   4.098
10304SOL    HW142791   0.281   3.475   4.048
10304SOL    HW242792   0.394   3.572   4.076
10305SOL     OW42793   1.774   2.902  11.934
10305SOL    HW142794   1.797   2.813  11.957
10305SOL    HW242795   1.807   2.913  11.845
10306SOL     OW42796   1.523   3.414  20.261
10306SOL    HW142797   1.436   3.378  20.246
10306SOL    HW242798   1.510   3.481  20.328
10307SOL     OW42799   0.602   3.299   3.909
10307SOL    HW142800   0.648   3.383   3.901
10307SOL    HW242801   0.520   3.321   3.954
10308SOL     OW42802   2.018   1.969   4.953
10308SOL    HW142803   2.036   2.005   5.040
10308SOL    HW242804   2.066   1.887   4.951
10309SOL     OW42805   1.477   4.644  16.328
10309SOL    HW142806   1.427   4.584  16.272
10309SOL    HW242807   1.427   4.726  16.327
10310SOL     OW42808   1.272   4.194  17.013
10310SOL    HW142809   1.333   4.265  17.035
10310SOL    HW242810   1.296   4.167  16.925
10311SOL     OW42811   2.555   0.784   9.590
10311SOL    HW142812   2.597   0.714   9.639
10311SOL    HW242813   2.624   0.820   9.534
10312SOL     OW42814   3.706   0.694  16.743
10312SOL    HW142815   3.756   0.756  16.795
10312SOL    HW242816   3.772   0.637  16.703
10313SOL     OW42817   2.625   4.566  17.244
10313SOL    HW142818   2.550   4.594  17.191
10313SOL    HW242819   2.586   4.535  17.326
10314SOL     OW42820   0.833   0.354  16.311
10314SOL    HW142821   0.815   0.289  16.379
10314SOL    HW242822   0.772   0.425  16.329
10315SOL     OW42823   0.148   2.728   1.547
10315SOL    HW142824   0.125   2.730   1.454
10315SOL    HW242825   0.207   2.653   1.555
10316SOL     OW42826   4.035   4.617  17.324
10316SOL    HW142827   4.054   4.525  17.304
10316SOL    HW242828   3.962   4.639  17.266
10317SOL     OW42829   2.818   1.617  21.228
10317SOL    HW142830   2.820   1.709   0.008
10317SOL    HW242831   2.732   1.586   0.007
10318SOL     OW42832   3.099   0.758  21.031
10318SOL    HW142833   3.016   0.783  21.071
10318SOL    HW242834   3.111   0.819  20.958
10319SOL     OW42835   1.137   2.214   5.919
10319SOL    HW142836   1.091   2.198   5.836
10319SOL    HW242837   1.132   2.130   5.966
10320SOL     OW42838   1.182   1.892   1.843
10320SOL    HW142839   1.144   1.977   1.819
10320SOL    HW242840   1.122   1.827   1.807
10321SOL     OW42841   1.035   2.203   0.673
10321SOL    HW142842   1.104   2.216   0.739
10321SOL    HW242843   1.026   2.288   0.631
10322SOL     OW42844   2.095   1.149  19.276
10322SOL    HW142845   2.140   1.229  19.248
10322SOL    HW242846   2.122   1.137  19.367
10323SOL     OW42847   2.285   2.746  16.642
10323SOL    HW142848   2.320   2.783  16.723
10323SOL    HW242849   2.212   2.691  16.672
10324SOL     OW42850   2.522   4.166   2.371
10324SOL    HW142851   2.534   4.146   2.463
10324SOL    HW242852   2.573   4.246   2.357
10325SOL     OW42853   2.691   1.535   5.018
10325SOL    HW142854   2.769   1.502   4.975
10325SOL    HW242855   2.632   1.559   4.946
10326SOL     OW42856   0.485   3.936   8.229
10326SOL    HW142857   0.468   3.949   8.136
10326SOL    HW242858   0.571   3.975   8.245
10327SOL     OW42859   3.125   0.411   2.057
10327SOL    HW142860   3.133   0.399   1.962
10327SOL    HW242861   3.202   0.368   2.093
10328SOL     OW42862   1.568   3.060   4.300
10328SOL    HW142863   1.474   3.063   4.283
10328SOL    HW242864   1.591   3.150   4.323
10329SOL     OW42865   3.942   1.567  18.957
10329SOL    HW142866   3.974   1.642  19.008
10329SOL    HW242867   3.855   1.551  18.993
10330SOL     OW42868   1.078   4.401  15.113
10330SOL    HW142869   1.120   4.362  15.189
10330SOL    HW242870   1.143   4.394  15.043
10331SOL     OW42871   0.489   3.948  13.919
10331SOL    HW142872   0.434   3.932  13.843
10331SOL    HW242873   0.567   3.992  13.883
10332SOL     OW42874   1.333   0.240   5.439
10332SOL    HW142875   1.356   0.211   5.527
10332SOL    HW242876   1.415   0.273   5.402
10333SOL     OW42877   2.439   4.574   6.722
10333SOL    HW142878   2.356   4.554   6.678
10333SOL    HW242879   2.414   4.632   6.794
10334SOL     OW42880   4.239   3.150   8.401
10334SOL    HW142881   4.172   3.102   8.352
10334SOL    HW242882   4.310   3.163   8.338
10335SOL     OW42883   4.400   3.492  14.469
10335SOL    HW142884   4.311   3.515  14.494
10335SOL    HW242885   4.434   3.444  14.545
10336SOL     OW42886   4.478   1.422  15.593
10336SOL    HW142887   4.400   1.438  15.540
10336SOL    HW242888   4.533   1.366  15.537
10337SOL     OW42889   0.689   2.730   4.106
10337SOL    HW142890   0.696   2.817   4.067
10337SOL    HW242891   0.737   2.736   4.189
10338SOL     OW42892   1.374   3.443   3.505
10338SOL    HW142893   1.301   3.381   3.506
10338SOL    HW242894   1.338   3.523   3.544
10339SOL     OW42895   1.024   0.348   6.135
10339SOL    HW142896   0.994   0.272   6.086
10339SOL    HW242897   0.988   0.335   6.223
10340SOL     OW42898   1.402   4.566   4.303
10340SOL    HW142899   1.357   4.590   4.384
10340SOL    HW242900   1.429   4.475   4.316
10341SOL     OW42901   0.808   3.172   5.431
10341SOL    HW142902   0.749   3.117   5.482
10341SOL    HW242903   0.753   3.209   5.362
10342SOL     OW42904   2.345   1.026   0.842
10342SOL    HW142905   2.278   1.087   0.812
10342SOL    HW242906   2.301   0.974   0.910
10343SOL     OW42907   0.185   3.552   6.640
10343SOL    HW142908   0.092   3.572   6.637
10343SOL    HW242909   0.189   3.457   6.629
10344SOL     OW42910   1.848   1.144   0.919
10344SOL    HW142911   1.922   1.198   0.947
10344SOL    HW242912   1.850   1.068   0.978
10345SOL     OW42913   1.829   2.255  17.824
10345SOL    HW142914   1.897   2.282  17.761
10345SOL    HW242915   1.792   2.338  17.856
10346SOL     OW42916   2.244   4.330   1.590
10346SOL    HW142917   2.152   4.315   1.573
10346SOL    HW242918   2.246   4.382   1.671
10347SOL     OW42919   3.637   1.185   2.843
10347SOL    HW142920   3.675   1.117   2.787
10347SOL    HW242921   3.558   1.146   2.879
10348SOL     OW42922   4.108   2.081   1.814
10348SOL    HW142923   4.109   2.146   1.744
10348SOL    HW242924   4.183   2.103   1.869
10349SOL     OW42925   2.779   2.150  18.935
10349SOL    HW142926   2.716   2.221  18.940
10349SOL    HW242927   2.768   2.102  19.017
10350SOL     OW42928   0.936   2.818  17.113
10350SOL    HW142929   0.928   2.733  17.070
10350SOL    HW242930   1.005   2.863  17.065
10351SOL     OW42931   4.752   0.222  17.070
10351SOL    HW142932   4.745   0.311  17.036
10351SOL    HW242933   4.727   0.230  17.162
10352SOL     OW42934   4.498   0.580  16.828
10352SOL    HW142935   4.585   0.541  16.825
10352SOL    HW242936   4.502   0.642  16.901
10353SOL     OW42937   3.282   1.733   3.853
10353SOL    HW142938   3.335   1.780   3.918
10353SOL    HW242939   3.345   1.703   3.788
10354SOL     OW42940   0.615   1.007   4.936
10354SOL    HW142941   0.581   1.072   4.997
10354SOL    HW242942   0.569   1.024   4.854
10355SOL     OW42943   1.722   1.723   2.050
10355SOL    HW142944   1.796   1.747   2.106
10355SOL    HW242945   1.697   1.804   2.007
10356SOL     OW42946   0.082   0.443  16.210
10356SOL    HW142947   0.167   0.482  16.192
10356SOL    HW242948   0.101   0.352  16.231
10357SOL     OW42949   4.213   3.758  15.709
10357SOL    HW142950   4.163   3.711  15.642
10357SOL    HW242951   4.267   3.691  15.750
10358SOL     OW42952   2.162   3.448   6.618
10358SOL    HW142953   2.138   3.508   6.689
10358SOL    HW242954   2.184   3.366   6.662
10359SOL     OW42955   0.702   1.946  20.967
10359SOL    HW142956   0.715   1.959  20.874
10359SOL    HW242957   0.774   1.994  21.009
10360SOL     OW42958   2.459   2.594  19.872
10360SOL    HW142959   2.385   2.539  19.848
10360SOL    HW242960   2.493   2.625  19.788
10361SOL     OW42961   1.693   0.418   6.313
10361SOL    HW142962   1.786   0.439   6.300
10361SOL    HW242963   1.647   0.499   6.291
10362SOL     OW42964   3.677   0.020   6.364
10362SOL    HW142965   3.622   4.729   6.372
10362SOL    HW242966   3.744   0.009   6.431
10363SOL     OW42967   2.665   4.036  19.219
10363SOL    HW142968   2.587   4.067  19.264
10363SOL    HW242969   2.734   4.098  19.244
10364SOL     OW42970   4.599   3.109  20.271
10364SOL    HW142971   4.688   3.079  20.290
10364SOL    HW242972   4.544   3.060  20.332
10365SOL     OW42973   0.565   3.371  20.800
10365SOL    HW142974   0.527   3.356  20.713
10365SOL    HW242975   0.494   3.351  20.861
10366SOL     OW42976   3.520   2.857  14.665
10366SOL    HW142977   3.525   2.922  14.596
10366SOL    HW242978   3.467   2.786  14.627
10367SOL     OW42979   3.243   1.524   6.332
10367SOL    HW142980   3.282   1.481   6.256
10367SOL    HW242981   3.297   1.602   6.345
10368SOL     OW42982   1.261   1.540  18.006
10368SOL    HW142983   1.236   1.454  17.974
10368SOL    HW242984   1.224   1.545  18.094
10369SOL     OW42985   2.814   1.493  19.632
10369SOL    HW142986   2.796   1.425  19.697
10369SOL    HW242987   2.893   1.536  19.662
10370SOL     OW42988   0.440   2.044  18.645
10370SOL    HW142989   0.440   2.068  18.552
10370SOL    HW242990   0.365   1.986  18.655
10371SOL     OW42991   3.256   4.037  16.241
10371SOL    HW142992   3.284   3.984  16.166
10371SOL    HW242993   3.229   4.121  16.202
10372SOL     OW42994   0.243   3.840   3.199
10372SOL    HW142995   0.207   3.814   3.284
10372SOL    HW242996   0.305   3.910   3.219
10373SOL     OW42997   3.902   2.189   2.522
10373SOL    HW142998   3.853   2.138   2.586
10373SOL    HW242999   3.838   2.211   2.455
10374SOL     OW43000   2.177   3.351  15.875
10374SOL    HW143001   2.162   3.433  15.829
10374SOL    HW243002   2.262   3.320  15.843
10375SOL     OW43003   0.955   2.857  20.930
10375SOL    HW143004   0.907   2.815  20.859
10375SOL    HW243005   1.047   2.844  20.909
10376SOL     OW43006   0.068   4.398  20.243
10376SOL    HW143007   0.031   4.367  20.326
10376SOL    HW243008   0.063   4.323  20.184
10377SOL     OW43009   3.350   2.732   8.137
10377SOL    HW143010   3.266   2.694   8.112
10377SOL    HW243011   3.333   2.826   8.143
10378SOL     OW43012   1.221   3.205   4.938
10378SOL    HW143013   1.304   3.212   4.985
10378SOL    HW243014   1.172   3.139   4.986
10379SOL     OW43015   3.529   1.564  18.001
10379SOL    HW143016   3.444   1.528  18.027
10379SOL    HW243017   3.548   1.523  17.916
10380SOL     OW43018   4.268   3.179   3.406
10380SOL    HW143019   4.313   3.263   3.413
10380SOL    HW243020   4.175   3.202   3.414
10381SOL     OW43021   1.179   1.927  18.172
10381SOL    HW143022   1.200   1.903  18.081
10381SOL    HW243023   1.092   1.966  18.166
10382SOL     OW43024   2.173   2.998  17.522
10382SOL    HW143025   2.112   3.044  17.463
10382SOL    HW243026   2.234   3.066  17.550
10383SOL     OW43027   2.351   0.361  19.038
10383SOL    HW143028   2.423   0.416  19.068
10383SOL    HW243029   2.292   0.356  19.114
10384SOL     OW43030   3.366   1.752  19.860
10384SOL    HW143031   3.397   1.729  19.773
10384SOL    HW243032   3.372   1.671  19.910
10385SOL     OW43033   4.357   1.655  16.802
10385SOL    HW143034   4.336   1.614  16.886
10385SOL    HW243035   4.451   1.670  16.807
10386SOL     OW43036   4.475   3.994   1.440
10386SOL    HW143037   4.483   3.987   1.535
10386SOL    HW243038   4.554   3.954   1.405
10387SOL     OW43039   1.121   4.084  14.150
10387SOL    HW143040   1.040   4.134  14.139
10387SOL    HW243041   1.117   4.052  14.240
10388SOL     OW43042   4.494   1.241  18.656
10388SOL    HW143043   4.469   1.207  18.741
10388SOL    HW243044   4.413   1.244  18.606
10389SOL     OW43045   2.214   1.948   5.791
10389SOL    HW143046   2.248   2.037   5.775
10389SOL    HW243047   2.124   1.951   5.759
10390SOL     OW43048   2.652   1.425  14.372
10390SOL    HW143049   2.722   1.470  14.325
10390SOL    HW243050   2.697   1.363  14.430
10391SOL     OW43051   0.772   4.469   0.963
10391SOL    HW143052   0.709   4.397   0.956
10391SOL    HW243053   0.845   4.432   1.012
10392SOL     OW43054   1.462   4.702  15.919
10392SOL    HW143055   1.459   4.769  15.987
10392SOL    HW243056   1.405   4.632  15.951
10393SOL     OW43057   1.063   2.533  14.693
10393SOL    HW143058   1.152   2.567  14.704
10393SOL    HW243059   1.007   2.596  14.739
10394SOL     OW43060   2.265   2.542  16.265
10394SOL    HW143061   2.285   2.616  16.208
10394SOL    HW243062   2.343   2.487  16.261
10395SOL     OW43063   0.777   1.576   5.804
10395SOL    HW143064   0.844   1.644   5.796
10395SOL    HW243065   0.716   1.609   5.870
10396SOL     OW43066   3.587   2.988   1.816
10396SOL    HW143067   3.602   2.965   1.724
10396SOL    HW243068   3.550   3.076   1.813
10397SOL     OW43069   2.203   0.606  20.629
10397SOL    HW143070   2.226   0.554  20.706
10397SOL    HW243071   2.243   0.691  20.644
10398SOL     OW43072   0.933   2.714  21.187
10398SOL    HW143073   0.970   2.733  21.100
10398SOL    HW243074   0.841   2.737  21.180
10399SOL     OW43075   4.412   0.771   0.351
10399SOL    HW143076   4.402   0.787   0.257
10399SOL    HW243077   4.380   0.851   0.393
10400SOL     OW43078   3.913   3.482  19.022
10400SOL    HW143079   3.893   3.527  18.940
10400SOL    HW243080   3.828   3.473  19.066
10401SOL     OW43081   4.124   0.982  18.133
10401SOL    HW143082   4.046   1.033  18.154
10401SOL    HW243083   4.103   0.939  18.051
10402SOL     OW43084   2.927   1.145   5.037
10402SOL    HW143085   2.841   1.133   4.998
10402SOL    HW243086   2.911   1.146   5.131
10403SOL     OW43087   0.984   1.715  17.960
10403SOL    HW143088   1.026   1.651  17.902
10403SOL    HW243089   0.892   1.713  17.934
10404SOL     OW43090   0.219   0.989  19.258
10404SOL    HW143091   0.197   1.009  19.349
10404SOL    HW243092   0.274   1.062  19.230
10405SOL     OW43093   0.486   0.803   1.163
10405SOL    HW143094   0.573   0.779   1.195
10405SOL    HW243095   0.480   0.897   1.181
10406SOL     OW43096   4.000   3.206   4.246
10406SOL    HW143097   3.906   3.216   4.228
10406SOL    HW243098   4.018   3.270   4.315
10407SOL     OW43099   1.654   4.299  14.350
10407SOL    HW143100   1.633   4.217  14.393
10407SOL    HW243101   1.596   4.301  14.273
10408SOL     OW43102   3.408   2.317   7.083
10408SOL    HW143103   3.360   2.397   7.063
10408SOL    HW243104   3.424   2.276   6.998
10409SOL     OW43105   1.047   1.163   1.536
10409SOL    HW143106   1.003   1.203   1.611
10409SOL    HW243107   0.979   1.110   1.494
10410SOL     OW43108   3.351   1.555  18.865
10410SOL    HW143109   3.356   1.503  18.944
10410SOL    HW243110   3.329   1.493  18.796
10411SOL     OW43111   0.329   2.556  16.780
10411SOL    HW143112   0.325   2.578  16.687
10411SOL    HW243113   0.239   2.534  16.804
10412SOL     OW43114   1.743   3.327  18.754
10412SOL    HW143115   1.806   3.313  18.683
10412SOL    HW243116   1.721   3.240  18.784
10413SOL     OW43117   2.393   3.877  19.701
10413SOL    HW143118   2.411   3.819  19.627
10413SOL    HW243119   2.303   3.857  19.726
10414SOL     OW43120   3.227   3.492   5.352
10414SOL    HW143121   3.284   3.436   5.404
10414SOL    HW243122   3.282   3.519   5.278
10415SOL     OW43123   0.938   3.636  21.246
10415SOL    HW143124   0.892   3.632   0.082
10415SOL    HW243125   0.906   3.716  21.205
10416SOL     OW43126   1.048   1.259   4.619
10416SOL    HW143127   1.121   1.315   4.594
10416SOL    HW243128   0.993   1.315   4.675
10417SOL     OW43129   2.787   0.856   9.471
10417SOL    HW143130   2.882   0.848   9.461
10417SOL    HW243131   2.773   0.946   9.500
10418SOL     OW43132   2.570   1.425   1.604
10418SOL    HW143133   2.547   1.391   1.691
10418SOL    HW243134   2.487   1.459   1.570
10419SOL     OW43135   4.646   1.376   6.125
10419SOL    HW143136   4.622   1.428   6.048
10419SOL    HW243137   4.687   1.298   6.089
10420SOL     OW43138   2.960   3.523  19.245
10420SOL    HW143139   3.005   3.534  19.161
10420SOL    HW243140   2.886   3.584  19.242
10421SOL     OW43141   1.619   0.886  16.332
10421SOL    HW143142   1.667   0.914  16.254
10421SOL    HW243143   1.630   0.791  16.334
10422SOL     OW43144   1.223   3.738  19.631
10422SOL    HW143145   1.167   3.770  19.560
10422SOL    HW243146   1.312   3.753  19.600
10423SOL     OW43147   3.035   4.179  21.146
10423SOL    HW143148   3.029   4.259  21.198
10423SOL    HW243149   3.085   4.119  21.201
10424SOL     OW43150   2.938   3.244   5.030
10424SOL    HW143151   2.977   3.191   4.960
10424SOL    HW243152   2.928   3.331   4.991
10425SOL     OW43153   1.363   3.734   3.197
10425SOL    HW143154   1.380   3.823   3.227
10425SOL    HW243155   1.395   3.677   3.267
10426SOL     OW43156   3.438   4.474  20.508
10426SOL    HW143157   3.386   4.445  20.433
10426SOL    HW243158   3.454   4.395  20.559
10427SOL     OW43159   4.396   1.595  19.929
10427SOL    HW143160   4.468   1.628  19.875
10427SOL    HW243161   4.425   1.610  20.019
10428SOL     OW43162   0.966   4.303   2.095
10428SOL    HW143163   0.939   4.295   2.004
10428SOL    HW243164   0.892   4.269   2.145
10429SOL     OW43165   3.072   0.149  15.881
10429SOL    HW143166   3.028   0.179  15.961
10429SOL    HW243167   3.132   0.220  15.859
10430SOL     OW43168   0.059   3.937  17.960
10430SOL    HW143169   0.045   3.917  17.868
10430SOL    HW243170   0.083   4.029  17.961
10431SOL     OW43171   1.804   2.643   3.549
10431SOL    HW143172   1.712   2.667   3.537
10431SOL    HW243173   1.833   2.694   3.625
10432SOL     OW43174   3.652   4.372  17.836
10432SOL    HW143175   3.626   4.461  17.813
10432SOL    HW243176   3.627   4.320  17.760
10433SOL     OW43177   1.791   0.135  16.678
10433SOL    HW143178   1.869   0.082  16.696
10433SOL    HW243179   1.795   0.206  16.741
10434SOL     OW43180   1.569   3.684   3.007
10434SOL    HW143181   1.493   3.695   3.064
10434SOL    HW243182   1.644   3.684   3.066
10435SOL     OW43183   4.017   3.638  20.746
10435SOL    HW143184   3.989   3.706  20.685
10435SOL    HW243185   3.944   3.629  20.808
10436SOL     OW43186   2.733   4.454   4.919
10436SOL    HW143187   2.779   4.392   4.975
10436SOL    HW243188   2.753   4.425   4.830
10437SOL     OW43189   2.215   1.805  19.612
10437SOL    HW143190   2.293   1.860  19.610
10437SOL    HW243191   2.142   1.866  19.625
10438SOL     OW43192   0.567   3.952   0.050
10438SOL    HW143193   0.634   4.020   0.055
10438SOL    HW243194   0.595   3.886   0.114
10439SOL     OW43195   0.630   4.413  13.836
10439SOL    HW143196   0.544   4.410  13.795
10439SOL    HW243197   0.687   4.453  13.770
10440SOL     OW43198   2.448   4.432   1.427
10440SOL    HW143199   2.387   4.398   1.492
10440SOL    HW243200   2.403   4.420   1.343
10441SOL     OW43201   2.642   2.597  18.306
10441SOL    HW143202   2.553   2.575  18.336
10441SOL    HW243203   2.697   2.581  18.383
10442SOL     OW43204   3.277   0.248  15.721
10442SOL    HW143205   3.261   0.164  15.677
10442SOL    HW243206   3.371   0.261  15.715
10443SOL     OW43207   1.175   2.440   5.625
10443SOL    HW143208   1.104   2.504   5.630
10443SOL    HW243209   1.132   2.355   5.626
10444SOL     OW43210   2.388   4.435  16.900
10444SOL    HW143211   2.465   4.390  16.865
10444SOL    HW243212   2.336   4.367  16.940
10445SOL     OW43213   0.931   4.335  20.368
10445SOL    HW143214   0.918   4.285  20.287
10445SOL    HW243215   0.843   4.345  20.404
10446SOL     OW43216   3.128   0.028  17.435
10446SOL    HW143217   3.088   0.079  17.505
10446SOL    HW243218   3.135   0.089  17.362
10447SOL     OW43219   1.734   3.035  18.545
10447SOL    HW143220   1.708   3.125  18.527
10447SOL    HW243221   1.829   3.037  18.546
10448SOL     OW43222   3.668   2.738  19.767
10448SOL    HW143223   3.588   2.746  19.715
10448SOL    HW243224   3.657   2.655  19.815
10449SOL     OW43225   4.250   1.102  17.179
10449SOL    HW143226   4.256   1.168  17.248
10449SOL    HW243227   4.156   1.097  17.159
10450SOL     OW43228   2.659   0.299  18.791
10450SOL    HW143229   2.581   0.253  18.821
10450SOL    HW243230   2.724   0.231  18.777
10451SOL     OW43231   2.269   3.296   8.201
10451SOL    HW143232   2.315   3.359   8.145
10451SOL    HW243233   2.220   3.351   8.262
10452SOL     OW43234   1.444   3.381   1.349
10452SOL    HW143235   1.392   3.389   1.428
10452SOL    HW243236   1.529   3.420   1.372
10453SOL     OW43237   3.578   0.913  20.800
10453SOL    HW143238   3.505   0.853  20.793
10453SOL    HW243239   3.612   0.900  20.888
10454SOL     OW43240   0.571   3.644  19.351
10454SOL    HW143241   0.531   3.670  19.434
10454SOL    HW243242   0.560   3.549  19.347
10455SOL     OW43243   1.262   0.190  16.963
10455SOL    HW143244   1.340   0.245  16.952
10455SOL    HW243245   1.190   0.244  16.931
10456SOL     OW43246   1.627   1.168   4.229
10456SOL    HW143247   1.713   1.169   4.187
10456SOL    HW243248   1.646   1.170   4.323
10457SOL     OW43249   3.318   2.453  18.094
10457SOL    HW143250   3.305   2.474  18.187
10457SOL    HW243251   3.268   2.373  18.080
10458SOL     OW43252   3.391   1.640   4.267
10458SOL    HW143253   3.315   1.601   4.310
10458SOL    HW243254   3.374   1.735   4.272
10459SOL     OW43255   0.280   1.352   3.269
10459SOL    HW143256   0.284   1.268   3.315
10459SOL    HW243257   0.371   1.377   3.256
10460SOL     OW43258   0.414   1.646   1.202
10460SOL    HW143259   0.327   1.678   1.224
10460SOL    HW243260   0.399   1.577   1.137
10461SOL     OW43261   4.164   3.746   1.719
10461SOL    HW143262   4.107   3.807   1.671
10461SOL    HW243263   4.154   3.770   1.811
10462SOL     OW43264   0.566   0.039  16.491
10462SOL    HW143265   0.609   4.756  16.443
10462SOL    HW243266   0.540   4.786  16.574
10463SOL     OW43267   2.296   0.629   2.251
10463SOL    HW143268   2.201   0.614   2.254
10463SOL    HW243269   2.309   0.689   2.178
10464SOL     OW43270   2.210   1.339   2.700
10464SOL    HW143271   2.174   1.265   2.650
10464SOL    HW243272   2.256   1.298   2.773
10465SOL     OW43273   4.697   3.572  20.009
10465SOL    HW143274   4.691   3.509  19.937
10465SOL    HW243275   4.658   3.652  19.974
10466SOL     OW43276   1.705   2.705  14.384
10466SOL    HW143277   1.665   2.686  14.300
10466SOL    HW243278   1.676   2.634  14.441
10467SOL     OW43279   2.148   0.089  16.557
10467SOL    HW143280   2.118   0.044  16.636
10467SOL    HW243281   2.183   0.172  16.588
10468SOL     OW43282   3.762   3.369   7.562
10468SOL    HW143283   3.718   3.441   7.607
10468SOL    HW243284   3.855   3.386   7.577
10469SOL     OW43285   2.063   4.277   4.048
10469SOL    HW143286   2.135   4.341   4.053
10469SOL    HW243287   2.065   4.233   4.133
10470SOL     OW43288   3.282   0.961  16.342
10470SOL    HW143289   3.358   1.020  16.346
10470SOL    HW243290   3.206   1.018  16.350
10471SOL     OW43291   1.148   2.611  15.780
10471SOL    HW143292   1.110   2.685  15.828
10471SOL    HW243293   1.096   2.535  15.808
10472SOL     OW43294   3.883   0.792  16.258
10472SOL    HW143295   3.949   0.726  16.275
10472SOL    HW243296   3.885   0.804  16.163
10473SOL     OW43297   4.598   4.643  11.698
10473SOL    HW143298   4.576   4.601  11.781
10473SOL    HW243299   4.514   4.652  11.653
10474SOL     OW43300   0.585   0.933  18.374
10474SOL    HW143301   0.555   0.847  18.402
10474SOL    HW243302   0.577   0.988  18.453
10475SOL     OW43303   0.036   4.253  20.468
10475SOL    HW143304   0.004   4.170  20.503
10475SOL    HW243305   0.109   4.229  20.411
10476SOL     OW43306   2.750   3.462  20.980
10476SOL    HW143307   2.796   3.440  21.061
10476SOL    HW243308   2.820   3.487  20.920
10477SOL     OW43309   0.077   2.458   1.147
10477SOL    HW143310   0.095   2.480   1.055
10477SOL    HW243311   0.126   2.522   1.197
10478SOL     OW43312   4.662   2.711   2.041
10478SOL    HW143313   4.668   2.661   1.960
10478SOL    HW243314   4.735   2.772   2.038
10479SOL     OW43315   4.751   1.928   5.284
10479SOL    HW143316   4.728   1.986   5.356
10479SOL    HW243317   0.059   1.922   5.288
10480SOL     OW43318   3.216   3.665  21.006
10480SOL    HW143319   3.265   3.607  21.063
10480SOL    HW243320   3.241   3.638  20.917
10481SOL     OW43321   2.642   4.034  15.433
10481SOL    HW143322   2.619   4.051  15.525
10481SOL    HW243323   2.680   4.117  15.403
10482SOL     OW43324   3.767   1.468  18.086
10482SOL    HW143325   3.696   1.501  18.031
10482SOL    HW243326   3.821   1.545  18.104
10483SOL     OW43327   4.457   1.337  16.373
10483SOL    HW143328   4.543   1.375  16.390
10483SOL    HW243329   4.413   1.336  16.458
10484SOL     OW43330   3.356   0.482   5.880
10484SOL    HW143331   3.431   0.427   5.904
10484SOL    HW243332   3.323   0.443   5.798
10485SOL     OW43333   3.883   3.779  18.486
10485SOL    HW143334   3.971   3.751  18.511
10485SOL    HW243335   3.825   3.727  18.541
10486SOL     OW43336   1.877   3.651   0.181
10486SOL    HW143337   1.842   3.737   0.206
10486SOL    HW243338   1.856   3.595   0.256
10487SOL     OW43339   4.046   0.361   8.338
10487SOL    HW143340   4.077   0.271   8.342
10487SOL    HW243341   4.067   0.397   8.424
10488SOL     OW43342   1.063   2.303  16.777
10488SOL    HW143343   0.975   2.327  16.748
10488SOL    HW243344   1.057   2.209  16.795
10489SOL     OW43345   2.740   4.289   0.011
10489SOL    HW143346   2.666   4.228   0.006
10489SOL    HW243347   2.759   4.310  21.167
10490SOL     OW43348   1.821   3.246   1.964
10490SOL    HW143349   1.750   3.216   2.022
10490SOL    HW243350   1.896   3.192   1.987
10491SOL     OW43351   1.068   0.616  17.658
10491SOL    HW143352   1.083   0.521  17.662
10491SOL    HW243353   0.974   0.626  17.668
10492SOL     OW43354   4.684   3.806  18.714
10492SOL    HW143355   4.618   3.744  18.684
10492SOL    HW243356   4.636   3.867  18.771
10493SOL     OW43357   3.197   3.011   1.923
10493SOL    HW143358   3.110   3.003   1.963
10493SOL    HW243359   3.179   3.033   1.832
10494SOL     OW43360   1.259   0.848   7.003
10494SOL    HW143361   1.354   0.853   6.999
10494SOL    HW243362   1.232   0.926   7.051
10495SOL     OW43363   0.100   2.025   2.728
10495SOL    HW143364   0.182   2.072   2.740
10495SOL    HW243365   0.083   2.030   2.634
10496SOL     OW43366   2.157   3.783   3.962
10496SOL    HW143367   2.213   3.789   4.039
10496SOL    HW243368   2.091   3.850   3.975
10497SOL     OW43369   2.194   2.544   3.390
10497SOL    HW143370   2.155   2.576   3.472
10497SOL    HW243371   2.154   2.458   3.377
10498SOL     OW43372   0.612   3.592   6.079
10498SOL    HW143373   0.685   3.573   6.020
10498SOL    HW243374   0.653   3.611   6.163
10499SOL     OW43375   1.215   3.074  19.337
10499SOL    HW143376   1.212   2.989  19.294
10499SOL    HW243377   1.281   3.124  19.288
10500SOL     OW43378   2.904   4.515  19.008
10500SOL    HW143379   2.931   4.444  19.065
10500SOL    HW243380   2.956   4.503  18.928
10501SOL     OW43381   3.662   4.534   7.790
10501SOL    HW143382   3.592   4.491   7.840
10501SOL    HW243383   3.742   4.487   7.816
10502SOL     OW43384   1.074   0.991  19.358
10502SOL    HW143385   1.002   1.004  19.420
10502SOL    HW243386   1.037   0.939  19.287
10503SOL     OW43387   0.260   0.166   1.298
10503SOL    HW143388   0.166   0.162   1.315
10503SOL    HW243389   0.273   0.110   1.221
10504SOL     OW43390   4.380   4.650   3.182
10504SOL    HW143391   4.395   4.655   3.276
10504SOL    HW243392   4.297   4.695   3.168
10505SOL     OW43393   1.344   3.287  17.748
10505SOL    HW143394   1.272   3.257  17.693
10505SOL    HW243395   1.364   3.375  17.715
10506SOL     OW43396   0.907   2.776   3.290
10506SOL    HW143397   0.948   2.791   3.205
10506SOL    HW243398   0.966   2.715   3.335
10507SOL     OW43399   0.333   4.019   5.012
10507SOL    HW143400   0.261   4.032   4.951
10507SOL    HW243401   0.292   4.017   5.098
10508SOL     OW43402   2.101   1.125  11.700
10508SOL    HW143403   2.009   1.153  11.697
10508SOL    HW243404   2.138   1.172  11.776
10509SOL     OW43405   3.915   4.209  18.923
10509SOL    HW143406   3.869   4.179  19.001
10509SOL    HW243407   3.860   4.278  18.887
10510SOL     OW43408   0.663   4.352  14.103
10510SOL    HW143409   0.599   4.280  14.106
10510SOL    HW243410   0.662   4.381  14.011
10511SOL     OW43411   4.188   0.716   5.044
10511SOL    HW143412   4.213   0.632   5.080
10511SOL    HW243413   4.160   0.696   4.954
10512SOL     OW43414   0.173   4.065  20.334
10512SOL    HW143415   0.150   3.980  20.297
10512SOL    HW243416   0.234   4.103  20.271
10513SOL     OW43417   3.913   0.845  17.993
10513SOL    HW143418   3.842   0.835  18.056
10513SOL    HW243419   3.874   0.824  17.908
10514SOL     OW43420   3.095   2.608   3.580
10514SOL    HW143421   3.017   2.600   3.636
10514SOL    HW243422   3.097   2.701   3.555
10515SOL     OW43423   1.116   0.998   0.441
10515SOL    HW143424   1.188   0.944   0.474
10515SOL    HW243425   1.158   1.077   0.408
10516SOL     OW43426   0.800   4.218  20.156
10516SOL    HW143427   0.799   4.274  20.078
10516SOL    HW243428   0.709   4.216  20.185
10517SOL     OW43429   2.871   3.756  21.121
10517SOL    HW143430   2.872   3.727  21.030
10517SOL    HW243431   2.786   3.799  21.132
10518SOL     OW43432   1.883   0.114   4.080
10518SOL    HW143433   1.867   0.032   4.127
10518SOL    HW243434   1.803   0.129   4.029
10519SOL     OW43435   2.322   3.687   1.648
10519SOL    HW143436   2.256   3.654   1.587
10519SOL    HW243437   2.377   3.745   1.596
10520SOL     OW43438   1.364   3.304  18.876
10520SOL    HW143439   1.337   3.272  18.790
10520SOL    HW243440   1.345   3.232  18.936
10521SOL     OW43441   2.992   2.098  17.960
10521SOL    HW143442   2.985   2.035  18.031
10521SOL    HW243443   3.065   2.155  17.985
10522SOL     OW43444   0.131   3.861   1.662
10522SOL    HW143445   0.080   3.902   1.732
10522SOL    HW243446   0.081   3.784   1.637
10523SOL     OW43447   3.627   3.057   3.214
10523SOL    HW143448   3.668   3.132   3.256
10523SOL    HW243449   3.677   3.044   3.133
10524SOL     OW43450   3.806   0.720   5.947
10524SOL    HW143451   3.885   0.709   6.001
10524SOL    HW243452   3.763   0.798   5.983
10525SOL     OW43453   2.359   0.981  17.532
10525SOL    HW143454   2.361   1.056  17.472
10525SOL    HW243455   2.451   0.964  17.553
10526SOL     OW43456   4.098   1.070   3.044
10526SOL    HW143457   4.151   1.061   3.124
10526SOL    HW243458   4.071   1.161   3.044
10527SOL     OW43459   3.249   0.853  20.182
10527SOL    HW143460   3.155   0.852  20.198
10527SOL    HW243461   3.269   0.765  20.150
10528SOL     OW43462   2.980   0.823  20.196
10528SOL    HW143463   2.933   0.904  20.216
10528SOL    HW243464   2.938   0.756  20.250
10529SOL     OW43465   3.750   3.040  16.681
10529SOL    HW143466   3.769   3.088  16.762
10529SOL    HW243467   3.678   2.981  16.704
10530SOL     OW43468   2.721   1.633   4.399
10530SOL    HW143469   2.765   1.657   4.317
10530SOL    HW243470   2.776   1.672   4.467
10531SOL     OW43471   0.981   3.538   5.242
10531SOL    HW143472   1.020   3.474   5.182
10531SOL    HW243473   0.937   3.601   5.185
10532SOL     OW43474   0.680   0.142   6.145
10532SOL    HW143475   0.775   0.136   6.139
10532SOL    HW243476   0.649   0.116   6.059
10533SOL     OW43477   1.868   1.217  11.724
10533SOL    HW143478   1.778   1.199  11.697
10533SOL    HW243479   1.860   1.287  11.788
10534SOL     OW43480   0.218   2.953   4.920
10534SOL    HW143481   0.245   2.875   4.968
10534SOL    HW243482   0.298   2.984   4.878
10535SOL     OW43483   0.554   2.795   6.342
10535SOL    HW143484   0.620   2.760   6.402
10535SOL    HW243485   0.603   2.853   6.284
10536SOL     OW43486   4.381   1.032   0.487
10536SOL    HW143487   4.342   1.052   0.572
10536SOL    HW243488   4.312   1.050   0.423
10537SOL     OW43489   0.046   1.342  20.774
10537SOL    HW143490   0.017   1.330  20.684
10537SOL    HW243491   4.754   1.360  20.823
10538SOL     OW43492   0.033   4.207  20.071
10538SOL    HW143493   4.781   4.184  19.987
10538SOL    HW243494   4.756   4.180  20.136
10539SOL     OW43495   4.009   2.599   3.749
10539SOL    HW143496   3.921   2.635   3.747
10539SOL    HW243497   4.027   2.576   3.658
10540SOL     OW43498   0.858   3.009  19.469
10540SOL    HW143499   0.930   3.037  19.526
10540SOL    HW243500   0.827   2.927  19.508
10541SOL     OW43501   1.106   0.112   1.318
10541SOL    HW143502   1.019   0.139   1.348
10541SOL    HW243503   1.161   0.118   1.396
10542SOL     OW43504   2.963   3.750  18.086
10542SOL    HW143505   3.041   3.696  18.072
10542SOL    HW243506   2.983   3.803  18.163
10543SOL     OW43507   1.482   3.528  14.943
10543SOL    HW143508   1.485   3.434  14.960
10543SOL    HW243509   1.440   3.535  14.857
10544SOL     OW43510   2.026   1.442   6.012
10544SOL    HW143511   1.949   1.465   5.960
10544SOL    HW243512   2.016   1.348   6.029
10545SOL     OW43513   0.768   4.778  12.110
10545SOL    HW143514   0.819   0.071  12.101
10545SOL    HW243515   0.784   4.750  12.200
10546SOL     OW43516   4.281   0.157   2.773
10546SOL    HW143517   4.290   0.165   2.868
10546SOL    HW243518   4.189   0.135   2.759
10547SOL     OW43519   3.489   1.651   1.537
10547SOL    HW143520   3.449   1.568   1.510
10547SOL    HW243521   3.439   1.718   1.490
10548SOL     OW43522   0.800   4.252  14.877
10548SOL    HW143523   0.797   4.243  14.782
10548SOL    HW243524   0.890   4.280  14.896
10549SOL     OW43525   3.594   4.003   3.015
10549SOL    HW143526   3.603   4.017   3.109
10549SOL    HW243527   3.655   4.066   2.975
10550SOL     OW43528   4.371   4.744  14.756
10550SOL    HW143529   4.341   0.042  14.725
10550SOL    HW243530   4.335   4.682  14.694
10551SOL     OW43531   4.630   1.712  17.121
10551SOL    HW143532   4.718   1.726  17.155
10551SOL    HW243533   4.623   1.770  17.046
10552SOL     OW43534   2.883   1.548  16.012
10552SOL    HW143535   2.791   1.576  16.018
10552SOL    HW243536   2.914   1.550  16.103
10553SOL     OW43537   1.223   1.718  18.329
10553SOL    HW143538   1.129   1.704  18.319
10553SOL    HW243539   1.241   1.799  18.281
10554SOL     OW43540   2.167   1.264  12.740
10554SOL    HW143541   2.095   1.278  12.801
10554SOL    HW243542   2.165   1.341  12.683
10555SOL     OW43543   1.295   2.510   1.872
10555SOL    HW143544   1.233   2.479   1.806
10555SOL    HW243545   1.324   2.431   1.917
10556SOL     OW43546   4.723   1.101  17.466
10556SOL    HW143547   4.648   1.068  17.516
10556SOL    HW243548   0.012   1.060  17.508
10557SOL     OW43549   4.012   4.624   0.579
10557SOL    HW143550   4.087   4.684   0.588
10557SOL    HW243551   4.036   4.548   0.632
10558SOL     OW43552   2.179   1.330   2.060
10558SOL    HW143553   2.146   1.254   2.012
10558SOL    HW243554   2.259   1.299   2.103
10559SOL     OW43555   4.661   1.815   1.376
10559SOL    HW143556   4.664   1.847   1.286
10559SOL    HW243557   4.578   1.767   1.382
10560SOL     OW43558   3.609   1.315  16.486
10560SOL    HW143559   3.613   1.249  16.417
10560SOL    HW243560   3.670   1.384  16.458
10561SOL     OW43561   1.092   1.650   5.036
10561SOL    HW143562   1.169   1.600   5.065
10561SOL    HW243563   1.038   1.586   4.990
10562SOL     OW43564   0.718   0.410  10.236
10562SOL    HW143565   0.803   0.383  10.268
10562SOL    HW243566   0.716   0.382  10.145
10563SOL     OW43567   4.280   3.315  18.649
10563SOL    HW143568   4.357   3.338  18.596
10563SOL    HW243569   4.302   3.346  18.737
10564SOL     OW43570   2.796   1.734   5.565
10564SOL    HW143571   2.743   1.757   5.488
10564SOL    HW243572   2.763   1.791   5.634
10565SOL     OW43573   0.721   0.669   4.379
10565SOL    HW143574   0.746   0.760   4.367
10565SOL    HW243575   0.750   0.625   4.299
10566SOL     OW43576   0.892   2.923  14.552
10566SOL    HW143577   0.895   3.015  14.524
10566SOL    HW243578   0.814   2.917  14.607
10567SOL     OW43579   1.955   2.297   4.243
10567SOL    HW143580   1.967   2.376   4.296
10567SOL    HW243581   1.997   2.318   4.159
10568SOL     OW43582   1.868   1.945  15.226
10568SOL    HW143583   1.826   1.915  15.146
10568SOL    HW243584   1.867   2.040  15.221
10569SOL     OW43585   3.407   1.129   6.502
10569SOL    HW143586   3.370   1.187   6.568
10569SOL    HW243587   3.501   1.135   6.514
10570SOL     OW43588   4.452   2.098   5.351
10570SOL    HW143589   4.509   2.166   5.316
10570SOL    HW243590   4.429   2.045   5.274
10571SOL     OW43591   0.781   1.078  19.812
10571SOL    HW143592   0.806   1.019  19.884
10571SOL    HW243593   0.790   1.166  19.849
10572SOL     OW43594   0.114   4.398   4.202
10572SOL    HW143595   0.144   4.374   4.114
10572SOL    HW243596   0.170   4.348   4.261
10573SOL     OW43597   1.748   3.625  17.116
10573SOL    HW143598   1.824   3.631  17.173
10573SOL    HW243599   1.780   3.655  17.031
10574SOL     OW43600   3.805   3.201  16.426
10574SOL    HW143601   3.744   3.151  16.480
10574SOL    HW243602   3.782   3.179  16.336
10575SOL     OW43603   0.660   3.108   4.655
10575SOL    HW143604   0.666   3.145   4.567
10575SOL    HW243605   0.748   3.076   4.673
10576SOL     OW43606   2.513   1.994  19.563
10576SOL    HW143607   2.526   1.944  19.644
10576SOL    HW243608   2.454   2.065  19.589
10577SOL     OW43609   4.099   3.805   6.756
10577SOL    HW143610   4.141   3.793   6.671
10577SOL    HW243611   4.006   3.814   6.737
10578SOL     OW43612   0.436   2.031  20.058
10578SOL    HW143613   0.426   2.091  19.984
10578SOL    HW243614   0.528   2.007  20.058
10579SOL     OW43615   3.924   3.585   5.817
10579SOL    HW143616   3.890   3.533   5.744
10579SOL    HW243617   3.951   3.520   5.882
10580SOL     OW43618   4.607   2.888   4.518
10580SOL    HW143619   4.626   2.921   4.606
10580SOL    HW243620   4.572   2.964   4.472
10581SOL     OW43621   1.930   4.542   7.988
10581SOL    HW143622   1.851   4.586   7.960
10581SOL    HW243623   1.978   4.608   8.038
10582SOL     OW43624   2.921   4.035  15.259
10582SOL    HW143625   2.885   4.084  15.332
10582SOL    HW243626   2.845   4.012  15.205
10583SOL     OW43627   2.136   3.908   2.421
10583SOL    HW143628   2.227   3.889   2.398
10583SOL    HW243629   2.090   3.825   2.410
10584SOL     OW43630   0.491   3.393  15.794
10584SOL    HW143631   0.560   3.456  15.815
10584SOL    HW243632   0.536   3.308  15.792
10585SOL     OW43633   1.933   1.748   0.240
10585SOL    HW143634   1.936   1.730   0.147
10585SOL    HW243635   2.021   1.781   0.261
10586SOL     OW43636   2.311   3.938  13.717
10586SOL    HW143637   2.220   3.934  13.747
10586SOL    HW243638   2.355   3.996  13.780
10587SOL     OW43639   3.108   1.321  15.800
10587SOL    HW143640   3.017   1.349  15.809
10587SOL    HW243641   3.136   1.359  15.717
10588SOL     OW43642   0.667   1.893  20.049
10588SOL    HW143643   0.634   1.818  20.001
10588SOL    HW243644   0.747   1.862  20.091
10589SOL     OW43645   4.449   4.776   0.692
10589SOL    HW143646   4.442   0.046   0.768
10589SOL    HW243647   4.491   4.696   0.726
10590SOL     OW43648   1.343   1.946   5.113
10590SOL    HW143649   1.373   2.022   5.163
10590SOL    HW243650   1.254   1.929   5.146
10591SOL     OW43651   3.835   0.411   8.124
10591SOL    HW143652   3.897   0.406   8.197
10591SOL    HW243653   3.873   0.353   8.057
10592SOL     OW43654   2.769   4.283  15.368
10592SOL    HW143655   2.733   4.372  15.364
10592SOL    HW243656   2.864   4.296  15.371
10593SOL     OW43657   0.297   3.135   1.809
10593SOL    HW143658   0.384   3.096   1.816
10593SOL    HW243659   0.312   3.230   1.810
10594SOL     OW43660   1.507   0.130  19.980
10594SOL    HW143661   1.554   0.145  19.898
10594SOL    HW243662   1.494   0.035  19.983
10595SOL     OW43663   0.461   2.346  19.075
10595SOL    HW143664   0.491   2.429  19.037
10595SOL    HW243665   0.495   2.279  19.016
10596SOL     OW43666   3.119   2.562   7.822
10596SOL    HW143667   3.073   2.572   7.906
10596SOL    HW243668   3.068   2.498   7.774
10597SOL     OW43669   0.790   0.116   2.316
10597SOL    HW143670   0.697   0.112   2.295
10597SOL    HW243671   0.795   0.173   2.392
10598SOL     OW43672   3.694   1.665  20.766
10598SOL    HW143673   3.635   1.592  20.749
10598SOL    HW243674   3.689   1.679  20.861
10599SOL     OW43675   0.343   3.067  20.775
10599SOL    HW143676   0.409   3.093  20.840
10599SOL    HW243677   0.267   3.041  20.827
10600SOL     OW43678   0.966   4.258   4.339
10600SOL    HW143679   0.907   4.296   4.273
10600SOL    HW243680   0.919   4.182   4.371
10601SOL     OW43681   4.534   3.357   1.141
10601SOL    HW143682   4.576   3.392   1.220
10601SOL    HW243683   4.443   3.385   1.149
10602SOL     OW43684   0.649   4.599  14.958
10602SOL    HW143685   0.699   4.667  14.912
10602SOL    HW243686   0.691   4.593  15.044
10603SOL     OW43687   3.220   2.164   5.120
10603SOL    HW143688   3.209   2.095   5.186
10603SOL    HW243689   3.309   2.196   5.134
10604SOL     OW43690   3.917   3.820  20.563
10604SOL    HW143691   3.899   3.905  20.604
10604SOL    HW243692   3.836   3.797  20.518
10605SOL     OW43693   2.598   0.412   3.951
10605SOL    HW143694   2.648   0.493   3.964
10605SOL    HW243695   2.555   0.397   4.035
10606SOL     OW43696   1.696   4.343   4.776
10606SOL    HW143697   1.696   4.427   4.823
10606SOL    HW243698   1.667   4.366   4.687
10607SOL     OW43699   4.019   3.456  17.349
10607SOL    HW143700   4.097   3.404  17.331
10607SOL    HW243701   4.051   3.534  17.393
10608SOL     OW43702   3.299   0.503  17.199
10608SOL    HW143703   3.304   0.594  17.229
10608SOL    HW243704   3.236   0.462  17.257
10609SOL     OW43705   1.824   0.123  13.987
10609SOL    HW143706   1.735   0.123  13.954
10609SOL    HW243707   1.879   0.131  13.909
10610SOL     OW43708   2.323   4.699   1.084
10610SOL    HW143709   2.367   4.723   1.002
10610SOL    HW243710   2.232   4.686   1.060
10611SOL     OW43711   2.931   0.913  19.784
10611SOL    HW143712   2.901   0.982  19.844
10611SOL    HW243713   3.026   0.917  19.790
10612SOL     OW43714   3.379   1.766   6.447
10612SOL    HW143715   3.449   1.793   6.505
10612SOL    HW243716   3.300   1.771   6.500
10613SOL     OW43717   3.937   3.643   5.044
10613SOL    HW143718   3.897   3.719   5.087
10613SOL    HW243719   4.027   3.642   5.077
10614SOL     OW43720   3.300   3.609  19.577
10614SOL    HW143721   3.232   3.677  19.572
10614SOL    HW243722   3.261   3.541  19.631
10615SOL     OW43723   3.694   4.730  15.476
10615SOL    HW143724   3.728   4.650  15.516
10615SOL    HW243725   3.764   0.007  15.486
10616SOL     OW43726   2.546   3.780  15.513
10616SOL    HW143727   2.463   3.822  15.492
10616SOL    HW243728   2.613   3.834  15.470
10617SOL     OW43729   4.100   1.726  20.677
10617SOL    HW143730   4.192   1.735  20.652
10617SOL    HW243731   4.099   1.652  20.738
10618SOL     OW43732   3.947   4.597   4.109
10618SOL    HW143733   3.991   4.619   4.191
10618SOL    HW243734   3.854   4.612   4.126
10619SOL     OW43735   1.346   1.082  18.999
10619SOL    HW143736   1.377   1.062  19.087
10619SOL    HW243737   1.410   1.145  18.965
10620SOL     OW43738   2.457   4.483   2.776
10620SOL    HW143739   2.368   4.461   2.748
10620SOL    HW243740   2.501   4.399   2.785
10621SOL     OW43741   0.956   0.925  13.492
10621SOL    HW143742   0.871   0.913  13.450
10621SOL    HW243743   0.938   0.915  13.585
10622SOL     OW43744   0.037   4.578   2.572
10622SOL    HW143745   0.005   4.655   2.618
10622SOL    HW243746   4.745   4.530   2.548
10623SOL     OW43747   2.572   1.620   0.316
10623SOL    HW143748   2.638   1.673   0.271
10623SOL    HW243749   2.488   1.655   0.286
10624SOL     OW43750   1.751   4.076  20.345
10624SOL    HW143751   1.775   4.154  20.295
10624SOL    HW243752   1.678   4.038  20.296
10625SOL     OW43753   3.473   0.896  15.341
10625SOL    HW143754   3.450   0.803  15.341
10625SOL    HW243755   3.568   0.897  15.357
10626SOL     OW43756   0.795   3.676   4.179
10626SOL    HW143757   0.831   3.619   4.248
10626SOL    HW243758   0.839   3.648   4.099
10627SOL     OW43759   2.591   3.749  17.648
10627SOL    HW143760   2.652   3.758  17.721
10627SOL    HW243761   2.607   3.826  17.594
10628SOL     OW43762   1.469   2.199   1.471
10628SOL    HW143763   1.390   2.217   1.420
10628SOL    HW243764   1.463   2.105   1.492
10629SOL     OW43765   1.033   3.914  20.774
10629SOL    HW143766   0.999   3.996  20.738
10629SOL    HW243767   1.029   3.852  20.701
10630SOL     OW43768   4.214   3.009  19.391
10630SOL    HW143769   4.280   3.078  19.391
10630SOL    HW243770   4.131   3.056  19.380
10631SOL     OW43771   2.627   2.663  19.618
10631SOL    HW143772   2.663   2.587  19.574
10631SOL    HW243773   2.703   2.708  19.656
10632SOL     OW43774   0.056   2.665  18.574
10632SOL    HW143775   0.104   2.697  18.498
10632SOL    HW243776   4.763   2.627  18.538
10633SOL     OW43777   2.807   3.841  15.698
10633SOL    HW143778   2.888   3.789  15.693
10633SOL    HW243779   2.745   3.785  15.745
10634SOL     OW43780   4.534   0.851   2.599
10634SOL    HW143781   4.597   0.868   2.669
10634SOL    HW243782   4.522   0.756   2.600
10635SOL     OW43783   0.050   3.185   5.611
10635SOL    HW143784   4.758   3.156   5.654
10635SOL    HW243785   0.052   3.280   5.624
10636SOL     OW43786   0.510   4.525   3.098
10636SOL    HW143787   0.430   4.531   3.150
10636SOL    HW243788   0.484   4.478   3.019
10637SOL     OW43789   4.433   1.324   6.393
10637SOL    HW143790   4.499   1.389   6.369
10637SOL    HW243791   4.437   1.259   6.324
10638SOL     OW43792   4.693   0.341  20.252
10638SOL    HW143793   4.681   0.406  20.182
10638SOL    HW243794   4.610   0.293  20.253
10639SOL     OW43795   1.025   1.975  19.793
10639SOL    HW143796   0.975   1.894  19.797
10639SOL    HW243797   0.978   2.036  19.850
10640SOL     OW43798   3.654   0.405   5.510
10640SOL    HW143799   3.665   0.468   5.581
10640SOL    HW243800   3.694   0.448   5.434
10641SOL     OW43801   3.475   2.939  15.760
10641SOL    HW143802   3.503   2.927  15.669
10641SOL    HW243803   3.380   2.941  15.756
10642SOL     OW43804   1.465   4.756   2.444
10642SOL    HW143805   1.385   4.741   2.394
10642SOL    HW243806   1.444   0.040   2.504
10643SOL     OW43807   0.629   1.295  16.003
10643SOL    HW143808   0.712   1.247  16.008
10643SOL    HW243809   0.651   1.384  16.032
10644SOL     OW43810   3.357   1.454  18.610
10644SOL    HW143811   3.271   1.424  18.578
10644SOL    HW243812   3.390   1.510  18.540
10645SOL     OW43813   1.087   2.382   1.742
10645SOL    HW143814   1.092   2.326   1.665
10645SOL    HW243815   0.997   2.373   1.773
10646SOL     OW43816   4.309   4.115   4.508
10646SOL    HW143817   4.302   4.208   4.489
10646SOL    HW243818   4.387   4.108   4.564
10647SOL     OW43819   0.339   4.467   1.042
10647SOL    HW143820   0.367   4.439   0.955
10647SOL    HW243821   0.320   4.385   1.087
10648SOL     OW43822   4.401   4.707  20.194
10648SOL    HW143823   4.441   4.628  20.231
10648SOL    HW243824   4.307   4.696  20.211
10649SOL     OW43825   3.544   2.867  15.412
10649SOL    HW143826   3.626   2.821  15.429
10649SOL    HW243827   3.476   2.809  15.447
10650SOL     OW43828   1.958   0.623  14.531
10650SOL    HW143829   1.904   0.623  14.452
10650SOL    HW243830   1.962   0.531  14.557
10651SOL     OW43831   3.602   3.750   3.749
10651SOL    HW143832   3.652   3.672   3.725
10651SOL    HW243833   3.639   3.777   3.833
10652SOL     OW43834   3.621   1.023   7.159
10652SOL    HW143835   3.671   1.045   7.080
10652SOL    HW243836   3.532   1.053   7.140
10653SOL     OW43837   1.259   0.827   3.076
10653SOL    HW143838   1.195   0.876   3.127
10653SOL    HW243839   1.214   0.746   3.051
10654SOL     OW43840   0.660   4.018   5.082
10654SOL    HW143841   0.640   3.941   5.028
10654SOL    HW243842   0.737   4.057   5.041
10655SOL     OW43843   0.743   4.383  14.594
10655SOL    HW143844   0.819   4.441  14.591
10655SOL    HW243845   0.728   4.359  14.502
10656SOL     OW43846   3.350   4.601  15.933
10656SOL    HW143847   3.272   4.634  15.978
10656SOL    HW243848   3.322   4.517  15.895
10657SOL     OW43849   3.795   2.170  13.489
10657SOL    HW143850   3.710   2.151  13.451
10657SOL    HW243851   3.794   2.264  13.504
10658SOL     OW43852   4.590   1.725  21.229
10658SOL    HW143853   4.655   1.708  21.160
10658SOL    HW243854   4.513   1.756  21.182
10659SOL     OW43855   4.026   3.580   2.605
10659SOL    HW143856   4.113   3.612   2.631
10659SOL    HW243857   3.965   3.630   2.659
10660SOL     OW43858   1.896   3.490   6.052
10660SOL    HW143859   1.901   3.483   6.147
10660SOL    HW243860   1.830   3.558   6.036
10661SOL     OW43861   0.491   1.113  14.524
10661SOL    HW143862   0.561   1.177  14.538
10661SOL    HW243863   0.455   1.096  14.611
10662SOL     OW43864   2.301   0.561   6.116
10662SOL    HW143865   2.284   0.490   6.054
10662SOL    HW243866   2.314   0.518   6.200
10663SOL     OW43867   0.498   4.725  14.356
10663SOL    HW143868   0.490   4.660  14.425
10663SOL    HW243869   0.564   4.689  14.297
10664SOL     OW43870   3.989   1.255  14.893
10664SOL    HW143871   4.005   1.213  14.978
10664SOL    HW243872   4.012   1.347  14.907
10665SOL     OW43873   3.821   2.022   0.797
10665SOL    HW143874   3.793   2.112   0.779
10665SOL    HW243875   3.862   1.992   0.716
10666SOL     OW43876   2.483   4.120  20.424
10666SOL    HW143877   2.457   4.194  20.479
10666SOL    HW243878   2.489   4.157  20.336
10667SOL     OW43879   4.064   3.462  20.108
10667SOL    HW143880   4.110   3.430  20.185
10667SOL    HW243881   4.011   3.535  20.139
10668SOL     OW43882   0.356   2.733  17.358
10668SOL    HW143883   0.428   2.710  17.416
10668SOL    HW243884   0.284   2.676  17.383
10669SOL     OW43885   0.084   0.973   5.271
10669SOL    HW143886   0.021   0.920   5.222
10669SOL    HW243887   0.161   0.917   5.280
10670SOL     OW43888   2.709   1.800   0.177
10670SOL    HW143889   2.681   1.862   0.244
10670SOL    HW243890   2.802   1.789   0.193
10671SOL     OW43891   4.169   0.321   2.368
10671SOL    HW143892   4.198   0.407   2.401
10671SOL    HW243893   4.085   0.306   2.411
10672SOL     OW43894   1.839   0.944  16.849
10672SOL    HW143895   1.853   0.865  16.901
10672SOL    HW243896   1.758   0.926  16.801
10673SOL     OW43897   1.134   1.479  15.388
10673SOL    HW143898   1.182   1.424  15.326
10673SOL    HW243899   1.194   1.552  15.406
10674SOL     OW43900   0.690   1.843   0.840
10674SOL    HW143901   0.645   1.764   0.809
10674SOL    HW243902   0.773   1.844   0.792
10675SOL     OW43903   1.872   4.587  19.635
10675SOL    HW143904   1.851   4.646  19.708
10675SOL    HW243905   1.910   4.510  19.677
10676SOL     OW43906   0.515   3.945   3.225
10676SOL    HW143907   0.577   3.987   3.165
10676SOL    HW243908   0.525   3.851   3.208
10677SOL     OW43909   3.555   3.655  19.653
10677SOL    HW143910   3.467   3.619  19.650
10677SOL    HW243911   3.554   3.726  19.588
10678SOL     OW43912   1.163   3.528  16.355
10678SOL    HW143913   1.206   3.486  16.280
10678SOL    HW243914   1.090   3.470  16.377
10679SOL     OW43915   2.885   2.528   5.149
10679SOL    HW143916   2.799   2.540   5.109
10679SOL    HW243917   2.867   2.483   5.232
10680SOL     OW43918   0.995   0.801  18.204
10680SOL    HW143919   0.944   0.809  18.285
10680SOL    HW243920   0.977   0.712  18.174
10681SOL     OW43921   1.507   0.743  18.115
10681SOL    HW143922   1.564   0.667  18.099
10681SOL    HW243923   1.442   0.712  18.179
10682SOL     OW43924   3.990   2.293   5.437
10682SOL    HW143925   3.916   2.341   5.401
10682SOL    HW243926   3.971   2.202   5.419
10683SOL     OW43927   3.880   3.678  20.985
10683SOL    HW143928   3.949   3.741  21.006
10683SOL    HW243929   3.799   3.727  20.996
10684SOL     OW43930   0.451   0.284   4.405
10684SOL    HW143931   0.451   0.307   4.498
10684SOL    HW243932   0.543   0.288   4.379
10685SOL     OW43933   3.696   2.011   2.550
10685SOL    HW143934   3.716   1.965   2.631
10685SOL    HW243935   3.696   1.943   2.483
10686SOL     OW43936   2.564   0.156  15.631
10686SOL    HW143937   2.632   0.139  15.697
10686SOL    HW243938   2.504   0.081  15.639
10687SOL     OW43939   2.550   0.257  17.452
10687SOL    HW143940   2.462   0.218  17.458
10687SOL    HW243941   2.586   0.249  17.541
10688SOL     OW43942   3.049   4.634   4.635
10688SOL    HW143943   3.047   4.683   4.552
10688SOL    HW243944   2.959   4.640   4.668
10689SOL     OW43945   4.516   0.471  12.719
10689SOL    HW143946   4.441   0.412  12.715
10689SOL    HW243947   4.488   0.549  12.671
10690SOL     OW43948   1.245   2.121  19.398
10690SOL    HW143949   1.329   2.076  19.407
10690SOL    HW243950   1.182   2.064  19.443
10691SOL     OW43951   2.942   1.534   0.402
10691SOL    HW143952   2.932   1.499   0.491
10691SOL    HW243953   2.993   1.468   0.356
10692SOL     OW43954   0.378   0.864  15.707
10692SOL    HW143955   0.456   0.856  15.653
10692SOL    HW243956   0.409   0.902  15.789
10693SOL     OW43957   3.552   1.879  19.319
10693SOL    HW143958   3.640   1.885  19.357
10693SOL    HW243959   3.566   1.844  19.231
10694SOL     OW43960   1.414   0.615  12.290
10694SOL    HW143961   1.493   0.665  12.268
10694SOL    HW243962   1.394   0.641  12.380
10695SOL     OW43963   2.482   0.723   2.955
10695SOL    HW143964   2.413   0.772   2.999
10695SOL    HW243965   2.527   0.677   3.026
10696SOL     OW43966   0.460   3.034  18.170
10696SOL    HW143967   0.505   3.021  18.086
10696SOL    HW243968   0.475   3.126  18.190
10697SOL     OW43969   0.511   3.637   3.209
10697SOL    HW143970   0.572   3.582   3.257
10697SOL    HW243971   0.424   3.608   3.237
10698SOL     OW43972   4.206   1.113   3.870
10698SOL    HW143973   4.250   1.040   3.914
10698SOL    HW243974   4.201   1.182   3.936
10699SOL     OW43975   3.021   1.661   6.279
10699SOL    HW143976   3.061   1.731   6.227
10699SOL    HW243977   3.094   1.617   6.320
10700SOL     OW43978   3.431   0.043   3.227
10700SOL    HW143979   3.419   4.754   3.171
10700SOL    HW243980   3.512   0.084   3.195
10701SOL     OW43981   0.497   0.001   2.761
10701SOL    HW143982   0.421   0.060   2.758
10701SOL    HW243983   0.477   4.720   2.697
10702SOL     OW43984   0.754   2.387  18.419
10702SOL    HW143985   0.781   2.453  18.355
10702SOL    HW243986   0.696   2.434  18.479
10703SOL     OW43987   1.051   3.295   3.845
10703SOL    HW143988   0.989   3.239   3.798
10703SOL    HW243989   1.137   3.265   3.817
10704SOL     OW43990   1.987   2.773   9.681
10704SOL    HW143991   1.954   2.695   9.726
10704SOL    HW243992   1.965   2.846   9.740
10705SOL     OW43993   3.737   4.007  14.102
10705SOL    HW143994   3.669   4.004  14.034
10705SOL    HW243995   3.750   3.915  14.126
10706SOL     OW43996   3.516   2.327   4.653
10706SOL    HW143997   3.476   2.357   4.571
10706SOL    HW243998   3.580   2.262   4.626
10707SOL     OW43999   1.436   3.222   4.550
10707SOL    HW144000   1.382   3.301   4.562
10707SOL    HW244001   1.526   3.252   4.564
10708SOL     OW44002   0.978   3.392  13.841
10708SOL    HW144003   0.920   3.428  13.909
10708SOL    HW244004   0.967   3.450  13.766
10709SOL     OW44005   0.724   0.638  17.241
10709SOL    HW144006   0.639   0.679  17.257
10709SOL    HW244007   0.776   0.659  17.319
10710SOL     OW44008   1.118   4.314   6.478
10710SOL    HW144009   1.047   4.250   6.472
10710SOL    HW244010   1.197   4.261   6.484
10711SOL     OW44011   1.791   2.875   1.831
10711SOL    HW144012   1.791   2.781   1.817
10711SOL    HW244013   1.861   2.908   1.774
10712SOL     OW44014   1.963   3.185  15.284
10712SOL    HW144015   2.057   3.201  15.285
10712SOL    HW244016   1.953   3.103  15.237
10713SOL     OW44017   3.155   0.137  19.998
10713SOL    HW144018   3.071   0.181  20.011
10713SOL    HW244019   3.132   0.056  19.951
10714SOL     OW44020   0.474   3.723  12.325
10714SOL    HW144021   0.383   3.747  12.347
10714SOL    HW244022   0.527   3.772  12.387
10715SOL     OW44023   2.498   0.975   8.286
10715SOL    HW144024   2.493   1.048   8.348
10715SOL    HW244025   2.438   0.910   8.322
10716SOL     OW44026   1.007   0.293   5.205
10716SOL    HW144027   1.092   0.251   5.218
10716SOL    HW244028   0.964   0.240   5.138
10717SOL     OW44029   2.058   4.596  15.631
10717SOL    HW144030   2.004   4.525  15.595
10717SOL    HW244031   2.075   4.653  15.557
10718SOL     OW44032   2.505   0.872   1.170
10718SOL    HW144033   2.461   0.789   1.153
10718SOL    HW244034   2.492   0.888   1.264
10719SOL     OW44035   1.465   3.720   2.239
10719SOL    HW144036   1.508   3.726   2.154
10719SOL    HW244037   1.418   3.637   2.235
10720SOL     OW44038   4.661   0.468   5.739
10720SOL    HW144039   4.722   0.422   5.797
10720SOL    HW244040   4.576   0.426   5.757
10721SOL     OW44041   1.334   2.808  18.443
10721SOL    HW144042   1.252   2.857  18.434
10721SOL    HW244043   1.391   2.865  18.493
10722SOL     OW44044   0.822   2.682  12.114
10722SOL    HW144045   0.899   2.679  12.171
10722SOL    HW244046   0.806   2.591  12.089
10723SOL     OW44047   1.921   3.807   1.321
10723SOL    HW144048   1.994   3.814   1.260
10723SOL    HW244049   1.871   3.888   1.308
10724SOL     OW44050   1.461   3.787  19.540
10724SOL    HW144051   1.518   3.828  19.605
10724SOL    HW244052   1.521   3.749  19.476
10725SOL     OW44053   0.215   3.575  19.997
10725SOL    HW144054   0.229   3.543  19.908
10725SOL    HW244055   0.121   3.566  20.012
10726SOL     OW44056   1.473   4.611  17.186
10726SOL    HW144057   1.386   4.647  17.206
10726SOL    HW244058   1.531   4.652  17.250
10727SOL     OW44059   2.119   1.314   1.729
10727SOL    HW144060   2.174   1.388   1.752
10727SOL    HW244061   2.180   1.240   1.722
10728SOL     OW44062   0.013   0.518   3.405
10728SOL    HW144063   0.099   0.547   3.435
10728SOL    HW244064   0.030   0.437   3.357
10729SOL     OW44065   3.222   3.700  12.881
10729SOL    HW144066   3.258   3.730  12.797
10729SOL    HW244067   3.153   3.763  12.901
10730SOL     OW44068   3.377   3.514  19.335
10730SOL    HW144069   3.335   3.532  19.419
10730SOL    HW244070   3.410   3.599  19.305
10731SOL     OW44071   0.000   3.769   2.437
10731SOL    HW144072   0.070   3.769   2.372
10731SOL    HW244073   0.021   3.696   2.495
10732SOL     OW44074   2.670   0.716  15.201
10732SOL    HW144075   2.639   0.682  15.117
10732SOL    HW244076   2.716   0.642  15.242
10733SOL     OW44077   4.566   3.683   5.685
10733SOL    HW144078   4.571   3.657   5.777
10733SOL    HW244079   4.568   3.779   5.686
10734SOL     OW44080   4.384   3.938   2.747
10734SOL    HW144081   4.457   3.879   2.726
10734SOL    HW244082   4.354   3.970   2.661
10735SOL     OW44083   0.002   1.367  19.713
10735SOL    HW144084   4.752   1.402  19.632
10735SOL    HW244085   0.095   1.357  19.693
10736SOL     OW44086   3.843   4.077  15.924
10736SOL    HW144087   3.902   4.144  15.890
10736SOL    HW244088   3.881   4.053  16.009
10737SOL     OW44089   2.981   1.297   6.927
10737SOL    HW144090   3.075   1.277   6.926
10737SOL    HW244091   2.950   1.262   7.010
10738SOL     OW44092   2.552   1.571   0.881
10738SOL    HW144093   2.481   1.536   0.935
10738SOL    HW244094   2.599   1.493   0.850
10739SOL     OW44095   4.494   3.361  14.697
10739SOL    HW144096   4.582   3.373  14.732
10739SOL    HW244097   4.437   3.393  14.767
10740SOL     OW44098   0.001   3.993   1.339
10740SOL    HW144099   4.777   3.985   1.245
10740SOL    HW244100   0.096   4.006   1.350
10741SOL     OW44101   2.511   2.462   8.133
10741SOL    HW144102   2.529   2.556   8.125
10741SOL    HW244103   2.434   2.447   8.078
10742SOL     OW44104   0.086   0.636   2.731
10742SOL    HW144105   0.118   0.674   2.813
10742SOL    HW244106   0.101   0.704   2.665
10743SOL     OW44107   3.069   1.174  20.444
10743SOL    HW144108   2.997   1.144  20.388
10743SOL    HW244109   3.105   1.250  20.398
10744SOL     OW44110   4.233   0.670  19.675
10744SOL    HW144111   4.178   0.626  19.610
10744SOL    HW244112   4.322   0.659  19.642
10745SOL     OW44113   0.090   4.244   0.161
10745SOL    HW144114   0.142   4.295   0.224
10745SOL    HW244115   0.030   4.307   0.123
10746SOL     OW44116   3.967   1.581  16.024
10746SOL    HW144117   3.909   1.657  16.029
10746SOL    HW244118   3.910   1.506  16.038
10747SOL     OW44119   3.268   1.264   2.075
10747SOL    HW144120   3.175   1.289   2.077
10747SOL    HW244121   3.309   1.331   2.019
10748SOL     OW44122   0.830   0.318  17.819
10748SOL    HW144123   0.881   0.238  17.836
10748SOL    HW244124   0.748   0.305  17.867
10749SOL     OW44125   2.221   1.800   1.026
10749SOL    HW144126   2.131   1.812   0.996
10749SOL    HW244127   2.213   1.780   1.119
10750SOL     OW44128   3.010   4.772  18.266
10750SOL    HW144129   3.011   0.069  18.220
10750SOL    HW244130   3.099   4.762  18.300
10751SOL     OW44131   1.382   4.021   4.592
10751SOL    HW144132   1.422   3.985   4.513
10751SOL    HW244133   1.311   4.076   4.560
10752SOL     OW44134   4.580   2.370  17.103
10752SOL    HW144135   4.575   2.378  17.008
10752SOL    HW244136   4.664   2.409  17.126
10753SOL     OW44137   1.298   4.488  15.976
10753SOL    HW144138   1.326   4.465  16.064
10753SOL    HW244139   1.255   4.410  15.942
10754SOL     OW44140   3.835   4.365  13.521
10754SOL    HW144141   3.758   4.349  13.468
10754SOL    HW244142   3.820   4.315  13.601
10755SOL     OW44143   2.692   0.717   3.774
10755SOL    HW144144   2.622   0.735   3.837
10755SOL    HW244145   2.664   0.763   3.694
10756SOL     OW44146   1.418   0.385  19.949
10756SOL    HW144147   1.468   0.311  19.984
10756SOL    HW244148   1.484   0.454  19.938
10757SOL     OW44149   2.951   0.626   0.779
10757SOL    HW144150   2.930   0.699   0.838
10757SOL    HW244151   2.916   0.549   0.824
10758SOL     OW44152   3.167   3.406   6.587
10758SOL    HW144153   3.255   3.431   6.558
10758SOL    HW244154   3.161   3.313   6.565
10759SOL     OW44155   3.581   2.179   3.513
10759SOL    HW144156   3.584   2.147   3.604
10759SOL    HW244157   3.521   2.119   3.469
10760SOL     OW44158   1.855   1.824   1.354
10760SOL    HW144159   1.771   1.808   1.395
10760SOL    HW244160   1.849   1.780   1.269
10761SOL     OW44161   0.281   0.214   4.218
10761SOL    HW144162   0.354   0.219   4.279
10761SOL    HW244163   0.203   0.206   4.273
10762SOL     OW44164   0.929   3.729  19.270
10762SOL    HW144165   0.947   3.681  19.189
10762SOL    HW244166   1.006   3.783  19.284
10763SOL     OW44167   1.285   2.670   1.147
10763SOL    HW144168   1.251   2.606   1.084
10763SOL    HW244169   1.310   2.745   1.094
10764SOL     OW44170   4.467   0.131  16.439
10764SOL    HW144171   4.405   0.142  16.367
10764SOL    HW244172   4.448   0.204  16.498
10765SOL     OW44173   2.128   0.542  19.827
10765SOL    HW144174   2.112   0.598  19.902
10765SOL    HW244175   2.061   0.568  19.763
10766SOL     OW44176   2.746   2.050   3.088
10766SOL    HW144177   2.670   2.105   3.107
10766SOL    HW244178   2.747   1.985   3.158
10767SOL     OW44179   2.908   0.123   1.329
10767SOL    HW144180   2.886   0.212   1.358
10767SOL    HW244181   2.924   0.132   1.235
10768SOL     OW44182   4.093   0.409  20.023
10768SOL    HW144183   4.023   0.409  20.088
10768SOL    HW244184   4.061   0.351  19.954
10769SOL     OW44185   2.778   2.921   8.206
10769SOL    HW144186   2.870   2.895   8.199
10769SOL    HW244187   2.745   2.916   8.117
10770SOL     OW44188   1.496   0.595  16.821
10770SOL    HW144189   1.431   0.564  16.757
10770SOL    HW244190   1.533   0.514  16.858
10771SOL     OW44191   4.566   1.639  18.083
10771SOL    HW144192   4.499   1.701  18.054
10771SOL    HW244193   4.545   1.622  18.175
10772SOL     OW44194   0.238   0.211  14.617
10772SOL    HW144195   0.219   0.130  14.665
10772SOL    HW244196   0.210   0.192  14.527
10773SOL     OW44197   4.769   2.081   3.330
10773SOL    HW144198   4.677   2.065   3.353
10773SOL    HW244199   4.765   2.118   3.242
10774SOL     OW44200   0.643   4.203  19.312
10774SOL    HW144201   0.623   4.119  19.271
10774SOL    HW244202   0.738   4.207  19.313
10775SOL     OW44203   1.811   2.518   2.604
10775SOL    HW144204   1.762   2.599   2.588
10775SOL    HW244205   1.903   2.543   2.596
10776SOL     OW44206   0.620   3.570   5.305
10776SOL    HW144207   0.539   3.561   5.255
10776SOL    HW244208   0.678   3.503   5.268
10777SOL     OW44209   2.501   0.223   0.524
10777SOL    HW144210   2.592   0.246   0.541
10777SOL    HW244211   2.457   0.235   0.608
10778SOL     OW44212   2.528   0.990   0.495
10778SOL    HW144213   2.433   0.990   0.486
10778SOL    HW244214   2.554   1.080   0.474
10779SOL     OW44215   4.442   2.507  16.237
10779SOL    HW144216   4.535   2.498  16.261
10779SOL    HW244217   4.394   2.476  16.313
10780SOL     OW44218   1.584   2.917   6.598
10780SOL    HW144219   1.499   2.921   6.555
10780SOL    HW244220   1.647   2.938   6.530
10781SOL     OW44221   2.985   3.154  19.873
10781SOL    HW144222   3.003   3.171  19.781
10781SOL    HW244223   2.898   3.192  19.887
10782SOL     OW44224   3.398   1.101   3.788
10782SOL    HW144225   3.347   1.132   3.864
10782SOL    HW244226   3.447   1.178   3.760
10783SOL     OW44227   3.900   0.427  20.206
10783SOL    HW144228   3.963   0.430  20.278
10783SOL    HW244229   3.822   0.386  20.243
10784SOL     OW44230   2.246   2.847   3.205
10784SOL    HW144231   2.180   2.840   3.274
10784SOL    HW244232   2.243   2.761   3.161
10785SOL     OW44233   4.319   0.046   4.275
10785SOL    HW144234   4.237   0.078   4.239
10785SOL    HW244235   4.297   0.014   4.363
10786SOL     OW44236   1.668   2.162   3.109
10786SOL    HW144237   1.743   2.106   3.129
10786SOL    HW244238   1.687   2.245   3.151
10787SOL     OW44239   1.264   0.229   4.908
10787SOL    HW144240   1.297   0.244   4.820
10787SOL    HW244241   1.338   0.248   4.965
10788SOL     OW44242   4.228   1.981   2.160
10788SOL    HW144243   4.182   2.038   2.221
10788SOL    HW244244   4.247   2.037   2.084
10789SOL     OW44245   3.000   2.902   0.350
10789SOL    HW144246   3.037   2.990   0.351
10789SOL    HW244247   3.058   2.851   0.407
10790SOL     OW44248   0.061   4.485   0.647
10790SOL    HW144249   0.016   4.560   0.609
10790SOL    HW244250   0.139   4.522   0.688
10791SOL     OW44251   4.547   2.015   5.787
10791SOL    HW144252   4.618   1.997   5.726
10791SOL    HW244253   4.469   1.978   5.745
10792SOL     OW44254   3.887   4.750   6.559
10792SOL    HW144255   3.964   4.705   6.524
10792SOL    HW244256   3.828   4.679   6.584
10793SOL     OW44257   1.527   3.222   0.064
10793SOL    HW144258   1.517   3.242   0.157
10793SOL    HW244259   1.481   3.139   0.052
10794SOL     OW44260   2.661   4.369  20.583
10794SOL    HW144261   2.735   4.427  20.596
10794SOL    HW244262   2.591   4.426  20.549
10795SOL     OW44263   3.197   3.393  19.772
10795SOL    HW144264   3.249   3.327  19.726
10795SOL    HW244265   3.112   3.392  19.727
10796SOL     OW44266   3.018   1.003   0.471
10796SOL    HW144267   3.098   0.997   0.524
10796SOL    HW244268   2.962   1.065   0.518
10797SOL     OW44269   2.807   0.847  17.459
10797SOL    HW144270   2.751   0.902  17.513
10797SOL    HW244271   2.796   0.759  17.495
10798SOL     OW44272   3.342   2.498   2.247
10798SOL    HW144273   3.372   2.584   2.218
10798SOL    HW244274   3.286   2.466   2.176
10799SOL     OW44275   2.187   3.047  16.310
10799SOL    HW144276   2.255   3.004  16.362
10799SOL    HW244277   2.201   3.140  16.325
10800SOL     OW44278   1.156   1.271   1.312
10800SOL    HW144279   1.199   1.200   1.264
10800SOL    HW244280   1.134   1.233   1.397
10801SOL     OW44281   1.943   0.942   4.238
10801SOL    HW144282   1.854   0.922   4.268
10801SOL    HW244283   1.936   1.029   4.198
10802SOL     OW44284   0.225   1.237   5.223
10802SOL    HW144285   0.139   1.239   5.263
10802SOL    HW244286   0.225   1.313   5.164
10803SOL     OW44287   0.197   3.098   0.967
10803SOL    HW144288   0.135   3.153   1.016
10803SOL    HW244289   0.167   3.105   0.876
10804SOL     OW44290   0.494   4.555  21.202
10804SOL    HW144291   0.567   4.496  21.183
10804SOL    HW244292   0.417   4.512  21.164
10805SOL     OW44293   1.626   4.725   0.226
10805SOL    HW144294   1.713   4.756   0.253
10805SOL    HW244295   1.637   4.700   0.134
10806SOL     OW44296   4.753   0.152   4.559
10806SOL    HW144297   0.000   0.065   4.580
10806SOL    HW244298   4.694   0.136   4.485
10807SOL     OW44299   4.527   4.410  17.308
10807SOL    HW144300   4.601   4.354  17.285
10807SOL    HW244301   4.523   4.407  17.404
10808SOL     OW44302   1.358   2.995   4.666
10808SOL    HW144303   1.386   2.999   4.757
10808SOL    HW244304   1.405   3.067   4.623
10809SOL     OW44305   1.092   3.432   2.486
10809SOL    HW144306   1.077   3.526   2.483
10809SOL    HW244307   1.040   3.397   2.414
10810SOL     OW44308   1.615   3.060   5.551
10810SOL    HW144309   1.678   3.116   5.598
10810SOL    HW244310   1.534   3.069   5.601
10811SOL     OW44311   3.975   2.734  17.225
10811SOL    HW144312   4.015   2.663  17.175
10811SOL    HW244313   3.970   2.701  17.315
10812SOL     OW44314   4.607   1.891  16.900
10812SOL    HW144315   4.631   1.842  16.821
10812SOL    HW244316   4.603   1.982  16.870
10813SOL     OW44317   0.258   1.579  17.107
10813SOL    HW144318   0.280   1.570  17.015
10813SOL    HW244319   0.200   1.656  17.111
10814SOL     OW44320   3.437   4.072  19.308
10814SOL    HW144321   3.392   4.106  19.230
10814SOL    HW244322   3.381   4.100  19.381
10815SOL     OW44323   0.872   3.548   4.685
10815SOL    HW144324   0.955   3.506   4.711
10815SOL    HW244325   0.811   3.524   4.755
10816SOL     OW44326   0.059   3.542   0.500
10816SOL    HW144327   0.104   3.610   0.550
10816SOL    HW244328   0.125   3.507   0.441
10817SOL     OW44329   1.436   3.641   0.231
10817SOL    HW144330   1.376   3.609   0.163
10817SOL    HW244331   1.426   3.579   0.303
10818SOL     OW44332   1.257   0.023   8.695
10818SOL    HW144333   1.301   0.039   8.778
10818SOL    HW244334   1.195   0.095   8.686
10819SOL     OW44335   3.444   3.114  12.918
10819SOL    HW144336   3.392   3.066  12.853
10819SOL    HW244337   3.396   3.196  12.932
10820SOL     OW44338   1.944   3.980  19.631
10820SOL    HW144339   2.032   4.010  19.652
10820SOL    HW244340   1.905   4.052  19.581
10821SOL     OW44341   3.002   4.667  19.968
10821SOL    HW144342   2.933   4.728  19.996
10821SOL    HW244343   2.964   4.580  19.982
10822SOL     OW44344   1.018   1.052   2.381
10822SOL    HW144345   0.979   0.998   2.450
10822SOL    HW244346   1.016   1.141   2.416
10823SOL     OW44347   3.451   0.578  16.624
10823SOL    HW144348   3.507   0.655  16.638
10823SOL    HW244349   3.510   0.513  16.585
10824SOL     OW44350   1.990   3.022   6.583
10824SOL    HW144351   1.969   3.101   6.634
10824SOL    HW244352   2.079   3.038   6.551
10825SOL     OW44353   2.571   0.986  16.382
10825SOL    HW144354   2.542   0.900  16.352
10825SOL    HW244355   2.517   1.048  16.333
10826SOL     OW44356   1.101   1.587  17.371
10826SOL    HW144357   1.153   1.521  17.325
10826SOL    HW244358   1.024   1.599  17.316
10827SOL     OW44359   4.312   0.906   6.689
10827SOL    HW144360   4.308   0.838   6.756
10827SOL    HW244361   4.235   0.960   6.705
10828SOL     OW44362   4.048   4.326   8.545
10828SOL    HW144363   4.055   4.369   8.630
10828SOL    HW244364   4.070   4.394   8.482
10829SOL     OW44365   2.532   0.823   4.014
10829SOL    HW144366   2.518   0.787   4.101
10829SOL    HW244367   2.448   0.814   3.970
10830SOL     OW44368   0.736   0.300  18.474
10830SOL    HW144369   0.680   0.351  18.415
10830SOL    HW244370   0.717   0.334  18.561
10831SOL     OW44371   2.556   3.035   6.737
10831SOL    HW144372   2.510   3.000   6.813
10831SOL    HW244373   2.492   3.092   6.694
10832SOL     OW44374   2.079   3.249  17.417
10832SOL    HW144375   2.089   3.325  17.474
10832SOL    HW244376   2.090   3.284  17.329
10833SOL     OW44377   1.603   1.010  20.144
10833SOL    HW144378   1.635   1.048  20.225
10833SOL    HW244379   1.679   1.009  20.086
10834SOL     OW44380   3.683   2.055   5.478
10834SOL    HW144381   3.668   1.967   5.511
10834SOL    HW244382   3.603   2.103   5.498
10835SOL     OW44383   4.378   3.846   3.025
10835SOL    HW144384   4.369   3.855   2.930
10835SOL    HW244385   4.409   3.932   3.054
10836SOL     OW44386   2.874   1.779   3.757
10836SOL    HW144387   2.803   1.716   3.749
10836SOL    HW244388   2.842   1.857   3.712
10837SOL     OW44389   0.499   3.977  18.300
10837SOL    HW144390   0.531   3.970  18.390
10837SOL    HW244391   0.576   4.005  18.250
10838SOL     OW44392   4.093   4.615   7.661
10838SOL    HW144393   4.036   4.589   7.733
10838SOL    HW244394   4.165   4.551   7.663
10839SOL     OW44395   2.045   4.524  15.272
10839SOL    HW144396   2.001   4.608  15.289
10839SOL    HW244397   2.113   4.546  15.208
10840SOL     OW44398   3.355   4.198   6.416
10840SOL    HW144399   3.376   4.235   6.502
10840SOL    HW244400   3.391   4.260   6.353
10841SOL     OW44401   0.494   0.720  16.566
10841SOL    HW144402   0.434   0.714  16.491
10841SOL    HW244403   0.447   0.676  16.636
10842SOL     OW44404   3.661   0.008   2.983
10842SOL    HW144405   3.641   0.058   2.904
10842SOL    HW244406   3.676   0.075   3.050
10843SOL     OW44407   3.690   2.408   6.397
10843SOL    HW144408   3.729   2.406   6.485
10843SOL    HW244409   3.599   2.431   6.412
10844SOL     OW44410   0.548   1.657   3.262
10844SOL    HW144411   0.592   1.663   3.347
10844SOL    HW244412   0.456   1.673   3.282
10845SOL     OW44413   4.685   2.236   1.128
10845SOL    HW144414   4.742   2.312   1.141
10845SOL    HW244415   4.615   2.268   1.071
10846SOL     OW44416   3.067   4.747   3.895
10846SOL    HW144417   3.103   4.783   3.814
10846SOL    HW244418   3.143   4.736   3.952
10847SOL     OW44419   2.749   0.381   1.291
10847SOL    HW144420   2.686   0.451   1.310
10847SOL    HW244421   2.695   0.309   1.259
10848SOL     OW44422   0.097   0.790  17.467
10848SOL    HW144423   0.149   0.866  17.442
10848SOL    HW244424   0.047   0.819  17.544
10849SOL     OW44425   1.812   2.779  16.782
10849SOL    HW144426   1.808   2.874  16.795
10849SOL    HW244427   1.756   2.762  16.707
10850SOL     OW44428   0.091   2.860  20.509
10850SOL    HW144429   0.177   2.845  20.547
10850SOL    HW244430   0.086   2.799  20.436
10851SOL     OW44431   3.157   3.668  14.845
10851SOL    HW144432   3.104   3.621  14.780
10851SOL    HW244433   3.131   3.759  14.836
10852SOL     OW44434   4.653   3.700   6.964
10852SOL    HW144435   4.695   3.741   6.888
10852SOL    HW244436   4.718   3.638   6.997
10853SOL     OW44437   1.368   4.248   0.055
10853SOL    HW144438   1.404   4.292  21.226
10853SOL    HW244439   1.288   4.297   0.076
10854SOL     OW44440   3.119   1.704   9.869
10854SOL    HW144441   3.187   1.639   9.853
10854SOL    HW244442   3.050   1.654   9.914
10855SOL     OW44443   3.136   0.079   0.590
10855SOL    HW144444   3.070   0.142   0.560
10855SOL    HW244445   3.200   0.076   0.519
10856SOL     OW44446   4.393   0.205  18.816
10856SOL    HW144447   4.466   0.200  18.877
10856SOL    HW244448   4.432   0.237  18.734
10857SOL     OW44449   0.598   0.591   3.254
10857SOL    HW144450   0.637   0.666   3.210
10857SOL    HW244451   0.504   0.601   3.240
10858SOL     OW44452   2.125   0.215  16.845
10858SOL    HW144453   2.127   0.120  16.856
10858SOL    HW244454   2.100   0.250  16.930
10859SOL     OW44455   3.337   1.378   0.171
10859SOL    HW144456   3.249   1.358   0.140
10859SOL    HW244457   3.365   1.298   0.216
10860SOL     OW44458   0.730   0.380   3.352
10860SOL    HW144459   0.682   0.298   3.342
10860SOL    HW244460   0.670   0.447   3.318
10861SOL     OW44461   2.629   0.868   4.749
10861SOL    HW144462   2.612   0.782   4.788
10861SOL    HW244463   2.559   0.879   4.685
10862SOL     OW44464   1.363   3.545   3.867
10862SOL    HW144465   1.320   3.545   3.953
10862SOL    HW244466   1.435   3.608   3.877
10863SOL     OW44467   3.390   2.960  20.165
10863SOL    HW144468   3.424   2.875  20.139
10863SOL    HW244469   3.349   2.995  20.086
10864SOL     OW44470   0.169   3.698   6.038
10864SOL    HW144471   0.253   3.731   6.069
10864SOL    HW244472   0.160   3.612   6.078
10865SOL     OW44473   1.052   1.657   0.359
10865SOL    HW144474   1.018   1.588   0.303
10865SOL    HW244475   1.147   1.650   0.352
10866SOL     OW44476   1.417   1.705   2.381
10866SOL    HW144477   1.484   1.768   2.356
10866SOL    HW244478   1.433   1.629   2.324
10867SOL     OW44479   4.258   3.323   4.903
10867SOL    HW144480   4.281   3.236   4.937
10867SOL    HW244481   4.259   3.311   4.807
10868SOL     OW44482   2.450   0.668   0.147
10868SOL    HW144483   2.364   0.705   0.166
10868SOL    HW244484   2.447   0.579   0.181
10869SOL     OW44485   0.199   3.935  19.767
10869SOL    HW144486   0.294   3.934  19.755
10869SOL    HW244487   0.168   4.005  19.710
10870SOL     OW44488   1.338   0.815  19.683
10870SOL    HW144489   1.287   0.746  19.642
10870SOL    HW244490   1.278   0.856  19.745
10871SOL     OW44491   2.087   2.186  18.905
10871SOL    HW144492   2.019   2.241  18.865
10871SOL    HW244493   2.167   2.238  18.897
10872SOL     OW44494   1.496   1.545  20.133
10872SOL    HW144495   1.428   1.477  20.137
10872SOL    HW244496   1.526   1.544  20.042
10873SOL     OW44497   4.359   1.414  14.911
10873SOL    HW144498   4.393   1.479  14.850
10873SOL    HW244499   4.266   1.436  14.919
10874SOL     OW44500   0.976   3.264  16.255
10874SOL    HW144501   0.917   3.326  16.295
10874SOL    HW244502   0.949   3.261  16.163
10875SOL     OW44503   0.062   2.523  16.773
10875SOL    HW144504   0.041   2.611  16.803
10875SOL    HW244505   4.780   2.501  16.711
10876SOL     OW44506   0.598   3.313   0.662
10876SOL    HW144507   0.644   3.344   0.584
10876SOL    HW244508   0.595   3.218   0.651
10877SOL     OW44509   3.349   3.603  17.462
10877SOL    HW144510   3.433   3.610  17.507
10877SOL    HW244511   3.308   3.688  17.474
10878SOL     OW44512   0.276   0.773  20.365
10878SOL    HW144513   0.241   0.740  20.282
10878SOL    HW244514   0.199   0.784  20.420
10879SOL     OW44515   0.859   0.227   1.412
10879SOL    HW144516   0.847   0.300   1.350
10879SOL    HW244517   0.776   0.224   1.460
10880SOL     OW44518   0.956   4.448   1.273
10880SOL    HW144519   0.973   4.372   1.328
10880SOL    HW244520   0.861   4.460   1.277
10881SOL     OW44521   1.584   3.882  15.228
10881SOL    HW144522   1.628   3.864  15.145
10881SOL    HW244523   1.558   3.796  15.262
10882SOL     OW44524   0.488   2.285   2.069
10882SOL    HW144525   0.500   2.378   2.048
10882SOL    HW244526   0.528   2.275   2.155
10883SOL     OW44527   1.765   2.214   1.842
10883SOL    HW144528   1.858   2.199   1.824
10883SOL    HW244529   1.738   2.279   1.777
10884SOL     OW44530   2.031   3.686   5.708
10884SOL    HW144531   2.012   3.605   5.756
10884SOL    HW244532   2.108   3.722   5.752
10885SOL     OW44533   4.523   4.154   0.795
10885SOL    HW144534   4.563   4.072   0.764
10885SOL    HW244535   4.429   4.136   0.795
10886SOL     OW44536   3.331   1.734  19.373
10886SOL    HW144537   3.416   1.749  19.333
10886SOL    HW244538   3.340   1.767  19.463
10887SOL     OW44539   2.704   1.740  16.843
10887SOL    HW144540   2.708   1.749  16.938
10887SOL    HW244541   2.726   1.648  16.827
10888SOL     OW44542   2.105   3.297   1.684
10888SOL    HW144543   2.145   3.361   1.743
10888SOL    HW244544   2.028   3.342   1.649
10889SOL     OW44545   3.717   4.690  19.201
10889SOL    HW144546   3.657   4.764  19.205
10889SOL    HW244547   3.786   4.711  19.264
10890SOL     OW44548   3.495   2.237  20.202
10890SOL    HW144549   3.404   2.209  20.196
10890SOL    HW244550   3.536   2.171  20.258
10891SOL     OW44551   4.623   4.520  16.064
10891SOL    HW144552   4.621   4.600  16.116
10891SOL    HW244553   4.661   4.547  15.980
10892SOL     OW44554   2.509   2.012  17.229
10892SOL    HW144555   2.476   1.933  17.273
10892SOL    HW244556   2.528   1.984  17.140
10893SOL     OW44557   0.949   1.970  17.856
10893SOL    HW144558   0.912   1.905  17.916
10893SOL    HW244559   0.939   1.930  17.769
10894SOL     OW44560   1.333   2.312  16.643
10894SOL    HW144561   1.260   2.301  16.703
10894SOL    HW244562   1.297   2.291  16.557
10895SOL     OW44563   2.177   2.994  18.279
10895SOL    HW144564   2.139   2.986  18.192
10895SOL    HW244565   2.250   2.932  18.280
10896SOL     OW44566   3.252   4.244  18.467
10896SOL    HW144567   3.300   4.164  18.490
10896SOL    HW244568   3.257   4.298  18.546
10897SOL     OW44569   1.966   2.134  19.418
10897SOL    HW144570   1.978   2.091  19.333
10897SOL    HW244571   1.944   2.224  19.397
10898SOL     OW44572   0.547   4.756  19.245
10898SOL    HW144573   0.528   4.663  19.229
10898SOL    HW244574   0.641   4.765  19.230
10899SOL     OW44575   3.595   2.350   1.491
10899SOL    HW144576   3.660   2.416   1.516
10899SOL    HW244577   3.553   2.325   1.573
10900SOL     OW44578   4.018   3.551   5.514
10900SOL    HW144579   3.946   3.536   5.575
10900SOL    HW244580   4.021   3.472   5.460
10901SOL     OW44581   0.650   2.917  17.007
10901SOL    HW144582   0.614   2.967  17.080
10901SOL    HW244583   0.648   2.826  17.036
10902SOL     OW44584   2.580   0.669  17.220
10902SOL    HW144585   2.660   0.626  17.191
10902SOL    HW244586   2.513   0.640  17.157
10903SOL     OW44587   1.945   3.188   1.352
10903SOL    HW144588   1.946   3.115   1.290
10903SOL    HW244589   2.029   3.184   1.397
10904SOL     OW44590   0.608   1.800  16.122
10904SOL    HW144591   0.580   1.821  16.033
10904SOL    HW244592   0.689   1.850  16.134
10905SOL     OW44593   1.150   0.320  17.678
10905SOL    HW144594   1.237   0.334  17.640
10905SOL    HW244595   1.101   0.273  17.611
10906SOL     OW44596   2.512   4.408   1.719
10906SOL    HW144597   2.606   4.393   1.713
10906SOL    HW244598   2.473   4.323   1.702
10907SOL     OW44599   1.616   3.628  19.358
10907SOL    HW144600   1.598   3.540  19.391
10907SOL    HW244601   1.702   3.650  19.394
10908SOL     OW44602   2.406   0.497   2.033
10908SOL    HW144603   2.372   0.546   2.108
10908SOL    HW244604   2.333   0.441   2.007
10909SOL     OW44605   3.228   0.608  19.987
10909SOL    HW144606   3.166   0.562  19.930
10909SOL    HW244607   3.219   0.566  20.072
10910SOL     OW44608   1.696   3.779  15.892
10910SOL    HW144609   1.706   3.826  15.975
10910SOL    HW244610   1.754   3.825  15.831
10911SOL     OW44611   3.083   1.754  17.303
10911SOL    HW144612   3.085   1.825  17.367
10911SOL    HW244613   3.053   1.678  17.352
10912SOL     OW44614   2.119   4.390   5.499
10912SOL    HW144615   2.125   4.390   5.404
10912SOL    HW244616   2.035   4.348   5.518
10913SOL     OW44617   2.843   2.680   0.425
10913SOL    HW144618   2.891   2.742   0.370
10913SOL    HW244619   2.762   2.664   0.378
10914SOL     OW44620   0.343   2.052   4.744
10914SOL    HW144621   0.297   2.014   4.819
10914SOL    HW244622   0.418   1.994   4.731
10915SOL     OW44623   1.051   0.097  18.744
10915SOL    HW144624   0.995   0.024  18.769
10915SOL    HW244625   1.118   0.058  18.688
10916SOL     OW44626   2.245   3.147  18.725
10916SOL    HW144627   2.233   3.068  18.672
10916SOL    HW244628   2.339   3.148  18.746
10917SOL     OW44629   2.792   4.044  16.820
10917SOL    HW144630   2.877   4.075  16.789
10917SOL    HW244631   2.808   3.953  16.846
10918SOL     OW44632   3.185   4.684   2.694
10918SOL    HW144633   3.107   4.689   2.751
10918SOL    HW244634   3.257   4.711   2.751
10919SOL     OW44635   1.447   2.490   1.550
10919SOL    HW144636   1.458   2.395   1.559
10919SOL    HW244637   1.355   2.501   1.529
10920SOL     OW44638   0.404   4.046  15.451
10920SOL    HW144639   0.474   4.044  15.386
10920SOL    HW244640   0.421   3.970  15.507
10921SOL     OW44641   2.310   1.226  17.410
10921SOL    HW144642   2.219   1.255  17.399
10921SOL    HW244643   2.353   1.300  17.455
10922SOL     OW44644   1.672   2.370   0.809
10922SOL    HW144645   1.591   2.341   0.850
10922SOL    HW244646   1.741   2.319   0.852
10923SOL     OW44647   0.268   1.848   4.988
10923SOL    HW144648   0.294   1.775   4.931
10923SOL    HW244649   0.186   1.879   4.951
10924SOL     OW44650   0.000   3.102   5.360
10924SOL    HW144651   0.020   3.119   5.452
10924SOL    HW244652   4.774   3.189   5.322
10925SOL     OW44653   1.801   2.253  17.501
10925SOL    HW144654   1.820   2.160  17.485
10925SOL    HW244655   1.724   2.253  17.558
10926SOL     OW44656   4.553   4.710  19.967
10926SOL    HW144657   4.631   4.699  20.021
10926SOL    HW244658   4.481   4.722  20.029
10927SOL     OW44659   1.851   1.151   0.467
10927SOL    HW144660   1.918   1.103   0.419
10927SOL    HW244661   1.901   1.210   0.524
10928SOL     OW44662   1.177   2.142  17.270
10928SOL    HW144663   1.189   2.096  17.353
10928SOL    HW244664   1.245   2.108  17.213
10929SOL     OW44665   2.014   0.934   5.519
10929SOL    HW144666   1.946   0.972   5.575
10929SOL    HW244667   2.002   0.976   5.434
10930SOL     OW44668   3.461   4.064  21.000
10930SOL    HW144669   3.503   4.025  21.077
10930SOL    HW244670   3.404   3.995  20.967
10931SOL     OW44671   3.837   1.082  19.569
10931SOL    HW144672   3.821   1.047  19.481
10931SOL    HW244673   3.849   1.176  19.556
10932SOL     OW44674   4.385   2.420  15.236
10932SOL    HW144675   4.431   2.449  15.157
10932SOL    HW244676   4.294   2.444  15.221
10933SOL     OW44677   2.682   0.697   8.909
10933SOL    HW144678   2.721   0.779   8.879
10933SOL    HW244679   2.628   0.668   8.836
10934SOL     OW44680   2.003   2.059  16.384
10934SOL    HW144681   2.011   1.986  16.445
10934SOL    HW244682   2.064   2.039  16.314
10935SOL     OW44683   0.591   4.658  18.034
10935SOL    HW144684   0.650   4.606  17.979
10935SOL    HW244685   0.514   4.603  18.045
10936SOL     OW44686   4.550   0.678   3.300
10936SOL    HW144687   4.580   0.765   3.328
10936SOL    HW244688   4.615   0.650   3.235
10937SOL     OW44689   0.212   2.102  20.559
10937SOL    HW144690   0.239   2.192  20.541
10937SOL    HW244691   0.195   2.101  20.653
10938SOL     OW44692   3.671   2.721  13.811
10938SOL    HW144693   3.697   2.639  13.769
10938SOL    HW244694   3.744   2.781  13.794
10939SOL     OW44695   4.540   1.499  18.313
10939SOL    HW144696   4.544   1.416  18.266
10939SOL    HW244697   4.451   1.502  18.349
10940SOL     OW44698   0.020   1.266   8.154
10940SOL    HW144699   4.767   1.185   8.123
10940SOL    HW244700   0.083   1.290   8.086
10941SOL     OW44701   3.050   0.540  20.430
10941SOL    HW144702   3.085   0.516  20.344
10941SOL    HW244703   3.116   0.597  20.468
10942SOL     OW44704   0.482   1.933  16.432
10942SOL    HW144705   0.444   1.875  16.366
10942SOL    HW244706   0.554   1.881  16.470
10943SOL     OW44707   3.178   4.557  19.372
10943SOL    HW144708   3.233   4.625  19.333
10943SOL    HW244709   3.213   4.544  19.460
10944SOL     OW44710   1.681   3.237   4.779
10944SOL    HW144711   1.715   3.158   4.738
10944SOL    HW244712   1.644   3.207   4.862
10945SOL     OW44713   0.234   0.892  20.940
10945SOL    HW144714   0.246   0.957  20.870
10945SOL    HW244715   0.171   0.931  20.999
10946SOL     OW44716   1.570   0.167   3.188
10946SOL    HW144717   1.538   0.082   3.159
10946SOL    HW244718   1.491   0.212   3.220
10947SOL     OW44719   4.357   0.570  20.766
10947SOL    HW144720   4.424   0.612  20.711
10947SOL    HW244721   4.341   0.632  20.837
10948SOL     OW44722   1.763   3.458   1.369
10948SOL    HW144723   1.812   3.447   1.450
10948SOL    HW244724   1.825   3.431   1.300
10949SOL     OW44725   4.674   2.746   3.138
10949SOL    HW144726   4.663   2.808   3.210
10949SOL    HW244727   4.748   2.691   3.164
10950SOL     OW44728   3.002   3.930   0.291
10950SOL    HW144729   3.041   3.865   0.349
10950SOL    HW244730   3.001   3.888   0.205
10951SOL     OW44731   3.844   0.813   1.852
10951SOL    HW144732   3.911   0.868   1.893
10951SOL    HW244733   3.882   0.725   1.852
10952SOL     OW44734   0.235   4.135  18.074
10952SOL    HW144735   0.311   4.169  18.121
10952SOL    HW244736   0.186   4.086  18.140
10953SOL     OW44737   1.864   0.462   3.554
10953SOL    HW144738   1.850   0.556   3.541
10953SOL    HW244739   1.782   0.422   3.527
10954SOL     OW44740   0.554   2.818  17.610
10954SOL    HW144741   0.594   2.769  17.538
10954SOL    HW244742   0.628   2.861  17.653
10955SOL     OW44743   3.485   3.461  20.154
10955SOL    HW144744   3.525   3.502  20.077
10955SOL    HW244745   3.477   3.533  20.217
10956SOL     OW44746   3.523   3.224   0.191
10956SOL    HW144747   3.613   3.233   0.160
10956SOL    HW244748   3.473   3.203   0.112
10957SOL     OW44749   2.359   0.075  20.452
10957SOL    HW144750   2.319   0.038  20.374
10957SOL    HW244751   2.452   0.084  20.429
10958SOL     OW44752   1.041   3.279  19.403
10958SOL    HW144753   1.096   3.304  19.477
10958SOL    HW244754   1.093   3.213  19.356
10959SOL     OW44755   3.551   4.602   0.269
10959SOL    HW144756   3.500   4.679   0.293
10959SOL    HW244757   3.612   4.590   0.343
10960SOL     OW44758   1.101   2.964  18.530
10960SOL    HW144759   1.066   2.997  18.613
10960SOL    HW244760   1.085   3.034  18.468
10961SOL     OW44761   3.499   0.829   1.321
10961SOL    HW144762   3.575   0.860   1.271
10961SOL    HW244763   3.522   0.846   1.412
10962SOL     OW44764   1.543   4.116  16.801
10962SOL    HW144765   1.546   4.164  16.718
10962SOL    HW244766   1.625   4.138  16.845
10963SOL     OW44767   1.747   4.319   4.189
10963SOL    HW144768   1.702   4.402   4.172
10963SOL    HW244769   1.734   4.268   4.109
10964SOL     OW44770   0.946   2.781  17.486
10964SOL    HW144771   0.981   2.762  17.574
10964SOL    HW244772   1.021   2.767  17.428
10965SOL     OW44773   1.313   0.787  19.342
10965SOL    HW144774   1.273   0.874  19.341
10965SOL    HW244775   1.267   0.740  19.411
10966SOL     OW44776   0.076   0.886   2.124
10966SOL    HW144777   0.084   0.791   2.114
10966SOL    HW244778   4.777   0.898   2.163
10967SOL     OW44779   4.193   4.081  21.133
10967SOL    HW144780   4.287   4.094  21.129
10967SOL    HW244781   4.160   4.110  21.048
10968SOL     OW44782   3.955   0.623  17.120
10968SOL    HW144783   3.981   0.651  17.032
10968SOL    HW244784   4.036   0.626  17.171
10969SOL     OW44785   2.984   2.203   4.589
10969SOL    HW144786   2.913   2.182   4.649
10969SOL    HW244787   3.046   2.254   4.642
10970SOL     OW44788   2.575   3.083  18.567
10970SOL    HW144789   2.563   3.080  18.661
10970SOL    HW244790   2.517   3.153  18.537
10971SOL     OW44791   2.407   2.839  15.405
10971SOL    HW144792   2.385   2.780  15.477
10971SOL    HW244793   2.500   2.822  15.388
10972SOL     OW44794   4.353   2.623   4.127
10972SOL    HW144795   4.379   2.532   4.140
10972SOL    HW244796   4.291   2.620   4.054
10973SOL     OW44797   3.870   4.515   1.447
10973SOL    HW144798   3.830   4.463   1.377
10973SOL    HW244799   3.943   4.462   1.478
10974SOL     OW44800   0.706   4.048  18.879
10974SOL    HW144801   0.768   4.014  18.943
10974SOL    HW244802   0.620   4.036  18.920
10975SOL     OW44803   0.699   1.830  12.604
10975SOL    HW144804   0.668   1.833  12.694
10975SOL    HW244805   0.691   1.738  12.579
10976SOL     OW44806   1.537   1.415   1.357
10976SOL    HW144807   1.552   1.437   1.265
10976SOL    HW244808   1.554   1.321   1.362
10977SOL     OW44809   4.179   3.715   1.352
10977SOL    HW144810   4.253   3.690   1.407
10977SOL    HW244811   4.195   3.807   1.331
10978SOL     OW44812   4.274   4.423   0.480
10978SOL    HW144813   4.292   4.506   0.523
10978SOL    HW244814   4.355   4.400   0.434
10979SOL     OW44815   4.243   2.610  17.736
10979SOL    HW144816   4.274   2.520  17.731
10979SOL    HW244817   4.278   2.644  17.818
10980SOL     OW44818   3.693   3.415  17.250
10980SOL    HW144819   3.779   3.440  17.216
10980SOL    HW244820   3.638   3.407  17.172
10981SOL     OW44821   1.367   3.171   0.672
10981SOL    HW144822   1.285   3.199   0.711
10981SOL    HW244823   1.385   3.086   0.712
10982SOL     OW44824   0.881   0.348  15.668
10982SOL    HW144825   0.813   0.313  15.611
10982SOL    HW244826   0.964   0.317  15.630
10983SOL     OW44827   2.974   4.773   4.415
10983SOL    HW144828   2.919   4.715   4.362
10983SOL    HW244829   3.027   0.033   4.351
10984SOL     OW44830   1.212   3.050   7.913
10984SOL    HW144831   1.305   3.039   7.892
10984SOL    HW244832   1.172   3.083   7.832
10985SOL     OW44833   4.403   2.420  19.710
10985SOL    HW144834   4.364   2.357  19.649
10985SOL    HW244835   4.340   2.492  19.712
10986SOL     OW44836   3.116   2.987  20.035
10986SOL    HW144837   3.042   2.929  20.052
10986SOL    HW244838   3.083   3.052  19.973
10987SOL     OW44839   3.175   3.405  16.217
10987SOL    HW144840   3.157   3.499  16.221
10987SOL    HW244841   3.100   3.365  16.263
10988SOL     OW44842   4.763   0.321  20.521
10988SOL    HW144843   4.785   0.316  20.428
10988SOL    HW244844   4.670   0.300  20.525
10989SOL     OW44845   4.080   0.606  19.447
10989SOL    HW144846   4.008   0.653  19.406
10989SOL    HW244847   4.140   0.585  19.375
10990SOL     OW44848   4.123   2.388   4.081
10990SOL    HW144849   4.090   2.477   4.074
10990SOL    HW244850   4.105   2.363   4.172
10991SOL     OW44851   0.804   3.295   9.268
10991SOL    HW144852   0.748   3.344   9.207
10991SOL    HW244853   0.825   3.214   9.222
10992SOL     OW44854   0.773   2.642   1.972
10992SOL    HW144855   0.865   2.646   1.944
10992SOL    HW244856   0.772   2.691   2.055
10993SOL     OW44857   0.898   1.440   8.248
10993SOL    HW144858   0.936   1.510   8.301
10993SOL    HW244859   0.943   1.447   8.164
10994SOL     OW44860   3.345   1.897   1.935
10994SOL    HW144861   3.278   1.884   2.001
10994SOL    HW244862   3.304   1.869   1.853
10995SOL     OW44863   4.755   3.369  17.187
10995SOL    HW144864   0.052   3.367  17.231
10995SOL    HW244865   4.776   3.374  17.094
10996SOL     OW44866   1.497   0.825   9.137
10996SOL    HW144867   1.480   0.736   9.168
10996SOL    HW244868   1.523   0.873   9.216
10997SOL     OW44869   3.103   2.965   0.829
10997SOL    HW144870   3.176   2.951   0.769
10997SOL    HW244871   3.058   2.881   0.833
10998SOL     OW44872   1.955   1.701   6.481
10998SOL    HW144873   1.991   1.632   6.425
10998SOL    HW244874   1.890   1.656   6.534
10999SOL     OW44875   3.656   4.222  17.169
10999SOL    HW144876   3.650   4.311  17.136
10999SOL    HW244877   3.578   4.211  17.223
11000SOL     OW44878   4.353   2.698   4.935
11000SOL    HW144879   4.258   2.683   4.935
11000SOL    HW244880   4.374   2.720   4.844
11001SOL     OW44881   2.969   1.547   8.133
11001SOL    HW144882   3.060   1.573   8.120
11001SOL    HW244883   2.973   1.469   8.188
11002SOL     OW44884   1.288   4.114   0.925
11002SOL    HW144885   1.380   4.140   0.922
11002SOL    HW244886   1.241   4.196   0.941
11003SOL     OW44887   3.437   3.232  21.160
11003SOL    HW144888   3.483   3.270  21.085
11003SOL    HW244889   3.437   3.138  21.144
11004SOL     OW44890   3.271   4.714   8.092
11004SOL    HW144891   3.276   4.747   8.182
11004SOL    HW244892   3.233   4.787   8.043
11005SOL     OW44893   2.883   3.225   8.632
11005SOL    HW144894   2.942   3.162   8.673
11005SOL    HW244895   2.807   3.228   8.690
11006SOL     OW44896   1.795   0.983  19.621
11006SOL    HW144897   1.864   1.037  19.583
11006SOL    HW244898   1.798   0.902  19.571
11007SOL     OW44899   1.493   3.674  10.644
11007SOL    HW144900   1.407   3.636  10.626
11007SOL    HW244901   1.483   3.766  10.621
11008SOL     OW44902   2.053   3.640   9.651
11008SOL    HW144903   1.990   3.611   9.585
11008SOL    HW244904   2.002   3.695   9.711
11009SOL     OW44905   0.640   3.090  11.478
11009SOL    HW144906   0.702   3.150  11.518
11009SOL    HW244907   0.693   3.033  11.423
11010SOL     OW44908   4.267   3.193   5.337
11010SOL    HW144909   4.213   3.114   5.334
11010SOL    HW244910   4.350   3.168   5.297
11011SOL     OW44911   0.203   3.426   9.174
11011SOL    HW144912   0.158   3.390   9.251
11011SOL    HW244913   0.274   3.478   9.211
11012SOL     OW44914   2.780   2.935  10.169
11012SOL    HW144915   2.761   3.010  10.112
11012SOL    HW244916   2.694   2.898  10.189
11013SOL     OW44917   1.094   3.590   9.313
11013SOL    HW144918   1.052   3.577   9.228
11013SOL    HW244919   1.139   3.508   9.330
11014SOL     OW44920   3.021   0.014   9.449
11014SOL    HW144921   3.035   0.044   9.359
11014SOL    HW244922   2.936   4.759   9.447
11015SOL     OW44923   2.928   4.104  10.315
11015SOL    HW144924   3.020   4.131  10.312
11015SOL    HW244925   2.879   4.186  10.323
11016SOL     OW44926   2.032   3.521  12.051
11016SOL    HW144927   2.116   3.515  12.098
11016SOL    HW244928   2.050   3.481  11.966
11017SOL     OW44929   2.042   3.817  11.763
11017SOL    HW144930   2.091   3.737  11.785
11017SOL    HW244931   1.963   3.812  11.816
11018SOL     OW44932   3.238   0.181  11.914
11018SOL    HW144933   3.242   0.235  11.994
11018SOL    HW244934   3.208   0.096  11.944
11019SOL     OW44935   3.697   4.603  11.883
11019SOL    HW144936   3.786   4.570  11.896
11019SOL    HW244937   3.676   4.650  11.964
11020SOL     OW44938   2.139   2.868  11.148
11020SOL    HW144939   2.144   2.928  11.073
11020SOL    HW244940   2.127   2.782  11.109
11021SOL     OW44941   2.127   2.515  12.813
11021SOL    HW144942   2.197   2.527  12.877
11021SOL    HW244943   2.127   2.596  12.762
11022SOL     OW44944   2.975   4.714  11.565
11022SOL    HW144945   3.056   4.671  11.591
11022SOL    HW244946   2.942   4.754  11.645
11023SOL     OW44947   3.697   2.913  12.818
11023SOL    HW144948   3.713   2.863  12.898
11023SOL    HW244949   3.615   2.959  12.835
11024SOL     OW44950   1.228   4.405  11.052
11024SOL    HW144951   1.286   4.361  10.989
11024SOL    HW244952   1.184   4.334  11.098
11025SOL     OW44953   2.365   2.172  12.312
11025SOL    HW144954   2.298   2.199  12.249
11025SOL    HW244955   2.332   2.202  12.397
11026SOL     OW44956   2.414   3.621  10.808
11026SOL    HW144957   2.499   3.659  10.789
11026SOL    HW244958   2.430   3.527  10.813
11027SOL     OW44959   2.196   1.263  16.233
11027SOL    HW144960   2.235   1.346  16.206
11027SOL    HW244961   2.102   1.276  16.223
11028SOL     OW44962   2.410   3.204  11.118
11028SOL    HW144963   2.426   3.116  11.153
11028SOL    HW244964   2.420   3.262  11.194
11029SOL     OW44965   2.022   3.109  11.314
11029SOL    HW144966   2.102   3.073  11.353
11029SOL    HW244967   2.001   3.048  11.242
11030SOL     OW44968   2.086   0.218  11.769
11030SOL    HW144969   2.105   0.172  11.687
11030SOL    HW244970   2.172   0.239  11.805
11031SOL     OW44971   2.674   2.213  12.420
11031SOL    HW144972   2.619   2.267  12.364
11031SOL    HW244973   2.666   2.253  12.507
11032SOL     OW44974   3.394   2.415  16.376
11032SOL    HW144975   3.440   2.335  16.349
11032SOL    HW244976   3.301   2.395  16.363
11033SOL     OW44977   2.311   1.076  18.770
11033SOL    HW144978   2.223   1.094  18.801
11033SOL    HW244979   2.299   1.039  18.682
11034SOL     OW44980   3.878   1.700  15.142
11034SOL    HW144981   3.811   1.707  15.210
11034SOL    HW244982   3.897   1.606  15.137
11035SOL     OW44983   2.565   1.346   3.275
11035SOL    HW144984   2.561   1.274   3.212
11035SOL    HW244985   2.597   1.420   3.223
11036SOL     OW44986   2.054   0.720  20.070
11036SOL    HW144987   2.084   0.653  20.131
11036SOL    HW244988   1.959   0.709  20.067
11037SOL     OW44989   2.598   0.255   5.998
11037SOL    HW144990   2.659   0.306   6.052
11037SOL    HW244991   2.652   0.185   5.961
11038SOL     OW44992   4.273   1.453   3.473
11038SOL    HW144993   4.297   1.534   3.518
11038SOL    HW244994   4.186   1.431   3.508
11039SOL     OW44995   0.241   3.482   5.775
11039SOL    HW144996   0.156   3.470   5.734
11039SOL    HW244997   0.231   3.443   5.862
11040SOL     OW44998   1.341   2.160  13.281
11040SOL    HW144999   1.267   2.121  13.327
11040SOL    HW245000   1.306   2.186  13.196
11041SOL     OW45001   3.160   2.417   8.220
11041SOL    HW145002   3.105   2.465   8.159
11041SOL    HW245003   3.105   2.405   8.298
11042SOL     OW45004   3.850   0.347   7.303
11042SOL    HW145005   3.782   0.403   7.266
11042SOL    HW245006   3.871   0.388   7.388
11043SOL     OW45007   1.903   0.745   8.270
11043SOL    HW145008   1.936   0.746   8.180
11043SOL    HW245009   1.808   0.739   8.261
11044SOL     OW45010   3.202   0.005   2.339
11044SOL    HW145011   3.135   4.762   2.400
11044SOL    HW245012   3.162   4.784   2.252
11045SOL     OW45013   1.161   3.421  16.739
11045SOL    HW145014   1.109   3.343  16.759
11045SOL    HW245015   1.225   3.391  16.674
11046SOL     OW45016   2.542   1.362  16.062
11046SOL    HW145017   2.530   1.452  16.091
11046SOL    HW245018   2.635   1.355  16.043
11047SOL     OW45019   1.533   4.637  11.929
11047SOL    HW145020   1.527   4.718  11.879
11047SOL    HW245021   1.473   4.650  12.003
11048SOL     OW45022   0.038   2.415   5.816
11048SOL    HW145023   0.088   2.441   5.893
11048SOL    HW245024   4.753   2.364   5.851
11049SOL     OW45025   1.366   4.619  17.538
11049SOL    HW145026   1.277   4.605  17.505
11049SOL    HW245027   1.358   4.688  17.603
11050SOL     OW45028   4.250   0.685   6.856
11050SOL    HW145029   4.176   0.641   6.899
11050SOL    HW245030   4.289   0.617   6.800
11051SOL     OW45031   1.113   3.039  19.607
11051SOL    HW145032   1.151   3.034  19.519
11051SOL    HW245033   1.185   3.018  19.666
11052SOL     OW45034   3.462   3.600   6.152
11052SOL    HW145035   3.483   3.587   6.059
11052SOL    HW245036   3.537   3.648   6.186
11053SOL     OW45037   4.740   0.736  13.409
11053SOL    HW145038   4.665   0.686  13.375
11053SOL    HW245039   4.700   0.802  13.466
11054SOL     OW45040   0.837   3.231   0.213
11054SOL    HW145041   0.822   3.138   0.232
11054SOL    HW245042   0.862   3.232   0.120
11055SOL     OW45043   1.279   1.131  17.491
11055SOL    HW145044   1.212   1.190  17.525
11055SOL    HW245045   1.230   1.067  17.440
11056SOL     OW45046   4.741   1.723   4.997
11056SOL    HW145047   0.001   1.804   4.977
11056SOL    HW245048   4.664   1.727   4.940
11057SOL     OW45049   3.757   2.210  20.662
11057SOL    HW145050   3.791   2.238  20.577
11057SOL    HW245051   3.663   2.202  20.650
11058SOL     OW45052   3.878   3.148   3.537
11058SOL    HW145053   3.891   3.070   3.484
11058SOL    HW245054   3.895   3.120   3.627
11059SOL     OW45055   1.001   2.864   0.692
11059SOL    HW145056   1.032   2.906   0.772
11059SOL    HW245057   0.961   2.934   0.641
11060SOL     OW45058   0.439   4.159  19.498
11060SOL    HW145059   0.474   4.223  19.436
11060SOL    HW245060   0.506   4.153  19.566
11061SOL     OW45061   2.788   0.609   5.209
11061SOL    HW145062   2.836   0.609   5.293
11061SOL    HW245063   2.802   0.521   5.174
11062SOL     OW45064   2.188   2.731  20.436
11062SOL    HW145065   2.120   2.794  20.461
11062SOL    HW245066   2.234   2.711  20.517
11063SOL     OW45067   3.123   2.968   7.700
11063SOL    HW145068   3.154   2.910   7.630
11063SOL    HW245069   3.197   3.026   7.717
11064SOL     OW45070   3.959   0.629  11.810
11064SOL    HW145071   4.053   0.621  11.826
11064SOL    HW245072   3.945   0.723  11.797
11065SOL     OW45073   3.649   1.462  17.784
11065SOL    HW145074   3.627   1.375  17.751
11065SOL    HW245075   3.745   1.465  17.781
11066SOL     OW45076   4.355   1.289   5.656
11066SOL    HW145077   4.263   1.264   5.662
11066SOL    HW245078   4.354   1.384   5.643
11067SOL     OW45079   1.662   4.358  16.187
11067SOL    HW145080   1.726   4.292  16.216
11067SOL    HW245081   1.708   4.442  16.199
11068SOL     OW45082   1.710   0.056  20.722
11068SOL    HW145083   1.733   0.038  20.631
11068SOL    HW245084   1.668   0.143  20.719
11069SOL     OW45085   2.946   4.172  11.234
11069SOL    HW145086   2.981   4.224  11.163
11069SOL    HW245087   2.949   4.082  11.202
11070SOL     OW45088   3.742   1.956  12.878
11070SOL    HW145089   3.777   1.932  12.964
11070SOL    HW245090   3.776   2.044  12.862
11071SOL     OW45091   4.750   3.706  17.239
11071SOL    HW145092   4.731   3.700  17.145
11071SOL    HW245093   0.055   3.682  17.246
11072SOL     OW45094   1.120   0.993  17.309
11072SOL    HW145095   1.107   0.925  17.243
11072SOL    HW245096   1.064   1.065  17.280
11073SOL     OW45097   1.530   4.309  20.678
11073SOL    HW145098   1.564   4.343  20.595
11073SOL    HW245099   1.478   4.233  20.653
11074SOL     OW45100   3.833   3.752   3.423
11074SOL    HW145101   3.797   3.667   3.451
11074SOL    HW245102   3.839   3.803   3.504
11075SOL     OW45103   4.695   2.114   5.060
11075SOL    HW145104   4.702   2.059   5.138
11075SOL    HW245105   4.602   2.128   5.048
11076SOL     OW45106   4.330   3.012   5.602
11076SOL    HW145107   4.270   3.039   5.672
11076SOL    HW245108   4.272   2.989   5.529
11077SOL     OW45109   2.196   3.437   8.419
11077SOL    HW145110   2.185   3.370   8.487
11077SOL    HW245111   2.255   3.502   8.458
11078SOL     OW45112   1.872   1.246   6.481
11078SOL    HW145113   1.894   1.153   6.478
11078SOL    HW245114   1.917   1.284   6.405
11079SOL     OW45115   2.480   3.847   0.793
11079SOL    HW145116   2.510   3.930   0.758
11079SOL    HW245117   2.560   3.804   0.825
11080SOL     OW45118   2.753   2.184  18.029
11080SOL    HW145119   2.701   2.118  17.981
11080SOL    HW245120   2.843   2.168  18.002
11081SOL     OW45121   1.128   1.551  20.656
11081SOL    HW145122   1.223   1.551  20.641
11081SOL    HW245123   1.094   1.617  20.596
11082SOL     OW45124   0.714   0.257   4.246
11082SOL    HW145125   0.687   0.166   4.238
11082SOL    HW245126   0.779   0.257   4.316
11083SOL     OW45127   1.983   1.639   3.299
11083SOL    HW145128   2.067   1.675   3.326
11083SOL    HW245129   2.003   1.554   3.260
11084SOL     OW45130   0.400   2.864  18.495
11084SOL    HW145131   0.356   2.949  18.503
11084SOL    HW245132   0.404   2.831  18.585
11085SOL     OW45133   1.444   2.697   2.810
11085SOL    HW145134   1.354   2.694   2.842
11085SOL    HW245135   1.457   2.612   2.767
11086SOL     OW45136   1.502   0.520  13.011
11086SOL    HW145137   1.496   0.545  12.919
11086SOL    HW245138   1.564   0.583  13.049
11087SOL     OW45139   2.388   1.031  15.103
11087SOL    HW145140   2.393   0.935  15.096
11087SOL    HW245141   2.418   1.063  15.018
11088SOL     OW45142   0.105   2.963   0.252
11088SOL    HW145143   0.103   3.003   0.339
11088SOL    HW245144   0.194   2.978   0.221
11089SOL     OW45145   1.382   2.177   5.282
11089SOL    HW145146   1.295   2.204   5.253
11089SOL    HW245147   1.417   2.254   5.327
11090SOL     OW45148   0.307   4.511   2.285
11090SOL    HW145149   0.244   4.470   2.226
11090SOL    HW245150   0.305   4.457   2.364
11091SOL     OW45151   0.055   0.569  20.636
11091SOL    HW145152   0.106   0.547  20.713
11091SOL    HW245153   0.040   0.485  20.592
11092SOL     OW45154   2.495   1.718   1.764
11092SOL    HW145155   2.567   1.700   1.703
11092SOL    HW245156   2.533   1.703   1.850
11093SOL     OW45157   4.002   3.323   3.369
11093SOL    HW145158   3.928   3.346   3.312
11093SOL    HW245159   3.967   3.254   3.426
11094SOL     OW45160   3.878   3.293  15.469
11094SOL    HW145161   3.959   3.333  15.436
11094SOL    HW245162   3.900   3.201  15.485
11095SOL     OW45163   1.976   4.331   6.239
11095SOL    HW145164   2.037   4.396   6.205
11095SOL    HW245165   1.978   4.343   6.334
11096SOL     OW45166   2.433   3.866  10.995
11096SOL    HW145167   2.399   3.865  11.085
11096SOL    HW245168   2.511   3.811  10.998
11097SOL     OW45169   4.366   2.890  17.418
11097SOL    HW145170   4.377   2.915  17.326
11097SOL    HW245171   4.346   2.972  17.463
11098SOL     OW45172   4.510   2.620  16.911
11098SOL    HW145173   4.426   2.582  16.884
11098SOL    HW245174   4.512   2.606  17.006
11099SOL     OW45175   1.206   0.743  15.896
11099SOL    HW145176   1.217   0.707  15.808
11099SOL    HW245177   1.221   0.837  15.885
11100SOL     OW45178   0.987   1.853  12.027
11100SOL    HW145179   1.036   1.903  11.961
11100SOL    HW245180   0.900   1.842  11.989
11101SOL     OW45181   4.105   2.410  20.740
11101SOL    HW145182   4.094   2.403  20.645
11101SOL    HW245183   4.194   2.443  20.752
11102SOL     OW45184   4.701   2.497  20.441
11102SOL    HW145185   4.783   2.471  20.399
11102SOL    HW245186   4.662   2.560  20.381
11103SOL     OW45187   0.185   3.128   4.127
11103SOL    HW145188   0.123   3.055   4.120
11103SOL    HW245189   0.189   3.165   4.039
11104SOL     OW45190   3.171   1.504   1.045
11104SOL    HW145191   3.219   1.544   1.118
11104SOL    HW245192   3.147   1.417   1.077
11105SOL     OW45193   1.537   1.390  19.144
11105SOL    HW145194   1.524   1.323  19.211
11105SOL    HW245195   1.563   1.342  19.066
11106SOL     OW45196   1.022   1.013   3.102
11106SOL    HW145197   0.977   1.001   3.019
11106SOL    HW245198   1.090   1.078   3.084
11107SOL     OW45199   2.488   0.579  16.520
11107SOL    HW145200   2.504   0.572  16.426
11107SOL    HW245201   2.498   0.489  16.553
11108SOL     OW45202   2.236   4.413  18.923
11108SOL    HW145203   2.312   4.470  18.912
11108SOL    HW245204   2.273   4.324  18.925
11109SOL     OW45205   0.412   2.798   4.088
11109SOL    HW145206   0.504   2.773   4.093
11109SOL    HW245207   0.366   2.726   4.131
11110SOL     OW45208   3.439   1.042  15.826
11110SOL    HW145209   3.376   1.081  15.766
11110SOL    HW245210   3.391   1.030  15.908
11111SOL     OW45211   4.568   2.151  16.292
11111SOL    HW145212   4.488   2.122  16.337
11111SOL    HW245213   4.580   2.241  16.322
11112SOL     OW45214   0.862   0.213   1.034
11112SOL    HW145215   0.858   0.296   1.082
11112SOL    HW245216   0.782   0.212   0.982
11113SOL     OW45217   4.333   0.160  19.544
11113SOL    HW145218   4.315   0.092  19.480
11113SOL    HW245219   4.423   0.144  19.572
11114SOL     OW45220   3.406   3.574   1.894
11114SOL    HW145221   3.438   3.568   1.984
11114SOL    HW245222   3.387   3.667   1.882
11115SOL     OW45223   2.531   4.309   6.675
11115SOL    HW145224   2.558   4.318   6.584
11115SOL    HW245225   2.511   4.398   6.703
11116SOL     OW45226   2.401   3.194   2.412
11116SOL    HW145227   2.386   3.161   2.500
11116SOL    HW245228   2.412   3.116   2.358
11117SOL     OW45229   2.343   3.466   9.172
11117SOL    HW145230   2.406   3.457   9.244
11117SOL    HW245231   2.275   3.523   9.207
11118SOL     OW45232   2.536   2.797  17.190
11118SOL    HW145233   2.468   2.860  17.166
11118SOL    HW245234   2.488   2.715  17.204
11119SOL     OW45235   4.641   4.215   1.876
11119SOL    HW145236   4.654   4.197   1.969
11119SOL    HW245237   4.655   4.310   1.867
11120SOL     OW45238   3.022   2.606  20.692
11120SOL    HW145239   2.938   2.572  20.725
11120SOL    HW245240   3.083   2.533  20.704
11121SOL     OW45241   4.686   2.194  12.638
11121SOL    HW145242   4.672   2.271  12.693
11121SOL    HW245243   4.622   2.130  12.669
11122SOL     OW45244   3.080   2.586  13.471
11122SOL    HW145245   3.130   2.555  13.546
11122SOL    HW245246   3.097   2.681  13.469
11123SOL     OW45247   2.476   0.973   0.168
11123SOL    HW145248   2.507   0.999   0.082
11123SOL    HW245249   2.513   0.886   0.182
11124SOL     OW45250   0.902   3.056   1.834
11124SOL    HW145251   0.889   3.027   1.744
11124SOL    HW245252   0.946   2.983   1.877
11125SOL     OW45253   2.200   3.807   1.409
11125SOL    HW145254   2.186   3.822   1.316
11125SOL    HW245255   2.160   3.722   1.426
11126SOL     OW45256   0.647   2.368  15.645
11126SOL    HW145257   0.689   2.418  15.715
11126SOL    HW245258   0.719   2.327  15.598
11127SOL     OW45259   4.724   0.289  10.665
11127SOL    HW145260   4.742   0.273  10.758
11127SOL    HW245261   0.023   0.284  10.623
11128SOL     OW45262   4.334   0.957   0.149
11128SOL    HW145263   4.366   1.025   0.209
11128SOL    HW245264   4.240   0.953   0.166
11129SOL     OW45265   3.590   1.914  12.658
11129SOL    HW145266   3.643   1.973  12.604
11129SOL    HW245267   3.597   1.949  12.746
11130SOL     OW45268   2.267   3.257  14.732
11130SOL    HW145269   2.284   3.325  14.797
11130SOL    HW245270   2.255   3.176  14.783
11131SOL     OW45271   0.870   0.369  16.755
11131SOL    HW145272   0.911   0.422  16.687
11131SOL    HW245273   0.799   0.322  16.711
11132SOL     OW45274   1.874   2.805  18.654
11132SOL    HW145275   1.807   2.869  18.676
11132SOL    HW245276   1.843   2.723  18.691
11133SOL     OW45277   0.116   3.833   5.677
11133SOL    HW145278   0.200   3.804   5.713
11133SOL    HW245279   0.134   3.920   5.643
11134SOL     OW45280   1.034   3.687  12.938
11134SOL    HW145281   1.012   3.620  13.003
11134SOL    HW245282   1.117   3.659  12.901
11135SOL     OW45283   4.181   2.426   9.713
11135SOL    HW145284   4.196   2.490   9.643
11135SOL    HW245285   4.120   2.363   9.676
11136SOL     OW45286   1.223   1.333  14.571
11136SOL    HW145287   1.220   1.393  14.497
11136SOL    HW245288   1.285   1.266  14.545
11137SOL     OW45289   3.563   1.636  13.569
11137SOL    HW145290   3.576   1.731  13.571
11137SOL    HW245291   3.497   1.623  13.501
11138SOL     OW45292   0.090   1.504   3.495
11138SOL    HW145293   0.042   1.477   3.572
11138SOL    HW245294   0.042   1.579   3.461
11139SOL     OW45295   4.558   0.101   5.143
11139SOL    HW145296   4.618   0.113   5.217
11139SOL    HW245297   4.565   0.008   5.122
11140SOL     OW45298   0.401   4.631   7.455
11140SOL    HW145299   0.469   4.687   7.493
11140SOL    HW245300   0.367   4.581   7.530
11141SOL     OW45301   3.825   4.561  16.570
11141SOL    HW145302   3.880   4.626  16.526
11141SOL    HW245303   3.829   4.483  16.515
11142SOL     OW45304   3.383   3.484   1.475
11142SOL    HW145305   3.374   3.498   1.381
11142SOL    HW245306   3.431   3.561   1.506
11143SOL     OW45307   0.836   3.414  20.379
11143SOL    HW145308   0.784   3.352  20.429
11143SOL    HW245309   0.777   3.446  20.311
11144SOL     OW45310   0.462   4.329   3.816
11144SOL    HW145311   0.510   4.372   3.746
11144SOL    HW245312   0.501   4.242   3.823
11145SOL     OW45313   3.578   2.506  12.059
11145SOL    HW145314   3.510   2.537  12.119
11145SOL    HW245315   3.617   2.586  12.024
11146SOL     OW45316   0.186   1.677  20.733
11146SOL    HW145317   0.171   1.584  20.748
11146SOL    HW245318   0.281   1.688  20.743
11147SOL     OW45319   0.087   3.412  21.133
11147SOL    HW145320   0.069   3.398  21.040
11147SOL    HW245321   0.126   3.330  21.163
11148SOL     OW45322   4.576   4.633  14.144
11148SOL    HW145323   4.499   4.578  14.160
11148SOL    HW245324   4.641   4.573  14.109
11149SOL     OW45325   4.054   2.607   4.534
11149SOL    HW145326   4.149   2.602   4.519
11149SOL    HW245327   4.039   2.552   4.611
11150SOL     OW45328   1.270   0.157   1.100
11150SOL    HW145329   1.195   0.200   1.058
11150SOL    HW245330   1.231   0.099   1.165
11151SOL     OW45331   0.422   4.395  19.779
11151SOL    HW145332   0.343   4.405  19.832
11151SOL    HW245333   0.490   4.440  19.828
11152SOL     OW45334   3.522   1.973  19.984
11152SOL    HW145335   3.504   1.996  20.076
11152SOL    HW245336   3.475   1.891  19.971
11153SOL     OW45337   0.538   3.189   4.969
11153SOL    HW145338   0.525   3.097   4.944
11153SOL    HW245339   0.468   3.236   4.924
11154SOL     OW45340   3.212   1.335   4.888
11154SOL    HW145341   3.235   1.243   4.880
11154SOL    HW245342   3.172   1.357   4.803
11155SOL     OW45343   0.724   2.526   2.551
11155SOL    HW145344   0.690   2.611   2.522
11155SOL    HW245345   0.709   2.526   2.646
11156SOL     OW45346   0.086   1.434  16.776
11156SOL    HW145347   0.024   1.421  16.848
11156SOL    HW245348   0.172   1.437  16.818
11157SOL     OW45349   1.630   1.294  15.511
11157SOL    HW145350   1.555   1.241  15.487
11157SOL    HW245351   1.639   1.281  15.606
11158SOL     OW45352   0.065   2.697  15.162
11158SOL    HW145353   0.076   2.726  15.252
11158SOL    HW245354   0.023   2.771  15.117
11159SOL     OW45355   1.619   2.023  19.928
11159SOL    HW145356   1.553   1.979  19.982
11159SOL    HW245357   1.576   2.035  19.843
11160SOL     OW45358   2.360   3.830   2.693
11160SOL    HW145359   2.305   3.835   2.614
11160SOL    HW245360   2.450   3.835   2.660
11161SOL     OW45361   3.583   3.939  18.736
11161SOL    HW145362   3.548   4.019  18.698
11161SOL    HW245363   3.538   3.868  18.689
11162SOL     OW45364   0.178   2.990  20.989
11162SOL    HW145365   0.125   2.990  20.909
11162SOL    HW245366   0.167   2.902  21.024
11163SOL     OW45367   2.269   4.464   4.047
11163SOL    HW145368   2.319   4.466   3.966
11163SOL    HW245369   2.296   4.544   4.093
11164SOL     OW45370   4.186   2.055   0.404
11164SOL    HW145371   4.150   2.142   0.424
11164SOL    HW245372   4.281   2.065   0.417
11165SOL     OW45373   3.511   1.864  21.084
11165SOL    HW145374   3.469   1.870  20.998
11165SOL    HW245375   3.557   1.780  21.082
11166SOL     OW45376   1.412   3.952   6.302
11166SOL    HW145377   1.453   4.023   6.253
11166SOL    HW245378   1.381   3.994   6.383
11167SOL     OW45379   3.213   0.501   0.755
11167SOL    HW145380   3.194   0.421   0.805
11167SOL    HW245381   3.130   0.548   0.752
11168SOL     OW45382   4.116   4.637  20.212
11168SOL    HW145383   4.034   4.663  20.253
11168SOL    HW245384   4.091   4.572  20.146
11169SOL     OW45385   3.156   4.004  14.869
11169SOL    HW145386   3.171   4.070  14.936
11169SOL    HW245387   3.227   4.017  14.806
11170SOL     OW45388   1.243   4.703  16.982
11170SOL    HW145389   1.243   4.728  17.074
11170SOL    HW245390   1.209   4.779  16.935
11171SOL     OW45391   3.988   3.873   1.105
11171SOL    HW145392   4.083   3.878   1.116
11171SOL    HW245393   3.973   3.904   1.016
11172SOL     OW45394   0.978   3.789   4.648
11172SOL    HW145395   0.923   3.836   4.585
11172SOL    HW245396   0.941   3.701   4.652
11173SOL     OW45397   4.363   1.634  12.009
11173SOL    HW145398   4.357   1.547  11.970
11173SOL    HW245399   4.363   1.618  12.104
11174SOL     OW45400   0.621   3.707   2.967
11174SOL    HW145401   0.563   3.774   2.930
11174SOL    HW245402   0.573   3.671   3.041
11175SOL     OW45403   1.250   3.701   4.558
11175SOL    HW145404   1.212   3.740   4.637
11175SOL    HW245405   1.339   3.735   4.555
11176SOL     OW45406   3.653   0.950  18.968
11176SOL    HW145407   3.704   0.899  19.031
11176SOL    HW245408   3.564   0.950  19.004
11177SOL     OW45409   1.099   3.137  17.501
11177SOL    HW145410   1.160   3.075  17.460
11177SOL    HW245411   1.014   3.115  17.464
11178SOL     OW45412   4.411   1.227  19.158
11178SOL    HW145413   4.411   1.304  19.214
11178SOL    HW245414   4.381   1.156  19.215
11179SOL     OW45415   0.813   3.483  14.029
11179SOL    HW145416   0.780   3.414  14.086
11179SOL    HW245417   0.749   3.554  14.037
11180SOL     OW45418   3.681   1.520  19.818
11180SOL    HW145419   3.735   1.452  19.859
11180SOL    HW245420   3.619   1.545  19.887
11181SOL     OW45421   1.063   3.025   5.027
11181SOL    HW145422   1.089   2.934   5.015
11181SOL    HW245423   0.968   3.024   5.016
11182SOL     OW45424   1.317   0.460   4.433
11182SOL    HW145425   1.377   0.500   4.496
11182SOL    HW245426   1.373   0.403   4.380
11183SOL     OW45427   4.081   2.904  14.764
11183SOL    HW145428   4.051   2.813  14.769
11183SOL    HW245429   4.031   2.941  14.692
11184SOL     OW45430   0.674   0.993  11.083
11184SOL    HW145431   0.675   0.911  11.133
11184SOL    HW245432   0.668   1.062  11.150
11185SOL     OW45433   4.505   2.401   0.611
11185SOL    HW145434   4.492   2.326   0.668
11185SOL    HW245435   4.453   2.471   0.651
11186SOL     OW45436   2.731   3.034   4.102
11186SOL    HW145437   2.747   2.943   4.129
11186SOL    HW245438   2.728   3.083   4.185
11187SOL     OW45439   3.949   4.480   0.909
11187SOL    HW145440   4.031   4.465   0.957
11187SOL    HW245441   3.896   4.531   0.969
11188SOL     OW45442   4.399   0.653   5.567
11188SOL    HW145443   4.376   0.664   5.659
11188SOL    HW245444   4.467   0.719   5.552
11189SOL     OW45445   3.024   0.029  20.503
11189SOL    HW145446   3.023   4.787  20.593
11189SOL    HW245447   2.932   0.048  20.482
11190SOL     OW45448   1.924   1.128   5.989
11190SOL    HW145449   2.017   1.150   5.992
11190SOL    HW245450   1.922   1.034   5.970
11191SOL     OW45451   0.600   0.051   1.968
11191SOL    HW145452   0.541   0.045   1.892
11191SOL    HW245453   0.556   4.787   2.036
11192SOL     OW45454   4.554   3.919  15.228
11192SOL    HW145455   4.490   3.862  15.271
11192SOL    HW245456   4.589   3.974  15.298
11193SOL     OW45457   3.759   2.065  12.522
11193SOL    HW145458   3.789   2.015  12.446
11193SOL    HW245459   3.837   2.112  12.552
11194SOL     OW45460   1.655   0.166   6.352
11194SOL    HW145461   1.667   0.260   6.344
11194SOL    HW245462   1.691   0.130   6.271
11195SOL     OW45463   2.822   3.745  17.836
11195SOL    HW145464   2.882   3.696  17.779
11195SOL    HW245465   2.879   3.782  17.904
11196SOL     OW45466   0.899   4.492  21.044
11196SOL    HW145467   0.824   4.446  21.006
11196SOL    HW245468   0.901   4.576  20.998
11197SOL     OW45469   3.105   3.432  13.040
11197SOL    HW145470   3.185   3.435  12.987
11197SOL    HW245471   3.051   3.364  13.000
11198SOL     OW45472   2.084   2.106   5.330
11198SOL    HW145473   2.051   2.038   5.389
11198SOL    HW245474   2.113   2.176   5.387
11199SOL     OW45475   0.055   2.358  20.667
11199SOL    HW145476   0.125   2.331  20.608
11199SOL    HW245477   4.775   2.394  20.609
11200SOL     OW45478   1.350   3.937  16.736
11200SOL    HW145479   1.388   3.849  16.736
11200SOL    HW245480   1.413   3.990  16.785
11201SOL     OW45481   0.356   0.525  17.412
11201SOL    HW145482   0.406   0.597  17.373
11201SOL    HW245483   0.422   0.468  17.451
11202SOL     OW45484   0.419   4.466   6.191
11202SOL    HW145485   0.488   4.435   6.132
11202SOL    HW245486   0.426   4.562   6.187
11203SOL     OW45487   2.338   0.441   2.523
11203SOL    HW145488   2.362   0.533   2.514
11203SOL    HW245489   2.356   0.420   2.614
11204SOL     OW45490   3.480   2.402   3.207
11204SOL    HW145491   3.453   2.392   3.298
11204SOL    HW245492   3.539   2.328   3.191
11205SOL     OW45493   2.858   4.430   0.232
11205SOL    HW145494   2.815   4.391   0.156
11205SOL    HW245495   2.916   4.362   0.265
11206SOL     OW45496   0.985   1.027  13.980
11206SOL    HW145497   0.949   0.992  14.061
11206SOL    HW245498   0.964   1.120  13.982
11207SOL     OW45499   3.783   2.454   5.001
11207SOL    HW145500   3.717   2.513   4.967
11207SOL    HW245501   3.801   2.486   5.090
11208SOL     OW45502   2.251   0.323  16.650
11208SOL    HW145503   2.205   0.271  16.716
11208SOL    HW245504   2.340   0.331  16.684
11209SOL     OW45505   3.423   0.386   4.083
11209SOL    HW145506   3.340   0.399   4.130
11209SOL    HW245507   3.425   0.456   4.018
11210SOL     OW45508   3.273   2.308  12.260
11210SOL    HW145509   3.344   2.253  12.293
11210SOL    HW245510   3.204   2.246  12.236
11211SOL     OW45511   3.289   1.604   6.002
11211SOL    HW145512   3.220   1.661   5.966
11211SOL    HW245513   3.321   1.651   6.079
11212SOL     OW45514   2.472   1.248   2.488
11212SOL    HW145515   2.467   1.179   2.421
11212SOL    HW245516   2.396   1.304   2.471
11213SOL     OW45517   0.048   0.816   0.665
11213SOL    HW145518   0.086   0.787   0.583
11213SOL    HW245519   0.004   0.738   0.700
11214SOL     OW45520   2.482   1.876   4.436
11214SOL    HW145521   2.528   1.844   4.513
11214SOL    HW245522   2.389   1.864   4.455
11215SOL     OW45523   3.618   4.444   3.988
11215SOL    HW145524   3.621   4.526   4.038
11215SOL    HW245525   3.677   4.460   3.914
11216SOL     OW45526   2.809   0.932  18.269
11216SOL    HW145527   2.890   0.936  18.319
11216SOL    HW245528   2.823   0.861  18.205
11217SOL     OW45529   3.424   3.047   5.420
11217SOL    HW145530   3.478   3.117   5.385
11217SOL    HW245531   3.363   3.026   5.349
11218SOL     OW45532   0.138   1.813   1.279
11218SOL    HW145533   0.108   1.753   1.347
11218SOL    HW245534   0.058   1.849   1.241
11219SOL     OW45535   4.112   4.160  13.882
11219SOL    HW145536   4.034   4.182  13.933
11219SOL    HW245537   4.179   4.220  13.913
11220SOL     OW45538   4.139   2.116  15.378
11220SOL    HW145539   4.145   2.200  15.333
11220SOL    HW245540   4.067   2.071  15.335
11221SOL     OW45541   4.121   3.031   0.819
11221SOL    HW145542   4.092   2.957   0.765
11221SOL    HW245543   4.203   3.001   0.858
11222SOL     OW45544   3.324   4.389  17.719
11222SOL    HW145545   3.361   4.420  17.802
11222SOL    HW245546   3.295   4.300  17.737
11223SOL     OW45547   2.958   3.148  18.122
11223SOL    HW145548   2.937   3.065  18.165
11223SOL    HW245549   2.958   3.213  18.192
11224SOL     OW45550   3.326   0.384   3.744
11224SOL    HW145551   3.264   0.374   3.817
11224SOL    HW245552   3.271   0.385   3.666
11225SOL     OW45553   0.277   3.316   0.765
11225SOL    HW145554   0.321   3.346   0.685
11225SOL    HW245555   0.221   3.244   0.735
11226SOL     OW45556   4.331   2.772   5.236
11226SOL    HW145557   4.329   2.689   5.285
11226SOL    HW245558   4.309   2.747   5.146
11227SOL     OW45559   4.215   2.708  21.028
11227SOL    HW145560   4.227   2.693  20.934
11227SOL    HW245561   4.152   2.640  21.055
11228SOL     OW45562   1.639   2.971  19.579
11228SOL    HW145563   1.668   2.972  19.670
11228SOL    HW245564   1.717   2.944  19.530
11229SOL     OW45565   1.551   0.948  17.230
11229SOL    HW145566   1.590   1.034  17.213
11229SOL    HW245567   1.467   0.951  17.184
11230SOL     OW45568   3.598   4.120   2.275
11230SOL    HW145569   3.526   4.178   2.300
11230SOL    HW245570   3.583   4.102   2.183
11231SOL     OW45571   4.233   0.860   0.745
11231SOL    HW145572   4.184   0.846   0.826
11231SOL    HW245573   4.197   0.941   0.709
11232SOL     OW45574   4.668   0.464  15.623
11232SOL    HW145575   4.589   0.468  15.677
11232SOL    HW245576   4.672   0.549  15.580
11233SOL     OW45577   0.499   0.279  13.284
11233SOL    HW145578   0.526   0.298  13.194
11233SOL    HW245579   0.444   0.353  13.309
11234SOL     OW45580   1.553   0.470  20.524
11234SOL    HW145581   1.507   0.440  20.446
11234SOL    HW245582   1.517   0.558  20.540
11235SOL     OW45583   3.319   1.078  18.808
11235SOL    HW145584   3.402   1.124  18.792
11235SOL    HW245585   3.324   1.000  18.754
11236SOL     OW45586   1.820   1.773   5.448
11236SOL    HW145587   1.911   1.801   5.459
11236SOL    HW245588   1.787   1.825   5.375
11237SOL     OW45589   0.439   4.259   1.659
11237SOL    HW145590   0.382   4.196   1.613
11237SOL    HW245591   0.379   4.311   1.712
11238SOL     OW45592   3.277   2.966  16.105
11238SOL    HW145593   3.313   2.898  16.162
11238SOL    HW245594   3.284   3.047  16.155
11239SOL     OW45595   4.550   3.828  17.554
11239SOL    HW145596   4.561   3.845  17.460
11239SOL    HW245597   4.483   3.891  17.582
11240SOL     OW45598   0.519   2.130  18.907
11240SOL    HW145599   0.486   2.124  18.817
11240SOL    HW245600   0.573   2.052  18.917
11241SOL     OW45601   0.393   0.969  16.754
11241SOL    HW145602   0.444   0.951  16.833
11241SOL    HW245603   0.318   0.910  16.760
11242SOL     OW45604   2.164   4.390  14.840
11242SOL    HW145605   2.087   4.445  14.825
11242SOL    HW245606   2.234   4.452  14.861
11243SOL     OW45607   2.209   1.802   2.213
11243SOL    HW145608   2.159   1.767   2.139
11243SOL    HW245609   2.300   1.780   2.192
11244SOL     OW45610   4.480   0.160  20.297
11244SOL    HW145611   4.458   0.080  20.249
11244SOL    HW245612   4.431   0.151  20.379
11245SOL     OW45613   2.969   0.479   4.378
11245SOL    HW145614   2.955   0.550   4.440
11245SOL    HW245615   2.933   0.401   4.421
11246SOL     OW45616   0.567   4.458  20.721
11246SOL    HW145617   0.520   4.375  20.722
11246SOL    HW245618   0.528   4.506  20.647
11247SOL     OW45619   1.353   0.853  18.836
11247SOL    HW145620   1.361   0.917  18.906
11247SOL    HW245621   1.278   0.883  18.784
11248SOL     OW45622   0.685   4.733  14.151
11248SOL    HW145623   0.692   0.038  14.125
11248SOL    HW245624   0.638   4.692  14.078
11249SOL     OW45625   3.435   3.072  17.166
11249SOL    HW145626   3.380   2.995  17.179
11249SOL    HW245627   3.525   3.040  17.179
11250SOL     OW45628   1.934   3.045   5.371
11250SOL    HW145629   2.026   3.061   5.392
11250SOL    HW245630   1.886   3.090   5.440
11251SOL     OW45631   1.066   4.509  16.832
11251SOL    HW145632   1.142   4.557  16.866
11251SOL    HW245633   1.020   4.480  16.911
11252SOL     OW45634   1.127   0.780   2.693
11252SOL    HW145635   1.055   0.721   2.715
11252SOL    HW245636   1.086   0.866   2.686
11253SOL     OW45637   3.809   2.198   6.297
11253SOL    HW145638   3.847   2.147   6.369
11253SOL    HW245639   3.748   2.258   6.340
11254SOL     OW45640   1.485   2.515   4.572
11254SOL    HW145641   1.503   2.498   4.664
11254SOL    HW245642   1.411   2.576   4.572
11255SOL     OW45643   3.888   3.174   7.039
11255SOL    HW145644   3.841   3.216   7.111
11255SOL    HW245645   3.896   3.242   6.972
11256SOL     OW45646   1.483   1.040  13.848
11256SOL    HW145647   1.425   1.055  13.922
11256SOL    HW245648   1.564   1.009  13.887
11257SOL     OW45649   4.252   1.480  15.435
11257SOL    HW145650   4.272   1.525  15.353
11257SOL    HW245651   4.169   1.519  15.464
11258SOL     OW45652   1.085   4.635  13.212
11258SOL    HW145653   1.171   4.628  13.254
11258SOL    HW245654   1.105   4.634  13.118
11259SOL     OW45655   3.932   1.272  17.544
11259SOL    HW145656   3.885   1.309  17.470
11259SOL    HW245657   3.985   1.202  17.506
11260SOL     OW45658   0.757   1.846   0.256
11260SOL    HW145659   0.798   1.765   0.285
11260SOL    HW245660   0.794   1.861   0.169
11261SOL     OW45661   2.390   4.726   6.937
11261SOL    HW145662   2.343   0.012   6.976
11261SOL    HW245663   2.480   4.758   6.926
11262SOL     OW45664   3.870   4.519   2.281
11262SOL    HW145665   3.955   4.546   2.315
11262SOL    HW245666   3.890   4.445   2.224
11263SOL     OW45667   2.692   1.853  21.111
11263SOL    HW145668   2.719   1.909  21.184
11263SOL    HW245669   2.605   1.822  21.136
11264SOL     OW45670   1.889   0.502  21.194
11264SOL    HW145671   1.874   0.511   0.040
11264SOL    HW245672   1.936   0.419  21.185
11265SOL     OW45673   0.166   1.492   1.303
11265SOL    HW145674   0.090   1.449   1.342
11265SOL    HW245675   0.144   1.501   1.210
11266SOL     OW45676   3.416   3.505   5.162
11266SOL    HW145677   3.481   3.571   5.136
11266SOL    HW245678   3.466   3.426   5.177
11267SOL     OW45679   3.647   0.349   1.919
11267SOL    HW145680   3.653   0.319   1.828
11267SOL    HW245681   3.729   0.320   1.959
11268SOL     OW45682   0.641   0.382  17.213
11268SOL    HW145683   0.688   0.465  17.208
11268SOL    HW245684   0.614   0.375  17.304
11269SOL     OW45685   2.580   1.979   1.563
11269SOL    HW145686   2.632   2.037   1.618
11269SOL    HW245687   2.628   1.896   1.564
11270SOL     OW45688   2.565   1.199  17.694
11270SOL    HW145689   2.506   1.266  17.662
11270SOL    HW245690   2.565   1.210  17.789
11271SOL     OW45691   1.201   3.645  17.217
11271SOL    HW145692   1.152   3.708  17.166
11271SOL    HW245693   1.219   3.690  17.300
11272SOL     OW45694   1.971   4.517   3.040
11272SOL    HW145695   2.044   4.475   3.086
11272SOL    HW245696   1.989   4.503   2.947
11273SOL     OW45697   1.521   2.497  18.880
11273SOL    HW145698   1.457   2.493  18.809
11273SOL    HW245699   1.536   2.405  18.904
11274SOL     OW45700   4.257   0.935  19.778
11274SOL    HW145701   4.258   0.844  19.749
11274SOL    HW245702   4.190   0.937  19.846
11275SOL     OW45703   3.443   0.631  16.164
11275SOL    HW145704   3.409   0.548  16.197
11275SOL    HW245705   3.365   0.683  16.144
11276SOL     OW45706   0.987   0.922  20.805
11276SOL    HW145707   0.989   0.880  20.891
11276SOL    HW245708   1.031   0.860  20.747
11277SOL     OW45709   2.095   2.085   0.313
11277SOL    HW145710   2.142   2.079   0.396
11277SOL    HW245711   2.022   2.145   0.330
11278SOL     OW45712   2.997   4.371  17.589
11278SOL    HW145713   2.989   4.444  17.529
11278SOL    HW245714   3.020   4.411  17.673
11279SOL     OW45715   1.528   0.990   4.827
11279SOL    HW145716   1.457   1.011   4.767
11279SOL    HW245717   1.494   0.918   4.881
11280SOL     OW45718   1.900   4.331  17.718
11280SOL    HW145719   1.881   4.341  17.811
11280SOL    HW245720   1.849   4.399  17.675
11281SOL     OW45721   1.973   4.466   2.372
11281SOL    HW145722   2.068   4.470   2.364
11281SOL    HW245723   1.947   4.399   2.309
11282SOL     OW45724   0.420   1.685  17.595
11282SOL    HW145725   0.457   1.610  17.640
11282SOL    HW245726   0.391   1.744  17.665
11283SOL     OW45727   0.914   0.420  19.451
11283SOL    HW145728   0.889   0.510  19.472
11283SOL    HW245729   0.866   0.400  19.371
11284SOL     OW45730   0.319   0.030  20.310
11284SOL    HW145731   0.302   0.053  20.218
11284SOL    HW245732   0.282   4.730  20.320
11285SOL     OW45733   4.078   0.096   1.266
11285SOL    HW145734   4.137   0.094   1.342
11285SOL    HW245735   4.135   0.077   1.191
11286SOL     OW45736   1.073   1.165  11.403
11286SOL    HW145737   1.142   1.166  11.336
11286SOL    HW245738   0.991   1.172  11.354
11287SOL     OW45739   3.853   0.992   5.562
11287SOL    HW145740   3.778   0.956   5.609
11287SOL    HW245741   3.926   0.934   5.586
11288SOL     OW45742   4.472   3.770  21.202
11288SOL    HW145743   4.437   3.826   0.023
11288SOL    HW245744   4.466   3.824  21.123
11289SOL     OW45745   3.547   3.008  18.312
11289SOL    HW145746   3.514   2.920  18.295
11289SOL    HW245747   3.533   3.055  18.229
11290SOL     OW45748   4.146   3.525  14.983
11290SOL    HW145749   4.184   3.594  15.037
11290SOL    HW245750   4.211   3.455  14.984
11291SOL     OW45751   2.003   1.447   0.878
11291SOL    HW145752   1.988   1.542   0.881
11291SOL    HW245753   2.023   1.423   0.969
11292SOL     OW45754   4.312   3.064   4.906
11292SOL    HW145755   4.244   3.017   4.857
11292SOL    HW245756   4.385   3.002   4.911
11293SOL     OW45757   1.878   2.379   3.577
11293SOL    HW145758   1.939   2.358   3.506
11293SOL    HW245759   1.862   2.473   3.568
11294SOL     OW45760   2.997   1.841  18.852
11294SOL    HW145761   3.053   1.887  18.914
11294SOL    HW245762   2.986   1.753  18.889
11295SOL     OW45763   2.392   3.613  15.737
11295SOL    HW145764   2.411   3.671  15.664
11295SOL    HW245765   2.377   3.672  15.811
11296SOL     OW45766   1.499   1.164  20.936
11296SOL    HW145767   1.407   1.178  20.956
11296SOL    HW245768   1.525   1.091  20.992
11297SOL     OW45769   4.748   1.136  19.210
11297SOL    HW145770   4.695   1.060  19.234
11297SOL    HW245771   0.030   1.138  19.276
11298SOL     OW45772   1.411   4.361   3.957
11298SOL    HW145773   1.360   4.441   3.952
11298SOL    HW245774   1.345   4.291   3.963
11299SOL     OW45775   3.868   1.408   4.571
11299SOL    HW145776   3.826   1.330   4.536
11299SOL    HW245777   3.931   1.375   4.634
11300SOL     OW45778   3.935   1.017   0.687
11300SOL    HW145779   3.874   1.075   0.643
11300SOL    HW245780   3.885   0.938   0.706
11301SOL     OW45781   4.379   2.091  20.718
11301SOL    HW145782   4.438   2.129  20.653
11301SOL    HW245783   4.420   2.109  20.802
11302SOL     OW45784   2.440   0.186   2.711
11302SOL    HW145785   2.475   0.154   2.794
11302SOL    HW245786   2.385   0.260   2.735
11303SOL     OW45787   4.599   4.066  19.900
11303SOL    HW145788   4.559   4.104  19.822
11303SOL    HW245789   4.530   4.012  19.938
11304SOL     OW45790   1.598   4.399   8.602
11304SOL    HW145791   1.648   4.344   8.542
11304SOL    HW245792   1.537   4.340   8.644
11305SOL     OW45793   0.812   0.254   3.949
11305SOL    HW145794   0.745   0.265   4.017
11305SOL    HW245795   0.763   0.231   3.870
11306SOL     OW45796   4.010   2.065  18.477
11306SOL    HW145797   4.033   2.135  18.416
11306SOL    HW245798   3.964   2.108  18.548
11307SOL     OW45799   0.211   0.531   6.701
11307SOL    HW145800   0.172   0.557   6.617
11307SOL    HW245801   0.136   0.511   6.757
11308SOL     OW45802   2.521   3.520  16.514
11308SOL    HW145803   2.511   3.608  16.549
11308SOL    HW245804   2.593   3.482  16.564
11309SOL     OW45805   3.204   3.231  15.703
11309SOL    HW145806   3.271   3.259  15.641
11309SOL    HW245807   3.141   3.303  15.706
11310SOL     OW45808   3.489   3.312   4.874
11310SOL    HW145809   3.490   3.378   4.804
11310SOL    HW245810   3.580   3.282   4.879
11311SOL     OW45811   3.856   4.124  17.740
11311SOL    HW145812   3.899   4.204  17.712
11311SOL    HW245813   3.790   4.153  17.803
11312SOL     OW45814   2.383   4.777  14.724
11312SOL    HW145815   2.436   0.027  14.654
11312SOL    HW245816   2.316   0.055  14.741
11313SOL     OW45817   2.930   2.995   1.996
11313SOL    HW145818   2.853   3.026   1.948
11313SOL    HW245819   2.917   2.900   2.003
11314SOL     OW45820   3.588   3.153  19.846
11314SOL    HW145821   3.575   3.231  19.792
11314SOL    HW245822   3.532   3.166  19.922
11315SOL     OW45823   0.759   2.069  17.311
11315SOL    HW145824   0.808   2.087  17.391
11315SOL    HW245825   0.766   2.149  17.259
11316SOL     OW45826   2.469   1.505   4.414
11316SOL    HW145827   2.408   1.550   4.356
11316SOL    HW245828   2.549   1.558   4.411
11317SOL     OW45829   1.178   1.768   1.214
11317SOL    HW145830   1.154   1.807   1.298
11317SOL    HW245831   1.212   1.681   1.237
11318SOL     OW45832   3.652   3.601  17.453
11318SOL    HW145833   3.657   3.542  17.378
11318SOL    HW245834   3.742   3.629  17.467
11319SOL     OW45835   0.784   2.643  18.272
11319SOL    HW145836   0.857   2.674  18.325
11319SOL    HW245837   0.728   2.720  18.260
11320SOL     OW45838   3.705   1.963   0.063
11320SOL    HW145839   3.647   1.981   0.137
11320SOL    HW245840   3.649   1.918  21.247
11321SOL     OW45841   2.921   4.022  19.583
11321SOL    HW145842   2.972   3.972  19.519
11321SOL    HW245843   2.882   4.093  19.532
11322SOL     OW45844   2.490   4.109  17.740
11322SOL    HW145845   2.417   4.089  17.681
11322SOL    HW245846   2.558   4.046  17.716
11323SOL     OW45847   1.711   2.319  11.612
11323SOL    HW145848   1.770   2.287  11.544
11323SOL    HW245849   1.725   2.414  11.613
11324SOL     OW45850   1.112   4.210  14.404
11324SOL    HW145851   1.184   4.243  14.458
11324SOL    HW245852   1.040   4.197  14.466
11325SOL     OW45853   0.060   1.819   3.384
11325SOL    HW145854   0.039   1.910   3.361
11325SOL    HW245855   0.010   1.803   3.464
11326SOL     OW45856   3.262   3.420   1.711
11326SOL    HW145857   3.289   3.487   1.774
11326SOL    HW245858   3.310   3.441   1.631
11327SOL     OW45859   2.117   0.912   8.624
11327SOL    HW145860   2.191   0.890   8.682
11327SOL    HW245861   2.069   0.830   8.616
11328SOL     OW45862   2.338   4.475  18.234
11328SOL    HW145863   2.285   4.414  18.285
11328SOL    HW245864   2.389   4.419  18.175
11329SOL     OW45865   1.297   0.730  17.251
11329SOL    HW145866   1.218   0.680  17.229
11329SOL    HW245867   1.313   0.784  17.174
11330SOL     OW45868   2.214   3.673   5.433
11330SOL    HW145869   2.155   3.748   5.429
11330SOL    HW245870   2.167   3.609   5.486
11331SOL     OW45871   1.061   1.965   4.244
11331SOL    HW145872   1.046   1.872   4.231
11331SOL    HW245873   1.096   1.972   4.333
11332SOL     OW45874   1.510   2.799   5.521
11332SOL    HW145875   1.569   2.869   5.493
11332SOL    HW245876   1.531   2.786   5.614
11333SOL     OW45877   1.896   0.185  20.397
11333SOL    HW145878   1.956   0.202  20.470
11333SOL    HW245879   1.931   0.236  20.324
11334SOL     OW45880   3.189   2.445   6.333
11334SOL    HW145881   3.277   2.466   6.299
11334SOL    HW245882   3.143   2.409   6.258
11335SOL     OW45883   2.938   3.431  21.177
11335SOL    HW145884   2.924   3.375   0.005
11335SOL    HW245885   3.032   3.446  21.174
11336SOL     OW45886   4.010   2.639  17.488
11336SOL    HW145887   3.959   2.666  17.564
11336SOL    HW245888   4.063   2.565  17.520
11337SOL     OW45889   4.536   1.574   4.157
11337SOL    HW145890   4.449   1.594   4.191
11337SOL    HW245891   4.546   1.480   4.170
11338SOL     OW45892   3.702   4.363   2.431
11338SOL    HW145893   3.783   4.364   2.379
11338SOL    HW245894   3.657   4.283   2.404
11339SOL     OW45895   0.187   0.511   5.511
11339SOL    HW145896   0.189   0.537   5.603
11339SOL    HW245897   0.218   0.420   5.511
11340SOL     OW45898   0.717   4.182  15.368
11340SOL    HW145899   0.690   4.101  15.324
11340SOL    HW245900   0.727   4.246  15.297
11341SOL     OW45901   0.786   2.817  15.502
11341SOL    HW145902   0.851   2.832  15.433
11341SOL    HW245903   0.707   2.792  15.455
11342SOL     OW45904   3.192   3.522   6.235
11342SOL    HW145905   3.214   3.505   6.327
11342SOL    HW245906   3.262   3.579   6.204
11343SOL     OW45907   1.276   3.935  20.870
11343SOL    HW145908   1.298   3.842  20.881
11343SOL    HW245909   1.187   3.935  20.836
11344SOL     OW45910   0.814   1.479  19.143
11344SOL    HW145911   0.890   1.527  19.177
11344SOL    HW245912   0.739   1.515  19.191
11345SOL     OW45913   2.989   4.270  18.726
11345SOL    HW145914   2.944   4.286  18.643
11345SOL    HW245915   3.074   4.312  18.715
11346SOL     OW45916   2.984   1.644  20.284
11346SOL    HW145917   2.990   1.612  20.374
11346SOL    HW245918   3.046   1.718  20.281
11347SOL     OW45919   2.037   0.077   5.425
11347SOL    HW145920   2.052   0.140   5.355
11347SOL    HW245921   1.955   0.105   5.466
11348SOL     OW45922   0.518   4.175  13.577
11348SOL    HW145923   0.424   4.155  13.570
11348SOL    HW245924   0.554   4.149  13.493
11349SOL     OW45925   2.335   0.825  13.298
11349SOL    HW145926   2.418   0.872  13.289
11349SOL    HW245927   2.289   0.840  13.215
11350SOL     OW45928   4.206   0.100  14.515
11350SOL    HW145929   4.121   0.123  14.554
11350SOL    HW245930   4.188   0.094  14.421
11351SOL     OW45931   2.492   3.402   3.599
11351SOL    HW145932   2.480   3.395   3.693
11351SOL    HW245933   2.455   3.322   3.563
11352SOL     OW45934   0.725   1.932   5.754
11352SOL    HW145935   0.754   1.848   5.717
11352SOL    HW245936   0.662   1.908   5.822
11353SOL     OW45937   4.172   4.310   8.236
11353SOL    HW145938   4.103   4.375   8.252
11353SOL    HW245939   4.249   4.346   8.281
11354SOL     OW45940   1.727   3.389  16.782
11354SOL    HW145941   1.654   3.402  16.843
11354SOL    HW245942   1.689   3.334  16.712
11355SOL     OW45943   3.021   2.570   2.035
11355SOL    HW145944   3.037   2.485   2.075
11355SOL    HW245945   3.105   2.592   1.993
11356SOL     OW45946   3.664   4.749   5.606
11356SOL    HW145947   3.593   4.733   5.543
11356SOL    HW245948   3.727   4.679   5.589
11357SOL     OW45949   0.433   2.027   2.837
11357SOL    HW145950   0.459   1.956   2.778
11357SOL    HW245951   0.430   1.986   2.923
11358SOL     OW45952   1.245   2.205   1.334
11358SOL    HW145953   1.201   2.289   1.318
11358SOL    HW245954   1.174   2.143   1.347
11359SOL     OW45955   1.368   3.743   1.336
11359SOL    HW145956   1.463   3.741   1.327
11359SOL    HW245957   1.338   3.802   1.267
11360SOL     OW45958   4.079   2.136   2.941
11360SOL    HW145959   4.157   2.172   2.983
11360SOL    HW245960   4.072   2.183   2.858
11361SOL     OW45961   0.998   2.052  16.839
11361SOL    HW145962   0.986   1.975  16.784
11361SOL    HW245963   0.948   2.033  16.919
11362SOL     OW45964   2.097   4.576   6.017
11362SOL    HW145965   2.161   4.509   5.996
11362SOL    HW245966   2.119   4.649   5.959
11363SOL     OW45967   1.714   2.403  15.031
11363SOL    HW145968   1.712   2.498  15.017
11363SOL    HW245969   1.806   2.382  15.044
11364SOL     OW45970   3.722   2.423  20.200
11364SOL    HW145971   3.669   2.344  20.188
11364SOL    HW245972   3.659   2.490  20.224
11365SOL     OW45973   3.739   3.669  15.228
11365SOL    HW145974   3.744   3.724  15.149
11365SOL    HW245975   3.790   3.591  15.205
11366SOL     OW45976   1.991   4.088   2.288
11366SOL    HW145977   2.055   4.042   2.342
11366SOL    HW245978   1.909   4.081   2.337
11367SOL     OW45979   4.619   1.607  15.386
11367SOL    HW145980   4.654   1.685  15.429
11367SOL    HW245981   4.611   1.542  15.456
11368SOL     OW45982   3.988   2.512   3.507
11368SOL    HW145983   3.909   2.459   3.516
11368SOL    HW245984   3.995   2.528   3.413
11369SOL     OW45985   1.683   1.923  17.774
11369SOL    HW145986   1.617   1.921  17.844
11369SOL    HW245987   1.690   1.832  17.746
11370SOL     OW45988   4.065   2.169   2.284
11370SOL    HW145989   3.995   2.232   2.270
11370SOL    HW245990   4.050   2.136   2.373
11371SOL     OW45991   3.367   3.131  20.415
11371SOL    HW145992   3.304   3.183  20.365
11371SOL    HW245993   3.369   3.047  20.370
11372SOL     OW45994   2.127   2.489  15.664
11372SOL    HW145995   2.040   2.525  15.644
11372SOL    HW245996   2.134   2.412  15.608
11373SOL     OW45997   1.385   4.422   3.309
11373SOL    HW145998   1.460   4.475   3.282
11373SOL    HW245999   1.420   4.334   3.319
11374SOL     OW46000   0.372   2.061  17.110
11374SOL    HW146001   0.340   2.147  17.140
11374SOL    HW246002   0.365   2.005  17.188
11375SOL     OW46003   1.747   3.584   3.196
11375SOL    HW146004   1.838   3.591   3.227
11375SOL    HW246005   1.710   3.511   3.245
11376SOL     OW46006   3.238   2.997   1.338
11376SOL    HW146007   3.310   3.041   1.384
11376SOL    HW246008   3.280   2.956   1.262
11377SOL     OW46009   0.639   3.435  17.930
11377SOL    HW146010   0.584   3.358  17.914
11377SOL    HW246011   0.679   3.419  18.015
11378SOL     OW46012   3.577   4.230   4.798
11378SOL    HW146013   3.546   4.150   4.840
11378SOL    HW246014   3.630   4.273   4.865
11379SOL     OW46015   4.315   2.692  16.038
11379SOL    HW146016   4.356   2.678  16.123
11379SOL    HW246017   4.311   2.605  15.998
11380SOL     OW46018   3.478   4.550  16.264
11380SOL    HW146019   3.493   4.461  16.296
11380SOL    HW246020   3.561   4.576  16.225
11381SOL     OW46021   1.200   0.851  16.580
11381SOL    HW146022   1.115   0.894  16.586
11381SOL    HW246023   1.211   0.834  16.487
11382SOL     OW46024   1.503   1.108  16.432
11382SOL    HW146025   1.469   1.100  16.521
11382SOL    HW246026   1.542   1.023  16.413
11383SOL     OW46027   1.495   1.242   3.445
11383SOL    HW146028   1.459   1.313   3.498
11383SOL    HW246029   1.477   1.163   3.496
11384SOL     OW46030   3.471   3.015  19.011
11384SOL    HW146031   3.505   3.084  18.954
11384SOL    HW246032   3.384   2.996  18.977
11385SOL     OW46033   4.690   4.043  15.441
11385SOL    HW146034   4.767   4.031  15.385
11385SOL    HW246035   4.693   3.970  15.503
11386SOL     OW46036   2.659   1.955  16.194
11386SOL    HW146037   2.617   1.963  16.280
11386SOL    HW246038   2.748   1.925  16.214
11387SOL     OW46039   1.309   2.511  17.394
11387SOL    HW146040   1.317   2.483  17.485
11387SOL    HW246041   1.395   2.496  17.356
11388SOL     OW46042   1.432   0.109  15.454
11388SOL    HW146043   1.469   0.125  15.541
11388SOL    HW246044   1.460   0.185  15.402
11389SOL     OW46045   0.350   3.903   1.968
11389SOL    HW146046   0.426   3.942   1.925
11389SOL    HW246047   0.282   3.969   1.961
11390SOL     OW46048   3.473   3.401  17.681
11390SOL    HW146049   3.494   3.353  17.602
11390SOL    HW246050   3.539   3.374  17.745
11391SOL     OW46051   1.454   0.777  20.486
11391SOL    HW146052   1.412   0.836  20.548
11391SOL    HW246053   1.400   0.784  20.407
11392SOL     OW46054   0.877   1.245   2.950
11392SOL    HW146055   0.958   1.272   2.908
11392SOL    HW246056   0.872   1.298   3.029
11393SOL     OW46057   4.433   2.449  18.322
11393SOL    HW146058   4.375   2.518  18.290
11393SOL    HW246059   4.475   2.414  18.244
11394SOL     OW46060   3.127   1.485  20.806
11394SOL    HW146061   3.072   1.486  20.885
11394SOL    HW246062   3.138   1.578  20.784
11395SOL     OW46063   1.855   2.144  14.133
11395SOL    HW146064   1.884   2.199  14.206
11395SOL    HW246065   1.789   2.086  14.172
11396SOL     OW46066   3.683   1.399   0.699
11396SOL    HW146067   3.617   1.454   0.657
11396SOL    HW246068   3.759   1.457   0.711
11397SOL     OW46069   4.675   3.153   1.919
11397SOL    HW146070   4.650   3.124   2.007
11397SOL    HW246071   4.597   3.137   1.866
11398SOL     OW46072   0.174   0.766   4.503
11398SOL    HW146073   0.163   0.832   4.435
11398SOL    HW246074   0.150   0.811   4.584
11399SOL     OW46075   3.066   2.017   1.078
11399SOL    HW146076   3.075   1.954   1.006
11399SOL    HW246077   3.153   2.056   1.087
11400SOL     OW46078   0.927   1.279  17.992
11400SOL    HW146079   0.931   1.183  17.987
11400SOL    HW246080   1.014   1.308  17.963
11401SOL     OW46081   0.093   2.687   0.205
11401SOL    HW146082   0.066   2.776   0.180
11401SOL    HW246083   0.185   2.681   0.181
11402SOL     OW46084   4.699   3.605   3.245
11402SOL    HW146085   4.727   3.684   3.291
11402SOL    HW246086   4.605   3.598   3.263
11403SOL     OW46087   2.749   2.387  19.955
11403SOL    HW146088   2.704   2.316  19.909
11403SOL    HW246089   2.686   2.417  20.022
11404SOL     OW46090   3.694   0.729  19.731
11404SOL    HW146091   3.599   0.735  19.718
11404SOL    HW246092   3.704   0.658  19.795
11405SOL     OW46093   4.669   3.022   2.651
11405SOL    HW146094   4.624   3.004   2.734
11405SOL    HW246095   4.762   3.014   2.673
11406SOL     OW46096   4.306   1.871  19.859
11406SOL    HW146097   4.309   1.795  19.916
11406SOL    HW246098   4.348   1.843  19.778
11407SOL     OW46099   0.470   0.094  17.387
11407SOL    HW146100   0.384   0.056  17.370
11407SOL    HW246101   0.468   0.117  17.480
11408SOL     OW46102   4.630   1.429  19.512
11408SOL    HW146103   4.538   1.408  19.496
11408SOL    HW246104   4.674   1.406  19.431
11409SOL     OW46105   0.288   0.444   2.638
11409SOL    HW146106   0.230   0.504   2.685
11409SOL    HW246107   0.356   0.500   2.601
11410SOL     OW46108   4.695   0.313   4.254
11410SOL    HW146109   4.662   0.227   4.281
11410SOL    HW246110   4.767   0.331   4.315
11411SOL     OW46111   2.184   2.063   4.571
11411SOL    HW146112   2.096   2.101   4.570
11411SOL    HW246113   2.174   1.978   4.528
11412SOL     OW46114   4.292   4.098  15.465
11412SOL    HW146115   4.337   4.102  15.550
11412SOL    HW246116   4.294   4.188  15.433
11413SOL     OW46117   1.552   2.810  16.165
11413SOL    HW146118   1.547   2.747  16.094
11413SOL    HW246119   1.482   2.785  16.225
11414SOL     OW46120   2.934   1.893  18.155
11414SOL    HW146121   2.881   1.911  18.233
11414SOL    HW246122   2.873   1.854  18.093
11415SOL     OW46123   1.776   1.582  20.981
11415SOL    HW146124   1.839   1.511  20.994
11415SOL    HW246125   1.692   1.546  21.011
11416SOL     OW46126   4.292   3.619   2.716
11416SOL    HW146127   4.324   3.709   2.726
11416SOL    HW246128   4.269   3.592   2.805
11417SOL     OW46129   2.289   2.138   3.427
11417SOL    HW146130   2.265   2.050   3.454
11417SOL    HW246131   2.379   2.130   3.395
11418SOL     OW46132   1.001   0.468  16.532
11418SOL    HW146133   0.964   0.526  16.465
11418SOL    HW246134   1.082   0.512  16.560
11419SOL     OW46135   2.539   3.462  18.879
11419SOL    HW146136   2.529   3.458  18.975
11419SOL    HW246137   2.452   3.440  18.845
11420SOL     OW46138   3.309   3.714  16.032
11420SOL    HW146139   3.382   3.775  16.040
11420SOL    HW246140   3.284   3.717  15.940
11421SOL     OW46141   3.759   0.532  15.432
11421SOL    HW146142   3.843   0.524  15.385
11421SOL    HW246143   3.771   0.608  15.488
11422SOL     OW46144   3.581   3.272  17.450
11422SOL    HW146145   3.629   3.330  17.390
11422SOL    HW246146   3.644   3.202  17.470
11423SOL     OW46147   0.846   0.454   1.228
11423SOL    HW146148   0.795   0.531   1.253
11423SOL    HW246149   0.930   0.489   1.199
11424SOL     OW46150   2.988   1.046   4.782
11424SOL    HW146151   3.069   1.047   4.832
11424SOL    HW246152   2.926   1.097   4.835
11425SOL     OW46153   4.221   1.626  19.226
11425SOL    HW146154   4.156   1.660  19.288
11425SOL    HW246155   4.255   1.703  19.182
11426SOL     OW46156   1.978   3.677  17.235
11426SOL    HW146157   2.030   3.666  17.155
11426SOL    HW246158   1.985   3.770  17.255
11427SOL     OW46159   0.430   3.487  13.918
11427SOL    HW146160   0.409   3.400  13.952
11427SOL    HW246161   0.354   3.512  13.865
11428SOL     OW46162   0.015   4.586   7.098
11428SOL    HW146163   0.020   4.679   7.119
11428SOL    HW246164   4.708   4.567   7.097
11429SOL     OW46165   3.980   4.497  16.063
11429SOL    HW146166   4.005   4.409  16.036
11429SOL    HW246167   4.062   4.544  16.075
11430SOL     OW46168   0.316   0.581   1.531
11430SOL    HW146169   0.249   0.584   1.600
11430SOL    HW246170   0.302   0.662   1.481
11431SOL     OW46171   2.437   3.135   3.459
11431SOL    HW146172   2.369   3.159   3.396
11431SOL    HW246173   2.483   3.061   3.418
11432SOL     OW46174   4.180   2.923   1.865
11432SOL    HW146175   4.132   2.890   1.941
11432SOL    HW246176   4.257   2.865   1.859
11433SOL     OW46177   0.231   0.501  16.536
11433SOL    HW146178   0.292   0.516  16.464
11433SOL    HW246179   0.155   0.556  16.514
11434SOL     OW46180   0.686   2.582  18.898
11434SOL    HW146181   0.752   2.534  18.949
11434SOL    HW246182   0.692   2.672  18.930
11435SOL     OW46183   2.633   0.082  20.449
11435SOL    HW146184   2.627   0.177  20.448
11435SOL    HW246185   2.704   0.062  20.388
11436SOL     OW46186   1.866   0.005   7.658
11436SOL    HW146187   1.931   4.756   7.718
11436SOL    HW246188   1.787   0.014   7.711
11437SOL     OW46189   0.612   0.990  19.352
11437SOL    HW146190   0.666   0.953  19.422
11437SOL    HW246191   0.523   0.988  19.387
11438SOL     OW46192   3.942   2.799  20.463
11438SOL    HW146193   3.935   2.831  20.373
11438SOL    HW246194   4.006   2.729  20.460
11439SOL     OW46195   3.570   2.641   1.208
11439SOL    HW146196   3.555   2.626   1.302
11439SOL    HW246197   3.638   2.708   1.205
11440SOL     OW46198   0.677   2.502  18.033
11440SOL    HW146199   0.727   2.521  18.112
11440SOL    HW246200   0.615   2.433  18.059
11441SOL     OW46201   4.467   0.098  14.222
11441SOL    HW146202   4.463   0.149  14.141
11441SOL    HW246203   4.440   0.010  14.196
11442SOL     OW46204   4.638   3.159  15.540
11442SOL    HW146205   4.691   3.184  15.464
11442SOL    HW246206   4.602   3.241  15.573
11443SOL     OW46207   2.154   2.486  18.977
11443SOL    HW146208   2.081   2.455  18.923
11443SOL    HW246209   2.119   2.562  19.023
11444SOL     OW46210   0.672   1.893  15.073
11444SOL    HW146211   0.711   1.828  15.014
11444SOL    HW246212   0.582   1.864  15.085
11445SOL     OW46213   4.409   1.325  20.753
11445SOL    HW146214   4.461   1.278  20.688
11445SOL    HW246215   4.338   1.365  20.703
11446SOL     OW46216   4.334   1.738   0.375
11446SOL    HW146217   4.247   1.776   0.366
11446SOL    HW246218   4.391   1.812   0.397
11447SOL     OW46219   3.612   0.830  16.328
11447SOL    HW146220   3.567   0.752  16.296
11447SOL    HW246221   3.704   0.812  16.311
11448SOL     OW46222   0.991   1.278   7.156
11448SOL    HW146223   1.064   1.277   7.095
11448SOL    HW246224   0.999   1.361   7.203
11449SOL     OW46225   4.572   3.537  18.158
11449SOL    HW146226   4.637   3.522  18.226
11449SOL    HW246227   4.610   3.603  18.101
11450SOL     OW46228   3.028   2.899  19.492
11450SOL    HW146229   3.035   2.934  19.403
11450SOL    HW246230   3.109   2.927  19.535
11451SOL     OW46231   3.272   3.238   3.952
11451SOL    HW146232   3.178   3.249   3.962
11451SOL    HW246233   3.295   3.292   3.877
11452SOL     OW46234   4.682   0.889   2.812
11452SOL    HW146235   4.761   0.869   2.863
11452SOL    HW246236   4.612   0.842   2.857
11453SOL     OW46237   4.572   1.565   3.318
11453SOL    HW146238   4.504   1.578   3.253
11453SOL    HW246239   4.654   1.567   3.268
11454SOL     OW46240   1.163   3.326   2.901
11454SOL    HW146241   1.074   3.360   2.909
11454SOL    HW246242   1.192   3.313   2.992
11455SOL     OW46243   2.312   4.783  18.722
11455SOL    HW146244   2.317   0.050  18.643
11455SOL    HW246245   2.278   4.700  18.691
11456SOL     OW46246   2.681   3.430  16.276
11456SOL    HW146247   2.610   3.474  16.228
11456SOL    HW246248   2.659   3.443  16.368
11457SOL     OW46249   0.279   4.236   0.803
11457SOL    HW146250   0.188   4.265   0.804
11457SOL    HW246251   0.311   4.262   0.716
11458SOL     OW46252   2.464   3.280  19.752
11458SOL    HW146253   2.518   3.250  19.678
11458SOL    HW246254   2.488   3.372  19.764
11459SOL     OW46255   3.214   2.117   6.511
11459SOL    HW146256   3.188   2.194   6.561
11459SOL    HW246257   3.141   2.056   6.522
11460SOL     OW46258   3.434   2.729  20.881
11460SOL    HW146259   3.465   2.660  20.823
11460SOL    HW246260   3.449   2.810  20.832
11461SOL     OW46261   1.648   0.675   8.272
11461SOL    HW146262   1.571   0.666   8.327
11461SOL    HW246263   1.614   0.697   8.185
11462SOL     OW46264   4.152   2.258   0.590
11462SOL    HW146265   4.175   2.178   0.637
11462SOL    HW246266   4.117   2.316   0.657
11463SOL     OW46267   0.155   2.359   4.756
11463SOL    HW146268   0.143   2.319   4.842
11463SOL    HW246269   0.248   2.348   4.737
11464SOL     OW46270   1.665   4.719  19.505
11464SOL    HW146271   1.719   4.648  19.541
11464SOL    HW246272   1.725   0.005  19.498
11465SOL     OW46273   2.047   2.350  16.198
11465SOL    HW146274   2.009   2.415  16.140
11465SOL    HW246275   2.119   2.396  16.242
11466SOL     OW46276   2.921   0.083  16.313
11466SOL    HW146277   3.012   0.084  16.282
11466SOL    HW246278   2.876   0.144  16.254
11467SOL     OW46279   0.602   0.970   0.434
11467SOL    HW146280   0.516   0.980   0.473
11467SOL    HW246281   0.627   1.058   0.406
11468SOL     OW46282   0.881   1.234   4.991
11468SOL    HW146283   0.973   1.226   5.015
11468SOL    HW246284   0.855   1.145   4.967
11469SOL     OW46285   3.681   4.172  20.857
11469SOL    HW146286   3.735   4.226  20.915
11469SOL    HW246287   3.608   4.144  20.912
11470SOL     OW46288   1.077   1.524  13.831
11470SOL    HW146289   1.107   1.433  13.831
11470SOL    HW246290   0.990   1.521  13.870
11471SOL     OW46291   0.735   3.652  16.180
11471SOL    HW146292   0.821   3.683  16.210
11471SOL    HW246293   0.755   3.583  16.117
11472SOL     OW46294   4.129   3.006  20.275
11472SOL    HW146295   4.040   2.988  20.246
11472SOL    HW246296   4.120   3.077  20.339
11473SOL     OW46297   3.501   1.851  20.590
11473SOL    HW146298   3.514   1.886  20.678
11473SOL    HW246299   3.582   1.873  20.544
11474SOL     OW46300   4.260   4.730  19.747
11474SOL    HW146301   4.304   0.003  19.687
11474SOL    HW246302   4.176   4.772  19.766
11475SOL     OW46303   1.185   2.254  16.436
11475SOL    HW146304   1.102   2.277  16.479
11475SOL    HW246305   1.183   2.302  16.354
11476SOL     OW46306   3.506   1.732  17.078
11476SOL    HW146307   3.441   1.663  17.063
11476SOL    HW246308   3.557   1.701  17.154
11477SOL     OW46309   0.455   1.404  16.222
11477SOL    HW146310   0.547   1.430  16.220
11477SOL    HW246311   0.435   1.399  16.315
11478SOL     OW46312   1.168   4.549   1.145
11478SOL    HW146313   1.089   4.521   1.192
11478SOL    HW246314   1.148   4.639   1.119
11479SOL     OW46315   0.521   0.015   5.923
11479SOL    HW146316   0.502   0.102   5.888
11479SOL    HW246317   0.523   4.745   5.846
11480SOL     OW46318   1.396   1.096   4.463
11480SOL    HW146319   1.306   1.089   4.431
11480SOL    HW246320   1.412   1.013   4.507
11481SOL     OW46321   3.768   3.709  15.519
11481SOL    HW146322   3.863   3.701  15.516
11481SOL    HW246323   3.738   3.666  15.439
11482SOL     OW46324   3.274   0.806   2.947
11482SOL    HW146325   3.347   0.813   2.886
11482SOL    HW246326   3.217   0.739   2.909
11483SOL     OW46327   3.771   1.836  16.044
11483SOL    HW146328   3.788   1.874  16.130
11483SOL    HW246329   3.685   1.794  16.053
11484SOL     OW46330   1.139   2.023  16.564
11484SOL    HW146331   1.227   1.985  16.577
11484SOL    HW246332   1.155   2.117  16.555
11485SOL     OW46333   3.491   3.171   7.266
11485SOL    HW146334   3.459   3.081   7.260
11485SOL    HW246335   3.420   3.220   7.306
11486SOL     OW46336   0.413   0.590  16.313
11486SOL    HW146337   0.403   0.654  16.243
11486SOL    HW246338   0.508   0.574  16.316
11487SOL     OW46339   2.300   4.018   3.249
11487SOL    HW146340   2.269   3.945   3.195
11487SOL    HW246341   2.257   4.005   3.334
11488SOL     OW46342   1.337   1.913  18.989
11488SOL    HW146343   1.347   1.827  18.949
11488SOL    HW246344   1.413   1.962  18.960
11489SOL     OW46345   2.439   4.431   1.132
11489SOL    HW146346   2.380   4.502   1.105
11489SOL    HW246347   2.514   4.476   1.172
11490SOL     OW46348   0.879   0.805   8.187
11490SOL    HW146349   0.892   0.900   8.183
11490SOL    HW246350   0.966   0.769   8.204
11491SOL     OW46351   3.031   0.792   5.796
11491SOL    HW146352   3.051   0.811   5.705
11491SOL    HW246353   2.940   0.821   5.807
11492SOL     OW46354   1.401   3.973   2.344
11492SOL    HW146355   1.307   3.988   2.346
11492SOL    HW246356   1.413   3.903   2.279
11493SOL     OW46357   2.374   2.731   1.648
11493SOL    HW146358   2.376   2.827   1.654
11493SOL    HW246359   2.298   2.705   1.699
11494SOL     OW46360   1.486   1.198  19.340
11494SOL    HW146361   1.479   1.161  19.428
11494SOL    HW246362   1.499   1.122  19.283
11495SOL     OW46363   1.496   2.489   2.630
11495SOL    HW146364   1.574   2.434   2.635
11495SOL    HW246365   1.435   2.441   2.574
11496SOL     OW46366   0.990   0.405  10.296
11496SOL    HW146367   0.998   0.492  10.336
11496SOL    HW246368   1.048   0.349  10.349
11497SOL     OW46369   2.595   2.506   2.260
11497SOL    HW146370   2.641   2.494   2.343
11497SOL    HW246371   2.647   2.572   2.214
11498SOL     OW46372   4.390   1.424  19.333
11498SOL    HW146373   4.350   1.442  19.418
11498SOL    HW246374   4.393   1.509  19.289
11499SOL     OW46375   2.169   4.620  14.136
11499SOL    HW146376   2.089   4.670  14.155
11499SOL    HW246377   2.229   4.642  14.207
11500SOL     OW46378   3.960   4.076  17.045
11500SOL    HW146379   3.996   4.077  17.133
11500SOL    HW246380   3.916   4.161  17.036
11501SOL     OW46381   0.066   3.984   4.960
11501SOL    HW146382   4.769   3.939   4.960
11501SOL    HW246383   0.057   4.051   5.028
11502SOL     OW46384   0.842   3.257   2.598
11502SOL    HW146385   0.883   3.258   2.512
11502SOL    HW246386   0.878   3.334   2.643
11503SOL     OW46387   1.194   4.199   4.502
11503SOL    HW146388   1.101   4.199   4.481
11503SOL    HW246389   1.238   4.224   4.421
11504SOL     OW46390   0.727   1.989   3.301
11504SOL    HW146391   0.739   1.997   3.395
11504SOL    HW246392   0.706   1.896   3.287
11505SOL     OW46393   4.589   2.220   6.138
11505SOL    HW146394   4.544   2.285   6.191
11505SOL    HW246395   4.588   2.256   6.049
11506SOL     OW46396   3.945   1.932  16.542
11506SOL    HW146397   3.926   1.994  16.613
11506SOL    HW246398   4.024   1.887  16.570
11507SOL     OW46399   4.703   1.160   2.320
11507SOL    HW146400   4.699   1.255   2.305
11507SOL    HW246401   4.657   1.147   2.402
11508SOL     OW46402   3.299   4.545   2.510
11508SOL    HW146403   3.261   4.617   2.559
11508SOL    HW246404   3.341   4.490   2.576
11509SOL     OW46405   2.757   0.505  15.394
11509SOL    HW146406   2.849   0.486  15.414
11509SOL    HW246407   2.721   0.420  15.367
11510SOL     OW46408   0.069   4.154   3.260
11510SOL    HW146409   0.089   4.218   3.192
11510SOL    HW246410   4.767   4.126   3.241
11511SOL     OW46411   0.400   0.905  19.622
11511SOL    HW146412   0.428   0.902  19.714
11511SOL    HW246413   0.306   0.891  19.626
11512SOL     OW46414   0.884   0.023  15.779
11512SOL    HW146415   0.848   0.059  15.860
11512SOL    HW246416   0.969   0.066  15.771
11513SOL     OW46417   0.343   2.888  16.894
11513SOL    HW146418   0.265   2.943  16.887
11513SOL    HW246419   0.324   2.828  16.966
11514SOL     OW46420   0.768   1.647  21.166
11514SOL    HW146421   0.679   1.625  21.138
11514SOL    HW246422   0.824   1.619  21.093
11515SOL     OW46423   1.777   2.666   5.772
11515SOL    HW146424   1.850   2.728   5.767
11515SOL    HW246425   1.698   2.720   5.767
11516SOL     OW46426   3.594   2.029  19.628
11516SOL    HW146427   3.519   2.057  19.681
11516SOL    HW246428   3.617   2.105  19.576
11517SOL     OW46429   1.215   4.287   1.866
11517SOL    HW146430   1.247   4.199   1.885
11517SOL    HW246431   1.218   4.294   1.771
11518SOL     OW46432   0.352   4.379  21.026
11518SOL    HW146433   0.406   4.329  21.087
11518SOL    HW246434   0.357   4.330  20.944
11519SOL     OW46435   1.349   3.403  15.528
11519SOL    HW146436   1.442   3.393  15.505
11519SOL    HW246437   1.302   3.355  15.460
11520SOL     OW46438   2.063   4.528  16.972
11520SOL    HW146439   2.119   4.469  17.023
11520SOL    HW246440   1.987   4.543  17.028
11521SOL     OW46441   4.339   1.399   7.521
11521SOL    HW146442   4.261   1.345   7.532
11521SOL    HW246443   4.372   1.376   7.434
11522SOL     OW46444   0.203   0.746   6.116
11522SOL    HW146445   0.192   0.809   6.044
11522SOL    HW246446   0.189   0.797   6.195
11523SOL     OW46447   0.948   4.350  17.569
11523SOL    HW146448   0.880   4.351  17.501
11523SOL    HW246449   0.917   4.285  17.632
11524SOL     OW46450   0.556   4.516  16.927
11524SOL    HW146451   0.611   4.491  17.002
11524SOL    HW246452   0.571   4.447  16.862
11525SOL     OW46453   1.279   2.688  19.803
11525SOL    HW146454   1.216   2.681  19.875
11525SOL    HW246455   1.262   2.612  19.748
11526SOL     OW46456   1.176   0.298  19.417
11526SOL    HW146457   1.140   0.241  19.349
11526SOL    HW246458   1.100   0.326  19.468
11527SOL     OW46459   3.028   3.661   7.587
11527SOL    HW146460   2.933   3.648   7.582
11527SOL    HW246461   3.041   3.714   7.666
11528SOL     OW46462   1.715   4.637   4.369
11528SOL    HW146463   1.637   4.663   4.319
11528SOL    HW246464   1.783   4.626   4.303
11529SOL     OW46465   3.609   1.524   1.072
11529SOL    HW146466   3.616   1.611   1.031
11529SOL    HW246467   3.670   1.528   1.146
11530SOL     OW46468   2.483   3.117   0.158
11530SOL    HW146469   2.527   3.200   0.138
11530SOL    HW246470   2.390   3.140   0.162
11531SOL     OW46471   3.383   4.433  14.647
11531SOL    HW146472   3.390   4.429  14.552
11531SOL    HW246473   3.474   4.436  14.677
11532SOL     OW46474   3.953   3.618   4.753
11532SOL    HW146475   3.953   3.623   4.849
11532SOL    HW246476   4.043   3.593   4.730
11533SOL     OW46477   1.543   3.415  13.857
11533SOL    HW146478   1.516   3.448  13.771
11533SOL    HW246479   1.620   3.361  13.839
11534SOL     OW46480   1.269   3.386  16.148
11534SOL    HW146481   1.318   3.408  16.068
11534SOL    HW246482   1.301   3.299  16.172
11535SOL     OW46483   0.769   3.102   6.782
11535SOL    HW146484   0.744   3.194   6.777
11535SOL    HW246485   0.803   3.081   6.694
11536SOL     OW46486   4.501   4.670   6.601
11536SOL    HW146487   4.491   4.616   6.522
11536SOL    HW246488   4.488   4.760   6.571
11537SOL     OW46489   4.588   0.959  19.340
11537SOL    HW146490   4.503   1.001  19.326
11537SOL    HW246491   4.608   0.976  19.432
11538SOL     OW46492   0.744   4.345   0.651
11538SOL    HW146493   0.705   4.344   0.738
11538SOL    HW246494   0.839   4.339   0.666
11539SOL     OW46495   3.281   2.300  17.234
11539SOL    HW146496   3.276   2.204  17.231
11539SOL    HW246497   3.197   2.329  17.198
11540SOL     OW46498   4.101   4.743  15.824
11540SOL    HW146499   4.135   0.045  15.822
11540SOL    HW246500   4.128   4.709  15.909
11541SOL     OW46501   1.503   4.449  18.367
11541SOL    HW146502   1.547   4.514  18.311
11541SOL    HW246503   1.564   4.375  18.370
11542SOL     OW46504   0.702   2.940   6.191
11542SOL    HW146505   0.732   3.024   6.226
11542SOL    HW246506   0.700   2.954   6.096
11543SOL     OW46507   3.146   2.756   2.676
11543SOL    HW146508   3.191   2.699   2.738
11543SOL    HW246509   3.194   2.746   2.594
11544SOL     OW46510   0.125   0.575  19.944
11544SOL    HW146511   0.191   0.571  20.013
11544SOL    HW246512   0.168   0.539  19.867
11545SOL     OW46513   0.605   3.496   2.591
11545SOL    HW146514   0.568   3.541   2.666
11545SOL    HW246515   0.654   3.423   2.629
11546SOL     OW46516   2.875   4.110   0.852
11546SOL    HW146517   2.799   4.144   0.805
11546SOL    HW246518   2.927   4.187   0.874
11547SOL     OW46519   3.878   3.211  15.188
11547SOL    HW146520   3.808   3.154  15.156
11547SOL    HW246521   3.871   3.206  15.283
11548SOL     OW46522   1.809   0.763  19.435
11548SOL    HW146523   1.734   0.705  19.440
11548SOL    HW246524   1.883   0.705  19.417
11549SOL     OW46525   1.464   4.650   4.624
11549SOL    HW146526   1.508   4.571   4.595
11549SOL    HW246527   1.371   4.635   4.604
11550SOL     OW46528   4.183   4.470   7.023
11550SOL    HW146529   4.223   4.518   6.951
11550SOL    HW246530   4.107   4.523   7.048
11551SOL     OW46531   0.857   0.272   0.461
11551SOL    HW146532   0.868   0.217   0.539
11551SOL    HW246533   0.827   0.356   0.494
11552SOL     OW46534   3.217   0.286  18.389
11552SOL    HW146535   3.143   0.300  18.449
11552SOL    HW246536   3.177   0.289  18.302
11553SOL     OW46537   4.761   3.949  18.499
11553SOL    HW146538   0.008   4.036  18.520
11553SOL    HW246539   4.726   3.917  18.582
11554SOL     OW46540   4.606   2.030  20.310
11554SOL    HW146541   4.511   2.032  20.299
11554SOL    HW246542   4.620   1.973  20.386
11555SOL     OW46543   0.781   0.663   5.266
11555SOL    HW146544   0.867   0.693   5.295
11555SOL    HW246545   0.775   0.691   5.175
11556SOL     OW46546   3.904   3.964   0.862
11556SOL    HW146547   3.935   3.922   0.782
11556SOL    HW246548   3.913   4.058   0.845
11557SOL     OW46549   2.997   0.451   6.722
11557SOL    HW146550   3.046   0.374   6.750
11557SOL    HW246551   2.925   0.416   6.669
11558SOL     OW46552   3.842   2.601  18.602
11558SOL    HW146553   3.749   2.609  18.625
11558SOL    HW246554   3.888   2.629  18.681
11559SOL     OW46555   1.923   4.509   0.242
11559SOL    HW146556   1.942   4.420   0.212
11559SOL    HW246557   1.888   4.552   0.164
11560SOL     OW46558   0.851   2.001   5.501
11560SOL    HW146559   0.871   1.912   5.531
11560SOL    HW246560   0.781   1.989   5.436
11561SOL     OW46561   2.773   4.275  16.429
11561SOL    HW146562   2.773   4.239  16.517
11561SOL    HW246563   2.862   4.263  16.397
11562SOL     OW46564   3.005   4.431   2.653
11562SOL    HW146565   2.939   4.473   2.707
11562SOL    HW246566   3.072   4.499   2.640
11563SOL     OW46567   2.994   3.899   0.727
11563SOL    HW146568   2.919   3.857   0.684
11563SOL    HW246569   2.961   3.982   0.759
11564SOL     OW46570   0.414   3.574   1.880
11564SOL    HW146571   0.447   3.487   1.857
11564SOL    HW246572   0.433   3.628   1.803
11565SOL     OW46573   3.305   3.709  18.751
11565SOL    HW146574   3.294   3.629  18.803
11565SOL    HW246575   3.391   3.700  18.710
11566SOL     OW46576   4.074   1.288  19.897
11566SOL    HW146577   4.060   1.362  19.838
11566SOL    HW246578   4.169   1.281  19.905
11567SOL     OW46579   2.604   0.872   3.534
11567SOL    HW146580   2.643   0.941   3.482
11567SOL    HW246581   2.588   0.801   3.472
11568SOL     OW46582   2.109   1.417   5.099
11568SOL    HW146583   2.129   1.402   5.192
11568SOL    HW246584   2.031   1.472   5.100
11569SOL     OW46585   0.611   4.179   2.856
11569SOL    HW146586   0.650   4.164   2.943
11569SOL    HW246587   0.673   4.238   2.812
11570SOL     OW46588   3.872   4.352  19.187
11570SOL    HW146589   3.961   4.367  19.220
11570SOL    HW246590   3.818   4.351  19.266
11571SOL     OW46591   2.396   2.905  16.423
11571SOL    HW146592   2.452   2.835  16.391
11571SOL    HW246593   2.348   2.866  16.496
11572SOL     OW46594   0.351   3.463   2.421
11572SOL    HW146595   0.273   3.408   2.412
11572SOL    HW246596   0.407   3.416   2.482
11573SOL     OW46597   2.715   0.306   5.343
11573SOL    HW146598   2.803   0.335   5.322
11573SOL    HW246599   2.695   0.237   5.280
11574SOL     OW46600   2.837   4.576   5.342
11574SOL    HW146601   2.860   4.603   5.431
11574SOL    HW246602   2.867   4.649   5.287
11575SOL     OW46603   2.068   3.631  20.744
11575SOL    HW146604   2.021   3.659  20.822
11575SOL    HW246605   2.157   3.662  20.757
11576SOL     OW46606   3.714   3.343   2.996
11576SOL    HW146607   3.786   3.288   3.027
11576SOL    HW246608   3.661   3.285   2.941
11577SOL     OW46609   3.006   4.123  20.059
11577SOL    HW146610   2.945   4.059  20.096
11577SOL    HW246611   3.029   4.088  19.973
11578SOL     OW46612   2.127   2.091  18.077
11578SOL    HW146613   2.087   2.163  18.125
11578SOL    HW246614   2.054   2.040  18.044
11579SOL     OW46615   3.124   3.758  18.526
11579SOL    HW146616   3.205   3.759  18.577
11579SOL    HW246617   3.055   3.777  18.590
11580SOL     OW46618   3.609   0.367   7.018
11580SOL    HW146619   3.689   0.417   7.003
11580SOL    HW246620   3.549   0.396   6.950
11581SOL     OW46621   2.422   4.751   0.449
11581SOL    HW146622   2.441   0.056   0.466
11581SOL    HW246623   2.472   4.730   0.370
11582SOL     OW46624   4.725   1.415  19.260
11582SOL    HW146625   4.650   1.449  19.212
11582SOL    HW246626   4.736   1.326  19.228
11583SOL     OW46627   1.482   4.478   5.033
11583SOL    HW146628   1.404   4.446   4.988
11583SOL    HW246629   1.514   4.401   5.082
11584SOL     OW46630   4.439   0.524  21.033
11584SOL    HW146631   4.524   0.487  21.011
11584SOL    HW246632   4.454   0.576  21.112
11585SOL     OW46633   4.092   4.242  15.932
11585SOL    HW146634   4.175   4.284  15.910
11585SOL    HW246635   4.116   4.150  15.948
11586SOL     OW46636   3.678   1.841   5.224
11586SOL    HW146637   3.588   1.810   5.216
11586SOL    HW246638   3.710   1.845   5.135
11587SOL     OW46639   3.928   0.695   6.414
11587SOL    HW146640   3.992   0.736   6.473
11587SOL    HW246641   3.844   0.734   6.439
11588SOL     OW46642   4.069   4.731   5.753
11588SOL    HW146643   4.160   4.703   5.747
11588SOL    HW246644   4.023   4.678   5.688
11589SOL     OW46645   2.351   0.374  19.769
11589SOL    HW146646   2.282   0.439  19.782
11589SOL    HW246647   2.359   0.365  19.674
11590SOL     OW46648   2.524   2.796   4.134
11590SOL    HW146649   2.532   2.790   4.039
11590SOL    HW246650   2.447   2.851   4.148
11591SOL     OW46651   1.011   1.507  18.929
11591SOL    HW146652   0.935   1.528  18.982
11591SOL    HW246653   1.056   1.437  18.977
11592SOL     OW46654   3.212   4.788   5.427
11592SOL    HW146655   3.137   0.027   5.479
11592SOL    HW246656   3.246   0.081   5.389
11593SOL     OW46657   1.176   0.360  15.086
11593SOL    HW146658   1.263   0.399  15.093
11593SOL    HW246659   1.183   0.278  15.135
11594SOL     OW46660   1.821   3.353   2.551
11594SOL    HW146661   1.746   3.411   2.537
11594SOL    HW246662   1.831   3.306   2.469
11595SOL     OW46663   0.681   2.944   6.973
11595SOL    HW146664   0.708   3.003   6.903
11595SOL    HW246665   0.624   2.880   6.930
11596SOL     OW46666   1.084   3.996   3.352
11596SOL    HW146667   1.169   4.040   3.359
11596SOL    HW246668   1.104   3.904   3.369
11597SOL     OW46669   1.122   3.160  18.344
11597SOL    HW146670   1.103   3.130  18.255
11597SOL    HW246671   1.194   3.222  18.333
11598SOL     OW46672   3.038   1.810  21.214
11598SOL    HW146673   3.024   1.805   0.061
11598SOL    HW246674   3.093   1.734  21.194
11599SOL     OW46675   1.939   3.095  16.188
11599SOL    HW146676   1.973   3.173  16.144
11599SOL    HW246677   2.015   3.060  16.236
11600SOL     OW46678   0.857   3.505  16.411
11600SOL    HW146679   0.776   3.556  16.407
11600SOL    HW246680   0.883   3.509  16.503
11601SOL     OW46681   4.520   2.965  20.024
11601SOL    HW146682   4.457   2.945  20.093
11601SOL    HW246683   4.553   3.052  20.046
11602SOL     OW46684   1.437   1.211  15.121
11602SOL    HW146685   1.474   1.288  15.079
11602SOL    HW246686   1.355   1.242  15.160
11603SOL     OW46687   3.110   0.483   3.204
11603SOL    HW146688   3.084   0.468   3.113
11603SOL    HW246689   3.056   0.558   3.232
11604SOL     OW46690   2.517   0.547  19.137
11604SOL    HW146691   2.595   0.495  19.113
11604SOL    HW246692   2.552   0.623  19.183
11605SOL     OW46693   0.730   1.226   1.962
11605SOL    HW146694   0.723   1.322   1.955
11605SOL    HW246695   0.775   1.212   2.045
11606SOL     OW46696   4.651   1.607  19.787
11606SOL    HW146697   4.704   1.527  19.783
11606SOL    HW246698   4.661   1.646  19.700
11607SOL     OW46699   1.489   4.675  14.238
11607SOL    HW146700   1.452   4.614  14.173
11607SOL    HW246701   1.521   4.748  14.186
11608SOL     OW46702   2.679   2.531   6.715
11608SOL    HW146703   2.659   2.549   6.807
11608SOL    HW246704   2.624   2.592   6.666
11609SOL     OW46705   2.727   1.538   5.288
11609SOL    HW146706   2.706   1.517   5.196
11609SOL    HW246707   2.747   1.453   5.327
11610SOL     OW46708   4.370   0.375   0.734
11610SOL    HW146709   4.310   0.431   0.782
11610SOL    HW246710   4.319   0.342   0.660
11611SOL     OW46711   0.508   1.535   6.061
11611SOL    HW146712   0.491   1.441   6.064
11611SOL    HW246713   0.470   1.564   5.978
11612SOL     OW46714   4.270   3.756  20.151
11612SOL    HW146715   4.314   3.716  20.076
11612SOL    HW246716   4.253   3.683  20.210
11613SOL     OW46717   1.668   0.039   4.548
11613SOL    HW146718   1.591   4.770   4.558
11613SOL    HW246719   1.728   4.774   4.494
11614SOL     OW46720   2.174   2.124  15.767
11614SOL    HW146721   2.120   2.151  15.841
11614SOL    HW246722   2.132   2.045  15.734
11615SOL     OW46723   2.704   0.718  19.511
11615SOL    HW146724   2.766   0.647  19.532
11615SOL    HW246725   2.727   0.788  19.572
11616SOL     OW46726   2.531   2.181   2.448
11616SOL    HW146727   2.535   2.119   2.521
11616SOL    HW246728   2.601   2.244   2.467
11617SOL     OW46729   2.378   2.439  19.156
11617SOL    HW146730   2.296   2.431  19.107
11617SOL    HW246731   2.360   2.396  19.240
11618SOL     OW46732   3.454   0.107  16.111
11618SOL    HW146733   3.526   0.161  16.080
11618SOL    HW246734   3.416   0.070  16.032
11619SOL     OW46735   1.151   4.559  12.948
11619SOL    HW146736   1.133   4.548  12.855
11619SOL    HW246737   1.225   4.501  12.966
11620SOL     OW46738   1.710   0.851   4.646
11620SOL    HW146739   1.636   0.843   4.706
11620SOL    HW246740   1.681   0.805   4.566
11621SOL     OW46741   1.428   1.566  16.410
11621SOL    HW146742   1.406   1.567  16.316
11621SOL    HW246743   1.450   1.475  16.429
11622SOL     OW46744   2.730   2.169   4.705
11622SOL    HW146745   2.725   2.240   4.642
11622SOL    HW246746   2.639   2.144   4.721
11623SOL     OW46747   0.319   1.193   2.122
11623SOL    HW146748   0.317   1.122   2.058
11623SOL    HW246749   0.261   1.165   2.192
11624SOL     OW46750   4.102   4.298  18.001
11624SOL    HW146751   4.057   4.327  18.080
11624SOL    HW246752   4.070   4.209  17.986
11625SOL     OW46753   3.078   0.412  16.690
11625SOL    HW146754   3.065   0.340  16.752
11625SOL    HW246755   3.089   0.368  16.606
11626SOL     OW46756   4.036   0.969   4.674
11626SOL    HW146757   3.955   0.983   4.625
11626SOL    HW246758   4.094   1.039   4.646
11627SOL     OW46759   3.898   2.151  18.707
11627SOL    HW146760   3.972   2.197  18.747
11627SOL    HW246761   3.822   2.181  18.756
11628SOL     OW46762   3.487   2.046   6.273
11628SOL    HW146763   3.471   1.970   6.328
11628SOL    HW246764   3.533   2.107   6.330
11629SOL     OW46765   1.280   1.900   8.809
11629SOL    HW146766   1.283   1.914   8.715
11629SOL    HW246767   1.261   1.806   8.819
11630SOL     OW46768   3.997   1.301   4.769
11630SOL    HW146769   4.049   1.380   4.786
11630SOL    HW246770   4.013   1.245   4.844
11631SOL     OW46771   3.924   3.456   0.720
11631SOL    HW146772   3.998   3.400   0.696
11631SOL    HW246773   3.909   3.510   0.642
11632SOL     OW46774   4.708   4.351  18.660
11632SOL    HW146775   4.740   4.436  18.630
11632SOL    HW246776   4.630   4.372  18.712
11633SOL     OW46777   2.146   2.921   4.345
11633SOL    HW146778   2.217   2.948   4.288
11633SOL    HW246779   2.096   3.002   4.361
11634SOL     OW46780   4.765   3.071  17.762
11634SOL    HW146781   4.775   3.151  17.711
11634SOL    HW246782   4.731   3.007  17.699
11635SOL     OW46783   2.718   4.454  12.695
11635SOL    HW146784   2.624   4.440  12.700
11635SOL    HW246785   2.731   4.504  12.614
11636SOL     OW46786   2.614   1.869  14.229
11636SOL    HW146787   2.544   1.928  14.202
11636SOL    HW246788   2.581   1.827  14.309
11637SOL     OW46789   0.565   0.310  17.909
11637SOL    HW146790   0.515   0.293  17.988
11637SOL    HW246791   0.584   0.404  17.912
11638SOL     OW46792   0.210   1.589   2.982
11638SOL    HW146793   0.160   1.662   2.945
11638SOL    HW246794   0.295   1.594   2.939
11639SOL     OW46795   4.107   0.783   2.302
11639SOL    HW146796   4.053   0.713   2.265
11639SOL    HW246797   4.044   0.839   2.349
11640SOL     OW46798   2.294   1.578   0.231
11640SOL    HW146799   2.218   1.633   0.211
11640SOL    HW246800   2.291   1.565   0.326
11641SOL     OW46801   3.849   3.150   5.643
11641SOL    HW146802   3.858   3.145   5.738
11641SOL    HW246803   3.808   3.068   5.617
11642SOL     OW46804   0.302   3.347   5.380
11642SOL    HW146805   0.207   3.339   5.379
11642SOL    HW246806   0.318   3.438   5.405
11643SOL     OW46807   2.044   1.756   4.105
11643SOL    HW146808   1.971   1.787   4.051
11643SOL    HW246809   2.005   1.741   4.191
11644SOL     OW46810   3.931   0.493  13.836
11644SOL    HW146811   3.988   0.475  13.911
11644SOL    HW246812   3.965   0.437  13.766
11645SOL     OW46813   2.802   0.276   0.558
11645SOL    HW146814   2.839   0.310   0.639
11645SOL    HW246815   2.845   0.327   0.489
11646SOL     OW46816   3.291   1.950   2.330
11646SOL    HW146817   3.205   1.976   2.296
11646SOL    HW246818   3.271   1.887   2.399
11647SOL     OW46819   2.150   2.911   0.397
11647SOL    HW146820   2.181   2.869   0.477
11647SOL    HW246821   2.062   2.943   0.418
11648SOL     OW46822   1.749   1.815   5.044
11648SOL    HW146823   1.701   1.854   5.117
11648SOL    HW246824   1.746   1.881   4.974
11649SOL     OW46825   0.109   4.734  13.896
11649SOL    HW146826   0.154   4.664  13.847
11649SOL    HW246827   0.088   4.694  13.980
11650SOL     OW46828   2.572   0.866   2.467
11650SOL    HW146829   2.580   0.771   2.456
11650SOL    HW246830   2.601   0.882   2.556
11651SOL     OW46831   2.139   1.919  18.840
11651SOL    HW146832   2.111   2.009  18.858
11651SOL    HW246833   2.232   1.918  18.865
11652SOL     OW46834   4.604   2.278   5.858
11652SOL    HW146835   4.553   2.327   5.793
11652SOL    HW246836   4.571   2.188   5.851
11653SOL     OW46837   0.558   0.388  17.525
11653SOL    HW146838   0.650   0.367  17.541
11653SOL    HW246839   0.510   0.326  17.581
11654SOL     OW46840   1.973   3.604  18.286
11654SOL    HW146841   1.904   3.612  18.352
11654SOL    HW246842   2.044   3.657  18.320
11655SOL     OW46843   0.145   2.154   3.551
11655SOL    HW146844   0.087   2.127   3.479
11655SOL    HW246845   0.095   2.135   3.630
11656SOL     OW46846   3.196   3.897   6.442
11656SOL    HW146847   3.209   3.807   6.471
11656SOL    HW246848   3.284   3.928   6.421
11657SOL     OW46849   1.022   1.401  20.155
11657SOL    HW146850   0.996   1.478  20.205
11657SOL    HW246851   0.979   1.328  20.199
11658SOL     OW46852   3.524   4.783  18.655
11658SOL    HW146853   3.501   0.013  18.563
11658SOL    HW246854   3.619   0.005  18.658
11659SOL     OW46855   1.675   0.497  15.698
11659SOL    HW146856   1.623   0.544  15.763
11659SOL    HW246857   1.764   0.529  15.709
11660SOL     OW46858   0.576   0.915  20.554
11660SOL    HW146859   0.531   0.877  20.629
11660SOL    HW246860   0.654   0.861  20.543
11661SOL     OW46861   0.878   2.944   3.798
11661SOL    HW146862   0.822   2.922   3.724
11661SOL    HW246863   0.818   2.964   3.870
11662SOL     OW46864   3.042   3.195  19.600
11662SOL    HW146865   3.110   3.129  19.588
11662SOL    HW246866   3.046   3.248  19.521
11663SOL     OW46867   2.264   0.396   1.601
11663SOL    HW146868   2.169   0.391   1.589
11663SOL    HW246869   2.288   0.310   1.636
11664SOL     OW46870   0.369   1.477   1.011
11664SOL    HW146871   0.287   1.437   0.983
11664SOL    HW246872   0.435   1.409   0.994
11665SOL     OW46873   4.707   3.634   4.484
11665SOL    HW146874   0.010   3.664   4.478
11665SOL    HW246875   4.657   3.714   4.501
11666SOL     OW46876   4.528   0.585  18.615
11666SOL    HW146877   4.514   0.583  18.709
11666SOL    HW246878   4.480   0.662  18.585
11667SOL     OW46879   3.683   4.653  17.821
11667SOL    HW146880   3.743   4.642  17.894
11667SOL    HW246881   3.657   4.745  17.824
11668SOL     OW46882   4.109   1.463   4.259
11668SOL    HW146883   4.022   1.489   4.232
11668SOL    HW246884   4.103   1.455   4.355
11669SOL     OW46885   4.261   1.033  15.311
11669SOL    HW146886   4.304   1.061  15.391
11669SOL    HW246887   4.215   0.952  15.335
11670SOL     OW46888   2.941   1.227   6.084
11670SOL    HW146889   2.914   1.276   6.162
11670SOL    HW246890   2.903   1.140   6.096
11671SOL     OW46891   3.825   3.661   1.686
11671SOL    HW146892   3.833   3.575   1.727
11671SOL    HW246893   3.843   3.645   1.593
11672SOL     OW46894   4.095   0.277  19.716
11672SOL    HW146895   4.162   0.251  19.653
11672SOL    HW246896   4.052   0.195  19.740
11673SOL     OW46897   0.927   4.275  14.133
11673SOL    HW146898   0.954   4.354  14.180
11673SOL    HW246899   0.833   4.284  14.122
11674SOL     OW46900   3.468   2.311   7.564
11674SOL    HW146901   3.538   2.250   7.539
11674SOL    HW246902   3.510   2.397   7.565
11675SOL     OW46903   4.022   1.622  18.117
11675SOL    HW146904   4.044   1.715  18.126
11675SOL    HW246905   4.074   1.592  18.043
11676SOL     OW46906   2.789   1.362  16.289
11676SOL    HW146907   2.700   1.367  16.324
11676SOL    HW246908   2.778   1.330  16.199
11677SOL     OW46909   0.093   4.492   7.429
11677SOL    HW146910   0.185   4.496   7.403
11677SOL    HW246911   0.067   4.401   7.411
11678SOL     OW46912   2.311   4.193   5.919
11678SOL    HW146913   2.231   4.165   5.875
11678SOL    HW246914   2.314   4.288   5.904
11679SOL     OW46915   2.554   3.634  17.954
11679SOL    HW146916   2.613   3.587  17.895
11679SOL    HW246917   2.549   3.578  18.032
11680SOL     OW46918   2.316   2.870   8.541
11680SOL    HW146919   2.350   2.838   8.457
11680SOL    HW246920   2.373   2.943   8.564
11681SOL     OW46921   2.416   2.804  18.806
11681SOL    HW146922   2.407   2.774  18.896
11681SOL    HW246923   2.485   2.870  18.809
11682SOL     OW46924   3.449   2.301  20.842
11682SOL    HW146925   3.484   2.366  20.781
11682SOL    HW246926   3.521   2.238  20.853
11683SOL     OW46927   2.806   3.158  16.706
11683SOL    HW146928   2.735   3.119  16.656
11683SOL    HW246929   2.799   3.252  16.690
11684SOL     OW46930   0.713   0.755  16.923
11684SOL    HW146931   0.777   0.687  16.944
11684SOL    HW246932   0.665   0.769  17.004
11685SOL     OW46933   4.224   3.570   1.098
11685SOL    HW146934   4.209   3.612   1.183
11685SOL    HW246935   4.190   3.482   1.109
11686SOL     OW46936   1.489   0.801  18.584
11686SOL    HW146937   1.439   0.823  18.662
11686SOL    HW246938   1.568   0.759  18.617
11687SOL     OW46939   4.076   0.799   5.671
11687SOL    HW146940   4.062   0.715   5.627
11687SOL    HW246941   4.146   0.782   5.734
11688SOL     OW46942   0.650   3.578  21.050
11688SOL    HW146943   0.618   3.547  20.965
11688SOL    HW246944   0.724   3.634  21.029
11689SOL     OW46945   2.824   4.299   1.324
11689SOL    HW146946   2.886   4.321   1.254
11689SOL    HW246947   2.818   4.203   1.322
11690SOL     OW46948   3.283   4.052   4.779
11690SOL    HW146949   3.371   4.047   4.816
11690SOL    HW246950   3.282   3.988   4.708
11691SOL     OW46951   1.163   2.384  14.493
11691SOL    HW146952   1.109   2.421  14.563
11691SOL    HW246953   1.190   2.459  14.441
11692SOL     OW46954   3.528   2.807   3.342
11692SOL    HW146955   3.560   2.884   3.295
11692SOL    HW246956   3.505   2.840   3.429
11693SOL     OW46957   3.716   2.534  13.622
11693SOL    HW146958   3.769   2.481  13.563
11693SOL    HW246959   3.658   2.583  13.564
11694SOL     OW46960   3.406   2.960   6.926
11694SOL    HW146961   3.346   3.006   6.985
11694SOL    HW246962   3.352   2.893   6.885
11695SOL     OW46963   3.684   2.253  19.798
11695SOL    HW146964   3.590   2.234  19.803
11695SOL    HW246965   3.725   2.167  19.787
11696SOL     OW46966   0.694   2.954  20.096
11696SOL    HW146967   0.629   3.024  20.105
11696SOL    HW246968   0.696   2.936  20.002
11697SOL     OW46969   4.773   1.599  14.948
11697SOL    HW146970   4.757   1.608  14.854
11697SOL    HW246971   0.079   1.615  14.958
11698SOL     OW46972   3.138   0.066   6.947
11698SOL    HW146973   3.217   0.031   6.989
11698SOL    HW246974   3.170   0.134   6.888
11699SOL     OW46975   2.479   2.652   1.410
11699SOL    HW146976   2.505   2.561   1.396
11699SOL    HW246977   2.437   2.653   1.496
11700SOL     OW46978   0.971   3.970  13.012
11700SOL    HW146979   1.056   4.013  13.023
11700SOL    HW246980   0.992   3.877  13.003
11701SOL     OW46981   3.381   3.729  16.432
11701SOL    HW146982   3.430   3.657  16.471
11701SOL    HW246983   3.370   3.704  16.340
11702SOL     OW46984   2.348   1.843   1.574
11702SOL    HW146985   2.381   1.798   1.652
11702SOL    HW246986   2.427   1.873   1.529
11703SOL     OW46987   4.717   2.654  17.606
11703SOL    HW146988   4.686   2.742  17.627
11703SOL    HW246989   4.713   2.607  17.689
11704SOL     OW46990   3.053   1.494   0.131
11704SOL    HW146991   3.037   1.400   0.137
11704SOL    HW246992   2.969   1.531   0.105
11705SOL     OW46993   4.446   0.346   6.066
11705SOL    HW146994   4.527   0.395   6.080
11705SOL    HW246995   4.447   0.279   6.134
11706SOL     OW46996   0.955   3.665  17.468
11706SOL    HW146997   1.006   3.587  17.446
11706SOL    HW246998   1.016   3.720  17.516
11707SOL     OW46999   3.555   3.308   0.501
11707SOL    HW147000   3.609   3.233   0.477
11707SOL    HW247001   3.482   3.306   0.439
11708SOL     OW47002   1.443   3.451  21.175
11708SOL    HW147003   1.481   3.371  21.209
11708SOL    HW247004   1.355   3.454  21.213
11709SOL     OW47005   2.568   2.406   1.369
11709SOL    HW147006   2.608   2.427   1.285
11709SOL    HW247007   2.559   2.311   1.368
11710SOL     OW47008   3.309   4.411  16.675
11710SOL    HW147009   3.270   4.328  16.705
11710SOL    HW247010   3.399   4.388  16.653
11711SOL     OW47011   2.573   3.168   0.646
11711SOL    HW147012   2.479   3.185   0.655
11711SOL    HW247013   2.578   3.075   0.622
11712SOL     OW47014   0.082   3.346   5.964
11712SOL    HW147015   0.055   3.362   6.054
11712SOL    HW247016   0.009   3.377   5.911
11713SOL     OW47017   3.313   0.696   1.081
11713SOL    HW147018   3.350   0.672   0.996
11713SOL    HW247019   3.379   0.669   1.145
11714SOL     OW47020   4.462   4.117   3.687
11714SOL    HW147021   4.444   4.060   3.612
11714SOL    HW247022   4.376   4.138   3.723
11715SOL     OW47023   0.994   4.699   4.360
11715SOL    HW147024   0.931   4.653   4.416
11715SOL    HW247025   0.939   4.753   4.303
11716SOL     OW47026   0.123   2.863  17.645
11716SOL    HW147027   0.120   2.932  17.712
11716SOL    HW247028   0.192   2.804  17.675
11717SOL     OW47029   3.589   0.814   5.383
11717SOL    HW147030   3.656   0.870   5.343
11717SOL    HW247031   3.589   0.840   5.476
11718SOL     OW47032   1.231   1.724  19.169
11718SOL    HW147033   1.269   1.785  19.106
11718SOL    HW247034   1.244   1.638  19.129
11719SOL     OW47035   2.285   1.410   4.892
11719SOL    HW147036   2.355   1.376   4.949
11719SOL    HW247037   2.207   1.409   4.947
11720SOL     OW47038   4.410   3.130  16.209
11720SOL    HW147039   4.335   3.113  16.265
11720SOL    HW247040   4.483   3.141  16.270
11721SOL     OW47041   3.939   3.146  19.526
11721SOL    HW147042   3.878   3.093  19.578
11721SOL    HW247043   3.994   3.189  19.591
11722SOL     OW47044   3.925   3.138   2.414
11722SOL    HW147045   3.869   3.065   2.443
11722SOL    HW247046   3.994   3.096   2.363
11723SOL     OW47047   2.981   4.012  15.560
11723SOL    HW147048   3.068   3.995  15.598
11723SOL    HW247049   2.927   3.939  15.589
11724SOL     OW47050   1.477   0.809   0.828
11724SOL    HW147051   1.404   0.866   0.849
11724SOL    HW247052   1.537   0.863   0.777
11725SOL     OW47053   3.099   0.154  18.780
11725SOL    HW147054   3.025   0.141  18.720
11725SOL    HW247055   3.146   0.229  18.745
11726SOL     OW47056   3.171   3.063   2.943
11726SOL    HW147057   3.087   3.018   2.934
11726SOL    HW247058   3.237   2.995   2.930
11727SOL     OW47059   0.138   3.687   8.024
11727SOL    HW147060   0.081   3.610   8.030
11727SOL    HW247061   0.222   3.652   7.994
11728SOL     OW47062   1.665   1.688   0.687
11728SOL    HW147063   1.602   1.636   0.636
11728SOL    HW247064   1.639   1.674   0.778
11729SOL     OW47065   3.336   3.905   5.444
11729SOL    HW147066   3.294   3.991   5.455
11729SOL    HW247067   3.266   3.848   5.415
11730SOL     OW47068   4.479   3.741   1.698
11730SOL    HW147069   4.477   3.828   1.739
11730SOL    HW247070   4.572   3.718   1.695
11731SOL     OW47071   0.498   4.064   6.556
11731SOL    HW147072   0.552   4.128   6.510
11731SOL    HW247073   0.414   4.108   6.568
11732SOL     OW47074   1.880   4.103   2.816
11732SOL    HW147075   1.882   4.026   2.758
11732SOL    HW247076   1.849   4.174   2.761
11733SOL     OW47077   3.605   1.581  15.878
11733SOL    HW147078   3.547   1.654  15.854
11733SOL    HW247079   3.572   1.552  15.963
11734SOL     OW47080   3.235   4.466   7.985
11734SOL    HW147081   3.153   4.472   7.936
11734SOL    HW247082   3.251   4.556   8.015
11735SOL     OW47083   3.230   3.016   4.595
11735SOL    HW147084   3.223   2.939   4.537
11735SOL    HW247085   3.266   3.085   4.539
11736SOL     OW47086   2.151   3.382  20.857
11736SOL    HW147087   2.162   3.393  20.951
11736SOL    HW247088   2.090   3.451  20.831
11737SOL     OW47089   2.688   2.832  18.494
11737SOL    HW147090   2.651   2.791  18.416
11737SOL    HW247091   2.637   2.912  18.505
11738SOL     OW47092   4.577   2.126   3.604
11738SOL    HW147093   4.623   2.174   3.674
11738SOL    HW247094   4.485   2.126   3.632
11739SOL     OW47095   0.901   2.407   3.113
11739SOL    HW147096   0.957   2.453   3.175
11739SOL    HW247097   0.876   2.326   3.159
11740SOL     OW47098   1.196   2.441   5.048
11740SOL    HW147099   1.209   2.347   5.031
11740SOL    HW247100   1.162   2.476   4.966
11741SOL     OW47101   0.757   2.547   3.671
11741SOL    HW147102   0.713   2.577   3.750
11741SOL    HW247103   0.787   2.458   3.692
11742SOL     OW47104   2.287   4.313  19.262
11742SOL    HW147105   2.310   4.233  19.215
11742SOL    HW247106   2.353   4.377  19.235
11743SOL     OW47107   0.223   2.189   5.899
11743SOL    HW147108   0.240   2.282   5.891
11743SOL    HW247109   0.147   2.183   5.958
11744SOL     OW47110   0.737   1.782  17.317
11744SOL    HW147111   0.659   1.735  17.347
11744SOL    HW247112   0.703   1.867  17.287
11745SOL     OW47113   1.908   4.341   2.152
11745SOL    HW147114   1.840   4.308   2.093
11745SOL    HW247115   1.960   4.264   2.174
11746SOL     OW47116   2.003   4.761   2.729
11746SOL    HW147117   1.982   0.031   2.656
11746SOL    HW247118   1.944   0.001   2.799
11747SOL     OW47119   4.178   3.125  16.701
11747SOL    HW147120   4.109   3.068  16.665
11747SOL    HW247121   4.195   3.089  16.788
11748SOL     OW47122   2.374   0.571  18.174
11748SOL    HW147123   2.321   0.530  18.241
11748SOL    HW247124   2.314   0.585  18.101
11749SOL     OW47125   4.469   2.337   5.619
11749SOL    HW147126   4.513   2.318   5.536
11749SOL    HW247127   4.406   2.266   5.629
11750SOL     OW47128   0.811   2.145  13.887
11750SOL    HW147129   0.825   2.054  13.860
11750SOL    HW247130   0.897   2.175  13.915
11751SOL     OW47131   1.984   3.983  16.810
11751SOL    HW147132   1.916   3.915  16.810
11751SOL    HW247133   1.939   4.062  16.841
11752SOL     OW47134   1.034   3.244   1.551
11752SOL    HW147135   1.011   3.318   1.607
11752SOL    HW247136   1.032   3.280   1.462
11753SOL     OW47137   4.088   0.426   3.453
11753SOL    HW147138   4.028   0.487   3.409
11753SOL    HW247139   4.172   0.472   3.451
11754SOL     OW47140   1.318   2.896   2.103
11754SOL    HW147141   1.392   2.936   2.057
11754SOL    HW247142   1.352   2.813   2.136
11755SOL     OW47143   1.475   2.977  20.922
11755SOL    HW147144   1.537   3.049  20.937
11755SOL    HW247145   1.520   2.919  20.861
11756SOL     OW47146   0.329   1.838   0.525
11756SOL    HW147147   0.381   1.757   0.517
11756SOL    HW247148   0.348   1.886   0.445
11757SOL     OW47149   0.095   3.087  20.338
11757SOL    HW147150   0.108   3.029  20.413
11757SOL    HW247151   0.183   3.115  20.314
11758SOL     OW47152   4.190   2.327   3.385
11758SOL    HW147153   4.179   2.399   3.446
11758SOL    HW247154   4.105   2.285   3.380
11759SOL     OW47155   1.503   3.127   4.969
11759SOL    HW147156   1.542   3.053   4.923
11759SOL    HW247157   1.496   3.098   5.060
11760SOL     OW47158   4.047   1.288  20.686
11760SOL    HW147159   4.108   1.333  20.628
11760SOL    HW247160   4.042   1.199  20.651
11761SOL     OW47161   4.756   3.681  16.048
11761SOL    HW147162   4.722   3.605  16.001
11761SOL    HW247163   4.681   3.717  16.094
11762SOL     OW47164   2.327   3.980  20.621
11762SOL    HW147165   2.260   3.924  20.582
11762SOL    HW247166   2.371   4.021  20.547
11763SOL     OW47167   3.219   2.235  18.666
11763SOL    HW147168   3.208   2.300  18.597
11763SOL    HW247169   3.168   2.269  18.739
11764SOL     OW47170   1.963   2.338   2.199
11764SOL    HW147171   2.040   2.298   2.159
11764SOL    HW247172   1.962   2.303   2.288
11765SOL     OW47173   3.130   3.544   6.822
11765SOL    HW147174   3.162   3.479   6.885
11765SOL    HW247175   3.141   3.503   6.736
11766SOL     OW47176   2.355   2.377   4.341
11766SOL    HW147177   2.381   2.284   4.341
11766SOL    HW247178   2.344   2.398   4.248
11767SOL     OW47179   4.165   0.629   2.863
11767SOL    HW147180   4.208   0.700   2.911
11767SOL    HW247181   4.235   0.588   2.813
11768SOL     OW47182   2.568   2.093   3.916
11768SOL    HW147183   2.599   2.128   4.000
11768SOL    HW247184   2.633   2.123   3.853
11769SOL     OW47185   0.149   2.653  19.643
11769SOL    HW147186   0.140   2.722  19.708
11769SOL    HW247187   0.073   2.664  19.586
11770SOL     OW47188   2.026   4.027  20.683
11770SOL    HW147189   1.950   4.082  20.663
11770SOL    HW247190   2.099   4.088  20.689
11771SOL     OW47191   3.783   3.536   4.527
11771SOL    HW147192   3.809   3.564   4.614
11771SOL    HW247193   3.850   3.474   4.500
11772SOL     OW47194   0.149   1.371   6.456
11772SOL    HW147195   0.195   1.345   6.535
11772SOL    HW247196   0.098   1.448   6.482
11773SOL     OW47197   0.465   3.008  18.753
11773SOL    HW147198   0.466   3.103  18.765
11773SOL    HW247199   0.454   2.973  18.841
11774SOL     OW47200   2.564   4.764  14.504
11774SOL    HW147201   2.552   4.670  14.522
11774SOL    HW247202   2.656   4.780  14.524
11775SOL     OW47203   2.247   3.032   4.667
11775SOL    HW147204   2.316   2.985   4.621
11775SOL    HW247205   2.267   3.019   4.760
11776SOL     OW47206   1.222   4.259   1.575
11776SOL    HW147207   1.128   4.264   1.558
11776SOL    HW247208   1.250   4.179   1.530
11777SOL     OW47209   1.091   4.724  17.739
11777SOL    HW147210   1.173   4.765  17.766
11777SOL    HW247211   1.118   4.656  17.677
11778SOL     OW47212   3.027   2.298   3.592
11778SOL    HW147213   3.081   2.376   3.573
11778SOL    HW247214   2.939   2.333   3.604
11779SOL     OW47215   4.148   4.322   1.227
11779SOL    HW147216   4.142   4.251   1.163
11779SOL    HW247217   4.179   4.397   1.177
11780SOL     OW47218   4.375   3.858   7.336
11780SOL    HW147219   4.331   3.942   7.323
11780SOL    HW247220   4.388   3.823   7.248
11781SOL     OW47221   0.977   3.781  16.788
11781SOL    HW147222   0.945   3.693  16.808
11781SOL    HW247223   1.036   3.769  16.714
11782SOL     OW47224   3.431   0.945   1.915
11782SOL    HW147225   3.517   0.986   1.905
11782SOL    HW247226   3.431   0.874   1.850
11783SOL     OW47227   1.591   4.371  20.045
11783SOL    HW147228   1.510   4.410  20.078
11783SOL    HW247229   1.567   4.337  19.959
11784SOL     OW47230   3.777   2.640  20.648
11784SOL    HW147231   3.797   2.720  20.695
11784SOL    HW247232   3.831   2.644  20.569
11785SOL     OW47233   0.256   0.418   0.138
11785SOL    HW147234   0.326   0.415   0.074
11785SOL    HW247235   0.300   0.406   0.222
11786SOL     OW47236   0.312   3.020   3.499
11786SOL    HW147237   0.297   3.092   3.559
11786SOL    HW247238   0.224   2.987   3.479
11787SOL     OW47239   2.122   1.033  15.092
11787SOL    HW147240   2.212   1.065  15.096
11787SOL    HW247241   2.127   0.956  15.036
11788SOL     OW47242   1.827   3.518   4.765
11788SOL    HW147243   1.839   3.429   4.797
11788SOL    HW247244   1.845   3.574   4.840
11789SOL     OW47245   3.708   2.943  17.780
11789SOL    HW147246   3.724   3.015  17.841
11789SOL    HW247247   3.612   2.935  17.778
11790SOL     OW47248   0.647   4.207   0.399
11790SOL    HW147249   0.710   4.193   0.328
11790SOL    HW247250   0.697   4.249   0.468
11791SOL     OW47251   3.119   4.527   9.411
11791SOL    HW147252   3.152   4.536   9.322
11791SOL    HW247253   3.124   4.615   9.448
11792SOL     OW47254   2.918   0.009   8.027
11792SOL    HW147255   2.938   4.775   8.118
11792SOL    HW247256   2.993   0.061   7.997
11793SOL     OW47257   4.785   3.378   4.718
11793SOL    HW147258   0.016   3.460   4.764
11793SOL    HW247259   4.770   3.314   4.787
11794SOL     OW47260   0.115   1.805  16.405
11794SOL    HW147261   0.059   1.847  16.340
11794SOL    HW247262   0.195   1.782  16.357
11795SOL     OW47263   2.687   0.680   7.577
11795SOL    HW147264   2.719   0.595   7.608
11795SOL    HW247265   2.598   0.687   7.614
11796SOL     OW47266   0.983   0.709   0.901
11796SOL    HW147267   0.959   0.738   0.989
11796SOL    HW247268   1.060   0.761   0.879
11797SOL     OW47269   0.748   4.736   9.114
11797SOL    HW147270   0.725   4.786   9.035
11797SOL    HW247271   0.696   4.656   9.108
11798SOL     OW47272   1.047   4.633   9.028
11798SOL    HW147273   1.086   4.679   9.102
11798SOL    HW247274   1.038   4.700   8.960
11799SOL     OW47275   3.809   0.882  10.296
11799SOL    HW147276   3.852   0.947  10.351
11799SOL    HW247277   3.822   0.799  10.342
11800SOL     OW47278   1.831   0.697  10.381
11800SOL    HW147279   1.830   0.779  10.431
11800SOL    HW247280   1.754   0.702  10.324
11801SOL     OW47281   2.633   0.951  10.476
11801SOL    HW147282   2.586   0.900  10.410
11801SOL    HW247283   2.667   0.885  10.537
11802SOL     OW47284   1.890   0.952  10.505
11802SOL    HW147285   1.871   0.933  10.597
11802SOL    HW247286   1.973   1.000  10.508
11803SOL     OW47287   2.859   0.190  10.327
11803SOL    HW147288   2.838   0.255  10.259
11803SOL    HW247289   2.774   0.155  10.353
11804SOL     OW47290   2.269   0.815  11.041
11804SOL    HW147291   2.252   0.829  10.948
11804SOL    HW247292   2.364   0.807  11.048
11805SOL     OW47293   3.238   0.703  11.989
11805SOL    HW147294   3.318   0.697  12.041
11805SOL    HW247295   3.268   0.704  11.898
11806SOL     OW47296   1.854   0.908  11.593
11806SOL    HW147297   1.847   0.971  11.665
11806SOL    HW247298   1.859   0.962  11.514
11807SOL     OW47299   2.827   1.560  12.173
11807SOL    HW147300   2.898   1.497  12.184
11807SOL    HW247301   2.836   1.620  12.247
11808SOL     OW47302   2.137   2.242  12.182
11808SOL    HW147303   2.091   2.259  12.264
11808SOL    HW247304   2.088   2.171  12.141
11809SOL     OW47305   3.619   1.004  12.989
11809SOL    HW147306   3.548   0.958  13.032
11809SOL    HW247307   3.648   1.069  13.053
11810SOL     OW47308   3.478   0.374   9.742
11810SOL    HW147309   3.384   0.365   9.760
11810SOL    HW247310   3.519   0.306   9.795
11811SOL     OW47311   2.638   0.681  13.141
11811SOL    HW147312   2.563   0.690  13.082
11811SOL    HW247313   2.634   0.760  13.196
11812SOL     OW47314   1.895   0.398  11.903
11812SOL    HW147315   1.904   0.337  11.976
11812SOL    HW247316   1.959   0.368  11.839
11813SOL     OW47317   0.557   4.688  11.960
11813SOL    HW147318   0.551   4.613  12.019
11813SOL    HW247319   0.626   4.743  11.998
11814SOL     OW47320   1.372   1.250  11.870
11814SOL    HW147321   1.463   1.256  11.898
11814SOL    HW247322   1.351   1.157  11.877
11815SOL     OW47323   0.747   3.665   6.318
11815SOL    HW147324   0.839   3.674   6.291
11815SOL    HW247325   0.747   3.689   6.411
11816SOL     OW47326   3.471   1.780  16.019
11816SOL    HW147327   3.413   1.710  15.987
11816SOL    HW247328   3.473   1.844  15.948
11817SOL     OW47329   3.897   2.977   4.421
11817SOL    HW147330   3.897   3.007   4.330
11817SOL    HW247331   3.805   2.979   4.447
11818SOL     OW47332   0.424   3.771  18.127
11818SOL    HW147333   0.415   3.857  18.168
11818SOL    HW247334   0.446   3.713  18.200
11819SOL     OW47335   4.473   2.318  20.544
11819SOL    HW147336   4.436   2.341  20.459
11819SOL    HW247337   4.551   2.374  20.551
11820SOL     OW47338   0.648   1.148  20.774
11820SOL    HW147339   0.600   1.075  20.734
11820SOL    HW247340   0.735   1.145  20.733
11821SOL     OW47341   1.925   4.652   6.201
11821SOL    HW147342   1.965   4.604   6.129
11821SOL    HW247343   1.857   4.706   6.160
11822SOL     OW47344   0.402   1.689   1.852
11822SOL    HW147345   0.366   1.662   1.767
11822SOL    HW247346   0.400   1.610   1.905
11823SOL     OW47347   0.012   0.242  10.908
11823SOL    HW147348   0.052   0.279  10.986
11823SOL    HW247349   0.040   0.151  10.907
11824SOL     OW47350   3.713   1.708  13.905
11824SOL    HW147351   3.703   1.798  13.873
11824SOL    HW247352   3.801   1.683  13.877
11825SOL     OW47353   0.107   3.030  15.252
11825SOL    HW147354   0.070   3.118  15.250
11825SOL    HW247355   0.201   3.044  15.261
11826SOL     OW47356   1.665   3.912   6.562
11826SOL    HW147357   1.680   3.849   6.491
11826SOL    HW247358   1.737   3.974   6.555
11827SOL     OW47359   3.343   4.306   0.328
11827SOL    HW147360   3.260   4.336   0.366
11827SOL    HW247361   3.350   4.355   0.246
11828SOL     OW47362   2.188   0.619   0.211
11828SOL    HW147363   2.224   0.611   0.299
11828SOL    HW247364   2.104   0.573   0.215
11829SOL     OW47365   4.480   3.462  16.471
11829SOL    HW147366   4.425   3.385  16.485
11829SOL    HW247367   4.457   3.522  16.542
11830SOL     OW47368   2.648   0.800   2.731
11830SOL    HW147369   2.683   0.855   2.802
11830SOL    HW247370   2.568   0.762   2.767
11831SOL     OW47371   4.035   4.626   1.978
11831SOL    HW147372   4.106   4.673   2.020
11831SOL    HW247373   3.955   4.668   2.012
11832SOL     OW47374   3.074   2.125  16.695
11832SOL    HW147375   3.126   2.104  16.618
11832SOL    HW247376   3.047   2.040  16.730
11833SOL     OW47377   4.341   0.359  17.218
11833SOL    HW147378   4.384   0.363  17.133
11833SOL    HW247379   4.394   0.298  17.269
11834SOL     OW47380   3.314   3.870  18.974
11834SOL    HW147381   3.302   3.832  18.887
11834SOL    HW247382   3.313   3.964  18.960
11835SOL     OW47383   3.193   3.144   1.637
11835SOL    HW147384   3.215   3.233   1.667
11835SOL    HW247385   3.277   3.103   1.619
11836SOL     OW47386   0.066   3.965   2.637
11836SOL    HW147387   0.082   3.901   2.706
11836SOL    HW247388   0.019   3.916   2.570
11837SOL     OW47389   1.754   2.675   4.764
11837SOL    HW147390   1.791   2.628   4.689
11837SOL    HW247391   1.763   2.614   4.837
11838SOL     OW47392   2.683   2.751  18.995
11838SOL    HW147393   2.596   2.711  18.996
11838SOL    HW247394   2.669   2.839  19.032
11839SOL     OW47395   1.595   3.995  19.339
11839SOL    HW147396   1.632   3.931  19.400
11839SOL    HW247397   1.627   3.967  19.253
11840SOL     OW47398   3.374   3.263  14.449
11840SOL    HW147399   3.353   3.257  14.542
11840SOL    HW247400   3.439   3.334  14.443
11841SOL     OW47401   4.680   3.969   4.392
11841SOL    HW147402   4.673   4.061   4.367
11841SOL    HW247403   4.767   3.943   4.362
11842SOL     OW47404   2.767   2.475  21.012
11842SOL    HW147405   2.841   2.535  21.025
11842SOL    HW247406   2.690   2.527  21.037
11843SOL     OW47407   2.028   2.895  15.762
11843SOL    HW147408   1.961   2.867  15.824
11843SOL    HW247409   2.036   2.989  15.775
11844SOL     OW47410   4.168   4.172  17.695
11844SOL    HW147411   4.125   4.219  17.767
11844SOL    HW247412   4.165   4.234  17.621
11845SOL     OW47413   4.472   2.347  20.034
11845SOL    HW147414   4.533   2.277  20.057
11845SOL    HW247415   4.515   2.393  19.962
11846SOL     OW47416   0.649   3.901  16.749
11846SOL    HW147417   0.675   3.856  16.829
11846SOL    HW247418   0.704   3.863  16.681
11847SOL     OW47419   3.082   3.705   2.157
11847SOL    HW147420   2.999   3.716   2.203
11847SOL    HW247421   3.138   3.657   2.218
11848SOL     OW47422   0.181   4.415  17.790
11848SOL    HW147423   0.155   4.429  17.699
11848SOL    HW247424   0.101   4.389  17.835
11849SOL     OW47425   0.980   4.180  17.896
11849SOL    HW147426   0.891   4.144  17.903
11849SOL    HW247427   0.974   4.267  17.935
11850SOL     OW47428   2.766   0.442  19.783
11850SOL    HW147429   2.745   0.536  19.787
11850SOL    HW247430   2.774   0.424  19.689
11851SOL     OW47431   3.683   2.414  16.182
11851SOL    HW147432   3.687   2.381  16.271
11851SOL    HW247433   3.742   2.357  16.132
11852SOL     OW47434   4.403   1.976   3.337
11852SOL    HW147435   4.364   1.984   3.424
11852SOL    HW247436   4.349   2.032   3.281
11853SOL     OW47437   2.862   3.612  12.855
11853SOL    HW147438   2.913   3.691  12.836
11853SOL    HW247439   2.886   3.589  12.944
11854SOL     OW47440   1.463   4.023  15.417
11854SOL    HW147441   1.472   3.963  15.492
11854SOL    HW247442   1.505   3.977  15.344
11855SOL     OW47443   0.897   2.214  21.118
11855SOL    HW147444   0.947   2.289  21.152
11855SOL    HW247445   0.808   2.229  21.148
11856SOL     OW47446   3.473   2.747  20.024
11856SOL    HW147447   3.452   2.678  20.088
11856SOL    HW247448   3.566   2.736  20.008
11857SOL     OW47449   0.525   2.488   5.087
11857SOL    HW147450   0.571   2.414   5.129
11857SOL    HW247451   0.466   2.520   5.155
11858SOL     OW47452   2.399   0.748  20.153
11858SOL    HW147453   2.340   0.719  20.083
11858SOL    HW247454   2.379   0.690  20.227
11859SOL     OW47455   1.084   4.482   4.160
11859SOL    HW147456   1.123   4.554   4.209
11859SOL    HW247457   1.011   4.453   4.214
11860SOL     OW47458   1.239   3.848  18.997
11860SOL    HW147459   1.318   3.861  18.945
11860SOL    HW247460   1.218   3.755  18.986
11861SOL     OW47461   1.877   4.082   6.480
11861SOL    HW147462   1.960   4.047   6.448
11861SOL    HW247463   1.897   4.173   6.503
11862SOL     OW47464   2.177   2.541  17.504
11862SOL    HW147465   2.184   2.617  17.445
11862SOL    HW247466   2.265   2.504  17.505
11863SOL     OW47467   3.678   1.423   5.929
11863SOL    HW147468   3.592   1.384   5.945
11863SOL    HW247469   3.673   1.510   5.969
11864SOL     OW47470   4.196   3.951  17.426
11864SOL    HW147471   4.110   3.971  17.462
11864SOL    HW247472   4.208   3.857  17.444
11865SOL     OW47473   4.099   4.342   1.519
11865SOL    HW147474   4.072   4.254   1.492
11865SOL    HW247475   4.134   4.381   1.440
11866SOL     OW47476   3.778   1.173   6.229
11866SOL    HW147477   3.745   1.111   6.164
11866SOL    HW247478   3.872   1.181   6.209
11867SOL     OW47479   3.940   2.811   7.276
11867SOL    HW147480   4.000   2.841   7.209
11867SOL    HW247481   3.870   2.877   7.277
11868SOL     OW47482   3.849   0.059  16.765
11868SOL    HW147483   3.874   4.761  16.798
11868SOL    HW247484   3.823   0.044  16.674
11869SOL     OW47485   0.236   1.591   4.335
11869SOL    HW147486   0.309   1.606   4.396
11869SOL    HW247487   0.218   1.676   4.296
11870SOL     OW47488   3.113   1.310  17.549
11870SOL    HW147489   3.167   1.279  17.622
11870SOL    HW247490   3.122   1.405  17.552
11871SOL     OW47491   2.311   3.703   5.189
11871SOL    HW147492   2.243   3.735   5.130
11871SOL    HW247493   2.268   3.697   5.275
11872SOL     OW47494   2.612   3.228  14.620
11872SOL    HW147495   2.612   3.136  14.595
11872SOL    HW247496   2.565   3.273  14.549
11873SOL     OW47497   3.456   1.191  20.308
11873SOL    HW147498   3.394   1.167  20.239
11873SOL    HW247499   3.536   1.144  20.287
11874SOL     OW47500   0.766   0.282   2.536
11874SOL    HW147501   0.713   0.341   2.483
11874SOL    HW247502   0.856   0.297   2.508
11875SOL     OW47503   4.101   3.701   8.921
11875SOL    HW147504   4.083   3.777   8.866
11875SOL    HW247505   4.023   3.691   8.975
11876SOL     OW47506   1.420   1.232  18.058
11876SOL    HW147507   1.430   1.293  18.132
11876SOL    HW247508   1.370   1.159  18.094
11877SOL     OW47509   0.663   4.022   7.213
11877SOL    HW147510   0.579   3.983   7.238
11877SOL    HW247511   0.695   4.063   7.294
11878SOL     OW47512   0.106   1.808  17.109
11878SOL    HW147513   0.110   1.877  17.043
11878SOL    HW247514   0.071   1.851  17.186
11879SOL     OW47515   0.339   2.373  20.880
11879SOL    HW147516   0.299   2.292  20.910
11879SOL    HW247517   0.297   2.441  20.933
11880SOL     OW47518   1.377   3.997   1.800
11880SOL    HW147519   1.363   3.980   1.893
11880SOL    HW247520   1.348   3.917   1.756
11881SOL     OW47521   3.587   0.395  17.575
11881SOL    HW147522   3.582   0.403  17.479
11881SOL    HW247523   3.681   0.396  17.594
11882SOL     OW47524   3.263   4.127  18.887
11882SOL    HW147525   3.338   4.158  18.837
11882SOL    HW247526   3.187   4.154  18.834
11883SOL     OW47527   1.632   3.383  19.493
11883SOL    HW147528   1.721   3.353  19.475
11883SOL    HW247529   1.611   3.347  19.579
11884SOL     OW47530   0.517   0.128   2.295
11884SOL    HW147531   0.452   0.173   2.350
11884SOL    HW247532   0.467   0.061   2.249
11885SOL     OW47533   4.222   4.156   3.836
11885SOL    HW147534   4.246   4.227   3.896
11885SOL    HW247535   4.235   4.076   3.887
11886SOL     OW47536   2.378   0.367   1.349
11886SOL    HW147537   2.449   0.321   1.393
11886SOL    HW247538   2.304   0.360   1.409
11887SOL     OW47539   1.657   1.611  17.076
11887SOL    HW147540   1.644   1.576  16.988
11887SOL    HW247541   1.587   1.675  17.087
11888SOL     OW47542   1.902   0.748   2.824
11888SOL    HW147543   1.883   0.673   2.767
11888SOL    HW247544   1.972   0.795   2.779
11889SOL     OW47545   0.011   3.800   0.587
11889SOL    HW147546   4.723   3.751   0.554
11889SOL    HW247547   0.037   3.855   0.514
11890SOL     OW47548   2.428   4.574   0.641
11890SOL    HW147549   2.436   4.644   0.706
11890SOL    HW247550   2.419   4.620   0.558
11891SOL     OW47551   4.424   0.425   6.805
11891SOL    HW147552   4.422   0.342   6.854
11891SOL    HW247553   4.499   0.472   6.840
11892SOL     OW47554   3.486   2.169   6.586
11892SOL    HW147555   3.455   2.255   6.558
11892SOL    HW247556   3.420   2.108   6.553
11893SOL     OW47557   1.697   1.347  16.369
11893SOL    HW147558   1.737   1.298  16.440
11893SOL    HW247559   1.686   1.283  16.299
11894SOL     OW47560   2.230   2.798   0.760
11894SOL    HW147561   2.195   2.783   0.848
11894SOL    HW247562   2.320   2.826   0.774
11895SOL     OW47563   0.409   1.151  19.171
11895SOL    HW147564   0.493   1.105  19.168
11895SOL    HW247565   0.419   1.224  19.109
11896SOL     OW47566   1.461   1.257   8.314
11896SOL    HW147567   1.424   1.269   8.401
11896SOL    HW247568   1.386   1.232   8.259
11897SOL     OW47569   3.570   1.803   7.492
11897SOL    HW147570   3.479   1.819   7.518
11897SOL    HW247571   3.613   1.888   7.502
11898SOL     OW47572   1.014   0.981  15.502
11898SOL    HW147573   1.022   1.069  15.537
11898SOL    HW247574   0.986   0.992  15.411
11899SOL     OW47575   0.443   1.368  19.016
11899SOL    HW147576   0.414   1.431  18.949
11899SOL    HW247577   0.513   1.319  18.973
11900SOL     OW47578   3.272   3.564  17.210
11900SOL    HW147579   3.299   3.472  17.208
11900SOL    HW247580   3.304   3.596  17.294
11901SOL     OW47581   1.886   4.018   3.518
11901SOL    HW147582   1.836   4.099   3.529
11901SOL    HW247583   1.856   3.961   3.589
11902SOL     OW47584   1.657   2.091  12.686
11902SOL    HW147585   1.598   2.048  12.748
11902SOL    HW247586   1.626   2.181  12.683
11903SOL     OW47587   3.024   3.006   2.345
11903SOL    HW147588   3.030   3.038   2.435
11903SOL    HW247589   3.083   3.061   2.295
11904SOL     OW47590   4.427   0.141   6.498
11904SOL    HW147591   4.349   0.192   6.521
11904SOL    HW247592   4.405   0.099   6.415
11905SOL     OW47593   1.711   0.063   6.060
11905SOL    HW147594   1.701   0.119   5.983
11905SOL    HW247595   1.630   0.011   6.062
11906SOL     OW47596   0.476   0.676  19.417
11906SOL    HW147597   0.491   0.751  19.475
11906SOL    HW247598   0.503   0.601  19.469
11907SOL     OW47599   3.422   4.206   0.592
11907SOL    HW147600   3.332   4.205   0.623
11907SOL    HW247601   3.415   4.233   0.500
11908SOL     OW47602   4.584   2.034   1.866
11908SOL    HW147603   4.550   2.021   1.955
11908SOL    HW247604   4.674   2.002   1.870
11909SOL     OW47605   2.089   1.330   0.387
11909SOL    HW147606   2.183   1.348   0.391
11909SOL    HW247607   2.054   1.367   0.468
11910SOL     OW47608   4.356   1.814  20.643
11910SOL    HW147609   4.412   1.774  20.710
11910SOL    HW247610   4.344   1.904  20.673
11911SOL     OW47611   3.391   1.548   1.884
11911SOL    HW147612   3.425   1.482   1.822
11911SOL    HW247613   3.396   1.630   1.836
11912SOL     OW47614   0.193   0.530  16.976
11912SOL    HW147615   0.177   0.580  17.056
11912SOL    HW247616   0.271   0.570  16.937
11913SOL     OW47617   4.110   3.420  15.377
11913SOL    HW147618   4.191   3.374  15.353
11913SOL    HW247619   4.114   3.503  15.329
11914SOL     OW47620   1.288   1.921  19.736
11914SOL    HW147621   1.193   1.919  19.749
11914SOL    HW247622   1.322   1.955  19.819
11915SOL     OW47623   3.513   4.437   5.157
11915SOL    HW147624   3.460   4.501   5.205
11915SOL    HW247625   3.520   4.362   5.217
11916SOL     OW47626   1.560   2.602  19.485
11916SOL    HW147627   1.546   2.695  19.465
11916SOL    HW247628   1.482   2.558  19.452
11917SOL     OW47629   2.727   2.520   1.858
11917SOL    HW147630   2.725   2.564   1.943
11917SOL    HW247631   2.737   2.591   1.795
11918SOL     OW47632   4.619   0.324   3.755
11918SOL    HW147633   4.613   0.283   3.841
11918SOL    HW247634   4.607   0.251   3.693
11919SOL     OW47635   4.389   0.373  15.017
11919SOL    HW147636   4.473   0.328  15.019
11919SOL    HW247637   4.410   0.464  14.994
11920SOL     OW47638   1.011   2.721   3.757
11920SOL    HW147639   0.961   2.803   3.765
11920SOL    HW247640   0.949   2.660   3.718
11921SOL     OW47641   2.785   1.638  19.246
11921SOL    HW147642   2.874   1.648  19.281
11921SOL    HW247643   2.728   1.673  19.315
11922SOL     OW47644   3.181   2.772  18.099
11922SOL    HW147645   3.109   2.727  18.143
11922SOL    HW247646   3.147   2.790  18.011
11923SOL     OW47647   2.684   0.025   0.314
11923SOL    HW147648   2.713   0.102   0.363
11923SOL    HW247649   2.658   0.059   0.229
11924SOL     OW47650   1.673   2.397   3.776
11924SOL    HW147651   1.672   2.310   3.737
11924SOL    HW247652   1.758   2.434   3.751
11925SOL     OW47653   2.658   2.889   1.065
11925SOL    HW147654   2.622   2.976   1.083
11925SOL    HW247655   2.730   2.879   1.127
11926SOL     OW47656   2.048   2.154   1.721
11926SOL    HW147657   2.143   2.152   1.709
11926SOL    HW247658   2.012   2.106   1.647
11927SOL     OW47659   0.051   4.476   6.682
11927SOL    HW147660   0.119   4.498   6.745
11927SOL    HW247661   4.758   4.473   6.733
11928SOL     OW47662   4.571   2.793  19.205
11928SOL    HW147663   4.488   2.814  19.162
11928SOL    HW247664   4.545   2.745  19.284
11929SOL     OW47665   1.126   3.093  20.526
11929SOL    HW147666   1.213   3.077  20.490
11929SOL    HW247667   1.136   3.081  20.620
11930SOL     OW47668   0.331   4.746  15.786
11930SOL    HW147669   0.265   0.026  15.806
11930SOL    HW247670   0.413   4.781  15.821
11931SOL     OW47671   1.647   1.893   3.462
11931SOL    HW147672   1.587   1.845   3.405
11931SOL    HW247673   1.709   1.826   3.492
11932SOL     OW47674   0.617   3.728  13.744
11932SOL    HW147675   0.578   3.690  13.823
11932SOL    HW247676   0.644   3.652  13.692
11933SOL     OW47677   1.570   0.800  19.842
11933SOL    HW147678   1.602   0.890  19.845
11933SOL    HW247679   1.489   0.806  19.791
11934SOL     OW47680   1.025   3.354  17.710
11934SOL    HW147681   1.039   3.298  17.634
11934SOL    HW247682   0.992   3.436  17.674
11935SOL     OW47683   1.298   4.280   2.753
11935SOL    HW147684   1.344   4.327   2.684
11935SOL    HW247685   1.328   4.189   2.745
11936SOL     OW47686   3.179   3.970   0.545
11936SOL    HW147687   3.250   3.914   0.578
11936SOL    HW247688   3.102   3.942   0.593
11937SOL     OW47689   3.459   0.859   0.254
11937SOL    HW147690   3.406   0.779   0.247
11937SOL    HW247691   3.548   0.827   0.273
11938SOL     OW47692   3.890   1.245  17.969
11938SOL    HW147693   3.818   1.306  17.985
11938SOL    HW247694   3.916   1.217  18.057
11939SOL     OW47695   0.220   1.864   3.929
11939SOL    HW147696   0.230   1.947   3.883
11939SOL    HW247697   0.157   1.815   3.876
11940SOL     OW47698   1.218   1.080  18.531
11940SOL    HW147699   1.221   1.006  18.471
11940SOL    HW247700   1.158   1.142  18.490
11941SOL     OW47701   2.135   0.297   0.583
11941SOL    HW147702   2.198   0.308   0.512
11941SOL    HW247703   2.076   0.371   0.575
11942SOL     OW47704   1.708   1.570   7.465
11942SOL    HW147705   1.736   1.594   7.553
11942SOL    HW247706   1.629   1.621   7.450
11943SOL     OW47707   1.323   4.315   1.176
11943SOL    HW147708   1.409   4.314   1.218
11943SOL    HW247709   1.281   4.393   1.210
11944SOL     OW47710   1.720   3.730  15.523
11944SOL    HW147711   1.770   3.777  15.590
11944SOL    HW247712   1.631   3.725  15.558
11945SOL     OW47713   1.911   1.354   4.483
11945SOL    HW147714   1.842   1.304   4.524
11945SOL    HW247715   1.907   1.440   4.525
11946SOL     OW47716   1.634   3.585   6.031
11946SOL    HW147717   1.586   3.604   6.112
11946SOL    HW247718   1.588   3.634   5.964
11947SOL     OW47719   1.227   3.058   1.623
11947SOL    HW147720   1.300   3.118   1.638
11947SOL    HW247721   1.151   3.115   1.614
11948SOL     OW47722   4.082   1.551   2.700
11948SOL    HW147723   4.018   1.482   2.685
11948SOL    HW247724   4.081   1.604   2.620
11949SOL     OW47725   0.741   3.544   3.870
11949SOL    HW147726   0.822   3.531   3.919
11949SOL    HW247727   0.764   3.608   3.803
11950SOL     OW47728   3.714   4.625   4.729
11950SOL    HW147729   3.779   4.593   4.791
11950SOL    HW247730   3.666   4.693   4.776
11951SOL     OW47731   0.975   1.776  16.677
11951SOL    HW147732   1.013   1.738  16.756
11951SOL    HW247733   1.046   1.826  16.638
11952SOL     OW47734   2.655   3.479  14.924
11952SOL    HW147735   2.726   3.539  14.947
11952SOL    HW247736   2.605   3.526  14.857
11953SOL     OW47737   0.581   0.013   4.759
11953SOL    HW147738   0.628   0.067   4.696
11953SOL    HW247739   0.488   0.028   4.738
11954SOL     OW47740   0.179   4.022  16.365
11954SOL    HW147741   0.270   4.015  16.396
11954SOL    HW247742   0.167   3.946  16.309
11955SOL     OW47743   2.237   3.737   8.302
11955SOL    HW147744   2.197   3.722   8.387
11955SOL    HW247745   2.270   3.651   8.275
11956SOL     OW47746   1.903   3.745   6.832
11956SOL    HW147747   1.980   3.700   6.867
11956SOL    HW247748   1.931   3.778   6.747
11957SOL     OW47749   1.522   1.060  19.587
11957SOL    HW147750   1.614   1.039  19.570
11957SOL    HW247751   1.484   0.978  19.617
11958SOL     OW47752   4.736   2.628   5.466
11958SOL    HW147753   4.742   2.650   5.373
11958SOL    HW247754   0.035   2.594   5.488
11959SOL     OW47755   0.172   3.474  18.419
11959SOL    HW147756   0.249   3.523  18.449
11959SOL    HW247757   0.100   3.536  18.427
11960SOL     OW47758   4.327   1.163  20.145
11960SOL    HW147759   4.325   1.220  20.068
11960SOL    HW247760   4.378   1.087  20.119
11961SOL     OW47761   4.075   1.898  20.353
11961SOL    HW147762   4.033   1.821  20.315
11961SOL    HW247763   4.031   1.910  20.438
11962SOL     OW47764   3.018   2.153  19.199
11962SOL    HW147765   2.978   2.238  19.220
11962SOL    HW247766   3.004   2.100  19.277
11963SOL     OW47767   2.563   2.259   5.069
11963SOL    HW147768   2.501   2.245   5.141
11963SOL    HW247769   2.508   2.278   4.993
11964SOL     OW47770   0.179   0.073  12.370
11964SOL    HW147771   0.264   0.043  12.402
11964SOL    HW247772   0.153   0.008  12.305
11965SOL     OW47773   1.762   2.658  20.633
11965SOL    HW147774   1.779   2.645  20.540
11965SOL    HW247775   1.838   2.622  20.678
11966SOL     OW47776   2.549   2.256   2.098
11966SOL    HW147777   2.482   2.303   2.048
11966SOL    HW247778   2.583   2.321   2.159
11967SOL     OW47779   2.524   4.760   7.271
11967SOL    HW147780   2.430   4.746   7.259
11967SOL    HW247781   2.558   4.773   7.182
11968SOL     OW47782   2.045   2.562   3.847
11968SOL    HW147783   2.026   2.617   3.923
11968SOL    HW247784   2.077   2.480   3.885
11969SOL     OW47785   0.876   0.171   0.712
11969SOL    HW147786   0.912   0.085   0.731
11969SOL    HW247787   0.885   0.219   0.795
11970SOL     OW47788   3.737   0.844   0.758
11970SOL    HW147789   3.707   0.778   0.695
11970SOL    HW247790   3.776   0.793   0.829
11971SOL     OW47791   2.740   2.161  17.319
11971SOL    HW147792   2.671   2.120  17.267
11971SOL    HW247793   2.758   2.098  17.389
11972SOL     OW47794   2.479   4.670   6.032
11972SOL    HW147795   2.431   4.736   5.982
11972SOL    HW247796   2.567   4.672   5.995
11973SOL     OW47797   1.794   3.384  20.255
11973SOL    HW147798   1.698   3.387  20.248
11973SOL    HW247799   1.825   3.438  20.182
11974SOL     OW47800   3.438   1.304  18.330
11974SOL    HW147801   3.483   1.388  18.320
11974SOL    HW247802   3.470   1.269  18.413
11975SOL     OW47803   3.917   4.429   6.272
11975SOL    HW147804   3.880   4.439   6.184
11975SOL    HW247805   4.007   4.399   6.258
11976SOL     OW47806   1.798   2.780  19.993
11976SOL    HW147807   1.893   2.771  19.992
11976SOL    HW247808   1.777   2.800  20.084
11977SOL     OW47809   1.557   0.915   6.414
11977SOL    HW147810   1.471   0.886   6.383
11977SOL    HW247811   1.586   0.978   6.348
11978SOL     OW47812   1.270   3.655  12.794
11978SOL    HW147813   1.228   3.648  12.709
11978SOL    HW247814   1.261   3.568  12.833
11979SOL     OW47815   1.038   2.335  20.591
11979SOL    HW147816   0.970   2.318  20.527
11979SOL    HW247817   0.991   2.356  20.672
11980SOL     OW47818   3.562   4.760   4.347
11980SOL    HW147819   3.488   4.743   4.405
11980SOL    HW247820   3.602   0.052   4.381
11981SOL     OW47821   0.315   0.531  20.727
11981SOL    HW147822   0.335   0.443  20.758
11981SOL    HW247823   0.351   0.533  20.638
11982SOL     OW47824   2.984   2.179  17.221
11982SOL    HW147825   3.011   2.256  17.171
11982SOL    HW247826   2.894   2.198  17.247
11983SOL     OW47827   2.863   0.065  20.261
11983SOL    HW147828   2.954   0.089  20.277
11983SOL    HW247829   2.835   0.122  20.189
11984SOL     OW47830   2.937   4.721   0.760
11984SOL    HW147831   3.000   4.776   0.714
11984SOL    HW247832   2.852   4.759   0.738
11985SOL     OW47833   1.967   2.581  16.946
11985SOL    HW147834   1.910   2.646  16.904
11985SOL    HW247835   1.963   2.603  17.039
11986SOL     OW47836   3.772   1.528  16.375
11986SOL    HW147837   3.862   1.504  16.352
11986SOL    HW247838   3.782   1.594  16.444
11987SOL     OW47839   2.622   1.875   1.182
11987SOL    HW147840   2.627   1.786   1.149
11987SOL    HW247841   2.693   1.921   1.137
11988SOL     OW47842   4.362   2.911  15.809
11988SOL    HW147843   4.267   2.922  15.799
11988SOL    HW247844   4.377   2.819  15.788
11989SOL     OW47845   1.646   2.805   7.306
11989SOL    HW147846   1.568   2.777   7.353
11989SOL    HW247847   1.626   2.789   7.214
11990SOL     OW47848   4.279   1.522  16.539
11990SOL    HW147849   4.317   1.528  16.451
11990SOL    HW247850   4.322   1.592  16.588
11991SOL     OW47851   1.516   3.447   2.055
11991SOL    HW147852   1.605   3.468   2.085
11991SOL    HW247853   1.514   3.351   2.052
11992SOL     OW47854   3.300   3.251   5.595
11992SOL    HW147855   3.353   3.181   5.557
11992SOL    HW247856   3.218   3.207   5.620
11993SOL     OW47857   3.306   3.851   7.754
11993SOL    HW147858   3.294   3.898   7.672
11993SOL    HW247859   3.285   3.914   7.823
11994SOL     OW47860   0.410   1.846  15.124
11994SOL    HW147861   0.343   1.904  15.088
11994SOL    HW247862   0.380   1.827  15.213
11995SOL     OW47863   2.804   2.853   2.311
11995SOL    HW147864   2.784   2.835   2.402
11995SOL    HW247865   2.884   2.906   2.314
11996SOL     OW47866   3.036   2.049   0.266
11996SOL    HW147867   3.081   2.015   0.344
11996SOL    HW247868   3.058   2.142   0.265
11997SOL     OW47869   2.177   0.571  16.578
11997SOL    HW147870   2.180   0.475  16.589
11997SOL    HW247871   2.261   0.593  16.539
11998SOL     OW47872   1.321   1.493   6.596
11998SOL    HW147873   1.276   1.410   6.579
11998SOL    HW247874   1.344   1.526   6.509
11999SOL     OW47875   0.086   0.124  21.101
11999SOL    HW147876   0.060   0.203  21.053
11999SOL    HW247877   0.066   0.145  21.192
12000SOL     OW47878   3.720   3.878  16.176
12000SOL    HW147879   3.782   3.818  16.217
12000SOL    HW247880   3.746   3.965  16.206
12001SOL     OW47881   0.362   2.923   6.145
12001SOL    HW147882   0.357   3.002   6.092
12001SOL    HW247883   0.344   2.952   6.234
12002SOL     OW47884   2.427   2.290   2.760
12002SOL    HW147885   2.384   2.286   2.845
12002SOL    HW247886   2.515   2.257   2.775
12003SOL     OW47887   3.128   3.900  19.232
12003SOL    HW147888   3.063   3.949  19.181
12003SOL    HW247889   3.189   3.867  19.166
12004SOL     OW47890   1.604   2.816   0.605
12004SOL    HW147891   1.627   2.867   0.527
12004SOL    HW247892   1.611   2.725   0.577
12005SOL     OW47893   1.357   3.896  18.753
12005SOL    HW147894   1.313   3.826  18.704
12005SOL    HW247895   1.450   3.885  18.730
12006SOL     OW47896   4.317   3.302  18.313
12006SOL    HW147897   4.287   3.325  18.225
12006SOL    HW247898   4.411   3.322  18.312
12007SOL     OW47899   3.983   0.699   6.155
12007SOL    HW147900   4.077   0.696   6.139
12007SOL    HW247901   3.973   0.672   6.246
12008SOL     OW47902   1.552   0.906   3.134
12008SOL    HW147903   1.510   0.870   3.212
12008SOL    HW247904   1.620   0.842   3.113
12009SOL     OW47905   3.340   1.070  19.463
12009SOL    HW147906   3.319   0.977  19.467
12009SOL    HW247907   3.258   1.112  19.437
12010SOL     OW47908   0.859   0.009  13.653
12010SOL    HW147909   0.898   0.045  13.573
12010SOL    HW247910   0.849   0.085  13.710
12011SOL     OW47911   2.848   0.471   0.349
12011SOL    HW147912   2.869   0.561   0.374
12011SOL    HW247913   2.827   0.476   0.256
12012SOL     OW47914   1.812   3.395  16.413
12012SOL    HW147915   1.901   3.379  16.446
12012SOL    HW247916   1.795   3.487  16.434
12013SOL     OW47917   2.423   0.097  17.792
12013SOL    HW147918   2.512   0.129  17.805
12013SOL    HW247919   2.374   0.173  17.761
12014SOL     OW47920   4.598   4.308  18.957
12014SOL    HW147921   4.543   4.361  18.900
12014SOL    HW247922   4.559   4.318  19.044
12015SOL     OW47923   0.872   2.706   6.234
12015SOL    HW147924   0.826   2.675   6.312
12015SOL    HW247925   0.810   2.766   6.192
12016SOL     OW47926   1.328   3.536   5.610
12016SOL    HW147927   1.354   3.485   5.533
12016SOL    HW247928   1.235   3.516   5.621
12017SOL     OW47929   2.847   0.260   4.508
12017SOL    HW147930   2.874   0.183   4.459
12017SOL    HW247931   2.801   0.225   4.585
12018SOL     OW47932   3.860   1.526   4.191
12018SOL    HW147933   3.788   1.587   4.206
12018SOL    HW247934   3.817   1.441   4.180
12019SOL     OW47935   1.865   0.117  14.735
12019SOL    HW147936   1.886   0.057  14.663
12019SOL    HW247937   1.889   0.069  14.814
12020SOL     OW47938   0.730   1.290   1.217
12020SOL    HW147939   0.770   1.338   1.143
12020SOL    HW247940   0.636   1.291   1.198
12021SOL     OW47941   0.083   3.579  18.989
12021SOL    HW147942   4.778   3.573  18.966
12021SOL    HW247943   0.085   3.563  19.084
12022SOL     OW47944   3.701   1.465  15.435
12022SOL    HW147945   3.753   1.466  15.515
12022SOL    HW247946   3.617   1.427  15.461
12023SOL     OW47947   3.416   1.900   4.352
12023SOL    HW147948   3.348   1.917   4.417
12023SOL    HW247949   3.486   1.961   4.374
12024SOL     OW47950   3.334   3.482   4.432
12024SOL    HW147951   3.320   3.533   4.353
12024SOL    HW247952   3.316   3.543   4.504
12025SOL     OW47953   1.360   4.028   3.295
12025SOL    HW147954   1.410   4.100   3.335
12025SOL    HW247955   1.338   4.059   3.208
12026SOL     OW47956   4.611   0.671  18.852
12026SOL    HW147957   4.637   0.760  18.875
12026SOL    HW247958   4.644   0.617  18.924
12027SOL     OW47959   1.810   1.118   5.663
12027SOL    HW147960   1.837   1.165   5.742
12027SOL    HW247961   1.718   1.138   5.652
12028SOL     OW47962   0.192   2.397  18.976
12028SOL    HW147963   0.257   2.371  19.042
12028SOL    HW247964   0.240   2.454  18.916
12029SOL     OW47965   0.340   0.734  16.061
12029SOL    HW147966   0.404   0.689  16.005
12029SOL    HW247967   0.272   0.763  16.001
12030SOL     OW47968   3.790   0.913  20.618
12030SOL    HW147969   3.804   0.819  20.624
12030SOL    HW247970   3.727   0.932  20.688
12031SOL     OW47971   1.160   3.079  20.792
12031SOL    HW147972   1.230   3.132  20.829
12031SOL    HW247973   1.090   3.082  20.856
12032SOL     OW47974   4.264   0.550  19.247
12032SOL    HW147975   4.269   0.645  19.237
12032SOL    HW247976   4.349   0.518  19.218
12033SOL     OW47977   0.538   4.268  16.745
12033SOL    HW147978   0.599   4.219  16.801
12033SOL    HW247979   0.551   4.232  16.658
12034SOL     OW47980   4.389   4.741  15.444
12034SOL    HW147981   4.413   0.046  15.441
12034SOL    HW247982   4.313   4.739  15.502
12035SOL     OW47983   4.198   2.106  16.971
12035SOL    HW147984   4.135   2.035  16.962
12035SOL    HW247985   4.278   2.064  17.003
12036SOL     OW47986   0.982   3.519   1.655
12036SOL    HW147987   0.891   3.546   1.639
12036SOL    HW247988   1.034   3.579   1.601
12037SOL     OW47989   4.448   3.992  20.559
12037SOL    HW147990   4.418   4.063  20.617
12037SOL    HW247991   4.508   3.941  20.613
12038SOL     OW47992   0.190   4.201   2.005
12038SOL    HW147993   0.262   4.253   1.968
12038SOL    HW247994   0.158   4.252   2.078
12039SOL     OW47995   3.670   1.642  17.347
12039SOL    HW147996   3.689   1.670  17.436
12039SOL    HW247997   3.726   1.566  17.332
12040SOL     OW47998   0.596   4.194  16.458
12040SOL    HW147999   0.672   4.251  16.457
12040SOL    HW248000   0.565   4.192  16.367
12041SOL     OW48001   4.345   2.758  15.120
12041SOL    HW148002   4.249   2.767  15.117
12041SOL    HW248003   4.367   2.759  15.213
12042SOL     OW48004   1.636   2.994   0.406
12042SOL    HW148005   1.593   3.079   0.408
12042SOL    HW248006   1.643   2.972   0.313
12043SOL     OW48007   1.623   1.353   2.314
12043SOL    HW148008   1.600   1.442   2.286
12043SOL    HW248009   1.550   1.328   2.372
12044SOL     OW48010   3.861   2.189  18.039
12044SOL    HW148011   3.845   2.096  18.028
12044SOL    HW248012   3.775   2.226  18.058
12045SOL     OW48013   0.017   3.593   4.868
12045SOL    HW148014   4.740   3.652   4.908
12045SOL    HW248015   0.078   3.652   4.824
12046SOL     OW48016   4.117   1.812  12.328
12046SOL    HW148017   4.030   1.847  12.347
12046SOL    HW248018   4.130   1.743  12.393
12047SOL     OW48019   3.193   2.761  17.525
12047SOL    HW148020   3.117   2.792  17.575
12047SOL    HW248021   3.156   2.698  17.463
12048SOL     OW48022   2.691   4.281  20.962
12048SOL    HW148023   2.624   4.240  21.016
12048SOL    HW248024   2.713   4.214  20.897
12049SOL     OW48025   0.751   0.903   7.447
12049SOL    HW148026   0.814   0.868   7.385
12049SOL    HW248027   0.673   0.848   7.435
12050SOL     OW48028   1.495   3.340  18.408
12050SOL    HW148029   1.502   3.289  18.327
12050SOL    HW248030   1.583   3.338  18.445
12051SOL     OW48031   4.541   3.884   0.283
12051SOL    HW148032   4.465   3.926   0.240
12051SOL    HW248033   4.613   3.946   0.270
12052SOL     OW48034   3.836   2.787  15.265
12052SOL    HW148035   3.795   2.742  15.339
12052SOL    HW248036   3.768   2.790  15.198
12053SOL     OW48037   4.290   1.929  15.526
12053SOL    HW148038   4.350   1.990  15.485
12053SOL    HW248039   4.204   1.950  15.488
12054SOL     OW48040   3.071   4.290  16.377
12054SOL    HW148041   3.134   4.247  16.435
12054SOL    HW248042   3.117   4.366  16.344
12055SOL     OW48043   2.844   3.289  19.011
12055SOL    HW148044   2.868   3.354  18.946
12055SOL    HW248045   2.748   3.290  19.012
12056SOL     OW48046   4.535   1.963  18.678
12056SOL    HW148047   4.489   1.897  18.730
12056SOL    HW248048   4.465   2.006  18.628
12057SOL     OW48049   2.190   2.341   0.768
12057SOL    HW148050   2.181   2.260   0.717
12057SOL    HW248051   2.247   2.317   0.841
12058SOL     OW48052   3.324   0.157   3.464
12058SOL    HW148053   3.366   0.118   3.388
12058SOL    HW248054   3.303   0.246   3.435
12059SOL     OW48055   3.217   2.334   7.491
12059SOL    HW148056   3.312   2.331   7.493
12059SOL    HW248057   3.191   2.273   7.422
12060SOL     OW48058   0.237   0.706  19.320
12060SOL    HW148059   0.236   0.799  19.299
12060SOL    HW248060   0.323   0.691  19.359
12061SOL     OW48061   4.198   2.121  19.814
12061SOL    HW148062   4.205   2.040  19.864
12061SOL    HW248063   4.254   2.108  19.738
12062SOL     OW48064   1.390   1.675   1.020
12062SOL    HW148065   1.338   1.709   0.948
12062SOL    HW248066   1.345   1.706   1.099
12063SOL     OW48067   1.760   4.546  12.034
12063SOL    HW148068   1.687   4.588  11.989
12063SOL    HW248069   1.838   4.584  11.992
12064SOL     OW48070   3.245   2.544  15.181
12064SOL    HW148071   3.281   2.466  15.224
12064SOL    HW248072   3.206   2.595  15.252
12065SOL     OW48073   0.059   2.342  15.637
12065SOL    HW148074   0.090   2.273  15.696
12065SOL    HW248075   0.032   2.294  15.558
12066SOL     OW48076   0.167   4.125   4.656
12066SOL    HW148077   0.122   4.207   4.675
12066SOL    HW248078   0.120   4.060   4.708
12067SOL     OW48079   2.867   4.150   3.657
12067SOL    HW148080   2.795   4.119   3.602
12067SOL    HW248081   2.922   4.073   3.670
12068SOL     OW48082   3.323   1.382   3.951
12068SOL    HW148083   3.235   1.411   3.928
12068SOL    HW248084   3.313   1.338   4.035
12069SOL     OW48085   0.003   3.169   4.883
12069SOL    HW148086   0.075   3.111   4.860
12069SOL    HW248087   4.717   3.137   4.832
12070SOL     OW48088   0.193   4.522   1.367
12070SOL    HW148089   0.196   4.565   1.282
12070SOL    HW248090   0.256   4.450   1.361
12071SOL     OW48091   1.320   0.987  18.180
12071SOL    HW148092   1.285   0.920  18.239
12071SOL    HW248093   1.394   0.945  18.137
12072SOL     OW48094   3.391   0.387  16.280
12072SOL    HW148095   3.461   0.334  16.241
12072SOL    HW248096   3.372   0.344  16.364
12073SOL     OW48097   3.693   2.245  17.062
12073SOL    HW148098   3.665   2.154  17.067
12073SOL    HW248099   3.690   2.266  16.969
12074SOL     OW48100   2.586   4.513  18.455
12074SOL    HW148101   2.504   4.561  18.465
12074SOL    HW248102   2.640   4.543  18.528
12075SOL     OW48103   3.315   1.952   5.878
12075SOL    HW148104   3.298   1.909   5.794
12075SOL    HW248105   3.405   1.929   5.899
12076SOL     OW48106   0.542   3.853   4.883
12076SOL    HW148107   0.477   3.900   4.935
12076SOL    HW248108   0.519   3.761   4.895
12077SOL     OW48109   4.762   0.649   4.845
12077SOL    HW148110   4.677   0.675   4.880
12077SOL    HW248111   4.773   0.557   4.870
12078SOL     OW48112   4.404   0.688  20.430
12078SOL    HW148113   4.485   0.678  20.481
12078SOL    HW248114   4.394   0.604  20.385
12079SOL     OW48115   2.316   3.059  19.625
12079SOL    HW148116   2.374   3.006  19.571
12079SOL    HW248117   2.374   3.123  19.666
12080SOL     OW48118   2.157   4.689   0.463
12080SOL    HW148119   2.252   4.701   0.466
12080SOL    HW248120   2.130   4.730   0.380
12081SOL     OW48121   4.370   3.969   4.265
12081SOL    HW148122   4.389   3.879   4.291
12081SOL    HW248123   4.345   4.013   4.346
12082SOL     OW48124   0.958   1.843  17.594
12082SOL    HW148125   1.036   1.818  17.545
12082SOL    HW248126   0.885   1.808  17.544
12083SOL     OW48127   4.007   1.874  18.266
12083SOL    HW148128   3.991   1.959  18.307
12083SOL    HW248129   3.920   1.839  18.247
12084SOL     OW48130   4.130   3.400  16.555
12084SOL    HW148131   4.117   3.367  16.644
12084SOL    HW248132   4.216   3.366  16.529
12085SOL     OW48133   3.899   0.278  15.865
12085SOL    HW148134   3.919   0.287  15.772
12085SOL    HW248135   3.934   0.359  15.904
12086SOL     OW48136   2.689   0.751  18.790
12086SOL    HW148137   2.664   0.832  18.746
12086SOL    HW248138   2.611   0.696  18.787
12087SOL     OW48139   3.900   1.438  21.081
12087SOL    HW148140   3.918   1.360  21.030
12087SOL    HW248141   3.952   1.507  21.039
12088K        K48142   1.643   4.753   2.343
12089CL      CL48143   2.259   1.044   1.637
   4.78761   4.78761  21.24800
