Membrane in water t=   0.00000 step= 0
64746
    1TCq1    O1    1   3.483   1.012  11.757
    1TCq1    C1    2   3.388   0.999  11.850
    1TCq1    O2    3   3.387   1.052  11.960
    1TCq1    C2    4   3.318   0.878  11.827
    1TCq1    C3    5   3.271   0.846  11.703
    1TCq1    C4    6   3.174   0.749  11.687
    1TCq1    C5    7   3.127   0.690  11.799
    1TCq1    C6    8   3.172   0.724  11.923
    1TCq1    C7    9   3.276   0.812  11.944
    1TCq1    C8   10   3.165   0.626  12.032
    1TCq1    O4   11   3.058   0.574  12.063
    1TCq1    C9   12   3.136   0.702  11.558
    1TCq1    O5   13   3.183   0.770  11.461
    1TCq1    O6   14   3.051   0.611  11.553
    1TCq1    H1   15   3.466   0.966  11.672
    1TCq1    H2   16   3.298   0.909  11.619
    1TCq1    H3   17   3.063   0.604  11.784
    1TCq1    H4   18   3.308   0.845  12.042
    2MPD2     C   19   3.448   0.379  12.383
    2MPD2    C1   20   3.318   0.358  12.345
    2MPD2    C2   21   3.257   0.436  12.250
    2MPD2    C3   22   3.338   0.527  12.190
    2MPD2    C4   23   3.470   0.543  12.226
    2MPD2    C5   24   3.525   0.476  12.330
    2MPD2     H   25   3.155   0.415  12.219
    2MPD2    H1   26   3.528   0.613  12.167
    2MPD2    H2   27   3.485   0.314  12.461
    2MPD2    H3   28   3.624   0.501  12.366
    2MPD2     N   29   3.296   0.611  12.087
    2MPD2    H5   30   3.364   0.679  12.057
    2MPD2    N1   31   3.246   0.246  12.401
    2MPD2    H7   32   3.145   0.244  12.388
    3TCq1    O1   33   3.177   1.379  10.658
    3TCq1    C1   34   3.069   1.346  10.586
    3TCq1    O2   35   3.075   1.292  10.475
    3TCq1    C2   36   2.949   1.405  10.640
    3TCq1    C3   37   2.880   1.492  10.564
    3TCq1    C4   38   2.773   1.557  10.618
    3TCq1    C5   39   2.740   1.532  10.745
    3TCq1    C6   40   2.805   1.439  10.822
    3TCq1    C7   41   2.908   1.368  10.764
    3TCq1    C8   42   2.730   1.366  10.912
    3TCq1    O4   43   2.722   1.240  10.904
    3TCq1    C9   44   2.691   1.626  10.522
    3TCq1    O5   45   2.618   1.716  10.564
    3TCq1    O6   46   2.706   1.597  10.402
    3TCq1    H1   47   3.153   1.421  10.743
    3TCq1    H2   48   2.913   1.510  10.462
    3TCq1    H3   49   2.649   1.582  10.777
    3TCq1    H4   50   2.943   1.272  10.799
    4MPD2     C   51   2.338   1.307  11.236
    4MPD2    C1   52   2.394   1.430  11.260
    4MPD2    C2   53   2.502   1.474  11.183
    4MPD2    C3   54   2.543   1.397  11.079
    4MPD2    C4   55   2.483   1.276  11.054
    4MPD2    C5   56   2.386   1.227  11.135
    4MPD2     H   57   2.555   1.567  11.197
    4MPD2    H1   58   2.509   1.210  10.972
    4MPD2    H2   59   2.242   1.284  11.281
    4MPD2    H3   60   2.336   1.131  11.126
    4MPD2     N   61   2.652   1.443  10.998
    4MPD2    H5   62   2.673   1.542  10.996
    4MPD2    N1   63   2.343   1.518  11.366
    4MPD2    H7   64   2.399   1.602  11.374
    5TCq1    O1   65   4.040   2.914  12.416
    5TCq1    C1   66   3.998   2.973  12.303
    5TCq1    O2   67   4.067   3.003  12.208
    5TCq1    C2   68   3.870   3.031  12.334
    5TCq1    C3   69   3.846   3.086  12.456
    5TCq1    C4   70   3.732   3.161  12.471
    5TCq1    C5   71   3.647   3.189  12.359
    5TCq1    C6   72   3.680   3.131  12.238
    5TCq1    C7   73   3.796   3.056  12.225
    5TCq1    C8   74   3.592   3.140  12.118
    5TCq1    O4   75   3.615   3.045  12.051
    5TCq1    C9   76   3.682   3.199  12.600
    5TCq1    O5   77   3.767   3.197  12.690
    5TCq1    O6   78   3.559   3.216  12.618
    5TCq1    H1   79   3.959   2.877  12.457
    5TCq1    H2   80   3.909   3.074  12.543
    5TCq1    H3   81   3.549   3.232  12.374
    5TCq1    H4   82   3.824   3.013  12.130
    6MPD2     C   83   3.309   3.351  12.032
    6MPD2    C1   84   3.395   3.243  12.021
    6MPD2    C2   85   3.389   3.169  11.903
    6MPD2    C3   86   3.306   3.204  11.795
    6MPD2    C4   87   3.225   3.315  11.809
    6MPD2    C5   88   3.227   3.382  11.927
    6MPD2     H   89   3.446   3.080  11.878
    6MPD2    H1   90   3.156   3.349  11.733
    6MPD2    H2   91   3.308   3.416  12.119
    6MPD2    H3   92   3.154   3.461  11.942
    6MPD2     N   93   3.313   3.125  11.679
    6MPD2    H5   94   3.381   3.050  11.675
    6MPD2    N1   95   3.490   3.230  12.120
    6MPD2    H7   96   3.480   3.293  12.199
    7TCq1    O1   97   0.766   2.732  13.642
    7TCq1    C1   98   0.656   2.783  13.580
    7TCq1    O2   99   0.635   2.905  13.575
    7TCq1    C2  100   0.543   2.692  13.607
    7TCq1    C3  101   0.427   2.740  13.658
    7TCq1    C4  102   0.334   2.644  13.690
    7TCq1    C5  103   0.356   2.510  13.667
    7TCq1    C6  104   0.471   2.469  13.614
    7TCq1    C7  105   0.567   2.564  13.583
    7TCq1    C8  106   0.498   2.324  13.630
    7TCq1    O4  107   0.424   2.265  13.705
    7TCq1    C9  108   0.217   2.685  13.759
    7TCq1    O5  109   0.198   2.815  13.745
    7TCq1    O6  110   0.184   2.610  13.853
    7TCq1    H1  111   0.758   2.636  13.659
    7TCq1    H2  112   0.407   2.842  13.688
    7TCq1    H3  113   0.283   2.445  13.714
    7TCq1    H4  114   0.658   2.539  13.529
    8MPD2     C  115   0.769   1.894  13.602
    8MPD2    C1  116   0.644   1.919  13.643
    8MPD2    C2  117   0.584   2.042  13.635
    8MPD2    C3  118   0.660   2.149  13.578
    8MPD2    C4  119   0.781   2.121  13.533
    8MPD2    C5  120   0.841   1.996  13.543
    8MPD2     H  121   0.478   2.052  13.655
    8MPD2    H1  122   0.842   2.206  13.505
    8MPD2    H2  123   0.811   1.798  13.631
    8MPD2    H3  124   0.948   1.983  13.528
    8MPD2     N  125   0.613   2.280  13.564
    8MPD2    H5  126   0.667   2.347  13.511
    8MPD2    N1  127   0.584   1.805  13.705
    8MPD2    H7  128   0.653   1.744  13.749
    9TCq1    O1  129   3.105   1.509  10.950
    9TCq1    C1  130   3.046   1.498  11.072
    9TCq1    O2  131   2.948   1.432  11.102
    9TCq1    C2  132   3.109   1.584  11.166
    9TCq1    C3  133   3.161   1.704  11.129
    9TCq1    C4  134   3.234   1.776  11.220
    9TCq1    C5  135   3.227   1.736  11.350
    9TCq1    C6  136   3.174   1.615  11.385
    9TCq1    C7  137   3.115   1.540  11.291
    9TCq1    C8  138   3.220   1.556  11.514
    9TCq1    O4  139   3.287   1.635  11.581
    9TCq1    C9  140   3.294   1.898  11.186
    9TCq1    O5  141   3.385   1.947  11.257
    9TCq1    O6  142   3.238   1.964  11.098
    9TCq1    H1  143   3.196   1.545  10.962
    9TCq1    H2  144   3.160   1.736  11.025
    9TCq1    H3  145   3.269   1.800  11.427
    9TCq1    H4  146   3.060   1.449  11.309
   10MPD2     C  147   3.229   1.416  11.774
   10MPD2    C1  148   3.153   1.379  11.670
   10MPD2    C2  149   3.071   1.269  11.692
   10MPD2    C3  150   3.066   1.203  11.814
   10MPD2    C4  151   3.141   1.251  11.920
   10MPD2    C5  152   3.225   1.358  11.900
   10MPD2     H  153   2.995   1.247  11.617
   10MPD2    H1  154   3.126   1.213  12.020
   10MPD2    H2  155   3.297   1.499  11.763
   10MPD2    H3  156   3.282   1.400  11.982
   10MPD2     N  157   2.977   1.094  11.848
   10MPD2    H5  158   2.975   1.056  11.942
   10MPD2    N1  159   3.156   1.438  11.544
   10MPD2    H7  160   3.111   1.395  11.463
   11TCq1    O1  161   4.311   0.596  14.489
   11TCq1    C1  162   4.202   0.530  14.539
   11TCq1    O2  163   4.173   0.409  14.529
   11TCq1    C2  164   4.124   0.626  14.611
   11TCq1    C3  165   4.182   0.727  14.688
   11TCq1    C4  166   4.111   0.791  14.779
   11TCq1    C5  167   3.977   0.764  14.790
   11TCq1    C6  168   3.921   0.665  14.719
   11TCq1    C7  169   3.991   0.593  14.627
   11TCq1    C8  170   3.774   0.656  14.725
   11TCq1    O4  171   3.705   0.750  14.770
   11TCq1    C9  172   4.169   0.885  14.874
   11TCq1    O5  173   4.286   0.918  14.853
   11TCq1    O6  174   4.098   0.910  14.975
   11TCq1    H1  175   4.298   0.692  14.472
   11TCq1    H2  176   4.285   0.755  14.667
   11TCq1    H3  177   3.912   0.806  14.866
   11TCq1    H4  178   3.940   0.533  14.552
   12MPD2     C  179   3.496   0.566  14.686
   12MPD2    C1  180   3.607   0.482  14.662
   12MPD2    C2  181   3.592   0.358  14.605
   12MPD2    C3  182   3.462   0.318  14.569
   12MPD2    C4  183   3.349   0.401  14.579
   12MPD2    C5  184   3.372   0.524  14.641
   12MPD2     H  185   3.682   0.299  14.593
   12MPD2    H1  186   3.251   0.361  14.555
   12MPD2    H2  187   3.500   0.667  14.726
   12MPD2    H3  188   3.293   0.595  14.665
   12MPD2     N  189   3.440   0.181  14.521
   12MPD2    H5  190   3.346   0.167  14.486
   12MPD2    N1  191   3.739   0.532  14.672
   12MPD2    H7  192   3.816   0.473  14.643
   13TCq1    O1  193   3.805   1.495  11.210
   13TCq1    C1  194   3.840   1.494  11.081
   13TCq1    O2  195   3.955   1.484  11.045
   13TCq1    C2  196   3.736   1.442  10.996
   13TCq1    C3  197   3.769   1.452  10.862
   13TCq1    C4  198   3.671   1.423  10.770
   13TCq1    C5  199   3.552   1.368  10.807
   13TCq1    C6  200   3.535   1.337  10.941
   13TCq1    C7  201   3.620   1.383  11.040
   13TCq1    C8  202   3.409   1.282  10.987
   13TCq1    O4  203   3.371   1.319  11.099
   13TCq1    C9  204   3.703   1.438  10.630
   13TCq1    O5  205   3.826   1.453  10.602
   13TCq1    O6  206   3.612   1.422  10.546
   13TCq1    H1  207   3.712   1.490  11.242
   13TCq1    H2  208   3.859   1.500  10.825
   13TCq1    H3  209   3.480   1.341  10.731
   13TCq1    H4  210   3.616   1.344  11.141
   14MPD2     C  211   3.184   1.061  10.790
   14MPD2    C1  212   3.227   1.136  10.903
   14MPD2    C2  213   3.138   1.155  10.999
   14MPD2    C3  214   3.013   1.094  11.002
   14MPD2    C4  215   2.977   1.013  10.895
   14MPD2    C5  216   3.064   0.996  10.786
   14MPD2     H  217   3.155   1.217  11.086
   14MPD2    H1  218   2.876   0.977  10.881
   14MPD2    H2  219   3.249   1.058  10.704
   14MPD2    H3  220   3.030   0.950  10.694
   14MPD2     N  221   2.927   1.114  11.112
   14MPD2    H5  222   2.947   1.195  11.170
   14MPD2    N1  223   3.352   1.193  10.899
   14MPD2    H7  224   3.404   1.185  10.812
   15TCq1    O1  225   4.566   4.386  19.284
   15TCq1    C1  226   4.577   4.422  19.413
   15TCq1    O2  227   4.497   4.486  19.481
   15TCq1    C2  228   4.681   4.341  19.469
   15TCq1    C3  229   4.665   4.297  19.602
   15TCq1    C4  230   4.750   4.212  19.654
   15TCq1    C5  231   0.063   4.151  19.579
   15TCq1    C6  232   0.086   4.216  19.458
   15TCq1    C7  233   0.001   4.298  19.394
   15TCq1    C8  234   0.200   4.155  19.388
   15TCq1    O4  235   0.288   4.104  19.457
   15TCq1    C9  236   4.732   4.183  19.793
   15TCq1    O5  237   0.023   4.101  19.853
   15TCq1    O6  238   4.648   4.253  19.858
   15TCq1    H1  239   4.635   4.333  19.239
   15TCq1    H2  240   4.584   4.339  19.660
   15TCq1    H3  241   0.121   4.071  19.622
   15TCq1    H4  242   0.030   4.362  19.311
   16MPD2     C  243   0.209   4.068  19.024
   16MPD2    C1  244   0.258   4.088  19.152
   16MPD2    C2  245   0.383   4.035  19.184
   16MPD2    C3  246   0.455   3.969  19.082
   16MPD2    C4  247   0.389   3.937  18.964
   16MPD2    C5  248   0.267   3.988  18.938
   16MPD2     H  249   0.431   4.060  19.278
   16MPD2    H1  250   0.430   3.865  18.894
   16MPD2    H2  251   0.105   4.093  19.006
   16MPD2    H3  252   0.219   3.978  18.842
   16MPD2     N  253   0.581   3.922  19.117
   16MPD2    H5  254   0.616   3.955  19.206
   16MPD2    N1  255   0.172   4.146  19.254
   16MPD2    H7  256   0.109   4.209  19.204
   17TCq1    O1  257   2.855   0.142  11.609
   17TCq1    C1  258   2.935   0.036  11.586
   17TCq1    O2  259   2.904   4.707  11.551
   17TCq1    C2  260   3.056   0.103  11.556
   17TCq1    C3  261   3.113   0.070  11.441
   17TCq1    C4  262   3.220   0.140  11.403
   17TCq1    C5  263   3.264   0.249  11.470
   17TCq1    C6  264   3.201   0.280  11.588
   17TCq1    C7  265   3.094   0.204  11.634
   17TCq1    C8  266   3.269   0.372  11.672
   17TCq1    O4  267   3.229   0.374  11.786
   17TCq1    C9  268   3.289   0.097  11.281
   17TCq1    O5  269   3.369   0.177  11.221
   17TCq1    O6  270   3.249   4.770  11.234
   17TCq1    H1  271   2.909   0.223  11.595
   17TCq1    H2  272   3.079   4.762  11.389
   17TCq1    H3  273   3.357   0.289  11.432
   17TCq1    H4  274   3.044   0.233  11.725
   18MPD2     C  275   3.493   0.518  11.795
   18MPD2    C1  276   3.480   0.517  11.656
   18MPD2    C2  277   3.576   0.568  11.579
   18MPD2    C3  278   3.691   0.628  11.627
   18MPD2    C4  279   3.702   0.636  11.769
   18MPD2    C5  280   3.606   0.577  11.843
   18MPD2     H  281   3.550   0.568  11.474
   18MPD2    H1  282   3.788   0.687  11.812
   18MPD2    H2  283   3.429   0.468  11.866
   18MPD2    H3  284   3.601   0.580  11.951
   18MPD2     N  285   3.791   0.679  11.541
   18MPD2    H5  286   3.880   0.704  11.584
   18MPD2    N1  287   3.369   0.437  11.605
   18MPD2    H7  288   3.354   0.431  11.505
   19TMC2    C1  289   0.056   0.680  14.349
   19TMC2    C2  290   4.764   0.791  14.345
   19TMC2    C3  291   4.630   0.777  14.307
   19TMC2    C4  292   4.780   0.556  14.330
   19TMC2    C5  293   4.651   0.554  14.301
   19TMC2    C6  294   4.571   0.656  14.278
   19TMC2     C  295   0.199   0.706  14.343
   19TMC2     O  296   0.237   0.807  14.284
   19TMC2     H  297   0.030   0.889  14.347
   19TMC2    H1  298   0.063   0.469  14.338
   19TMC2    H2  299   4.472   0.661  14.234
   19TMC2    C7  300   4.593   0.429  14.323
   19TMC2    C8  301   4.559   0.890  14.260
   19TMC2    O1  302   4.661   0.344  14.378
   19TMC2    O2  303   4.502   0.911  14.156
   19TMC2    O5  304   4.575   0.984  14.353
   19TMC2    H5  305   4.606   0.949  14.439
   20MPD2     C  306   0.499   0.714  14.378
   20MPD2    C1  307   0.407   0.614  14.426
   20MPD2    C2  308   0.464   0.512  14.498
   20MPD2    C3  309   0.601   0.508  14.529
   20MPD2    C4  310   0.685   0.606  14.477
   20MPD2    C5  311   0.631   0.710  14.402
   20MPD2     H  312   0.403   0.435  14.545
   20MPD2    H1  313   0.792   0.596  14.488
   20MPD2    H2  314   0.451   0.792  14.321
   20MPD2    H3  315   0.696   0.782  14.352
   20MPD2     N  316   0.664   0.405  14.599
   20MPD2    H5  317   0.759   0.428  14.626
   20MPD2    N1  318   0.272   0.611  14.410
   20MPD2    H7  319   0.230   0.533  14.459
   21TMC2    C1  320   2.214   0.658  14.586
   21TMC2    C2  321   2.295   0.552  14.592
   21TMC2    C3  322   2.307   0.482  14.713
   21TMC2    C4  323   2.144   0.702  14.696
   21TMC2    C5  324   2.176   0.642  14.817
   21TMC2    C6  325   2.257   0.533  14.826
   21TMC2     C  326   2.202   0.727  14.453
   21TMC2     O  327   2.189   0.659  14.354
   21TMC2     H  328   2.320   0.522  14.491
   21TMC2    H1  329   2.060   0.767  14.676
   21TMC2    H2  330   2.266   0.481  14.921
   21TMC2    C7  331   2.172   0.724  14.933
   21TMC2    C8  332   2.352   0.343  14.716
   21TMC2    O1  333   2.217   0.680  15.038
   21TMC2    O2  334   2.317   0.270  14.808
   21TMC2    O5  335   2.457   0.325  14.634
   21TMC2    H5  336   2.463   0.393  14.564
   22MPD2     C  337   2.337   1.138  14.728
   22MPD2    C1  338   2.397   1.015  14.701
   22MPD2    C2  339   2.346   0.932  14.607
   22MPD2    C3  340   2.224   0.954  14.555
   22MPD2    C4  341   2.160   1.074  14.586
   22MPD2    C5  342   2.214   1.164  14.674
   22MPD2     H  343   2.410   0.853  14.568
   22MPD2    H1  344   2.059   1.095  14.553
   22MPD2    H2  345   2.372   1.205  14.806
   22MPD2    H3  346   2.159   1.254  14.699
   22MPD2     N  347   2.158   0.859  14.467
   22MPD2    H5  348   2.075   0.888  14.416
   22MPD2    N1  349   2.512   0.965  14.762
   22MPD2    H7  350   2.540   0.873  14.728
   23TMC2    C1  351   3.409   2.096  14.617
   23TMC2    C2  352   3.400   2.211  14.540
   23TMC2    C3  353   3.277   2.246  14.496
   23TMC2    C4  354   3.301   2.013  14.640
   23TMC2    C5  355   3.180   2.057  14.598
   23TMC2    C6  356   3.162   2.184  14.543
   23TMC2     C  357   3.522   2.065  14.696
   23TMC2     O  358   3.495   2.039  14.814
   23TMC2     H  359   3.485   2.268  14.504
   23TMC2    H1  360   3.310   1.922  14.698
   23TMC2    H2  361   3.065   2.228  14.524
   23TMC2    C7  362   3.070   1.962  14.616
   23TMC2    C8  363   3.260   2.382  14.455
   23TMC2    O1  364   3.092   1.853  14.663
   23TMC2    O2  365   3.337   2.470  14.480
   23TMC2    O5  366   3.144   2.404  14.394
   23TMC2    H5  367   3.100   2.321  14.364
   24MPD2     C  368   4.017   2.008  14.794
   24MPD2    C1  369   3.907   1.995  14.874
   24MPD2    C2  370   3.784   2.020  14.822
   24MPD2    C3  371   3.768   2.063  14.696
   24MPD2    C4  372   3.882   2.086  14.616
   24MPD2    C5  373   4.001   2.049  14.661
   24MPD2     H  374   3.705   1.995  14.892
   24MPD2    H1  375   3.867   2.106  14.510
   24MPD2    H2  376   4.117   1.996  14.834
   24MPD2    H3  377   4.089   2.059  14.598
   24MPD2     N  378   3.638   2.086  14.634
   24MPD2    H5  379   3.647   2.106  14.535
   24MPD2    N1  380   3.909   1.961  15.009
   24MPD2    H7  381   3.829   1.982  15.068
   25TMC2    C1  382   2.746   4.257  12.389
   25TMC2    C2  383   2.833   4.309  12.479
   25TMC2    C3  384   2.812   4.439  12.511
   25TMC2    C4  385   2.649   4.331  12.323
   25TMC2    C5  386   2.643   4.457  12.356
   25TMC2    C6  387   2.721   4.517  12.449
   25TMC2     C  388   2.786   4.128  12.328
   25TMC2     O  389   2.905   4.104  12.333
   25TMC2     H  390   2.902   4.244  12.531
   25TMC2    H1  391   2.578   4.290  12.252
   25TMC2    H2  392   2.710   4.621  12.477
   25TMC2    C7  393   2.610   4.544  12.257
   25TMC2    C8  394   2.886   4.495  12.620
   25TMC2    O1  395   2.697   4.626  12.231
   25TMC2    O2  396   2.913   4.612  12.638
   25TMC2    O5  397   2.857   4.410  12.717
   25TMC2    H5  398   2.799   4.333  12.699
   26MPD2     C  399   2.731   3.769  11.980
   26MPD2    C1  400   2.609   3.790  12.032
   26MPD2    C2  401   2.590   3.891  12.125
   26MPD2    C3  402   2.702   3.967  12.165
   26MPD2    C4  403   2.824   3.946  12.103
   26MPD2    C5  404   2.839   3.848  12.013
   26MPD2     H  405   2.494   3.912  12.171
   26MPD2    H1  406   2.911   4.005  12.129
   26MPD2    H2  407   2.750   3.699  11.900
   26MPD2    H3  408   2.935   3.842  11.963
   26MPD2     N  409   2.683   4.071  12.259
   26MPD2    H5  410   2.587   4.096  12.281
   26MPD2    N1  411   2.502   3.710  11.980
   26MPD2    H7  412   2.522   3.669  11.889
   27TMC2    C1  413   1.519   1.658  12.540
   27TMC2    C2  414   1.426   1.741  12.484
   27TMC2    C3  415   1.474   1.832  12.394
   27TMC2    C4  416   1.655   1.648  12.493
   27TMC2    C5  417   1.696   1.746  12.407
   27TMC2    C6  418   1.607   1.835  12.357
   27TMC2     C  419   1.478   1.550  12.635
   27TMC2     O  420   1.567   1.464  12.651
   27TMC2     H  421   1.318   1.737  12.492
   27TMC2    H1  422   1.730   1.578  12.529
   27TMC2    H2  423   1.642   1.913  12.290
   27TMC2    C7  424   1.807   1.820  12.471
   27TMC2    C8  425   1.388   1.939  12.347
   27TMC2    O1  426   1.875   1.747  12.541
   27TMC2    O2  427   1.424   2.022  12.260
   27TMC2    O5  428   1.331   1.980  12.465
   27TMC2    H5  429   1.342   1.920  12.542
   28MPD2     C  430   1.210   1.360  13.029
   28MPD2    C1  431   1.156   1.474  12.992
   28MPD2    C2  432   1.211   1.551  12.889
   28MPD2    C3  433   1.323   1.506  12.826
   28MPD2    C4  434   1.377   1.387  12.860
   28MPD2    C5  435   1.325   1.319  12.966
   28MPD2     H  436   1.180   1.647  12.850
   28MPD2    H1  437   1.471   1.347  12.824
   28MPD2    H2  438   1.167   1.303  13.111
   28MPD2    H3  439   1.377   1.228  12.995
   28MPD2     N  440   1.373   1.583  12.716
   28MPD2    H5  441   1.344   1.680  12.719
   28MPD2    N1  442   1.043   1.518  13.068
   28MPD2    H7  443   1.003   1.452  13.133
   29TMC2    C1  444   0.778   4.051  14.723
   29TMC2    C2  445   0.812   4.045  14.857
   29TMC2    C3  446   0.836   4.159  14.929
   29TMC2    C4  447   0.795   4.171  14.661
   29TMC2    C5  448   0.819   4.288  14.732
   29TMC2    C6  449   0.840   4.286  14.869
   29TMC2     C  450   0.760   3.929  14.644
   29TMC2     O  451   0.801   3.819  14.682
   29TMC2     H  452   0.810   3.952  14.913
   29TMC2    H1  453   0.777   4.186  14.555
   29TMC2    H2  454   0.841   4.373  14.934
   29TMC2    C7  455   0.884   4.393  14.663
   29TMC2    C8  456   0.821   4.153  15.072
   29TMC2    O1  457   0.866   4.402  14.539
   29TMC2    O2  458   0.886   4.216  15.154
   29TMC2    O5  459   0.700   4.097  15.088
   29TMC2    H5  460   0.648   4.098  15.005
   30MPD2     C  461   0.612   3.715  14.197
   30MPD2    C1  462   0.717   3.683  14.283
   30MPD2    C2  463   0.745   3.761  14.389
   30MPD2    C3  464   0.671   3.864  14.420
   30MPD2    C4  465   0.573   3.906  14.332
   30MPD2    C5  466   0.544   3.828  14.221
   30MPD2     H  467   0.830   3.731  14.449
   30MPD2    H1  468   0.516   3.994  14.358
   30MPD2    H2  469   0.591   3.655  14.109
   30MPD2    H3  470   0.470   3.859  14.148
   30MPD2     N  471   0.683   3.950  14.536
   30MPD2    H5  472   0.627   4.034  14.540
   30MPD2    N1  473   0.782   3.560  14.271
   30MPD2    H7  474   0.870   3.553  14.321
   31TMC2    C1  475   3.352   2.645  15.743
   31TMC2    C2  476   3.221   2.677  15.751
   31TMC2    C3  477   3.168   2.688  15.876
   31TMC2    C4  478   3.427   2.639  15.853
   31TMC2    C5  479   3.372   2.653  15.984
   31TMC2    C6  480   3.234   2.671  15.996
   31TMC2     C  481   3.412   2.671  15.610
   31TMC2     O  482   3.342   2.700  15.517
   31TMC2     H  483   3.157   2.683  15.664
   31TMC2    H1  484   3.533   2.617  15.850
   31TMC2    H2  485   3.183   2.687  16.091
   31TMC2    C7  486   3.455   2.651  16.098
   31TMC2    C8  487   3.020   2.684  15.894
   31TMC2    O1  488   3.540   2.567  16.098
   31TMC2    O2  489   2.960   2.622  15.980
   31TMC2    O5  490   2.961   2.780  15.813
   31TMC2    H5  491   3.024   2.837  15.765
   32MPD2     C  492   3.845   2.772  15.348
   32MPD2    C1  493   3.712   2.794  15.305
   32MPD2    C2  494   3.613   2.751  15.395
   32MPD2    C3  495   3.648   2.671  15.509
   32MPD2    C4  496   3.778   2.646  15.541
   32MPD2    C5  497   3.877   2.690  15.454
   32MPD2     H  498   3.509   2.762  15.365
   32MPD2    H1  499   3.800   2.573  15.618
   32MPD2    H2  500   3.935   2.797  15.292
   32MPD2    H3  501   3.981   2.674  15.479
   32MPD2     N  502   3.547   2.638  15.605
   32MPD2    H5  503   3.577   2.579  15.682
   32MPD2    N1  504   3.692   2.864  15.184
   32MPD2    H7  505   3.770   2.892  15.126
   33MPD2     C  506   4.310   0.781  10.784
   33MPD2    C1  507   4.173   0.772  10.817
   33MPD2    C2  508   4.083   0.773  10.714
   33MPD2    C3  509   4.125   0.778  10.585
   33MPD2    C4  510   4.263   0.785  10.555
   33MPD2    C5  511   4.354   0.791  10.656
   33MPD2     H  512   3.981   0.751  10.743
   33MPD2    H1  513   4.291   0.795  10.451
   33MPD2    H2  514   4.388   0.776  10.859
   33MPD2    H3  515   4.460   0.801  10.637
   33MPD2     N  516   4.037   0.777  10.469
   33MPD2    H5  517   4.071   0.804  10.377
   33MPD2    N1  518   4.153   0.758  10.950
   33MPD2    H7  519   4.234   0.760  11.011
   34TCq2    C1  520   3.905   0.741  10.469
   34TCq2    O2  521   3.838   0.692  10.560
   34TCq2    C2  522   3.833   0.789  10.354
   34TCq2    C3  523   3.709   0.732  10.338
   34TCq2    C4  524   3.633   0.777  10.235
   34TCq2    C5  525   3.673   0.885  10.162
   34TCq2    C6  526   3.798   0.949  10.185
   34TCq2    C7  527   3.884   0.888  10.275
   34TCq2    C8  528   3.827   1.085  10.155
   34TCq2    O4  529   3.928   1.136  10.206
   34TCq2    C9  530   3.502   0.726  10.213
   34TCq2    O5  531   3.435   0.772  10.113
   34TCq2    O6  532   3.464   0.641  10.296
   34TCq2    H2  533   3.693   0.641  10.395
   34TCq2    H3  534   3.604   0.927  10.090
   34TCq2    H4  535   3.984   0.930  10.280
   35TMC2    C1  536   0.063   2.124  12.027
   35TMC2    C2  537   4.763   2.214  11.965
   35TMC2    C3  538   4.634   2.221  12.002
   35TMC2    C4  539   0.011   2.040  12.123
   35TMC2    C5  540   4.655   2.043  12.154
   35TMC2    C6  541   4.572   2.136  12.096
   35TMC2     C  542   0.201   2.133  11.983
   35TMC2     O  543   0.231   2.190  11.884
   35TMC2     H  544   0.014   2.270  11.878
   35TMC2    H1  545   0.068   1.953  12.154
   35TMC2    H2  546   4.464   2.136  12.104
   35TMC2    C7  547   4.590   1.920  12.189
   35TMC2    C8  548   4.543   2.284  11.917
   35TMC2    O1  549   4.481   1.900  12.133
   35TMC2    O2  550   4.576   2.296  11.801
   35TMC2    O5  551   4.445   2.348  11.986
   35TMC2    H5  552   4.471   2.359  12.080
   36MPD2     C  553   0.696   2.165  12.119
   36MPD2    C1  554   0.635   2.052  12.188
   36MPD2    C2  555   0.506   2.020  12.171
   36MPD2    C3  556   0.425   2.104  12.083
   36MPD2    C4  557   0.483   2.215  12.028
   36MPD2    C5  558   0.612   2.241  12.040
   36MPD2     H  559   0.464   1.933  12.219
   36MPD2    H1  560   0.418   2.284  11.974
   36MPD2    H2  561   0.803   2.185  12.115
   36MPD2    H3  562   0.646   2.326  11.981
   36MPD2     N  563   0.286   2.068  12.072
   36MPD2    H5  564   0.248   2.000  12.137
   36MPD2    N1  565   0.729   1.983  12.267
   36MPD2    H7  566   0.822   2.014  12.242
   37TMC2    C1  567   2.686   1.649  12.520
   37TMC2    C2  568   2.592   1.570  12.456
   37TMC2    C3  569   2.600   1.556  12.317
   37TMC2    C4  570   2.774   1.714  12.445
   37TMC2    C5  571   2.776   1.705  12.312
   37TMC2    C6  572   2.691   1.626  12.245
   37TMC2     C  573   2.644   1.705  12.649
   37TMC2     O  574   2.524   1.712  12.675
   37TMC2     H  575   2.524   1.517  12.521
   37TMC2    H1  576   2.853   1.771  12.493
   37TMC2    H2  577   2.693   1.617  12.137
   37TMC2    C7  578   2.864   1.798  12.244
   37TMC2    C8  579   2.510   1.463  12.251
   37TMC2    O1  580   2.893   1.899  12.306
   37TMC2    O2  581   2.516   1.438  12.133
   37TMC2    O5  582   2.396   1.472  12.320
   37TMC2    H5  583   2.408   1.495  12.415
   38MPD2     C  584   2.728   1.935  13.112
   38MPD2    C1  585   2.850   1.902  13.051
   38MPD2    C2  586   2.860   1.833  12.925
   38MPD2    C3  587   2.739   1.807  12.854
   38MPD2    C4  588   2.625   1.858  12.910
   38MPD2    C5  589   2.618   1.909  13.037
   38MPD2     H  590   2.958   1.801  12.892
   38MPD2    H1  591   2.530   1.825  12.868
   38MPD2    H2  592   2.711   1.975  13.211
   38MPD2    H3  593   2.518   1.930  13.073
   38MPD2     N  594   2.749   1.737  12.733
   38MPD2    H5  595   2.840   1.705  12.701
   38MPD2    N1  596   2.973   1.926  13.119
   38MPD2    H7  597   3.056   1.884  13.077
   39TMC2    C1  598   0.765   4.010  19.793
   39TMC2    C2  599   0.726   4.136  19.793
   39TMC2    C3  600   0.816   4.233  19.805
   39TMC2    C4  601   0.892   3.974  19.824
   39TMC2    C5  602   0.981   4.078  19.857
   39TMC2    C6  603   0.942   4.209  19.845
   39TMC2     C  604   0.691   3.919  19.709
   39TMC2     O  605   0.568   3.925  19.716
   39TMC2     H  606   0.623   4.159  19.768
   39TMC2    H1  607   0.922   3.870  19.816
   39TMC2    H2  608   1.015   4.289  19.849
   39TMC2    C7  609   1.108   4.033  19.905
   39TMC2    C8  610   0.792   4.371  19.770
   39TMC2    O1  611   1.129   3.916  19.930
   39TMC2    O2  612   0.871   4.456  19.804
   39TMC2    O5  613   0.672   4.392  19.711
   39TMC2    H5  614   0.645   4.311  19.663
   40MPD2     C  615   0.826   3.690  19.445
   40MPD2    C1  616   0.726   3.749  19.523
   40MPD2    C2  617   0.595   3.741  19.477
   40MPD2    C3  618   0.568   3.661  19.368
   40MPD2    C4  619   0.665   3.606  19.290
   40MPD2    C5  620   0.788   3.611  19.343
   40MPD2     H  621   0.523   3.790  19.541
   40MPD2    H1  622   0.647   3.534  19.211
   40MPD2    H2  623   0.933   3.692  19.462
   40MPD2    H3  624   0.870   3.572  19.284
   40MPD2     N  625   0.438   3.653  19.315
   40MPD2    H5  626   0.415   3.626  19.220
   40MPD2    N1  627   0.773   3.838  19.625
   40MPD2    H7  628   0.873   3.851  19.635
   41TMC2    C1  629   4.410   2.191  14.014
   41TMC2    C2  630   4.310   2.245  14.087
   41TMC2    C3  631   4.275   2.375  14.052
   41TMC2    C4  632   4.472   2.261  13.906
   41TMC2    C5  633   4.428   2.387  13.885
   41TMC2    C6  634   4.328   2.447  13.956
   41TMC2     C  635   4.463   2.059  14.046
   41TMC2     O  636   4.541   2.025  13.961
   41TMC2     H  637   4.250   2.186  14.156
   41TMC2    H1  638   4.559   2.223  13.854
   41TMC2    H2  639   4.312   2.554  13.945
   41TMC2    C7  640   4.508   2.480  13.810
   41TMC2    C8  641   4.171   2.444  14.116
   41TMC2    O1  642   4.520   2.593  13.853
   41TMC2    O2  643   4.103   2.536  14.075
   41TMC2    O5  644   4.162   2.396  14.245
   41TMC2    H5  645   4.224   2.322  14.263
   42MPD2     C  646   4.498   1.776  14.111
   42MPD2    C1  647   4.453   1.868  14.206
   42MPD2    C2  648   4.425   1.831  14.330
   42MPD2    C3  649   4.453   1.701  14.374
   42MPD2    C4  650   4.505   1.612  14.287
   42MPD2    C5  651   4.519   1.648  14.155
   42MPD2     H  652   4.379   1.909  14.389
   42MPD2    H1  653   4.532   1.510  14.313
   42MPD2    H2  654   4.505   1.804  14.007
   42MPD2    H3  655   4.542   1.564  14.090
   42MPD2     N  656   4.428   1.648  14.505
   42MPD2    H5  657   4.450   1.549  14.507
   42MPD2    N1  658   4.425   1.999  14.167
   42MPD2    H7  659   4.368   2.056  14.228
   43TMC2    C1  660   1.106   0.339  19.399
   43TMC2    C2  661   1.006   0.431  19.384
   43TMC2    C3  662   1.019   0.545  19.451
   43TMC2    C4  663   1.218   0.370  19.476
   43TMC2    C5  664   1.223   0.484  19.547
   43TMC2    C6  665   1.124   0.579  19.532
   43TMC2     C  666   1.130   0.253  19.288
   43TMC2     O  667   1.242   0.260  19.242
   43TMC2     H  668   0.914   0.418  19.327
   43TMC2    H1  669   1.291   0.291  19.482
   43TMC2    H2  670   1.127   0.679  19.574
   43TMC2    C7  671   1.325   0.493  19.654
   43TMC2    C8  672   0.898   0.625  19.442
   43TMC2    O1  673   1.400   0.397  19.663
   43TMC2    O2  674   0.830   0.630  19.343
   43TMC2    O5  675   0.871   0.682  19.562
   43TMC2    H5  676   0.938   0.653  19.628
   44MPD2     C  677   0.977   0.072  18.848
   44MPD2    C1  678   1.097   0.105  18.886
   44MPD2    C2  679   1.102   0.161  19.012
   44MPD2    C3  680   0.997   0.158  19.100
   44MPD2    C4  681   0.877   0.122  19.053
   44MPD2    C5  682   0.863   0.079  18.924
   44MPD2     H  683   1.192   0.211  19.047
   44MPD2    H1  684   0.786   0.126  19.112
   44MPD2    H2  685   0.962   0.048  18.743
   44MPD2    H3  686   0.768   0.060  18.876
   44MPD2     N  687   1.016   0.205  19.229
   44MPD2    H5  688   0.935   0.203  19.290
   44MPD2    N1  689   1.218   0.100  18.807
   44MPD2    H7  690   1.302   0.153  18.828
   45TMC2    C1  691   2.144   2.348   9.886
   45TMC2    C2  692   2.180   2.377   9.755
   45TMC2    C3  693   2.212   2.506   9.717
   45TMC2    C4  694   2.138   2.448   9.975
   45TMC2    C5  695   2.170   2.574   9.936
   45TMC2    C6  696   2.215   2.600   9.810
   45TMC2     C  697   2.070   2.229   9.912
   45TMC2     O  698   2.089   2.184  10.024
   45TMC2     H  699   2.191   2.295   9.685
   45TMC2    H1  700   2.112   2.434  10.079
   45TMC2    H2  701   2.247   2.699   9.780
   45TMC2    C7  702   2.196   2.675  10.045
   45TMC2    C8  703   2.271   2.535   9.589
   45TMC2    O1  704   2.203   2.634  10.162
   45TMC2    O2  705   2.363   2.616   9.581
   45TMC2    O5  706   2.242   2.442   9.497
   45TMC2    H5  707   2.163   2.384   9.509
   46MPD2     C  708   1.915   1.988   9.925
   46MPD2    C1  709   1.909   2.070   9.821
   46MPD2    C2  710   1.792   2.079   9.750
   46MPD2    C3  711   1.696   1.989   9.776
   46MPD2    C4  712   1.708   1.882   9.866
   46MPD2    C5  713   1.823   1.890   9.948
   46MPD2     H  714   1.784   2.165   9.684
   46MPD2    H1  715   1.631   1.814   9.901
   46MPD2    H2  716   2.008   1.982   9.980
   46MPD2    H3  717   1.837   1.818  10.028
   46MPD2     N  718   1.567   2.016   9.713
   46MPD2    H5  719   1.564   2.094   9.648
   46MPD2    N1  720   1.986   2.188   9.819
   46MPD2    H7  721   1.979   2.249   9.738
   47TMC2    C1  722   4.278   3.178   9.177
   47TMC2    C2  723   4.371   3.109   9.109
   47TMC2    C3  724   4.323   3.021   9.012
   47TMC2    C4  725   4.148   3.159   9.163
   47TMC2    C5  726   4.103   3.064   9.075
   47TMC2    C6  727   4.187   3.003   8.995
   47TMC2     C  728   4.322   3.236   9.295
   47TMC2     O  729   4.265   3.334   9.337
   47TMC2     H  730   4.476   3.134   9.115
   47TMC2    H1  731   4.087   3.202   9.241
   47TMC2    H2  732   4.145   2.931   8.925
   47TMC2    C7  733   3.963   3.032   9.068
   47TMC2    C8  734   4.418   2.964   8.913
   47TMC2    O1  735   3.930   2.929   9.013
   47TMC2    O2  736   4.391   2.969   8.796
   47TMC2    O5  737   4.540   2.948   8.967
   47TMC2    H5  738   4.543   2.943   9.065
   48MPD2     C  739   4.479   3.311   9.529
   48MPD2    C1  740   4.491   3.196   9.465
   48MPD2    C2  741   4.559   3.092   9.517
   48MPD2    C3  742   4.632   3.099   9.638
   48MPD2    C4  743   4.628   3.214   9.707
   48MPD2    C5  744   4.558   3.317   9.644
   48MPD2     H  745   4.562   2.991   9.477
   48MPD2    H1  746   4.672   3.224   9.806
   48MPD2    H2  747   4.425   3.400   9.498
   48MPD2    H3  748   4.541   3.408   9.701
   48MPD2     N  749   4.683   2.978   9.682
   48MPD2    H5  750   4.679   2.905   9.611
   48MPD2    N1  751   4.425   3.159   9.348
   48MPD2    H7  752   4.443   3.068   9.307
   49TMC2    C1  753   2.410   0.260  10.500
   49TMC2    C2  754   2.358   0.356  10.426
   49TMC2    C3  755   2.230   0.333  10.385
   49TMC2    C4  756   2.348   0.144  10.527
   49TMC2    C5  757   2.218   0.123  10.483
   49TMC2    C6  758   2.153   0.224  10.417
   49TMC2     C  759   2.508   0.309  10.592
   49TMC2     O  760   2.573   0.409  10.561
   49TMC2     H  761   2.392   0.459  10.434
   49TMC2    H1  762   2.404   0.063  10.571
   49TMC2    H2  763   2.062   0.206  10.362
   49TMC2    C7  764   2.150   4.776  10.485
   49TMC2    C8  765   2.167   0.451  10.328
   49TMC2    O1  766   2.043   4.771  10.426
   49TMC2    O2  767   2.230   0.540  10.274
   49TMC2    O5  768   2.036   0.451  10.348
   49TMC2    H5  769   2.006   0.383  10.412
   50MPD2     C  770   2.619   0.405  10.858
   50MPD2    C1  771   2.538   0.297  10.842
   50MPD2    C2  772   2.485   0.233  10.954
   50MPD2    C3  773   2.525   0.279  11.082
   50MPD2    C4  774   2.596   0.391  11.089
   50MPD2    C5  775   2.641   0.458  10.980
   50MPD2     H  776   2.420   0.147  10.945
   50MPD2    H1  777   2.618   0.437  11.185
   50MPD2    H2  778   2.645   0.469  10.774
   50MPD2    H3  779   2.698   0.550  10.987
   50MPD2     N  780   2.488   0.214  11.204
   50MPD2    H5  781   2.501   0.266  11.290
   50MPD2    N1  782   2.484   0.255  10.718
   50MPD2    H7  783   2.421   0.176  10.720
   51TMC2    C1  784   2.530   4.050  19.315
   51TMC2    C2  785   2.527   4.095  19.446
   51TMC2    C3  786   2.493   4.233  19.454
   51TMC2    C4  787   2.510   4.128  19.205
   51TMC2    C5  788   2.475   4.260  19.227
   51TMC2    C6  789   2.456   4.311  19.349
   51TMC2     C  790   2.618   3.937  19.302
   51TMC2     O  791   2.657   3.883  19.403
   51TMC2     H  792   2.537   4.037  19.537
   51TMC2    H1  793   2.489   4.090  19.106
   51TMC2    H2  794   2.427   4.411  19.378
   51TMC2    C7  795   2.419   4.340  19.109
   51TMC2    C8  796   2.528   4.293  19.586
   51TMC2    O1  797   2.324   4.415  19.135
   51TMC2    O2  798   2.605   4.242  19.661
   51TMC2    O5  799   2.431   4.378  19.622
   51TMC2    H5  800   2.365   4.386  19.549
   52MPD2     C  801   2.859   3.558  19.047
   52MPD2    C1  802   2.872   3.601  19.180
   52MPD2    C2  803   2.806   3.716  19.221
   52MPD2    C3  804   2.704   3.773  19.136
   52MPD2    C4  805   2.691   3.726  19.003
   52MPD2    C5  806   2.778   3.620  18.962
   52MPD2     H  807   2.823   3.757  19.320
   52MPD2    H1  808   2.621   3.763  18.929
   52MPD2    H2  809   2.939   3.497  19.006
   52MPD2    H3  810   2.790   3.578  18.863
   52MPD2     N  811   2.629   3.888  19.175
   52MPD2    H5  812   2.568   3.933  19.107
   52MPD2    N1  813   2.986   3.557  19.262
   52MPD2    H7  814   3.011   3.622  19.336
   53TMC2    C1  815   3.145   2.402  11.875
   53TMC2    C2  816   3.124   2.503  11.784
   53TMC2    C3  817   3.116   2.625  11.841
   53TMC2    C4  818   3.177   2.421  12.008
   53TMC2    C5  819   3.176   2.548  12.059
   53TMC2    C6  820   3.133   2.650  11.974
   53TMC2     C  821   3.124   2.260  11.829
   53TMC2     O  822   3.159   2.235  11.716
   53TMC2     H  823   3.093   2.483  11.682
   53TMC2    H1  824   3.196   2.336  12.072
   53TMC2    H2  825   3.117   2.746  12.023
   53TMC2    C7  826   3.121   2.551  12.194
   53TMC2    C8  827   3.114   2.740  11.754
   53TMC2    O1  828   2.997   2.548  12.206
   53TMC2    O2  829   3.073   2.852  11.788
   53TMC2    O5  830   3.185   2.719  11.640
   53TMC2    H5  831   3.243   2.640  11.641
   54MPD2     C  832   3.081   1.968  11.803
   54MPD2    C1  833   3.040   2.042  11.914
   54MPD2    C2  834   2.974   1.973  12.023
   54MPD2    C3  835   2.957   1.832  12.016
   54MPD2    C4  836   2.990   1.761  11.902
   54MPD2    C5  837   3.057   1.830  11.805
   54MPD2     H  838   2.959   2.028  12.115
   54MPD2    H1  839   2.972   1.655  11.890
   54MPD2    H2  840   3.122   2.002  11.708
   54MPD2    H3  841   3.083   1.775  11.715
   54MPD2     N  842   2.891   1.755  12.116
   54MPD2    H5  843   2.857   1.661  12.096
   54MPD2    N1  844   3.063   2.182  11.926
   54MPD2    H7  845   3.028   2.218  12.014
   55TMC2    C1  846   4.211   4.619  17.848
   55TMC2    C2  847   4.136   4.634  17.734
   55TMC2    C3  848   4.100   4.514  17.673
   55TMC2    C4  849   4.229   4.500  17.912
   55TMC2    C5  850   4.165   4.397  17.862
   55TMC2    C6  851   4.118   4.398  17.734
   55TMC2     C  852   4.200   4.727  17.943
   55TMC2     O  853   4.197   4.692  18.060
   55TMC2     H  854   4.112   4.731  17.693
   55TMC2    H1  855   4.290   4.495  18.001
   55TMC2    H2  856   4.073   4.311  17.687
   55TMC2    C7  857   4.087   4.330  17.963
   55TMC2    C8  858   4.027   4.518  17.545
   55TMC2    O1  859   4.045   4.218  17.936
   55TMC2    O2  860   4.033   4.610  17.469
   55TMC2    O5  861   3.926   4.427  17.544
   55TMC2    H5  862   3.928   4.364  17.619
   56MPD2     C  863   4.219   0.313  17.909
   56MPD2    C1  864   4.186   0.189  17.961
   56MPD2    C2  865   4.131   0.191  18.089
   56MPD2    C3  866   4.108   0.304  18.161
   56MPD2    C4  867   4.146   0.422  18.105
   56MPD2    C5  868   4.215   0.424  17.982
   56MPD2     H  869   4.095   0.098  18.132
   56MPD2    H1  870   4.143   0.520  18.150
   56MPD2    H2  871   4.282   0.314  17.820
   56MPD2    H3  872   4.248   0.516  17.935
   56MPD2     N  873   4.043   0.298  18.290
   56MPD2    H5  874   4.027   0.201  18.317
   56MPD2    N1  875   4.211   0.071  17.884
   56MPD2    H7  876   4.237   0.076  17.786
   57MPD2     C  877   2.648   0.732  14.172
   57MPD2    C1  878   2.702   0.854  14.202
   57MPD2    C2  879   2.831   0.876  14.175
   57MPD2    C3  880   2.909   0.765  14.138
   57MPD2    C4  881   2.855   0.643  14.119
   57MPD2    C5  882   2.723   0.631  14.132
   57MPD2     H  883   2.872   0.975  14.190
   57MPD2    H1  884   2.915   0.559  14.085
   57MPD2    H2  885   2.541   0.718  14.174
   57MPD2    H3  886   2.679   0.534  14.111
   57MPD2     N  887   3.048   0.775  14.112
   57MPD2    H5  888   3.102   0.698  14.074
   57MPD2    N1  889   2.621   0.958  14.247
   57MPD2    H7  890   2.674   1.040  14.274
   58TCq2    C1  891   3.122   0.892  14.128
   58TCq2    O2  892   3.109   0.999  14.187
   58TCq2    C2  893   3.255   0.855  14.087
   58TCq2    C3  894   3.298   0.738  14.148
   58TCq2    C4  895   3.397   0.671  14.086
   58TCq2    C5  896   3.459   0.726  13.977
   58TCq2    C6  897   3.413   0.846  13.921
   58TCq2    C7  898   3.309   0.909  13.973
   58TCq2    C8  899   3.485   0.879  13.799
   58TCq2    O4  900   3.445   0.983  13.740
   58TCq2    C9  901   3.445   0.545  14.132
   58TCq2    O5  902   3.533   0.482  14.061
   58TCq2    O6  903   3.375   0.492  14.225
   58TCq2    H2  904   3.263   0.692  14.240
   58TCq2    H3  905   3.547   0.670  13.950
   58TCq2    H4  906   3.268   0.996  13.923
   59TMC2    C1  907   0.590   1.060  13.286
   59TMC2    C2  908   0.613   0.930  13.326
   59TMC2    C3  909   0.571   0.832  13.236
   59TMC2    C4  910   0.552   1.100  13.161
   59TMC2    C5  911   0.527   0.991  13.066
   59TMC2    C6  912   0.525   0.862  13.112
   59TMC2     C  913   0.617   1.168  13.380
   59TMC2     O  914   0.547   1.269  13.376
   59TMC2     H  915   0.625   0.915  13.433
   59TMC2    H1  916   0.528   1.205  13.146
   59TMC2    H2  917   0.499   0.787  13.039
   59TMC2    C7  918   0.540   1.001  12.921
   59TMC2    C8  919   0.562   0.692  13.268
   59TMC2    O1  920   0.555   0.900  12.849
   59TMC2    O2  921   0.488   0.616  13.207
   59TMC2    O5  922   0.666   0.671  13.349
   59TMC2    H5  923   0.729   0.744  13.364
   60MPD2     C  924   0.691   1.322  13.621
   60MPD2    C1  925   0.772   1.225  13.560
   60MPD2    C2  926   0.904   1.212  13.603
   60MPD2    C3  927   0.956   1.287  13.701
   60MPD2    C4  928   0.877   1.385  13.758
   60MPD2    C5  929   0.742   1.397  13.726
   60MPD2     H  930   0.957   1.131  13.553
   60MPD2    H1  931   0.915   1.437  13.846
   60MPD2    H2  932   0.585   1.337  13.603
   60MPD2    H3  933   0.693   1.469  13.791
   60MPD2     N  934   1.089   1.280  13.741
   60MPD2    H5  935   1.108   1.302  13.838
   60MPD2    N1  936   0.727   1.147  13.456
   60MPD2    H7  937   0.793   1.080  13.418
   61TMC2    C1  938   4.753   2.067  15.505
   61TMC2    C2  939   4.731   1.990  15.619
   61TMC2    C3  940   4.769   2.040  15.745
   61TMC2    C4  941   0.043   2.185  15.517
   61TMC2    C5  942   0.080   2.233  15.644
   61TMC2    C6  943   0.049   2.164  15.760
   61TMC2     C  944   4.749   1.995  15.378
   61TMC2     O  945   4.693   1.886  15.376
   61TMC2     H  946   4.669   1.902  15.631
   61TMC2    H1  947   0.063   2.247  15.430
   61TMC2    H2  948   0.057   2.218  15.853
   61TMC2    C7  949   0.128   2.374  15.650
   61TMC2    C8  950   4.700   1.987  15.864
   61TMC2    O1  951   0.093   2.451  15.561
   61TMC2    O2  952   4.654   2.054  15.955
   61TMC2    O5  953   4.718   1.854  15.872
   61TMC2    H5  954   4.764   1.809  15.798
   62MPD2     C  955   4.750   1.894  15.089
   62MPD2    C1  956   0.027   2.008  15.134
   62MPD2    C2  957   0.105   2.070  15.040
   62MPD2    C3  958   0.101   2.041  14.903
   62MPD2    C4  959   0.043   1.924  14.868
   62MPD2    C5  960   4.761   1.844  14.965
   62MPD2     H  961   0.165   2.157  15.067
   62MPD2    H1  962   0.051   1.883  14.768
   62MPD2    H2  963   4.691   1.833  15.157
   62MPD2    H3  964   4.726   1.743  14.946
   62MPD2     N  965   0.161   2.116  14.801
   62MPD2    H5  966   0.173   2.072  14.710
   62MPD2    N1  967   0.027   2.056  15.269
   62MPD2    H7  968   0.090   2.135  15.280
   63TMC2    C1  969   4.222   3.059  10.790
   63TMC2    C2  970   4.341   3.003  10.827
   63TMC2    C3  971   4.438   3.016  10.736
   63TMC2    C4  972   4.202   3.126  10.676
   63TMC2    C5  973   4.306   3.156  10.598
   63TMC2    C6  974   4.426   3.090  10.627
   63TMC2     C  975   4.105   3.033  10.876
   63TMC2     O  976   4.014   3.119  10.880
   63TMC2     H  977   4.350   2.978  10.932
   63TMC2    H1  978   4.101   3.155  10.651
   63TMC2    H2  979   4.511   3.111  10.564
   63TMC2    C7  980   4.277   3.148  10.456
   63TMC2    C8  981   4.566   2.953  10.759
   63TMC2    O1  982   4.182   3.075  10.424
   63TMC2    O2  983   4.669   2.974  10.695
   63TMC2    O5  984   4.551   2.856  10.853
   63TMC2    H5  985   4.458   2.831  10.873
   64MPD2     C  986   3.801   2.669  11.090
   64MPD2    C1  987   3.930   2.621  11.076
   64MPD2    C2  988   4.029   2.703  11.027
   64MPD2    C3  989   4.003   2.834  10.988
   64MPD2    C4  990   3.875   2.885  11.003
   64MPD2    C5  991   3.775   2.796  11.050
   64MPD2     H  992   4.128   2.660  11.016
   64MPD2    H1  993   3.848   2.987  10.977
   64MPD2    H2  994   3.715   2.614  11.127
   64MPD2    H3  995   3.672   2.828  11.056
   64MPD2     N  996   4.110   2.905  10.924
   64MPD2    H5  997   4.189   2.851  10.891
   64MPD2    N1  998   3.962   2.480  11.100
   64MPD2    H7  999   4.058   2.448  11.091
   65TMC2    C1 1000   1.049   1.966  15.867
   65TMC2    C2 1001   1.057   1.932  15.731
   65TMC2    C3 1002   1.052   2.031  15.638
   65TMC2    C4 1003   1.028   2.094  15.913
   65TMC2    C5 1004   1.008   2.187  15.814
   65TMC2    C6 1005   1.038   2.159  15.680
   65TMC2     C 1006   1.069   1.874  15.975
   65TMC2     O 1007   1.105   1.920  16.085
   65TMC2     H 1008   1.077   1.829  15.703
   65TMC2    H1 1009   1.006   2.116  16.017
   65TMC2    H2 1010   1.030   2.238  15.606
   65TMC2    C7 1011   0.990   2.327  15.849
   65TMC2    C8 1012   1.100   2.002  15.504
   65TMC2    O1 1013   1.042   2.402  15.768
   65TMC2    O2 1014   1.205   1.941  15.484
   65TMC2    O5 1015   1.059   2.099  15.429
   65TMC2    H5 1016   0.974   2.139  15.458
   66MPD2     C 1017   1.095   1.644  16.182
   66MPD2    C1 1018   1.055   1.630  16.046
   66MPD2    C2 1019   1.029   1.502  16.006
   66MPD2    C3 1020   1.038   1.388  16.087
   66MPD2    C4 1021   1.081   1.409  16.216
   66MPD2    C5 1022   1.111   1.532  16.260
   66MPD2     H 1023   0.990   1.495  15.905
   66MPD2    H1 1024   1.109   1.322  16.274
   66MPD2    H2 1025   1.123   1.742  16.219
   66MPD2    H3 1026   1.151   1.546  16.360
   66MPD2     N 1027   1.010   1.260  16.046
   66MPD2    H5 1028   1.006   1.190  16.120
   66MPD2    N1 1029   1.036   1.738  15.952
   66MPD2    H7 1030   1.001   1.711  15.861
   67TMC2    C1 1031   1.102   1.286  14.739
   67TMC2    C2 1032   1.038   1.400  14.778
   67TMC2    C3 1033   1.113   1.486  14.852
   67TMC2    C4 1034   1.226   1.253  14.793
   67TMC2    C5 1035   1.292   1.338  14.872
   67TMC2    C6 1036   1.234   1.452  14.911
   67TMC2     C 1037   1.031   1.193  14.660
   67TMC2     O 1038   1.085   1.087  14.631
   67TMC2     H 1039   0.941   1.435  14.744
   67TMC2    H1 1040   1.273   1.160  14.762
   67TMC2    H2 1041   1.295   1.534  14.947
   67TMC2    C7 1042   1.406   1.288  14.946
   67TMC2    C8 1043   1.062   1.622  14.867
   67TMC2    O1 1044   1.477   1.208  14.885
   67TMC2    O2 1045   0.977   1.675  14.796
   67TMC2    O5 1046   1.087   1.653  14.993
   67TMC2    H5 1047   1.148   1.594  15.042
   68MPD2     C 1048   0.865   1.084  14.432
   68MPD2    C1 1049   0.817   1.171  14.534
   68MPD2    C2 1050   0.682   1.204  14.530
   68MPD2    C3 1051   0.594   1.159  14.435
   68MPD2    C4 1052   0.643   1.079  14.330
   68MPD2    C5 1053   0.777   1.043  14.332
   68MPD2     H 1054   0.653   1.273  14.608
   68MPD2    H1 1055   0.577   1.029  14.260
   68MPD2    H2 1056   0.959   1.031  14.418
   68MPD2    H3 1057   0.812   0.968  14.262
   68MPD2     N 1058   0.466   1.210  14.426
   68MPD2    H5 1059   0.415   1.186  14.341
   68MPD2    N1 1060   0.897   1.226  14.637
   68MPD2    H7 1061   0.848   1.290  14.699
   69MPD2     C 1062   3.374   2.657  13.217
   69MPD2    C1 1063   3.252   2.587  13.212
   69MPD2    C2 1064   3.220   2.503  13.314
   69MPD2    C3 1065   3.312   2.468  13.412
   69MPD2    C4 1066   3.435   2.518  13.403
   69MPD2    C5 1067   3.461   2.624  13.319
   69MPD2     H 1068   3.122   2.458  13.322
   69MPD2    H1 1069   3.513   2.491  13.474
   69MPD2    H2 1070   3.404   2.728  13.141
   69MPD2    H3 1071   3.552   2.682  13.321
   69MPD2     N 1072   3.278   2.372  13.509
   69MPD2    H5 1073   3.364   2.354  13.560
   69MPD2    N1 1074   3.164   2.623  13.108
   69MPD2    H7 1075   3.210   2.680  13.038
   70TCq2    C1 1076   3.048   2.566  13.069
   70TCq2    O2 1077   3.001   2.459  13.103
   70TCq2    C2 1078   3.002   2.624  12.952
   70TCq2    C3 1079   2.870   2.609  12.921
   70TCq2    C4 1080   2.833   2.632  12.794
   70TCq2    C5 1081   2.924   2.671  12.698
   70TCq2    C6 1082   3.056   2.689  12.740
   70TCq2    C7 1083   3.098   2.671  12.867
   70TCq2    C8 1084   3.159   2.725  12.643
   70TCq2    O4 1085   3.273   2.731  12.684
   70TCq2    C9 1086   2.697   2.606  12.752
   70TCq2    O5 1087   2.622   2.538  12.834
   70TCq2    O6 1088   2.652   2.650  12.641
   70TCq2    H2 1089   2.796   2.569  12.990
   70TCq2    H3 1090   2.886   2.683  12.597
   70TCq2    H4 1091   3.204   2.685  12.883
   71TMC2    C1 1092   0.028   3.211  19.563
   71TMC2    C2 1093   0.008   3.341  19.546
   71TMC2    C3 1094   4.664   3.391  19.559
   71TMC2    C4 1095   4.704   3.125  19.597
   71TMC2    C5 1096   4.582   3.175  19.612
   71TMC2    C6 1097   4.553   3.308  19.585
   71TMC2     C 1098   0.149   3.163  19.508
   71TMC2     O 1099   0.208   3.229  19.424
   71TMC2     H 1100   0.085   3.415  19.526
   71TMC2    H1 1101   4.705   3.017  19.607
   71TMC2    H2 1102   4.456   3.356  19.591
   71TMC2    C7 1103   4.472   3.078  19.614
   71TMC2    C8 1104   4.649   3.541  19.565
   71TMC2    O1 1105   4.484   2.981  19.688
   71TMC2    O2 1106   4.730   3.620  19.519
   71TMC2    O5 1107   4.547   3.567  19.652
   71TMC2    H5 1108   4.507   3.494  19.704
   72MPD2     C 1109   0.544   2.819  19.486
   72MPD2    C1 1110   0.507   2.918  19.398
   72MPD2    C2 1111   0.393   2.993  19.425
   72MPD2    C3 1112   0.313   2.978  19.541
   72MPD2    C4 1113   0.358   2.876  19.629
   72MPD2    C5 1114   0.459   2.796  19.595
   72MPD2     H 1115   0.359   3.064  19.350
   72MPD2    H1 1116   0.303   2.867  19.722
   72MPD2    H2 1117   0.619   2.741  19.473
   72MPD2    H3 1118   0.500   2.725  19.665
   72MPD2     N 1119   0.199   3.048  19.570
   72MPD2    H5 1120   0.142   3.011  19.646
   72MPD2    N1 1121   0.572   2.935  19.274
   72MPD2    H7 1122   0.518   2.985  19.205
   73TMC2    C1 1123   0.131   4.631  14.354
   73TMC2    C2 1124   0.073   4.679  14.464
   73TMC2    C3 1125   0.125   4.667  14.592
   73TMC2    C4 1126   0.249   4.553  14.371
   73TMC2    C5 1127   0.312   4.548  14.496
   73TMC2    C6 1128   0.247   4.599  14.608
   73TMC2     C 1129   0.138   4.722  14.241
   73TMC2     O 1130   0.249   4.730  14.185
   73TMC2     H 1131   4.766   4.741  14.451
   73TMC2    H1 1132   0.311   4.514  14.291
   73TMC2    H2 1133   0.294   4.623  14.703
   73TMC2    C7 1134   0.448   4.594  14.492
   73TMC2    C8 1135   0.045   4.690  14.709
   73TMC2    O1 1136   0.518   4.569  14.590
   73TMC2    O2 1137   0.059   4.612  14.801
   73TMC2    O5 1138   4.729   4.779  14.679
   73TMC2    H5 1139   4.759   0.058  14.608
   74MPD2     C 1140   4.752   0.352  13.988
   74MPD2    C1 1141   0.097   0.317  14.035
   74MPD2    C2 1142   0.113   0.204  14.108
   74MPD2    C3 1143   0.006   0.133  14.145
   74MPD2    C4 1144   4.661   0.175  14.114
   74MPD2    C5 1145   4.646   0.285  14.034
   74MPD2     H 1146   0.208   0.167  14.143
   74MPD2    H1 1147   4.570   0.127  14.148
   74MPD2    H2 1148   4.735   0.444  13.934
   74MPD2    H3 1149   4.547   0.311  13.997
   74MPD2     N 1150   0.023   0.009  14.215
   74MPD2    H5 1151   4.718   4.764  14.263
   74MPD2    N1 1152   0.207   0.409  14.011
   74MPD2    H7 1153   0.186   0.486  13.948
   75TMC2    C1 1154   0.279   1.354  14.470
   75TMC2    C2 1155   0.216   1.431  14.559
   75TMC2    C3 1156   0.111   1.511  14.520
   75TMC2    C4 1157   0.253   1.370  14.339
   75TMC2    C5 1158   0.158   1.460  14.300
   75TMC2    C6 1159   0.081   1.536  14.387
   75TMC2     C 1160   0.406   1.294  14.520
   75TMC2     O 1161   0.445   1.322  14.631
   75TMC2     H 1162   0.229   1.413  14.665
   75TMC2    H1 1163   0.307   1.313  14.264
   75TMC2    H2 1164   0.002   1.602  14.354
   75TMC2    C7 1165   0.127   1.464  14.165
   75TMC2    C8 1166   0.060   1.606  14.618
   75TMC2    O1 1167   0.125   1.361  14.104
   75TMC2    O2 1168   0.014   1.715  14.582
   75TMC2    O5 1169   0.003   1.530  14.713
   75TMC2    H5 1170   0.030   1.436  14.703
   76TMC2    C1 1171   4.217   1.709  12.304
   76TMC2    C2 1172   4.129   1.619  12.253
   76TMC2    C3 1173   4.134   1.495  12.302
   76TMC2    C4 1174   4.327   1.665  12.369
   76TMC2    C5 1175   4.333   1.538  12.408
   76TMC2    C6 1176   4.234   1.451  12.381
   76TMC2     C 1177   4.192   1.850  12.263
   76TMC2     O 1178   4.114   1.865  12.172
   76TMC2     H 1179   4.037   1.654  12.209
   76TMC2    H1 1180   4.420   1.721  12.366
   76TMC2    H2 1181   4.236   1.352  12.426
   76TMC2    C7 1182   4.441   1.490  12.495
   76TMC2    C8 1183   4.048   1.395  12.236
   76TMC2    O1 1184   4.470   1.371  12.485
   76TMC2    O2 1185   3.990   1.421  12.132
   76TMC2    O5 1186   4.056   1.278  12.298
   76TMC2    H5 1187   4.094   1.279  12.389
   77MPD2     C 1188   4.254   2.345  12.381
   77MPD2    C1 1189   4.152   2.278  12.315
   77MPD2    C2 1190   4.161   2.143  12.290
   77MPD2    C3 1191   4.262   2.072  12.348
   77MPD2    C4 1192   4.358   2.139  12.427
   77MPD2    C5 1193   4.359   2.281  12.443
   77MPD2     H 1194   4.083   2.090  12.238
   77MPD2    H1 1195   4.436   2.081  12.475
   77MPD2    H2 1196   4.254   2.451  12.402
   77MPD2    H3 1197   4.438   2.332  12.496
   77MPD2     N 1198   4.270   1.931  12.345
   77MPD2    H5 1199   4.321   1.885  12.420
   77MPD2    N1 1200   4.039   2.345  12.268
   77MPD2    H7 1201   3.986   2.292  12.199
   78TMC2    C1 1202   0.749   2.070  18.544
   78TMC2    C2 1203   0.815   2.005  18.649
   78TMC2    C3 1204   0.944   2.034  18.670
   78TMC2    C4 1205   0.815   2.140  18.451
   78TMC2    C5 1206   0.948   2.168  18.485
   78TMC2    C6 1207   1.017   2.108  18.587
   78TMC2     C 1208   0.614   2.028  18.507
   78TMC2     O 1209   0.549   2.103  18.432
   78TMC2     H 1210   0.757   1.951  18.723
   78TMC2    H1 1211   0.770   2.182  18.362
   78TMC2    H2 1212   1.123   2.130  18.599
   78TMC2    C7 1213   1.005   2.293  18.439
   78TMC2    C8 1214   1.004   1.971  18.791
   78TMC2    O1 1215   1.052   2.362  18.527
   78TMC2    O2 1216   0.942   1.910  18.877
   78TMC2    O5 1217   1.141   1.984  18.788
   78TMC2    H5 1218   1.162   1.989  18.692
   79MPD1     C 1219   0.220   1.720  18.514
   79MPD1    C1 1220   0.227   1.837  18.453
   79MPD1    C2 1221   0.350   1.899  18.462
   79MPD1    C3 1222   0.456   1.847  18.541
   79MPD1    C4 1223   0.435   1.726  18.599
   79MPD1    C5 1224   0.316   1.659  18.588
   79MPD1     H 1225   0.375   1.993  18.413
   79MPD1    H1 1226   0.503   1.668  18.660
   79MPD1    H2 1227   0.128   1.662  18.514
   79MPD1    H3 1228   0.317   1.555  18.618
   79MPD1     N 1229   0.577   1.910  18.563
   79MPD1    H5 1230   0.647   1.861  18.618
   79MPD1    N1 1231   0.115   1.893  18.386
   79MPD1    H6 1232   0.139   1.941  18.299
   79MPD1    H7 1233   0.043   1.822  18.378
   80MPD2     C 1234   3.618   1.599  12.726
   80MPD2    C1 1235   3.507   1.681  12.719
   80MPD2    C2 1236   3.447   1.739  12.828
   80MPD2    C3 1237   3.499   1.707  12.950
   80MPD2    C4 1238   3.607   1.617  12.965
   80MPD2    C5 1239   3.668   1.569  12.850
   80MPD2     H 1240   3.358   1.799  12.810
   80MPD2    H1 1241   3.632   1.593  13.068
   80MPD2    H2 1242   3.661   1.549  12.640
   80MPD2    H3 1243   3.757   1.510  12.868
   80MPD2     N 1244   3.454   1.761  13.072
   80MPD2    H5 1245   3.483   1.717  13.159
   80MPD2    N1 1246   3.438   1.715  12.601
   80MPD2    H7 1247   3.348   1.760  12.611
   81TCq2    C1 1248   3.479   1.696  12.474
   81TCq2    O2 1249   3.587   1.660  12.422
   81TCq2    C2 1250   3.379   1.736  12.372
   81TCq2    C3 1251   3.437   1.771  12.260
   81TCq2    C4 1252   3.378   1.744  12.141
   81TCq2    C5 1253   3.259   1.680  12.130
   81TCq2    C6 1254   3.206   1.633  12.249
   81TCq2    C7 1255   3.266   1.658  12.370
   81TCq2    C8 1256   3.100   1.530  12.231
   81TCq2    O4 1257   3.063   1.508  12.117
   81TCq2    C9 1258   3.453   1.768  12.029
   81TCq2    O5 1259   3.529   1.865  12.034
   81TCq2    O6 1260   3.435   1.700  11.924
   81TCq2    H2 1261   3.533   1.820  12.262
   81TCq2    H3 1262   3.218   1.657  12.032
   81TCq2    H4 1263   3.228   1.639  12.470
   82TMC2    C1 1264   1.170   1.166  11.512
   82TMC2    C2 1265   1.270   1.229  11.577
   82TMC2    C3 1266   1.364   1.157  11.649
   82TMC2    C4 1267   1.141   1.034  11.527
   82TMC2    C5 1268   1.222   0.965  11.613
   82TMC2    C6 1269   1.332   1.027  11.674
   82TMC2     C 1270   1.057   1.239  11.456
   82TMC2     O 1271   0.986   1.192  11.365
   82TMC2     H 1272   1.301   1.329  11.547
   82TMC2    H1 1273   1.062   0.984  11.471
   82TMC2    H2 1274   1.395   0.962  11.734
   82TMC2    C7 1275   1.172   0.831  11.650
   82TMC2    C8 1276   1.479   1.218  11.721
   82TMC2    O1 1277   1.191   0.798  11.766
   82TMC2    O2 1278   1.576   1.159  11.767
   82TMC2    O5 1279   1.431   1.337  11.758
   82TMC2    H5 1280   1.334   1.348  11.750
   83MPD2     C 1281   0.668   1.557  11.539
   83MPD2    C1 1282   0.713   1.500  11.424
   83MPD2    C2 1283   0.832   1.431  11.423
   83MPD2    C3 1284   0.894   1.412  11.543
   83MPD2    C4 1285   0.847   1.471  11.663
   83MPD2    C5 1286   0.730   1.542  11.661
   83MPD2     H 1287   0.873   1.398  11.328
   83MPD2    H1 1288   0.909   1.480  11.752
   83MPD2    H2 1289   0.570   1.604  11.541
   83MPD2    H3 1290   0.687   1.578  11.754
   83MPD2     N 1291   1.006   1.332  11.551
   83MPD2    H5 1292   1.063   1.358  11.631
   83MPD2    N1 1293   0.634   1.529  11.311
   83MPD2    H7 1294   0.543   1.569  11.331
   84TCq2    C1 1295   2.425   0.100  11.211
   84TCq2    O2 1296   2.413   0.005  11.127
   84TCq2    C2 1297   2.389   0.075  11.349
   84TCq2    C3 1298   2.407   4.734  11.401
   84TCq2    C4 1299   2.402   4.709  11.533
   84TCq2    C5 1300   2.372   0.032  11.615
   84TCq2    C6 1301   2.347   0.159  11.555
   84TCq2    C7 1302   2.346   0.183  11.421
   84TCq2    C8 1303   2.299   0.265  11.639
   84TCq2    O4 1304   2.260   0.364  11.575
   84TCq2    C9 1305   2.442   4.582  11.588
   84TCq2    O5 1306   2.413   4.560  11.707
   84TCq2    O6 1307   2.528   4.519  11.518
   84TCq2    H2 1308   2.432   4.646  11.342
   84TCq2    H3 1309   2.397   0.021  11.720
   84TCq2    H4 1310   2.331   0.280  11.375
   85TMC2    C1 1311   3.098   3.145  16.011
   85TMC2    C2 1312   2.989   3.223  16.039
   85TMC2    C3 1313   2.984   3.352  15.993
   85TMC2    C4 1314   3.198   3.205  15.933
   85TMC2    C5 1315   3.184   3.329  15.880
   85TMC2    C6 1316   3.074   3.410  15.907
   85TMC2     C 1317   3.136   3.032  16.099
   85TMC2     O 1318   3.251   3.030  16.135
   85TMC2     H 1319   2.935   3.190  16.127
   85TMC2    H1 1320   3.294   3.155  15.925
   85TMC2    H2 1321   3.054   3.510  15.869
   85TMC2    C7 1322   3.274   3.365  15.773
   85TMC2    C8 1323   2.867   3.428  16.015
   85TMC2    O1 1324   3.351   3.273  15.741
   85TMC2    O2 1325   2.862   3.547  15.996
   85TMC2    O5 1326   2.763   3.351  16.055
   85TMC2    H5 1327   2.778   3.255  16.065
   86MPD2     C 1328   2.988   2.709  16.462
   86MPD2    C1 1329   2.899   2.698  16.359
   86MPD2    C2 1330   2.917   2.774  16.243
   86MPD2    C3 1331   3.017   2.874  16.242
   86MPD2    C4 1332   3.108   2.881  16.349
   86MPD2    C5 1333   3.088   2.804  16.458
   86MPD2     H 1334   2.850   2.753  16.160
   86MPD2    H1 1335   3.179   2.962  16.344
   86MPD2    H2 1336   2.984   2.643  16.548
   86MPD2    H3 1337   3.155   2.803  16.543
   86MPD2     N 1338   3.023   2.965  16.133
   86MPD2    H5 1339   2.937   2.971  16.079
   86MPD2    N1 1340   2.802   2.594  16.346
   86MPD2    H7 1341   2.742   2.590  16.265
   87TMC2    C1 1342   1.066   1.131  19.122
   87TMC2    C2 1343   1.154   1.226  19.155
   87TMC2    C3 1344   1.110   1.338  19.221
   87TMC2    C4 1345   0.937   1.135  19.162
   87TMC2    C5 1346   0.900   1.255  19.221
   87TMC2    C6 1347   0.983   1.349  19.268
   87TMC2     C 1348   1.105   1.028  19.033
   87TMC2     O 1349   1.174   1.067  18.939
   87TMC2     H 1350   1.260   1.207  19.142
   87TMC2    H1 1351   0.865   1.069  19.116
   87TMC2    H2 1352   0.946   1.444  19.305
   87TMC2    C7 1353   0.762   1.300  19.206
   87TMC2    C8 1354   1.204   1.441  19.261
   87TMC2    O1 1355   0.744   1.420  19.213
   87TMC2    O2 1356   1.176   1.508  19.360
   87TMC2    O5 1357   1.329   1.431  19.220
   87TMC2    H5 1358   1.327   1.386  19.133
   88MPD2     C 1359   0.473   1.112  19.062
   88MPD2    C1 1360   0.548   1.221  19.095
   88MPD2    C2 1361   0.494   1.346  19.072
   88MPD2    C3 1362   0.369   1.363  19.006
   88MPD2    C4 1363   0.300   1.246  18.970
   88MPD2    C5 1364   0.356   1.124  19.000
   88MPD2     H 1365   0.548   1.433  19.106
   88MPD2    H1 1366   0.208   1.248  18.912
   88MPD2    H2 1367   0.506   1.009  19.074
   88MPD2    H3 1368   0.303   1.039  18.959
   88MPD2     N 1369   0.295   1.481  18.982
   88MPD2    H5 1370   0.228   1.483  18.905
   88MPD2    N1 1371   0.676   1.203  19.160
   88MPD2    H7 1372   0.697   1.105  19.174
   89TMC2    C1 1373   1.770   4.528  19.972
   89TMC2    C2 1374   1.692   4.592  19.884
   89TMC2    C3 1375   1.753   4.682  19.800
   89TMC2    C4 1376   1.909   4.552  19.976
   89TMC2    C5 1377   1.962   4.654  19.903
   89TMC2    C6 1378   1.886   4.718  19.813
   89TMC2     C 1379   1.722   4.397  20.029
   89TMC2     O 1380   1.810   4.321  20.068
   89TMC2     H 1381   1.585   4.573  19.877
   89TMC2    H1 1382   1.964   4.520  20.064
   89TMC2    H2 1383   1.920   0.020  19.752
   89TMC2    C7 1384   2.053   4.743  19.983
   89TMC2    C8 1385   1.661   4.750  19.702
   89TMC2    O1 1386   2.048   4.727  20.105
   89TMC2    O2 1387   1.554   0.018  19.741
   89TMC2    O5 1388   1.731   4.779  19.593
   89TMC2    H5 1389   1.792   4.704  19.575
   90MPD2     C 1390   1.382   4.013  20.009
   90MPD2    C1 1391   1.323   4.133  19.972
   90MPD2    C2 1392   1.393   4.243  19.980
   90MPD2    C3 1393   1.524   4.248  20.007
   90MPD2    C4 1394   1.582   4.130  20.033
   90MPD2    C5 1395   1.514   4.013  20.040
   90MPD2     H 1396   1.347   4.325  19.926
   90MPD2    H1 1397   1.685   4.115  20.062
   90MPD2    H2 1398   1.334   3.917  19.995
   90MPD2    H3 1399   1.577   3.927  20.060
   90MPD2     N 1400   1.586   4.376  20.019
   90MPD2    H5 1401   1.533   4.459  19.994
   90MPD2    N1 1402   1.191   4.141  19.921
   90MPD2    H7 1403   1.147   4.230  19.940
   91TMC2    C1 1404   2.957   4.016  16.600
   91TMC2    C2 1405   2.991   4.110  16.689
   91TMC2    C3 1406   2.897   4.148  16.779
   91TMC2    C4 1407   2.836   3.960  16.606
   91TMC2    C5 1408   2.743   3.991  16.703
   91TMC2    C6 1409   2.780   4.082  16.802
   91TMC2     C 1410   3.051   3.981  16.499
   91TMC2     O 1411   3.010   3.926  16.395
   91TMC2     H 1412   3.086   4.161  16.690
   91TMC2    H1 1413   2.810   3.883  16.534
   91TMC2    H2 1414   2.702   4.114  16.870
   91TMC2    C7 1415   2.632   3.909  16.717
   91TMC2    C8 1416   2.921   4.261  16.862
   91TMC2    O1 1417   2.596   3.900  16.836
   91TMC2    O2 1418   2.857   4.274  16.969
   91TMC2    O5 1419   2.971   4.362  16.790
   91TMC2    H5 1420   3.019   4.343  16.706
   92MPD2     C 1421   3.298   3.922  16.336
   92MPD2    C1 1422   3.303   3.992  16.454
   92MPD2    C2 1423   3.423   4.032  16.501
   92MPD2    C3 1424   3.539   4.011  16.435
   92MPD2    C4 1425   3.529   3.936  16.323
   92MPD2    C5 1426   3.414   3.893  16.274
   92MPD2     H 1427   3.416   4.093  16.590
   92MPD2    H1 1428   3.614   3.914  16.259
   92MPD2    H2 1429   3.208   3.890  16.284
   92MPD2    H3 1430   3.407   3.857  16.172
   92MPD2     N 1431   3.668   4.042  16.490
   92MPD2    H5 1432   3.667   4.113  16.563
   92MPD2    N1 1433   3.184   4.017  16.535
   92MPD2    H7 1434   3.200   4.045  16.631
   93MPD2     C 1435   4.714   4.125  13.966
   93MPD2    C1 1436   4.716   4.140  14.110
   93MPD2    C2 1437   4.600   4.141  14.184
   93MPD2    C3 1438   4.475   4.124  14.117
   93MPD2    C4 1439   4.477   4.108  13.983
   93MPD2    C5 1440   4.595   4.108  13.906
   93MPD2     H 1441   4.610   4.154  14.291
   93MPD2    H1 1442   4.382   4.108  13.931
   93MPD2    H2 1443   0.027   4.125  13.913
   93MPD2    H3 1444   4.591   4.096  13.798
   93MPD2     N 1445   4.350   4.140  14.175
   93MPD2    H5 1446   4.268   4.142  14.115
   93MPD2    N1 1447   0.056   4.171  14.178
   93MPD2    H7 1448   0.054   4.161  14.279
   94TCq2    C1 1449   0.182   4.186  14.124
   94TCq2    O2 1450   0.211   4.201  14.005
   94TCq2    C2 1451   0.288   4.212  14.216
   94TCq2    C3 1452   0.271   4.174  14.345
   94TCq2    C4 1453   0.376   4.194  14.433
   94TCq2    C5 1454   0.499   4.247  14.401
   94TCq2    C6 1455   0.510   4.285  14.267
   94TCq2    C7 1456   0.409   4.261  14.177
   94TCq2    C8 1457   0.650   4.309  14.228
   94TCq2    O4 1458   0.736   4.239  14.271
   94TCq2    C9 1459   0.360   4.160  14.572
   94TCq2    O5 1460   0.463   4.112  14.637
   94TCq2    O6 1461   0.245   4.187  14.613
   94TCq2    H2 1462   0.178   4.136  14.386
   94TCq2    H3 1463   0.577   4.259  14.476
   94TCq2    H4 1464   0.429   4.286  14.073
   95TMC2    C1 1465   4.766   0.840  15.921
   95TMC2    C2 1466   4.699   0.776  16.020
   95TMC2    C3 1467   4.575   0.723  15.978
   95TMC2    C4 1468   4.725   0.860  15.796
   95TMC2    C5 1469   4.601   0.813  15.762
   95TMC2    C6 1470   4.525   0.741  15.849
   95TMC2     C 1471   0.127   0.816  15.926
   95TMC2     O 1472   0.200   0.902  15.877
   95TMC2     H 1473   4.737   0.764  16.121
   95TMC2    H1 1474   0.020   0.879  15.721
   95TMC2    H2 1475   4.428   0.699  15.823
   95TMC2    C7 1476   4.562   0.830  15.625
   95TMC2    C8 1477   4.482   0.660  16.071
   95TMC2    O1 1478   4.626   0.917  15.566
   95TMC2    O2 1479   4.388   0.589  16.033
   95TMC2    O5 1480   4.539   0.644  16.190
   95TMC2    H5 1481   4.595   0.720  16.219
   96MPD2     C 1482   0.547   0.529  16.006
   96MPD2    C1 1483   0.539   0.665  16.008
   96MPD2    C2 1484   0.407   0.722  16.006
   96MPD2    C3 1485   0.291   0.646  15.999
   96MPD2    C4 1486   0.311   0.514  16.015
   96MPD2    C5 1487   0.429   0.456  16.017
   96MPD2     H 1488   0.386   0.828  15.995
   96MPD2    H1 1489   0.226   0.447  16.002
   96MPD2    H2 1490   0.641   0.475  16.003
   96MPD2    H3 1491   0.424   0.348  16.022
   96MPD2     N 1492   0.163   0.696  15.972
   96MPD2    H5 1493   0.090   0.628  15.953
   96MPD2    N1 1494   0.655   0.739  15.996
   96MPD2    H7 1495   0.745   0.693  15.984
   97MPD2     C 1496   1.889   3.316  18.374
   97MPD2    C1 1497   1.985   3.399  18.428
   97MPD2    C2 1498   2.054   3.492  18.340
   97MPD2    C3 1499   2.013   3.497  18.202
   97MPD2    C4 1500   1.920   3.398  18.164
   97MPD2    C5 1501   1.857   3.312  18.243
   97MPD2     H 1502   2.126   3.559  18.386
   97MPD2    H1 1503   1.893   3.407  18.059
   97MPD2    H2 1504   1.838   3.255  18.448
   97MPD2    H3 1505   1.774   3.263  18.192
   97MPD2     N 1506   2.044   3.601  18.118
   97MPD2    H5 1507   1.996   3.614  18.030
   97MPD2    N1 1508   1.997   3.398  18.566
   97MPD2    H7 1509   1.919   3.359  18.618
   98TCq2    C1 1510   2.153   3.681  18.136
   98TCq2    O2 1511   2.255   3.649  18.193
   98TCq2    C2 1512   2.140   3.806  18.072
   98TCq2    C3 1513   2.012   3.861  18.061
   98TCq2    C4 1514   2.011   3.998  18.034
   98TCq2    C5 1515   2.116   4.071  17.992
   98TCq2    C6 1516   2.238   4.014  18.017
   98TCq2    C7 1517   2.250   3.888  18.053
   98TCq2    C8 1518   2.353   4.104  18.035
   98TCq2    O4 1519   2.452   4.053  18.095
   98TCq2    C9 1520   1.881   4.062  18.038
   98TCq2    O5 1521   1.880   4.182  17.998
   98TCq2    O6 1522   1.781   3.988  18.065
   98TCq2    H2 1523   1.919   3.816  18.094
   98TCq2    H3 1524   2.099   4.176  17.973
   98TCq2    H4 1525   2.345   3.846  18.085
   99TMC2    C1 1526   1.368   1.130  20.199
   99TMC2    C2 1527   1.432   1.215  20.287
   99TMC2    C3 1528   1.384   1.342  20.294
   99TMC2    C4 1529   1.250   1.158  20.139
   99TMC2    C5 1530   1.208   1.291  20.143
   99TMC2    C6 1531   1.274   1.383  20.217
   99TMC2     C 1532   1.431   1.000  20.171
   99TMC2     O 1533   1.516   0.957  20.248
   99TMC2     H 1534   1.526   1.191  20.335
   99TMC2    H1 1535   1.200   1.085  20.077
   99TMC2    H2 1536   1.230   1.482  20.224
   99TMC2    C7 1537   1.071   1.318  20.110
   99TMC2    C8 1538   1.484   1.444  20.324
   99TMC2    O1 1539   1.040   1.433  20.116
   99TMC2    O2 1540   1.597   1.414  20.365
   99TMC2    O5 1541   1.466   1.558  20.260
   99TMC2    H5 1542   1.379   1.544  20.218
  100MPD2     C 1543   1.541   0.758  20.038
  100MPD2    C1 1544   1.428   0.821  20.001
  100MPD2    C2 1545   1.347   0.765  19.906
  100MPD2    C3 1546   1.386   0.649  19.839
  100MPD2    C4 1547   1.503   0.592  19.869
  100MPD2    C5 1548   1.583   0.644  19.970
  100MPD2     H 1549   1.266   0.828  19.871
  100MPD2    H1 1550   1.510   0.488  19.841
  100MPD2    H2 1551   1.605   0.796  20.117
  100MPD2    H3 1552   1.678   0.598  19.993
  100MPD2     N 1553   1.308   0.605  19.729
  100MPD2    H5 1554   1.230   0.666  19.707
  100MPD2    N1 1555   1.382   0.942  20.054
  100MPD2    H7 1556   1.292   0.981  20.028
  101MPD2     C 1557   1.895   1.628  13.290
  101MPD2    C1 1558   1.792   1.702  13.342
  101MPD2    C2 1559   1.722   1.654  13.454
  101MPD2    C3 1560   1.757   1.524  13.497
  101MPD2    C4 1561   1.854   1.452  13.431
  101MPD2    C5 1562   1.926   1.503  13.333
  101MPD2     H 1563   1.646   1.715  13.500
  101MPD2    H1 1564   1.872   1.350  13.462
  101MPD2    H2 1565   1.959   1.679  13.219
  101MPD2    H3 1566   2.007   1.457  13.278
  101MPD2     N 1567   1.667   1.464  13.589
  101MPD2    H5 1568   1.604   1.521  13.645
  101MPD2    N1 1569   1.779   1.827  13.289
  101MPD2    H7 1570   1.846   1.856  13.218
  102TCq2    C1 1571   1.948   2.250  13.121
  102TCq2    O2 1572   2.007   2.147  13.092
  102TCq2    C2 1573   1.821   2.225  13.194
  102TCq2    C3 1574   1.713   2.292  13.139
  102TCq2    C4 1575   1.590   2.238  13.156
  102TCq2    C5 1576   1.568   2.115  13.217
  102TCq2    C6 1577   1.683   2.052  13.262
  102TCq2    C7 1578   1.809   2.105  13.256
  102TCq2    C8 1579   1.671   1.915  13.320
  102TCq2    O4 1580   1.572   1.895  13.383
  102TCq2    C9 1581   1.475   2.313  13.115
  102TCq2    O5 1582   1.363   2.251  13.127
  102TCq2    O6 1583   1.497   2.421  13.060
  102TCq2    H2 1584   1.717   2.387  13.088
  102TCq2    H3 1585   1.468   2.076  13.234
  102TCq2    H4 1586   1.893   2.038  13.273
  103TMC2    C1 1587   0.040   2.012  12.970
  103TMC2    C2 1588   0.169   2.056  12.930
  103TMC2    C3 1589   0.205   2.178  12.961
  103TMC2    C4 1590   4.746   2.087  13.060
  103TMC2    C5 1591   0.013   2.208  13.092
  103TMC2    C6 1592   0.132   2.257  13.045
  103TMC2     C 1593   4.750   1.911  12.904
  103TMC2     O 1594   4.632   1.899  12.910
  103TMC2     H 1595   0.232   1.993  12.868
  103TMC2    H1 1596   4.651   2.050  13.097
  103TMC2    H2 1597   0.167   2.358  13.065
  103TMC2    C7 1598   4.718   2.268  13.210
  103TMC2    C8 1599   0.327   2.224  12.901
  103TMC2    O1 1600   4.626   2.206  13.261
  103TMC2    O2 1601   0.421   2.154  12.866
  103TMC2    O5 1602   0.297   2.343  12.854
  103TMC2    H5 1603   0.202   2.366  12.860
  104MPD2     C 1604   0.092   1.591  12.750
  104MPD2    C1 1605   0.003   1.703  12.766
  104MPD2    C2 1606   4.660   1.696  12.702
  104MPD2    C3 1607   4.621   1.583  12.631
  104MPD2    C4 1608   4.698   1.471  12.631
  104MPD2    C5 1609   0.042   1.479  12.689
  104MPD2     H 1610   4.600   1.786  12.705
  104MPD2    H1 1611   4.672   1.376  12.586
  104MPD2    H2 1612   0.191   1.594  12.794
  104MPD2    H3 1613   0.104   1.391  12.673
  104MPD2     N 1614   4.495   1.588  12.574
  104MPD2    H5 1615   4.463   1.682  12.555
  104MPD2    N1 1616   0.055   1.813  12.838
  104MPD2    H7 1617   0.145   1.812  12.884
  105MPD2     C 1618   1.867   1.043  18.078
  105MPD2    C1 1619   1.757   1.073  17.994
  105MPD2    C2 1620   1.634   1.017  18.019
  105MPD2    C3 1621   1.620   0.935  18.127
  105MPD2    C4 1622   1.727   0.915  18.217
  105MPD2    C5 1623   1.849   0.979  18.195
  105MPD2     H 1624   1.542   1.030  17.964
  105MPD2    H1 1625   1.719   0.844  18.299
  105MPD2    H2 1626   1.966   1.086  18.078
  105MPD2    H3 1627   1.929   0.967  18.268
  105MPD2     N 1628   1.495   0.873  18.145
  105MPD2    H5 1629   1.430   0.888  18.068
  105MPD2    N1 1630   1.766   1.162  17.881
  105MPD2    H7 1631   1.680   1.175  17.829
  106TCq2    C1 1632   1.458   0.784  18.242
  106TCq2    O2 1633   1.526   0.729  18.331
  106TCq2    C2 1634   1.312   0.766  18.266
  106TCq2    C3 1635   1.230   0.877  18.239
  106TCq2    C4 1636   1.108   0.891  18.297
  106TCq2    C5 1637   1.069   0.797  18.383
  106TCq2    C6 1638   1.156   0.695  18.415
  106TCq2    C7 1639   1.274   0.665  18.360
  106TCq2    C8 1640   1.129   0.628  18.543
  106TCq2    O4 1641   1.170   0.513  18.561
  106TCq2    C9 1642   1.033   1.011  18.275
  106TCq2    O5 1643   0.924   1.015  18.332
  106TCq2    O6 1644   1.077   1.100  18.202
  106TCq2    H2 1645   1.266   0.954  18.172
  106TCq2    H3 1646   0.968   0.803  18.422
  106TCq2    H4 1647   1.333   0.582  18.396
  107TMC2    C1 1648   1.842   1.000  12.061
  107TMC2    C2 1649   1.844   1.038  11.924
  107TMC2    C3 1650   1.951   0.990  11.851
  107TMC2    C4 1651   1.934   0.910  12.106
  107TMC2    C5 1652   2.017   0.842  12.017
  107TMC2    C6 1653   2.022   0.884  11.890
  107TMC2     C 1654   1.738   1.034  12.151
  107TMC2     O 1655   1.738   0.989  12.264
  107TMC2     H 1656   1.792   1.126  11.887
  107TMC2    H1 1657   1.932   0.874  12.208
  107TMC2    H2 1658   2.100   0.842  11.827
  107TMC2    C7 1659   2.070   0.719  12.066
  107TMC2    C8 1660   1.921   0.989  11.703
  107TMC2    O1 1661   2.060   0.704  12.186
  107TMC2    O2 1662   2.003   0.932  11.634
  107TMC2    O5 1663   1.786   0.990  11.684
  107TMC2    H5 1664   1.735   1.014  11.765
  108MPD2     C 1665   1.443   1.255  12.099
  108MPD2    C1 1666   1.532   1.174  12.168
  108MPD2    C2 1667   1.509   1.159  12.301
  108MPD2    C3 1668   1.418   1.239  12.369
  108MPD2    C4 1669   1.336   1.324  12.300
  108MPD2    C5 1670   1.351   1.330  12.164
  108MPD2     H 1671   1.570   1.093  12.361
  108MPD2    H1 1672   1.252   1.371  12.351
  108MPD2    H2 1673   1.440   1.270  11.992
  108MPD2    H3 1674   1.269   1.371  12.105
  108MPD2     N 1675   1.389   1.208  12.507
  108MPD2    H5 1676   1.302   1.243  12.545
  108MPD2    N1 1677   1.639   1.113  12.093
  108MPD2    H7 1678   1.652   1.137  11.995
  109TMC2    C1 1679   1.926   2.867  19.119
  109TMC2    C2 1680   2.001   2.853  19.229
  109TMC2    C3 1681   1.934   2.851  19.356
  109TMC2    C4 1682   1.786   2.878  19.123
  109TMC2    C5 1683   1.729   2.888  19.250
  109TMC2    C6 1684   1.803   2.869  19.363
  109TMC2     C 1685   1.987   2.883  18.988
  109TMC2     O 1686   2.106   2.852  18.972
  109TMC2     H 1687   2.109   2.863  19.220
  109TMC2    H1 1688   1.725   2.860  19.035
  109TMC2    H2 1689   1.765   2.862  19.464
  109TMC2    C7 1690   1.588   2.880  19.278
  109TMC2    C8 1691   2.003   2.831  19.483
  109TMC2    O1 1692   1.553   2.824  19.382
  109TMC2    O2 1693   1.956   2.763  19.570
  109TMC2    O5 1694   2.074   2.942  19.496
  109TMC2    H5 1695   2.094   2.986  19.411
  110MPD2     C 1696   1.952   2.954  18.485
  110MPD2    C1 1697   1.828   2.993  18.541
  110MPD2    C2 1698   1.816   3.000  18.679
  110MPD2    C3 1699   1.924   2.960  18.756
  110MPD2    C4 1700   2.046   2.918  18.697
  110MPD2    C5 1701   2.056   2.920  18.565
  110MPD2     H 1702   1.723   3.015  18.733
  110MPD2    H1 1703   2.132   2.876  18.749
  110MPD2    H2 1704   1.960   2.933  18.379
  110MPD2    H3 1705   2.138   2.879  18.507
  110MPD2     N 1706   1.897   2.925  18.894
  110MPD2    H5 1707   1.805   2.943  18.932
  110MPD2    N1 1708   1.715   2.976  18.468
  110MPD2    H7 1709   1.726   2.927  18.380
  111TMC2    C1 1710   1.877   2.275  12.012
  111TMC2    C2 1711   1.790   2.300  12.112
  111TMC2    C3 1712   1.842   2.349  12.229
  111TMC2    C4 1713   2.013   2.304  12.024
  111TMC2    C5 1714   2.067   2.341  12.145
  111TMC2    C6 1715   1.979   2.365  12.249
  111TMC2     C 1716   1.834   2.295  11.875
  111TMC2     O 1717   1.909   2.287  11.782
  111TMC2     H 1718   1.691   2.258  12.101
  111TMC2    H1 1719   2.081   2.309  11.940
  111TMC2    H2 1720   2.020   2.391  12.346
  111TMC2    C7 1721   2.198   2.305  12.179
  111TMC2    C8 1722   1.781   2.269  12.331
  111TMC2    O1 1723   2.240   2.350  12.286
  111TMC2    O2 1724   1.770   2.150  12.302
  111TMC2    O5 1725   1.817   2.322  12.447
  111TMC2    H5 1726   1.821   2.420  12.444
  112MPD2     C 1727   1.455   2.346  11.536
  112MPD2    C1 1728   1.580   2.296  11.522
  112MPD2    C2 1729   1.666   2.290  11.633
  112MPD2    C3 1730   1.626   2.341  11.756
  112MPD2    C4 1731   1.498   2.390  11.772
  112MPD2    C5 1732   1.413   2.394  11.660
  112MPD2     H 1733   1.763   2.247  11.613
  112MPD2    H1 1734   1.466   2.415  11.873
  112MPD2    H2 1735   1.384   2.363  11.456
  112MPD2    H3 1736   1.307   2.411  11.673
  112MPD2     N 1737   1.706   2.345  11.870
  112MPD2    H5 1738   1.672   2.399  11.949
  112MPD2    N1 1739   1.621   2.262  11.391
  112MPD2    H7 1740   1.705   2.205  11.385
  113TMC2    C1 1741   0.016   0.241  18.639
  113TMC2    C2 1742   0.027   0.288  18.508
  113TMC2    C3 1743   4.705   0.244  18.423
  113TMC2    C4 1744   4.696   0.153  18.687
  113TMC2    C5 1745   4.600   0.116  18.598
  113TMC2    C6 1746   4.606   0.152  18.468
  113TMC2     C 1747   0.098   0.307  18.740
  113TMC2     O 1748   0.149   0.414  18.705
  113TMC2     H 1749   0.109   0.354  18.483
  113TMC2    H1 1750   4.683   0.120  18.789
  113TMC2    H2 1751   4.531   0.115  18.399
  113TMC2    C7 1752   4.549   4.763  18.608
  113TMC2    C8 1753   4.729   0.229  18.283
  113TMC2    O1 1754   4.530   4.697  18.504
  113TMC2    O2 1755   4.660   0.302  18.216
  113TMC2    O5 1756   4.739   0.098  18.268
  113TMC2    H5 1757   4.780   0.045  18.339
  114MPD2     C 1758   0.282   0.354  19.206
  114MPD2    C1 1759   0.252   0.443  19.111
  114MPD2    C2 1760   0.193   0.411  18.996
  114MPD2    C3 1761   0.175   0.278  18.970
  114MPD2    C4 1762   0.194   0.180  19.067
  114MPD2    C5 1763   0.256   0.221  19.187
  114MPD2     H 1764   0.170   0.485  18.920
  114MPD2    H1 1765   0.196   0.074  19.042
  114MPD2    H2 1766   0.335   0.376  19.298
  114MPD2    H3 1767   0.270   0.149  19.267
  114MPD2     N 1768   0.120   0.226  18.847
  114MPD2    H5 1769   0.071   0.138  18.861
  114MPD2    N1 1770   0.282   0.581  19.124
  114MPD2    H7 1771   0.243   0.647  19.058
  115TMC2    C1 1772   0.695   2.950  17.971
  115TMC2    C2 1773   0.832   2.936  17.970
  115TMC2    C3 1774   0.908   3.048  17.998
  115TMC2    C4 1775   0.640   3.076  17.988
  115TMC2    C5 1776   0.719   3.188  18.025
  115TMC2    C6 1777   0.854   3.174  18.024
  115TMC2     C 1778   0.627   2.839  17.917
  115TMC2     O 1779   0.702   2.747  17.883
  115TMC2     H 1780   0.882   2.840  17.980
  115TMC2    H1 1781   0.535   3.101  17.987
  115TMC2    H2 1782   0.921   3.254  18.054
  115TMC2    C7 1783   0.665   3.313  17.981
  115TMC2    C8 1784   1.049   3.042  17.984
  115TMC2    O1 1785   0.545   3.335  17.997
  115TMC2    O2 1786   1.133   3.111  18.044
  115TMC2    O5 1787   1.079   2.958  17.885
  115TMC2    H5 1788   1.013   2.953  17.812
  116MPD2     C 1789   0.200   2.659  17.687
  116MPD2    C1 1790   0.334   2.613  17.670
  116MPD2    C2 1791   0.433   2.678  17.750
  116MPD2    C3 1792   0.397   2.784  17.838
  116MPD2    C4 1793   0.270   2.832  17.833
  116MPD2    C5 1794   0.172   2.763  17.767
  116MPD2     H 1795   0.539   2.654  17.754
  116MPD2    H1 1796   0.232   2.912  17.896
  116MPD2    H2 1797   0.120   2.602  17.641
  116MPD2    H3 1798   0.067   2.789  17.760
  116MPD2     N 1799   0.489   2.855  17.911
  116MPD2    H5 1800   0.445   2.921  17.974
  116MPD2    N1 1801   0.355   2.502  17.584
  116MPD2    H7 1802   0.282   2.462  17.526
  117TMC2    C1 1803   4.407   4.413  14.616
  117TMC2    C2 1804   4.527   4.348  14.608
  117TMC2    C3 1805   4.616   4.392  14.511
  117TMC2    C4 1806   4.376   4.522  14.534
  117TMC2    C5 1807   4.461   4.551  14.429
  117TMC2    C6 1808   4.584   4.487  14.421
  117TMC2     C 1809   4.308   4.331  14.677
  117TMC2     O 1810   4.320   4.258  14.774
  117TMC2     H 1811   4.549   4.264  14.672
  117TMC2    H1 1812   4.296   4.591  14.559
  117TMC2    H2 1813   4.654   4.509  14.341
  117TMC2    C7 1814   4.464   4.682  14.378
  117TMC2    C8 1815   4.738   4.312  14.483
  117TMC2    O1 1816   4.573   4.721  14.335
  117TMC2    O2 1817   0.029   4.346  14.389
  117TMC2    O5 1818   4.775   4.261  14.604
  117TMC2    H5 1819   0.089   4.235  14.607
  118MPD2     C 1820   4.175   0.115  14.290
  118MPD2    C1 1821   4.307   0.091  14.321
  118MPD2    C2 1822   4.402   0.185  14.320
  118MPD2    C3 1823   4.373   0.314  14.272
  118MPD2    C4 1824   4.237   0.337  14.239
  118MPD2    C5 1825   4.142   0.236  14.243
  118MPD2     H 1826   4.505   0.159  14.340
  118MPD2    H1 1827   4.206   0.437  14.210
  118MPD2    H2 1828   4.107   0.032  14.303
  118MPD2    H3 1829   4.043   0.264  14.210
  118MPD2     N 1830   4.459   0.428  14.273
  118MPD2    H5 1831   4.429   0.511  14.223
  118MPD2    N1 1832   4.341   4.733  14.353
  118MPD2    H7 1833   4.267   4.664  14.356
  119MPD2     C 1834   2.906   1.373  14.299
  119MPD2    C1 1835   2.767   1.356  14.287
  119MPD2    C2 1836   2.714   1.283  14.178
  119MPD2    C3 1837   2.804   1.230  14.089
  119MPD2    C4 1838   2.935   1.248  14.095
  119MPD2    C5 1839   2.987   1.315  14.199
  119MPD2     H 1840   2.607   1.274  14.162
  119MPD2    H1 1841   3.001   1.199  14.024
  119MPD2    H2 1842   2.950   1.427  14.382
  119MPD2    H3 1843   3.094   1.330  14.212
  119MPD2     N 1844   2.764   1.160  13.967
  119MPD2    H5 1845   2.837   1.113  13.914
  119MPD2    N1 1846   2.695   1.404  14.403
  119MPD2    H7 1847   2.756   1.469  14.451
  120TCq2    C1 1848   2.636   1.137  13.928
  120TCq2    O2 1849   2.532   1.189  13.968
  120TCq2    C2 1850   2.630   1.061  13.808
  120TCq2    C3 1851   2.702   0.946  13.797
  120TCq2    C4 1852   2.670   0.843  13.716
  120TCq2    C5 1853   2.556   0.857  13.637
  120TCq2    C6 1854   2.480   0.970  13.648
  120TCq2    C7 1855   2.516   1.075  13.735
  120TCq2    C8 1856   2.343   0.952  13.606
  120TCq2    O4 1857   2.326   0.955  13.485
  120TCq2    C9 1858   2.733   0.718  13.714
  120TCq2    O5 1859   2.668   0.620  13.666
  120TCq2    O6 1860   2.856   0.707  13.747
  120TCq2    H2 1861   2.787   0.925  13.861
  120TCq2    H3 1862   2.523   0.777  13.572
  120TCq2    H4 1863   2.467   1.172  13.735
  121TMC2    C1 1864   3.929   2.739  14.381
  121TMC2    C2 1865   3.922   2.603  14.383
  121TMC2    C3 1866   3.798   2.549  14.403
  121TMC2    C4 1867   3.821   2.823  14.390
  121TMC2    C5 1868   3.700   2.761  14.412
  121TMC2    C6 1869   3.688   2.625  14.421
  121TMC2     C 1870   4.067   2.802  14.365
  121TMC2     O 1871   4.162   2.739  14.421
  121TMC2     H 1872   4.012   2.550  14.353
  121TMC2    H1 1873   3.828   2.931  14.396
  121TMC2    H2 1874   3.590   2.579  14.430
  121TMC2    C7 1875   3.581   2.845  14.395
  121TMC2    C8 1876   3.771   2.403  14.394
  121TMC2    O1 1877   3.596   2.965  14.395
  121TMC2    O2 1878   3.664   2.348  14.375
  121TMC2    O5 1879   3.887   2.330  14.397
  121TMC2    H5 1880   3.964   2.381  14.431
  122MPD2     C 1881   4.291   3.008  14.373
  122MPD2    C1 1882   4.173   3.019  14.297
  122MPD2    C2 1883   4.154   3.137  14.222
  122MPD2    C3 1884   4.234   3.246  14.241
  122MPD2    C4 1885   4.356   3.223  14.304
  122MPD2    C5 1886   4.378   3.108  14.373
  122MPD2     H 1887   4.068   3.154  14.158
  122MPD2    H1 1888   4.432   3.298  14.323
  122MPD2    H2 1889   4.322   2.930  14.442
  122MPD2    H3 1890   4.456   3.099  14.447
  122MPD2     N 1891   4.230   3.359  14.158
  122MPD2    H5 1892   4.315   3.414  14.158
  122MPD2    N1 1893   4.066   2.919  14.303
  122MPD2    H7 1894   3.981   2.954  14.259
  123TMC2    C1 1895   2.436   1.296  10.349
  123TMC2    C2 1896   2.568   1.333  10.322
  123TMC2    C3 1897   2.619   1.338  10.197
  123TMC2    C4 1898   2.352   1.283  10.243
  123TMC2    C5 1899   2.400   1.283  10.117
  123TMC2    C6 1900   2.532   1.318  10.092
  123TMC2     C 1901   2.417   1.240  10.482
  123TMC2     O 1902   2.483   1.283  10.576
  123TMC2     H 1903   2.640   1.330  10.403
  123TMC2    H1 1904   2.248   1.267  10.267
  123TMC2    H2 1905   2.577   1.328   9.994
  123TMC2    C7 1906   2.316   1.294  10.008
  123TMC2    C8 1907   2.755   1.365  10.164
  123TMC2    O1 1908   2.321   1.396   9.939
  123TMC2    O2 1909   2.809   1.320  10.060
  123TMC2    O5 1910   2.822   1.445  10.249
  123TMC2    H5 1911   2.767   1.494  10.314
  124MPD2     C 1912   2.153   0.907  10.766
  124MPD2    C1 1913   2.111   0.896  10.635
  124MPD2    C2 1914   2.169   0.974  10.539
  124MPD2    C3 1915   2.269   1.058  10.577
  124MPD2    C4 1916   2.318   1.067  10.703
  124MPD2    C5 1917   2.258   0.989  10.798
  124MPD2     H 1918   2.143   0.983  10.434
  124MPD2    H1 1919   2.404   1.131  10.722
  124MPD2    H2 1920   2.115   0.849  10.849
  124MPD2    H3 1921   2.295   0.988  10.900
  124MPD2     N 1922   2.326   1.140  10.469
  124MPD2    H5 1923   2.285   1.138  10.376
  124MPD2    N1 1924   2.007   0.805  10.606
  124MPD2    H7 1925   1.989   0.728  10.669
  125TMC2    C1 1926   3.075   2.592   9.159
  125TMC2    C2 1927   3.156   2.494   9.221
  125TMC2    C3 1928   3.286   2.522   9.232
  125TMC2    C4 1929   3.134   2.698   9.097
  125TMC2    C5 1930   3.270   2.725   9.115
  125TMC2    C6 1931   3.346   2.632   9.180
  125TMC2     C 1932   2.935   2.576   9.166
  125TMC2     O 1933   2.870   2.673   9.139
  125TMC2     H 1934   3.116   2.414   9.282
  125TMC2    H1 1935   3.076   2.768   9.038
  125TMC2    H2 1936   3.451   2.653   9.195
  125TMC2    C7 1937   3.321   2.854   9.084
  125TMC2    C8 1938   3.360   2.444   9.327
  125TMC2    O1 1939   3.248   2.927   9.027
  125TMC2    O2 1940   3.459   2.490   9.388
  125TMC2    O5 1941   3.343   2.316   9.293
  125TMC2    H5 1942   3.265   2.291   9.239
  126MPD1     C 1943   2.517   2.301   9.219
  126MPD1    C1 1944   2.618   2.209   9.197
  126MPD1    C2 1945   2.742   2.263   9.170
  126MPD1    C3 1946   2.765   2.398   9.188
  126MPD1    C4 1947   2.670   2.479   9.237
  126MPD1    C5 1948   2.546   2.429   9.242
  126MPD1     H 1949   2.830   2.200   9.166
  126MPD1    H1 1950   2.679   2.581   9.272
  126MPD1    H2 1951   2.413   2.273   9.228
  126MPD1    H3 1952   2.462   2.491   9.271
  126MPD1     N 1953   2.900   2.444   9.172
  126MPD1    H5 1954   2.972   2.373   9.168
  126MPD1    N1 1955   2.583   2.074   9.174
  126MPD1    H6 1956   2.664   2.012   9.181
  126MPD1    H7 1957   2.510   2.042   9.237
  127TMC2    C1 1958   4.166   1.946  10.108
  127TMC2    C2 1959   4.200   1.891  10.229
  127TMC2    C3 1960   4.121   1.802  10.288
  127TMC2    C4 1961   4.067   1.890  10.039
  127TMC2    C5 1962   3.998   1.787  10.094
  127TMC2    C6 1963   4.018   1.743  10.220
  127TMC2     C 1964   4.254   2.045  10.048
  127TMC2     O 1965   4.353   2.079  10.111
  127TMC2     H 1966   4.275   1.946  10.284
  127TMC2    H1 1967   4.027   1.950   9.959
  127TMC2    H2 1968   3.957   1.666  10.266
  127TMC2    C7 1969   3.909   1.709  10.012
  127TMC2    C8 1970   4.176   1.735  10.401
  127TMC2    O1 1971   3.868   1.765   9.913
  127TMC2    O2 1972   4.296   1.719  10.429
  127TMC2    O5 1973   4.074   1.704  10.485
  127TMC2    H5 1974   3.990   1.746  10.458
  128MPD2     C 1975   4.219   2.195   9.708
  128MPD2    C1 1976   4.278   2.177   9.835
  128MPD2    C2 1977   4.391   2.257   9.863
  128MPD2    C3 1978   4.440   2.346   9.769
  128MPD2    C4 1979   4.393   2.356   9.642
  128MPD2    C5 1980   4.275   2.289   9.621
  128MPD2     H 1981   4.432   2.253   9.963
  128MPD2    H1 1982   4.437   2.409   9.559
  128MPD2    H2 1983   4.133   2.143   9.667
  128MPD2    H3 1984   4.228   2.304   9.524
  128MPD2     N 1985   4.558   2.422   9.808
  128MPD2    H5 1986   4.574   2.425   9.908
  128MPD2    N1 1987   4.212   2.084   9.922
  128MPD2    H7 1988   4.129   2.045   9.879
  129TMC2    C1 1989   2.539   2.577  19.711
  129TMC2    C2 1990   2.636   2.653  19.778
  129TMC2    C3 1991   2.680   2.602  19.890
  129TMC2    C4 1992   2.498   2.457  19.753
  129TMC2    C5 1993   2.553   2.400  19.856
  129TMC2    C6 1994   2.642   2.474  19.926
  129TMC2     C 1995   2.480   2.647  19.590
  129TMC2     O 1996   2.375   2.599  19.544
  129TMC2     H 1997   2.675   2.751  19.753
  129TMC2    H1 1998   2.429   2.405  19.688
  129TMC2    H2 1999   2.674   2.424  20.016
  129TMC2    C7 2000   2.508   2.262  19.883
  129TMC2    C8 2001   2.795   2.657  19.952
  129TMC2    O1 2002   2.390   2.252  19.853
  129TMC2    O2 2003   2.814   2.778  19.936
  129TMC2    O5 2004   2.893   2.563  19.946
  129TMC2    H5 2005   2.862   2.470  19.936
  130MPD2     C 2006   2.418   2.788  19.340
  130MPD2    C1 2007   2.530   2.812  19.419
  130MPD2    C2 2008   2.615   2.917  19.379
  130MPD2    C3 2009   2.593   2.988  19.265
  130MPD2    C4 2010   2.481   2.968  19.191
  130MPD2    C5 2011   2.399   2.866  19.222
  130MPD2     H 2012   2.712   2.941  19.422
  130MPD2    H1 2013   2.458   3.021  19.099
  130MPD2    H2 2014   2.352   2.705  19.362
  130MPD2    H3 2015   2.317   2.846  19.154
  130MPD2     N 2016   2.689   3.074  19.221
  130MPD2    H5 2017   2.755   3.110  19.290
  130MPD2    N1 2018   2.562   2.736  19.530
  130MPD2    H7 2019   2.651   2.756  19.575
  131TMC2    C1 2020   2.018   1.509  10.210
  131TMC2    C2 2021   2.014   1.590  10.320
  131TMC2    C3 2022   2.099   1.697  10.312
  131TMC2    C4 2023   2.061   1.549  10.086
  131TMC2    C5 2024   2.125   1.672  10.082
  131TMC2    C6 2025   2.150   1.744  10.196
  131TMC2     C 2026   1.965   1.376  10.221
  131TMC2     O 2027   1.997   1.322  10.328
  131TMC2     H 2028   1.973   1.549  10.411
  131TMC2    H1 2029   2.062   1.487   9.997
  131TMC2    H2 2030   2.190   1.845  10.192
  131TMC2    C7 2031   2.194   1.706   9.960
  131TMC2    C8 2032   2.110   1.780  10.428
  131TMC2    O1 2033   2.165   1.639   9.860
  131TMC2    O2 2034   2.215   1.834  10.458
  131TMC2    O5 2035   2.001   1.768  10.508
  131TMC2    H5 2036   1.929   1.721  10.460
  132MPD2     C 2037   1.684   1.252  10.011
  132MPD2    C1 2038   1.774   1.246  10.112
  132MPD2    C2 2039   1.770   1.133  10.195
  132MPD2    C3 2040   1.665   1.045  10.189
  132MPD2    C4 2041   1.565   1.060  10.096
  132MPD2    C5 2042   1.584   1.155  10.008
  132MPD2     H 2043   1.849   1.134  10.269
  132MPD2    H1 2044   1.477   0.998  10.084
  132MPD2    H2 2045   1.681   1.326   9.932
  132MPD2    H3 2046   1.513   1.169   9.927
  132MPD2     N 2047   1.666   0.927  10.274
  132MPD2    H5 2048   1.754   0.913  10.323
  132MPD2    N1 2049   1.866   1.351  10.123
  132MPD2    H7 2050   1.860   1.424  10.053
  133MPD2     C 2051   1.197   2.874   9.537
  133MPD2    C1 2052   1.296   2.819   9.613
  133MPD2    C2 2053   1.291   2.683   9.651
  133MPD2    C3 2054   1.180   2.607   9.611
  133MPD2    C4 2055   1.081   2.669   9.542
  133MPD2    C5 2056   1.093   2.796   9.498
  133MPD2     H 2057   1.361   2.642   9.724
  133MPD2    H1 2058   0.996   2.610   9.508
  133MPD2    H2 2059   1.209   2.977   9.506
  133MPD2    H3 2060   1.020   2.833   9.427
  133MPD2     N 2061   1.166   2.468   9.634
  133MPD2    H5 2062   1.078   2.427   9.605
  133MPD2    N1 2063   1.411   2.899   9.630
  133MPD2    H7 2064   1.398   2.997   9.606
  134TCq2    C1 2065   1.520   2.861   9.702
  134TCq2    O2 2066   1.556   2.746   9.723
  134TCq2    C2 2067   1.614   2.976   9.708
  134TCq2    C3 2068   1.744   2.951   9.675
  134TCq2    C4 2069   1.824   3.063   9.659
  134TCq2    C5 2070   1.778   3.187   9.692
  134TCq2    C6 2071   1.645   3.213   9.725
  134TCq2    C7 2072   1.564   3.101   9.740
  134TCq2    C8 2073   1.605   3.343   9.766
  134TCq2    O4 2074   1.691   3.429   9.783
  134TCq2    C9 2075   1.956   3.043   9.603
  134TCq2    O5 2076   2.024   3.146   9.591
  134TCq2    O6 2077   1.975   2.933   9.545
  134TCq2    H2 2078   1.782   2.851   9.658
  134TCq2    H3 2079   1.847   3.270   9.688
  134TCq2    H4 2080   1.461   3.107   9.775
  135TMC2    C1 2081   3.782   3.778  10.222
  135TMC2    C2 2082   3.773   3.800  10.355
  135TMC2    C3 2083   3.713   3.706  10.433
  135TMC2    C4 2084   3.722   3.671  10.166
  135TMC2    C5 2085   3.655   3.582  10.249
  135TMC2    C6 2086   3.650   3.600  10.383
  135TMC2     C 2087   3.867   3.873  10.147
  135TMC2     O 2088   3.895   3.982  10.199
  135TMC2     H 2089   3.812   3.893  10.395
  135TMC2    H1 2090   3.733   3.649  10.060
  135TMC2    H2 2091   3.587   3.545  10.451
  135TMC2    C7 2092   3.595   3.467  10.183
  135TMC2    C8 2093   3.666   3.750  10.563
  135TMC2    O1 2094   3.592   3.469  10.061
  135TMC2    O2 2095   3.612   3.858  10.588
  135TMC2    O5 2096   3.653   3.642  10.636
  135TMC2    H5 2097   3.722   3.580  10.602
  136MPD2     C 2098   4.070   4.008   9.976
  136MPD2    C1 2099   4.008   3.895   9.936
  136MPD2    C2 2100   4.038   3.843   9.810
  136MPD2    C3 2101   4.133   3.902   9.727
  136MPD2    C4 2102   4.203   4.008   9.777
  136MPD2    C5 2103   4.161   4.068   9.891
  136MPD2     H 2104   4.004   3.744   9.783
  136MPD2    H1 2105   4.286   4.044   9.717
  136MPD2    H2 2106   4.062   4.066  10.067
  136MPD2    H3 2107   4.203   4.164   9.921
  136MPD2     N 2108   4.167   3.849   9.596
  136MPD2    H5 2109   4.233   3.904   9.543
  136MPD2    N1 2110   3.910   3.830  10.019
  136MPD2    H7 2111   3.874   3.738   9.996
  137TMC2    C1 2112   3.598   2.712   9.630
  137TMC2    C2 2113   3.705   2.799   9.626
  137TMC2    C3 2114   3.689   2.907   9.545
  137TMC2    C4 2115   3.479   2.732   9.573
  137TMC2    C5 2116   3.476   2.840   9.494
  137TMC2    C6 2117   3.577   2.929   9.484
  137TMC2     C 2118   3.627   2.588   9.706
  137TMC2     O 2119   3.703   2.596   9.801
  137TMC2     H 2120   3.798   2.767   9.671
  137TMC2    H1 2121   3.389   2.679   9.602
  137TMC2    H2 2122   3.562   3.005   9.409
  137TMC2    C7 2123   3.343   2.887   9.458
  137TMC2    C8 2124   3.798   3.009   9.537
  137TMC2    O1 2125   3.332   2.996   9.409
  137TMC2    O2 2126   3.919   2.986   9.538
  137TMC2    O5 2127   3.730   3.130   9.536
  137TMC2    H5 2128   3.635   3.109   9.549
  138MPD2     C 2129   3.536   2.237   9.622
  138MPD2    C1 2130   3.574   2.346   9.705
  138MPD2    C2 2131   3.602   2.317   9.840
  138MPD2    C3 2132   3.578   2.194   9.890
  138MPD2    C4 2133   3.542   2.090   9.804
  138MPD2    C5 2134   3.520   2.111   9.670
  138MPD2     H 2135   3.621   2.399   9.908
  138MPD2    H1 2136   3.510   1.994   9.843
  138MPD2    H2 2137   3.521   2.256   9.516
  138MPD2    H3 2138   3.480   2.031   9.609
  138MPD2     N 2139   3.591   2.180  10.031
  138MPD2    H5 2140   3.592   2.267  10.083
  138MPD2    N1 2141   3.569   2.473   9.648
  138MPD2    H7 2142   3.521   2.483   9.559
  139TMC2    C1 2143   4.074   0.629  13.808
  139TMC2    C2 2144   4.148   0.697  13.717
  139TMC2    C3 2145   4.116   0.832  13.692
  139TMC2    C4 2146   3.972   0.685  13.875
  139TMC2    C5 2147   3.936   0.815  13.840
  139TMC2    C6 2148   4.006   0.886  13.750
  139TMC2     C 2149   4.144   0.506  13.851
  139TMC2     O 2150   4.266   0.499  13.836
  139TMC2     H 2151   4.230   0.639  13.677
  139TMC2    H1 2152   3.924   0.623  13.949
  139TMC2    H2 2153   3.977   0.987  13.722
  139TMC2    C7 2154   3.846   0.889  13.924
  139TMC2    C8 2155   4.196   0.898  13.595
  139TMC2    O1 2156   3.821   1.006  13.901
  139TMC2    O2 2157   4.303   0.857  13.545
  139TMC2    O5 2158   4.118   1.000  13.552
  139TMC2    H5 2159   4.161   1.041  13.474
  140MPD2     C 2160   3.977   0.202  13.963
  140MPD2    C1 2161   4.082   0.277  13.922
  140MPD2    C2 2162   4.202   0.217  13.903
  140MPD2    C3 2163   4.222   0.082  13.934
  140MPD2    C4 2164   4.117   0.011  13.986
  140MPD2    C5 2165   3.999   0.072  13.994
  140MPD2     H 2166   4.278   0.279  13.857
  140MPD2    H1 2167   4.108   4.688  14.014
  140MPD2    H2 2168   3.876   0.240  13.969
  140MPD2    H3 2169   3.916   0.014  14.034
  140MPD2     N 2170   4.349   0.032  13.922
  140MPD2    H5 2171   4.424   0.094  13.892
  140MPD2    N1 2172   4.052   0.415  13.897
  140MPD2    H7 2173   3.954   0.440  13.898
  141TMC2    C1 2174   4.375   1.639  14.734
  141TMC2    C2 2175   4.452   1.529  14.751
  141TMC2    C3 2176   4.460   1.477  14.873
  141TMC2    C4 2177   4.317   1.700  14.843
  141TMC2    C5 2178   4.341   1.653  14.971
  141TMC2    C6 2179   4.407   1.534  14.984
  141TMC2     C 2180   4.384   1.718  14.610
  141TMC2     O 2181   4.360   1.835  14.630
  141TMC2     H 2182   4.502   1.485  14.665
  141TMC2    H1 2183   4.280   1.800  14.825
  141TMC2    H2 2184   4.417   1.484  15.080
  141TMC2    C7 2185   4.367   1.749  15.075
  141TMC2    C8 2186   4.550   1.368  14.902
  141TMC2    O1 2187   4.370   1.709  15.190
  141TMC2    O2 2188   4.610   1.352  15.009
  141TMC2    O5 2189   4.529   1.276  14.807
  141TMC2    H5 2190   4.452   1.302  14.752
  142TMC2    C1 2191   2.410   0.682  10.657
  142TMC2    C2 2192   2.533   0.708  10.714
  142TMC2    C3 2193   2.631   0.758  10.628
  142TMC2    C4 2194   2.378   0.709  10.523
  142TMC2    C5 2195   2.477   0.768  10.448
  142TMC2    C6 2196   2.604   0.796  10.501
  142TMC2     C 2197   2.314   0.591  10.725
  142TMC2     O 2198   2.238   0.526  10.656
  142TMC2     H 2199   2.557   0.663  10.809
  142TMC2    H1 2200   2.274   0.695  10.496
  142TMC2    H2 2201   2.688   0.846  10.455
  142TMC2    C7 2202   2.443   0.837  10.324
  142TMC2    C8 2203   2.768   0.780  10.673
  142TMC2    O1 2204   2.516   0.928  10.292
  142TMC2    O2 2205   2.862   0.790  10.594
  142TMC2    O5 2206   2.775   0.750  10.805
  142TMC2    H5 2207   2.697   0.786  10.852
  143MPD2     C 2208   2.163   0.314  11.134
  143MPD2    C1 2209   2.151   0.282  10.999
  143MPD2    C2 2210   2.203   0.374  10.905
  143MPD2    C3 2211   2.270   0.491  10.948
  143MPD2    C4 2212   2.294   0.507  11.087
  143MPD2    C5 2213   2.232   0.426  11.178
  143MPD2     H 2214   2.193   0.345  10.801
  143MPD2    H1 2215   2.359   0.587  11.120
  143MPD2    H2 2216   2.118   0.247  11.206
  143MPD2    H3 2217   2.231   0.453  11.283
  143MPD2     N 2218   2.335   0.584  10.864
  143MPD2    H5 2219   2.370   0.667  10.911
  143MPD2    N1 2220   2.090   0.154  10.974
  143MPD2    H7 2221   2.056   0.097  11.051
  144TMC2    C1 2222   0.547   4.522  19.161
  144TMC2    C2 2223   0.524   4.403  19.234
  144TMC2    C3 2224   0.607   4.372  19.339
  144TMC2    C4 2225   0.649   4.606  19.203
  144TMC2    C5 2226   0.722   4.569  19.313
  144TMC2    C6 2227   0.709   4.447  19.379
  144TMC2     C 2228   0.473   4.543  19.035
  144TMC2     O 2229   0.388   4.455  19.007
  144TMC2     H 2230   0.431   4.350  19.216
  144TMC2    H1 2231   0.670   4.693  19.141
  144TMC2    H2 2232   0.779   4.434  19.460
  144TMC2    C7 2233   0.815   4.663  19.374
  144TMC2    C8 2234   0.624   4.239  19.396
  144TMC2    O1 2235   0.920   4.620  19.425
  144TMC2    O2 2236   0.653   4.227  19.518
  144TMC2    O5 2237   0.677   4.174  19.289
  144TMC2    H5 2238   0.656   4.218  19.204
  145MPD2     C 2239   0.322   0.022  18.616
  145MPD2    C1 2240   0.311   4.668  18.651
  145MPD2    C2 2241   0.372   4.622  18.766
  145MPD2    C3 2242   0.439   4.702  18.856
  145MPD2    C4 2243   0.454   0.050  18.816
  145MPD2    C5 2244   0.404   0.096  18.695
  145MPD2     H 2245   0.345   4.520  18.792
  145MPD2    H1 2246   0.521   0.120  18.864
  145MPD2    H2 2247   0.272   0.074  18.535
  145MPD2    H3 2248   0.409   0.203  18.676
  145MPD2     N 2249   0.503   4.660  18.979
  145MPD2    H5 2250   0.555   4.732  19.029
  145MPD2    N1 2251   0.229   4.584  18.577
  145MPD2    H7 2252   0.246   4.487  18.600
  146TMC2    C1 2253   1.281   3.226  12.642
  146TMC2    C2 2254   1.166   3.175  12.612
  146TMC2    C3 2255   1.160   3.071  12.526
  146TMC2    C4 2256   1.394   3.177  12.598
  146TMC2    C5 2257   1.391   3.084  12.504
  146TMC2    C6 2258   1.270   3.030  12.456
  146TMC2     C 2259   1.288   3.317  12.751
  146TMC2     O 2260   1.209   3.402  12.764
  146TMC2     H 2261   1.075   3.209  12.660
  146TMC2    H1 2262   1.487   3.228  12.621
  146TMC2    H2 2263   1.266   2.943  12.391
  146TMC2    C7 2264   1.517   3.009  12.479
  146TMC2    C8 2265   1.038   2.989  12.506
  146TMC2    O1 2266   1.520   2.934  12.382
  146TMC2    O2 2267   1.019   2.916  12.413
  146TMC2    O5 2268   0.979   2.981  12.626
  146TMC2    H5 2269   1.032   3.012  12.703
  147MPD2     C 2270   2.008   2.910  12.575
  147MPD2    C1 2271   1.948   2.946  12.690
  147MPD2    C2 2272   1.808   2.968  12.696
  147MPD2    C3 2273   1.734   2.954  12.580
  147MPD2    C4 2274   1.802   2.942  12.465
  147MPD2    C5 2275   1.933   2.912  12.458
  147MPD2     H 2276   1.757   2.974  12.792
  147MPD2    H1 2277   1.750   2.960  12.372
  147MPD2    H2 2278   2.113   2.889  12.561
  147MPD2    H3 2279   1.977   2.897  12.360
  147MPD2     N 2280   1.606   3.009  12.586
  147MPD2    H5 2281   1.593   3.053  12.677
  147MPD2    N1 2282   2.031   2.971  12.805
  147MPD2    H7 2283   2.125   2.934  12.791
  148MPD2     C 2284   1.506   1.861  11.170
  148MPD2    C1 2285   1.565   1.748  11.116
  148MPD2    C2 2286   1.490   1.657  11.047
  148MPD2    C3 2287   1.355   1.683  11.024
  148MPD2    C4 2288   1.290   1.792  11.075
  148MPD2    C5 2289   1.370   1.874  11.146
  148MPD2     H 2290   1.546   1.579  10.997
  148MPD2    H1 2291   1.188   1.826  11.062
  148MPD2    H2 2292   1.556   1.941  11.223
  148MPD2    H3 2293   1.335   1.971  11.181
  148MPD2     N 2294   1.276   1.596  10.946
  148MPD2    H5 2295   1.176   1.613  10.944
  148MPD2    N1 2296   1.700   1.722  11.140
  148MPD2    H7 2297   1.751   1.651  11.089
  149TCq2    C1 2298   1.787   1.807  11.206
  149TCq2    O2 2299   1.770   1.920  11.251
  149TCq2    C2 2300   1.928   1.756  11.197
  149TCq2    C3 2301   2.014   1.860  11.201
  149TCq2    C4 2302   2.142   1.836  11.159
  149TCq2    C5 2303   2.181   1.705  11.156
  149TCq2    C6 2304   2.089   1.598  11.170
  149TCq2    C7 2305   1.962   1.627  11.187
  149TCq2    C8 2306   2.115   1.493  11.077
  149TCq2    O4 2307   2.033   1.403  11.077
  149TCq2    C9 2308   2.243   1.943  11.178
  149TCq2    O5 2309   2.214   2.038  11.257
  149TCq2    O6 2310   2.358   1.917  11.127
  149TCq2    H2 2311   1.979   1.961  11.217
  149TCq2    H3 2312   2.286   1.680  11.158
  149TCq2    H4 2313   1.892   1.545  11.200
  150TMC2    C1 2314   3.464   1.224  12.534
  150TMC2    C2 2315   3.453   1.301  12.422
  150TMC2    C3 2316   3.562   1.361  12.369
  150TMC2    C4 2317   3.583   1.221  12.603
  150TMC2    C5 2318   3.687   1.286  12.553
  150TMC2    C6 2319   3.680   1.364  12.440
  150TMC2     C 2320   3.351   1.146  12.584
  150TMC2     O 2321   3.348   1.121  12.706
  150TMC2     H 2322   3.361   1.325  12.369
  150TMC2    H1 2323   3.591   1.161  12.693
  150TMC2    H2 2324   3.757   1.412  12.381
  150TMC2    C7 2325   3.801   1.324  12.635
  150TMC2    C8 2326   3.550   1.408  12.230
  150TMC2    O1 2327   3.859   1.429  12.597
  150TMC2    O2 2328   3.490   1.352  12.140
  150TMC2    O5 2329   3.640   1.509  12.219
  150TMC2    H5 2330   3.663   1.556  12.302
  151MPD2     C 2331   2.911   0.870  12.526
  151MPD2    C1 2332   2.945   0.930  12.402
  151MPD2    C2 2333   3.051   1.019  12.404
  151MPD2    C3 2334   3.142   1.030  12.506
  151MPD2    C4 2335   3.104   0.969  12.624
  151MPD2    C5 2336   2.982   0.904  12.640
  151MPD2     H 2337   3.076   1.082  12.320
  151MPD2    H1 2338   3.163   0.992  12.712
  151MPD2    H2 2339   2.822   0.810  12.540
  151MPD2    H3 2340   2.947   0.849  12.727
  151MPD2     N 2341   3.257   1.112  12.482
  151MPD2    H5 2342   3.284   1.135  12.387
  151MPD2    N1 2343   2.863   0.901  12.293
  151MPD2    H7 2344   2.774   0.854  12.309
  152TMC2    C1 2345   3.462   0.817  13.082
  152TMC2    C2 2346   3.543   0.704  13.101
  152TMC2    C3 2347   3.673   0.729  13.129
  152TMC2    C4 2348   3.508   0.944  13.068
  152TMC2    C5 2349   3.647   0.961  13.075
  152TMC2    C6 2350   3.726   0.857  13.121
  152TMC2     C 2351   3.321   0.795  13.065
  152TMC2     O 2352   3.259   0.896  13.030
  152TMC2     H 2353   3.495   0.607  13.111
  152TMC2    H1 2354   3.445   1.030  13.047
  152TMC2    H2 2355   3.834   0.864  13.127
  152TMC2    C7 2356   3.693   1.097  13.064
  152TMC2    C8 2357   3.762   0.617  13.146
  152TMC2    O1 2358   3.620   1.174  13.004
  152TMC2    O2 2359   3.871   0.625  13.092
  152TMC2    O5 2360   3.703   0.517  13.214
  152TMC2    H5 2361   3.624   0.557  13.257
  153MPD2     C 2362   3.102   0.511  13.021
  153MPD2    C1 2363   3.129   0.640  13.045
  153MPD2    C2 2364   3.029   0.737  13.049
  153MPD2    C3 2365   2.896   0.709  13.016
  153MPD2    C4 2366   2.864   0.577  12.992
  153MPD2    C5 2367   2.965   0.481  12.994
  153MPD2     H 2368   3.050   0.839  13.081
  153MPD2    H1 2369   2.768   0.543  12.954
  153MPD2    H2 2370   3.178   0.433  13.020
  153MPD2    H3 2371   2.957   0.381  12.954
  153MPD2     N 2372   2.807   0.812  13.008
  153MPD2    H5 2373   2.808   0.886  13.078
  153MPD2    N1 2374   3.271   0.670  13.062
  153MPD2    H7 2375   3.328   0.594  13.098
  154TMC2    C1 2376   0.630   0.624  18.429
  154TMC2    C2 2377   0.652   0.583  18.557
  154TMC2    C3 2378   0.756   0.492  18.579
  154TMC2    C4 2379   0.719   0.597  18.327
  154TMC2    C5 2380   0.826   0.513  18.357
  154TMC2    C6 2381   0.846   0.456  18.483
  154TMC2     C 2382   0.515   0.709  18.397
  154TMC2     O 2383   0.422   0.699  18.475
  154TMC2     H 2384   0.572   0.596  18.629
  154TMC2    H1 2385   0.698   0.625  18.224
  154TMC2    H2 2386   0.934   0.395  18.496
  154TMC2    C7 2387   0.907   0.476  18.247
  154TMC2    C8 2388   0.770   0.445  18.715
  154TMC2    O1 2389   0.961   0.365  18.251
  154TMC2    O2 2390   0.740   0.512  18.814
  154TMC2    O5 2391   0.829   0.324  18.716
  154TMC2    H5 2392   0.847   0.280  18.630
  155MPD2     C 2393   0.467   0.959  18.135
  155MPD2    C1 2394   0.432   0.883  18.245
  155MPD2    C2 2395   0.291   0.879  18.277
  155MPD2    C3 2396   0.198   0.950  18.202
  155MPD2    C4 2397   0.240   1.019  18.088
  155MPD2    C5 2398   0.367   1.022  18.057
  155MPD2     H 2399   0.260   0.841  18.374
  155MPD2    H1 2400   0.169   1.062  18.018
  155MPD2    H2 2401   0.573   0.956  18.112
  155MPD2    H3 2402   0.406   1.062  17.964
  155MPD2     N 2403   0.067   0.955  18.254
  155MPD2    H5 2404   0.043   0.884  18.322
  155MPD2    N1 2405   0.538   0.802  18.297
  155MPD2    H7 2406   0.624   0.800  18.243
  156TMC2    C1 2407   3.572   3.610  12.029
  156TMC2    C2 2408   3.593   3.504  11.941
  156TMC2    C3 2409   3.560   3.516  11.807
  156TMC2    C4 2410   3.506   3.715  11.985
  156TMC2    C5 2411   3.480   3.731  11.849
  156TMC2    C6 2412   3.506   3.631  11.758
  156TMC2     C 2413   3.613   3.597  12.164
  156TMC2     O 2414   3.536   3.649  12.245
  156TMC2     H 2415   3.622   3.410  11.986
  156TMC2    H1 2416   3.496   3.799  12.052
  156TMC2    H2 2417   3.461   3.642  11.660
  156TMC2    C7 2418   3.454   3.864  11.791
  156TMC2    C8 2419   3.557   3.408  11.712
  156TMC2    O1 2420   3.486   3.873  11.672
  156TMC2    O2 2421   3.514   3.422  11.598
  156TMC2    O5 2422   3.635   3.309  11.753
  156TMC2    H5 2423   3.685   3.329  11.835
  157MPD2     C 2424   3.890   3.418  12.316
  157MPD2    C1 2425   3.794   3.514  12.308
  157MPD2    C2 2426   3.759   3.587  12.419
  157MPD2    C3 2427   3.826   3.575  12.539
  157MPD2    C4 2428   3.925   3.482  12.547
  157MPD2    C5 2429   3.959   3.403  12.434
  157MPD2     H 2430   3.675   3.655  12.416
  157MPD2    H1 2431   3.986   3.467  12.635
  157MPD2    H2 2432   3.922   3.367  12.226
  157MPD2    H3 2433   4.044   3.336  12.446
  157MPD2     N 2434   3.788   3.663  12.647
  157MPD2    H5 2435   3.713   3.727  12.623
  157MPD2    N1 2436   3.735   3.535  12.183
  157MPD2    H7 2437   3.778   3.506  12.096
  158TMC2    C1 2438   4.085   2.069  13.756
  158TMC2    C2 2439   4.119   2.190  13.704
  158TMC2    C3 2440   4.017   2.276  13.670
  158TMC2    C4 2441   3.954   2.033  13.774
  158TMC2    C5 2442   3.857   2.126  13.745
  158TMC2    C6 2443   3.887   2.246  13.692
  158TMC2     C 2444   4.187   1.973  13.784
  158TMC2     O 2445   4.273   1.982  13.700
  158TMC2     H 2446   4.218   2.232  13.690
  158TMC2    H1 2447   3.926   1.938  13.817
  158TMC2    H2 2448   3.809   2.315  13.662
  158TMC2    C7 2449   3.718   2.112  13.795
  158TMC2    C8 2450   4.057   2.418  13.650
  158TMC2    O1 2451   3.648   2.202  13.753
  158TMC2    O2 2452   4.170   2.457  13.678
  158TMC2    O5 2453   3.971   2.480  13.569
  158TMC2    H5 2454   3.914   2.424  13.512
  159MPD2     C 2455   3.942   1.910  14.243
  159MPD2    C1 2456   4.026   1.807  14.215
  159MPD2    C2 2457   4.107   1.805  14.098
  159MPD2    C3 2458   4.095   1.904  14.007
  159MPD2    C4 2459   4.029   2.020  14.049
  159MPD2    C5 2460   3.948   2.021  14.159
  159MPD2     H 2461   4.178   1.726  14.076
  159MPD2    H1 2462   4.042   2.114  13.996
  159MPD2    H2 2463   3.885   1.923  14.334
  159MPD2    H3 2464   3.897   2.115  14.177
  159MPD2     N 2465   4.181   1.893  13.893
  159MPD2    H5 2466   4.233   1.807  13.879
  159MPD2    N1 2467   4.031   1.706  14.315
  159MPD2    H7 2468   3.981   1.728  14.401
  160TMC2    C1 2469   4.057   0.304  19.489
  160TMC2    C2 2470   4.139   0.212  19.545
  160TMC2    C3 2471   4.228   0.146  19.462
  160TMC2    C4 2472   4.071   0.336  19.360
  160TMC2    C5 2473   4.159   0.265  19.281
  160TMC2    C6 2474   4.241   0.162  19.327
  160TMC2     C 2475   3.968   0.375  19.575
  160TMC2     O 2476   3.964   0.321  19.688
  160TMC2     H 2477   4.118   0.186  19.648
  160TMC2    H1 2478   4.011   0.412  19.311
  160TMC2    H2 2479   4.324   0.125  19.268
  160TMC2    C7 2480   4.220   0.338  19.165
  160TMC2    C8 2481   4.303   0.045  19.528
  160TMC2    O1 2482   4.256   0.269  19.076
  160TMC2    O2 2483   4.249   4.758  19.617
  160TMC2    O5 2484   4.417   0.014  19.450
  160TMC2    H5 2485   4.453   0.097  19.411
  161MPD2     C 2486   3.707   0.470  19.697
  161MPD2    C1 2487   3.756   0.503  19.573
  161MPD2    C2 2488   3.683   0.585  19.490
  161MPD2    C3 2489   3.557   0.636  19.545
  161MPD2    C4 2490   3.521   0.614  19.675
  161MPD2    C5 2491   3.594   0.526  19.754
  161MPD2     H 2492   3.719   0.603  19.389
  161MPD2    H1 2493   3.431   0.662  19.713
  161MPD2    H2 2494   3.746   0.395  19.765
  161MPD2    H3 2495   3.558   0.498  19.852
  161MPD2     N 2496   3.465   0.705  19.463
  161MPD2    H5 2497   3.381   0.739  19.509
  161MPD2    N1 2498   3.876   0.450  19.516
  161MPD2    H7 2499   3.891   0.483  19.421
  162TMC2    C1 2500   1.647   2.151  19.041
  162TMC2    C2 2501   1.701   2.225  18.941
  162TMC2    C3 2502   1.820   2.183  18.896
  162TMC2    C4 2503   1.709   2.043  19.088
  162TMC2    C5 2504   1.817   1.991  19.025
  162TMC2    C6 2505   1.881   2.059  18.929
  162TMC2     C 2506   1.515   2.187  19.097
  162TMC2     O 2507   1.493   2.149  19.210
  162TMC2     H 2508   1.655   2.317  18.906
  162TMC2    H1 2509   1.651   1.994  19.165
  162TMC2    H2 2510   1.966   2.025  18.870
  162TMC2    C7 2511   1.843   1.848  19.034
  162TMC2    C8 2512   1.857   2.264  18.784
  162TMC2    O1 2513   1.866   1.784  18.934
  162TMC2    O2 2514   1.783   2.341  18.730
  162TMC2    O5 2515   1.987   2.241  18.757
  162TMC2    H5 2516   2.031   2.216  18.841
  163MPD2     C 2517   1.326   2.308  18.634
  163MPD2    C1 2518   1.408   2.212  18.667
  163MPD2    C2 2519   1.440   2.182  18.804
  163MPD2    C3 2520   1.391   2.274  18.901
  163MPD2    C4 2521   1.307   2.376  18.859
  163MPD2    C5 2522   1.279   2.396  18.725
  163MPD2     H 2523   1.502   2.099  18.837
  163MPD2    H1 2524   1.276   2.457  18.924
  163MPD2    H2 2525   1.314   2.323  18.527
  163MPD2    H3 2526   1.208   2.471  18.692
  163MPD2     N 2527   1.426   2.270  19.033
  163MPD2    H5 2528   1.377   2.337  19.091
  163MPD2    N1 2529   1.462   2.136  18.562
  163MPD2    H7 2530   1.457   2.177  18.469
  164TMC2    C1 2531   2.212   1.618  11.529
  164TMC2    C2 2532   2.303   1.701  11.579
  164TMC2    C3 2533   2.264   1.810  11.658
  164TMC2    C4 2534   2.077   1.643  11.555
  164TMC2    C5 2535   2.038   1.741  11.640
  164TMC2    C6 2536   2.132   1.827  11.694
  164TMC2     C 2537   2.235   1.503  11.445
  164TMC2     O 2538   2.164   1.407  11.470
  164TMC2     H 2539   2.409   1.691  11.558
  164TMC2    H1 2540   2.004   1.575  11.513
  164TMC2    H2 2541   2.094   1.915  11.744
  164TMC2    C7 2542   1.899   1.763  11.666
  164TMC2    C8 2543   2.354   1.921  11.671
  164TMC2    O1 2544   1.820   1.716  11.590
  164TMC2    O2 2545   2.455   1.926  11.599
  164TMC2    O5 2546   2.330   2.000  11.774
  164TMC2    H5 2547   2.249   1.990  11.828
  165TMC2    C1 2548   3.067   4.121  19.172
  165TMC2    C2 2549   3.088   3.996  19.141
  165TMC2    C3 2550   3.198   3.929  19.197
  165TMC2    C4 2551   3.147   4.196  19.253
  165TMC2    C5 2552   3.261   4.137  19.298
  165TMC2    C6 2553   3.290   4.000  19.276
  165TMC2     C 2554   2.950   4.188  19.124
  165TMC2     O 2555   2.912   4.287  19.182
  165TMC2     H 2556   3.007   3.939  19.097
  165TMC2    H1 2557   3.132   4.303  19.249
  165TMC2    H2 2558   3.386   3.968  19.315
  165TMC2    C7 2559   3.372   4.218  19.324
  165TMC2    C8 2560   3.235   3.797  19.150
  165TMC2    O1 2561   3.485   4.164  19.323
  165TMC2    O2 2562   3.316   3.731  19.214
  165TMC2    O5 2563   3.181   3.761  19.035
  165TMC2    H5 2564   3.151   3.839  18.984
  166MPD2     C 2565   2.569   4.214  18.792
  166MPD2    C1 2566   2.578   4.253  18.926
  166MPD2    C2 2567   2.692   4.238  18.998
  166MPD2    C3 2568   2.793   4.168  18.935
  166MPD2    C4 2569   2.780   4.127  18.809
  166MPD2    C5 2570   2.663   4.138  18.742
  166MPD2     H 2571   2.700   4.296  19.089
  166MPD2    H1 2572   2.855   4.069  18.756
  166MPD2    H2 2573   2.470   4.226  18.749
  166MPD2    H3 2574   2.653   4.103  18.640
  166MPD2     N 2575   2.913   4.140  19.006
  166MPD2    H5 2576   2.974   4.078  18.954
  166MPD2    N1 2577   2.453   4.300  18.979
  166MPD2    H7 2578   2.377   4.318  18.915
  167TMC2    C1 2579   1.493   1.681  13.092
  167TMC2    C2 2580   1.422   1.675  13.203
  167TMC2    C3 2581   1.441   1.577  13.290
  167TMC2    C4 2582   1.574   1.578  13.056
  167TMC2    C5 2583   1.583   1.467  13.139
  167TMC2    C6 2584   1.514   1.467  13.261
  167TMC2     C 2585   1.473   1.806  13.018
  167TMC2     O 2586   1.391   1.891  13.050
  167TMC2     H 2587   1.354   1.755  13.231
  167TMC2    H1 2588   1.612   1.573  12.954
  167TMC2    H2 2589   1.505   1.377  13.321
  167TMC2    C7 2590   1.644   1.343  13.100
  167TMC2    C8 2591   1.384   1.591  13.422
  167TMC2    O1 2592   1.634   1.250  13.179
  167TMC2    O2 2593   1.344   1.492  13.480
  167TMC2    O5 2594   1.401   1.714  13.468
  167TMC2    H5 2595   1.455   1.772  13.411
  168MPD2     C 2596   1.521   2.035  12.840
  168MPD2    C1 2597   1.586   1.910  12.825
  168MPD2    C2 2598   1.676   1.879  12.723
  168MPD2    C3 2599   1.687   1.973  12.617
  168MPD2    C4 2600   1.617   2.095  12.625
  168MPD2    C5 2601   1.535   2.123  12.733
  168MPD2     H 2602   1.721   1.781  12.729
  168MPD2    H1 2603   1.641   2.175  12.556
  168MPD2    H2 2604   1.459   2.060  12.925
  168MPD2    H3 2605   1.480   2.215  12.748
  168MPD2     N 2606   1.755   1.946  12.495
  168MPD2    H5 2607   1.758   2.019  12.424
  168MPD2    N1 2608   1.572   1.811  12.921
  168MPD2    H7 2609   1.631   1.729  12.917
  169MPD1     C 2610   4.056   1.982   8.924
  169MPD1    C1 2611   4.159   1.954   9.014
  169MPD1    C2 2612   4.133   1.865   9.109
  169MPD1    C3 2613   4.010   1.808   9.137
  169MPD1    C4 2614   3.910   1.838   9.052
  169MPD1    C5 2615   3.938   1.922   8.947
  169MPD1     H 2616   4.217   1.838   9.173
  169MPD1    H1 2617   3.805   1.811   9.057
  169MPD1    H2 2618   4.070   2.055   8.845
  169MPD1    H3 2619   3.859   1.935   8.875
  169MPD1     N 2620   3.997   1.722   9.251
  169MPD1    H5 2621   4.079   1.709   9.309
  169MPD1    N1 2622   4.285   2.024   9.018
  169MPD1    H6 2623   4.368   1.972   9.046
  169MPD1    H7 2624   4.313   2.070   8.931
  170MPD1     C 2625   2.844   4.128  13.229
  170MPD1    C1 2626   2.742   4.222  13.207
  170MPD1    C2 2627   2.637   4.222  13.294
  170MPD1    C3 2628   2.647   4.158  13.418
  170MPD1    C4 2629   2.758   4.073  13.437
  170MPD1    C5 2630   2.855   4.056  13.340
  170MPD1     H 2631   2.546   4.279  13.280
  170MPD1    H1 2632   2.774   4.024  13.533
  170MPD1    H2 2633   2.909   4.106  13.145
  170MPD1    H3 2634   2.948   4.003  13.358
  170MPD1     N 2635   2.559   4.191  13.523
  170MPD1    H5 2636   2.492   4.264  13.498
  170MPD1    N1 2637   2.731   4.280  13.078
  170MPD1    H6 2638   2.817   4.276  13.023
  170MPD1    H7 2639   2.698   4.376  13.086
  171MPD1     C 2640   1.156   0.419  15.735
  171MPD1    C1 2641   1.199   0.308  15.662
  171MPD1    C2 2642   1.238   0.203  15.744
  171MPD1    C3 2643   1.264   0.209  15.878
  171MPD1    C4 2644   1.238   0.330  15.945
  171MPD1    C5 2645   1.177   0.428  15.867
  171MPD1     H 2646   1.258   0.109  15.694
  171MPD1    H1 2647   1.240   0.346  16.052
  171MPD1    H2 2648   1.119   0.509  15.688
  171MPD1    H3 2649   1.150   0.516  15.924
  171MPD1     N 2650   1.306   0.103  15.957
  171MPD1    H5 2651   1.314   0.119  16.057
  171MPD1    N1 2652   1.150   0.291  15.533
  171MPD1    H6 2653   1.158   0.374  15.475
  171MPD1    H7 2654   1.194   0.216  15.480
  172MPD1     C 2655   0.379   4.060  17.658
  172MPD1    C1 2656   0.387   4.204  17.651
  172MPD1    C2 2657   0.420   4.275  17.757
  172MPD1    C3 2658   0.460   4.208  17.871
  172MPD1    C4 2659   0.446   4.070  17.881
  172MPD1    C5 2660   0.404   4.003  17.777
  172MPD1     H 2661   0.422   4.383  17.746
  172MPD1    H1 2662   0.472   4.017  17.972
  172MPD1    H2 2663   0.340   4.003  17.575
  172MPD1    H3 2664   0.396   3.895  17.787
  172MPD1     N 2665   0.493   4.276  17.991
  172MPD1    H5 2666   0.524   4.239  18.080
  172MPD1    N1 2667   0.341   4.279  17.549
  172MPD1    H6 2668   0.400   4.362  17.543
  172MPD1    H7 2669   0.357   4.233  17.459
  173MPD1     C 2670   1.557   0.010  14.364
  173MPD1    C1 2671   1.673   4.712  14.381
  173MPD1    C2 2672   1.652   4.585  14.430
  173MPD1    C3 2673   1.526   4.528  14.449
  173MPD1    C4 2674   1.417   4.605  14.427
  173MPD1    C5 2675   1.435   4.732  14.387
  173MPD1     H 2676   1.739   4.521  14.444
  173MPD1    H1 2677   1.315   4.571  14.443
  173MPD1    H2 2678   1.553   0.110  14.322
  173MPD1    H3 2679   1.349   0.015  14.371
  173MPD1     N 2680   1.512   4.392  14.496
  173MPD1    H5 2681   1.599   4.341  14.506
  173MPD1    N1 2682   1.806   4.761  14.371
  173MPD1    H6 2683   1.810   0.051  14.298
  173MPD1    H7 2684   1.872   4.687  14.347
  174MPD1     C 2685   1.920   3.778  14.881
  174MPD1    C1 2686   1.798   3.723  14.888
  174MPD1    C2 2687   1.707   3.758  14.789
  174MPD1    C3 2688   1.727   3.872  14.713
  174MPD1    C4 2689   1.849   3.940  14.726
  174MPD1    C5 2690   1.949   3.887  14.803
  174MPD1     H 2691   1.609   3.712  14.791
  174MPD1    H1 2692   1.871   4.023  14.659
  174MPD1    H2 2693   1.997   3.742  14.948
  174MPD1    H3 2694   2.052   3.920  14.793
  174MPD1     N 2695   1.631   3.938  14.635
  174MPD1    H5 2696   1.652   4.027  14.592
  174MPD1    N1 2697   1.788   3.594  14.929
  174MPD1    H6 2698   1.845   3.572  15.010
  174MPD1    H7 2699   1.693   3.564  14.951
  175MPD1     C 2700   0.175   0.079  15.721
  175MPD1    C1 2701   0.042   0.112  15.745
  175MPD1    C2 2702   0.013   0.155  15.875
  175MPD1    C3 2703   0.114   0.183  15.966
  175MPD1    C4 2704   0.241   0.157  15.935
  175MPD1    C5 2705   0.272   0.098  15.817
  175MPD1     H 2706   4.689   0.164  15.899
  175MPD1    H1 2707   0.325   0.185  15.998
  175MPD1    H2 2708   0.203   0.030  15.629
  175MPD1    H3 2709   0.375   0.068  15.798
  175MPD1     N 2710   0.085   0.218  16.096
  175MPD1    H5 2711   0.157   0.243  16.163
  175MPD1    N1 2712   4.727   0.066  15.657
  175MPD1    H6 2713   4.655   0.138  15.650
  175MPD1    H7 2714   4.762   0.048  15.563
  176MPD1     C 2715   1.296   2.176  17.009
  176MPD1    C1 2716   1.412   2.244  16.995
  176MPD1    C2 2717   1.434   2.356  17.076
  176MPD1    C3 2718   1.332   2.409  17.152
  176MPD1    C4 2719   1.208   2.350  17.147
  176MPD1    C5 2720   1.194   2.231  17.080
  176MPD1     H 2721   1.535   2.394  17.089
  176MPD1    H1 2722   1.122   2.381  17.205
  176MPD1    H2 2723   1.275   2.075  16.976
  176MPD1    H3 2724   1.100   2.177  17.086
  176MPD1     N 2725   1.360   2.519  17.236
  176MPD1    H5 2726   1.457   2.548  17.243
  176MPD1    N1 2727   1.519   2.168  16.947
  176MPD1    H6 2728   1.594   2.230  16.917
  176MPD1    H7 2729   1.498   2.111  16.866
  177MPD1     C 2730   0.201   2.354  10.540
  177MPD1    C1 2731   0.070   2.336  10.501
  177MPD1    C2 2732   0.020   2.402  10.398
  177MPD1    C3 2733   0.107   2.484  10.325
  177MPD1    C4 2734   0.230   2.521  10.374
  177MPD1    C5 2735   0.278   2.451  10.487
  177MPD1     H 2736   4.700   2.393  10.360
  177MPD1    H1 2737   0.301   2.589  10.330
  177MPD1    H2 2738   0.255   2.299  10.616
  177MPD1    H3 2739   0.368   2.483  10.539
  177MPD1     N 2740   0.065   2.533  10.192
  177MPD1    H5 2741   4.768   2.485  10.147
  177MPD1    N1 2742   4.778   2.233  10.565
  177MPD1    H6 2743   4.680   2.234  10.538
  177MPD1    H7 2744   0.004   2.235  10.667
  178MPD1     C 2745   2.391   3.518  17.902
  178MPD1    C1 2746   2.403   3.388  17.947
  178MPD1    C2 2747   2.479   3.308  17.874
  178MPD1    C3 2748   2.560   3.350  17.767
  178MPD1    C4 2749   2.556   3.486  17.728
  178MPD1    C5 2750   2.465   3.564  17.796
  178MPD1     H 2751   2.487   3.203  17.901
  178MPD1    H1 2752   2.610   3.535  17.648
  178MPD1    H2 2753   2.321   3.584  17.953
  178MPD1    H3 2754   2.453   3.669  17.771
  178MPD1     N 2755   2.644   3.267  17.690
  178MPD1    H5 2756   2.689   3.321  17.617
  178MPD1    N1 2757   2.315   3.339  18.044
  178MPD1    H6 2758   2.275   3.408  18.107
  178MPD1    H7 2759   2.366   3.276  18.106
  179MPD1     C 2760   2.197   1.639  16.195
  179MPD1    C1 2761   2.077   1.577  16.190
  179MPD1    C2 2762   2.078   1.443  16.169
  179MPD1    C3 2763   2.191   1.373  16.139
  179MPD1    C4 2764   2.314   1.440  16.143
  179MPD1    C5 2765   2.313   1.574  16.167
  179MPD1     H 2766   1.981   1.395  16.173
  179MPD1    H1 2767   2.410   1.391  16.136
  179MPD1    H2 2768   2.198   1.747  16.208
  179MPD1    H3 2769   2.402   1.635  16.164
  179MPD1     N 2770   2.189   1.235  16.115
  179MPD1    H5 2771   2.277   1.193  16.086
  179MPD1    N1 2772   1.964   1.640  16.246
  179MPD1    H6 2773   1.871   1.607  16.221
  179MPD1    H7 2774   1.959   1.741  16.231
  180MPD1     C 2775   1.934   2.549  14.910
  180MPD1    C1 2776   1.996   2.611  14.808
  180MPD1    C2 2777   1.919   2.675  14.716
  180MPD1    C3 2778   1.779   2.687  14.731
  180MPD1    C4 2779   1.720   2.607  14.827
  180MPD1    C5 2780   1.799   2.547  14.921
  180MPD1     H 2781   1.968   2.721  14.631
  180MPD1    H1 2782   1.612   2.605  14.833
  180MPD1    H2 2783   1.994   2.488  14.977
  180MPD1    H3 2784   1.750   2.498  15.005
  180MPD1     N 2785   1.703   2.715  14.611
  180MPD1    H5 2786   1.767   2.745  14.538
  180MPD1    N1 2787   2.133   2.584  14.788
  180MPD1    H6 2788   2.176   2.660  14.736
  180MPD1    H7 2789   2.187   2.571  14.874
  181MPD1     C 2790   4.002   4.701   9.556
  181MPD1    C1 2791   3.957   0.024   9.629
  181MPD1    C2 2792   3.957   0.015   9.769
  181MPD1    C3 2793   4.001   4.678   9.831
  181MPD1    C4 2794   4.039   4.568   9.752
  181MPD1    C5 2795   4.034   4.580   9.613
  181MPD1     H 2796   3.928   0.098   9.833
  181MPD1    H1 2797   4.061   4.473   9.798
  181MPD1    H2 2798   4.004   4.704   9.448
  181MPD1    H3 2799   4.072   4.496   9.556
  181MPD1     N 2800   4.016   4.663   9.972
  181MPD1    H5 2801   4.034   4.574  10.017
  181MPD1    N1 2802   3.933   0.151   9.573
  181MPD1    H6 2803   3.859   0.199   9.624
  181MPD1    H7 2804   3.911   0.142   9.474
  182MPD1     C 2805   4.354   3.634  19.332
  182MPD1    C1 2806   4.273   3.529  19.300
  182MPD1    C2 2807   4.241   3.504  19.173
  182MPD1    C3 2808   4.293   3.590  19.074
  182MPD1    C4 2809   4.367   3.696  19.106
  182MPD1    C5 2810   4.395   3.721  19.236
  182MPD1     H 2811   4.175   3.425  19.139
  182MPD1    H1 2812   4.402   3.771  19.036
  182MPD1    H2 2813   4.391   3.648  19.433
  182MPD1    H3 2814   4.458   3.803  19.269
  182MPD1     N 2815   4.259   3.573  18.939
  182MPD1    H5 2816   4.321   3.624  18.878
  182MPD1    N1 2817   4.241   3.436  19.403
  182MPD1    H6 2818   4.235   3.482  19.493
  182MPD1    H7 2819   4.151   3.395  19.381
  183MPD1     C 2820   1.252   4.604   9.922
  183MPD1    C1 2821   1.232   4.540  10.042
  183MPD1    C2 2822   1.102   4.527  10.088
  183MPD1    C3 2823   0.997   4.592  10.029
  183MPD1    C4 2824   1.023   4.665   9.916
  183MPD1    C5 2825   1.146   4.670   9.862
  183MPD1     H 2826   1.071   4.474  10.177
  183MPD1    H1 2827   0.948   4.731   9.873
  183MPD1    H2 2828   1.351   4.624   9.883
  183MPD1    H3 2829   1.168   4.717   9.767
  183MPD1     N 2830   0.868   4.578  10.081
  183MPD1    H5 2831   0.849   4.522  10.164
  183MPD1    N1 2832   1.332   4.474  10.115
  183MPD1    H6 2833   1.318   4.499  10.213
  183MPD1    H7 2834   1.425   4.513  10.101
  184MPD1     C 2835   3.972   2.013  10.584
  184MPD1    C1 2836   3.903   1.984  10.466
  184MPD1    C2 2837   3.936   2.054  10.346
  184MPD1    C3 2838   4.011   2.178  10.360
  184MPD1    C4 2839   4.064   2.210  10.482
  184MPD1    C5 2840   4.046   2.127  10.588
  184MPD1     H 2841   3.889   2.026  10.252
  184MPD1    H1 2842   4.110   2.306  10.504
  184MPD1    H2 2843   3.958   1.953  10.673
  184MPD1    H3 2844   4.074   2.152  10.690
  184MPD1     N 2845   4.033   2.267  10.250
  184MPD1    H5 2846   4.086   2.353  10.264
  184MPD1    N1 2847   3.830   1.860  10.460
  184MPD1    H6 2848   3.772   1.854  10.377
  184MPD1    H7 2849   3.773   1.841  10.543
  185MPD1     C 2850   3.846   2.653   9.234
  185MPD1    C1 2851   3.789   2.546   9.295
  185MPD1    C2 2852   3.843   2.507   9.416
  185MPD1    C3 2853   3.945   2.579   9.476
  185MPD1    C4 2854   3.995   2.690   9.414
  185MPD1    C5 2855   3.953   2.720   9.293
  185MPD1     H 2856   3.801   2.421   9.467
  185MPD1    H1 2857   4.075   2.753   9.452
  185MPD1    H2 2858   3.807   2.678   9.136
  185MPD1    H3 2859   3.988   2.813   9.250
  185MPD1     N 2860   3.979   2.563   9.612
  185MPD1    H5 2861   4.023   2.639   9.664
  185MPD1    N1 2862   3.702   2.460   9.228
  185MPD1    H6 2863   3.666   2.522   9.156
  185MPD1    H7 2864   3.623   2.437   9.289
  186MPD1     C 2865   2.807   0.989  16.166
  186MPD1    C1 2866   2.692   0.994  16.235
  186MPD1    C2 2867   2.643   1.113  16.283
  186MPD1    C3 2868   2.722   1.230  16.252
  186MPD1    C4 2869   2.829   1.225  16.168
  186MPD1    C5 2870   2.871   1.102  16.133
  186MPD1     H 2871   2.545   1.120  16.329
  186MPD1    H1 2872   2.885   1.314  16.141
  186MPD1    H2 2873   2.864   0.899  16.143
  186MPD1    H3 2874   2.969   1.102  16.087
  186MPD1     N 2875   2.675   1.356  16.290
  186MPD1    H5 2876   2.722   1.433  16.243
  186MPD1    N1 2877   2.653   0.880  16.297
  186MPD1    H6 2878   2.684   0.798  16.244
  186MPD1    H7 2879   2.554   0.866  16.314
  187MPD1     C 2880   1.497   3.404  18.318
  187MPD1    C1 2881   1.468   3.305  18.223
  187MPD1    C2 2882   1.493   3.326  18.088
  187MPD1    C3 2883   1.569   3.442  18.050
  187MPD1    C4 2884   1.614   3.530  18.147
  187MPD1    C5 2885   1.578   3.508  18.278
  187MPD1     H 2886   1.447   3.262  18.014
  187MPD1    H1 2887   1.664   3.625  18.133
  187MPD1    H2 2888   1.465   3.394  18.421
  187MPD1    H3 2889   1.611   3.572  18.359
  187MPD1     N 2890   1.599   3.475  17.916
  187MPD1    H5 2891   1.612   3.574  17.895
  187MPD1    N1 2892   1.383   3.192  18.264
  187MPD1    H6 2893   1.391   3.111  18.203
  187MPD1    H7 2894   1.394   3.179  18.364
  188MPD1     C 2895   1.993   3.631  10.504
  188MPD1    C1 2896   1.916   3.648  10.389
  188MPD1    C2 2897   1.877   3.537  10.315
  188MPD1    C3 2898   1.907   3.406  10.367
  188MPD1    C4 2899   1.963   3.395  10.487
  188MPD1    C5 2900   2.020   3.508  10.545
  188MPD1     H 2901   1.819   3.547  10.224
  188MPD1    H1 2902   2.003   3.302  10.526
  188MPD1    H2 2903   2.059   3.711  10.534
  188MPD1    H3 2904   2.077   3.497  10.636
  188MPD1     N 2905   1.867   3.286  10.308
  188MPD1    H5 2906   1.900   3.208  10.363
  188MPD1    N1 2907   1.896   3.773  10.339
  188MPD1    H6 2908   1.814   3.768  10.279
  188MPD1    H7 2909   1.887   3.838  10.416
  189MPD1     C 2910   3.535   3.932  18.709
  189MPD1    C1 2911   3.587   4.062  18.689
  189MPD1    C2 2912   3.496   4.146  18.630
  189MPD1    C3 2913   3.357   4.115  18.619
  189MPD1    C4 2914   3.314   3.991  18.654
  189MPD1    C5 2915   3.402   3.902  18.692
  189MPD1     H 2916   3.527   4.247  18.607
  189MPD1    H1 2917   3.212   3.957  18.641
  189MPD1    H2 2918   3.607   3.857  18.742
  189MPD1    H3 2919   3.370   3.799  18.703
  189MPD1     N 2920   3.273   4.219  18.578
  189MPD1    H5 2921   3.312   4.305  18.540
  189MPD1    N1 2922   3.724   4.092  18.690
  189MPD1    H6 2923   3.749   4.058  18.783
  189MPD1    H7 2924   3.738   4.193  18.695
  190MPD1     C 2925   1.740   2.393  15.663
  190MPD1    C1 2926   1.770   2.392  15.800
  190MPD1    C2 2927   1.903   2.400  15.838
  190MPD1    C3 2928   2.001   2.412  15.741
  190MPD1    C4 2929   1.971   2.404  15.605
  190MPD1    C5 2930   1.840   2.410  15.570
  190MPD1     H 2931   1.932   2.392  15.942
  190MPD1    H1 2932   2.041   2.419  15.523
  190MPD1    H2 2933   1.639   2.384  15.625
  190MPD1    H3 2934   1.812   2.418  15.466
  190MPD1     N 2935   2.134   2.434  15.779
  190MPD1    H5 2936   2.156   2.435  15.878
  190MPD1    N1 2937   1.658   2.404  15.890
  190MPD1    H6 2938   1.570   2.382  15.845
  190MPD1    H7 2939   1.676   2.350  15.975
  191MPD1     C 2940   2.014   4.539  13.330
  191MPD1    C1 2941   1.890   4.484  13.359
  191MPD1    C2 2942   1.799   4.463  13.255
  191MPD1    C3 2943   1.835   4.486  13.122
  191MPD1    C4 2944   1.962   4.543  13.100
  191MPD1    C5 2945   2.043   4.571  13.203
  191MPD1     H 2946   1.708   4.405  13.264
  191MPD1    H1 2947   1.999   4.570  13.002
  191MPD1    H2 2948   2.094   4.543  13.404
  191MPD1    H3 2949   2.137   4.619  13.179
  191MPD1     N 2950   1.741   4.458  13.020
  191MPD1    H5 2951   1.649   4.425  13.047
  191MPD1    N1 2952   1.868   4.425  13.487
  191MPD1    H6 2953   1.905   4.482  13.563
  191MPD1    H7 2954   1.769   4.408  13.506
  192MPD1     C 2955   1.018   0.184  13.005
  192MPD1    C1 2956   1.059   0.196  12.874
  192MPD1    C2 2957   1.158   0.114  12.828
  192MPD1    C3 2958   1.207   0.002  12.899
  192MPD1    C4 2959   1.151   4.766  13.026
  192MPD1    C5 2960   1.066   0.085  13.083
  192MPD1     H 2961   1.203   0.132  12.731
  192MPD1    H1 2962   1.190   4.698  13.100
  192MPD1    H2 2963   0.952   0.258  13.049
  192MPD1    H3 2964   1.032   0.087  13.186
  192MPD1     N 2965   1.314   4.699  12.856
  192MPD1    H5 2966   1.338   4.626  12.922
  192MPD1    N1 2967   1.023   0.312  12.803
  192MPD1    H6 2968   1.028   0.291  12.703
  192MPD1    H7 2969   0.926   0.333  12.823
  193MPD1     C 2970   1.125   4.641  16.371
  193MPD1    C1 2971   1.112   4.757  16.438
  193MPD1    C2 2972   1.201   0.008  16.539
  193MPD1    C3 2973   1.302   4.699  16.577
  193MPD1    C4 2974   1.303   4.572  16.516
  193MPD1    C5 2975   1.216   4.547  16.413
  193MPD1     H 2976   1.190   0.106  16.585
  193MPD1    H1 2977   1.376   4.495  16.538
  193MPD1    H2 2978   1.061   4.616  16.287
  193MPD1    H3 2979   1.242   4.461  16.352
  193MPD1     N 2980   1.399   4.718  16.676
  193MPD1    H5 2981   1.480   4.658  16.664
  193MPD1    N1 2982   1.040   0.076  16.380
  193MPD1    H6 2983   0.964   0.027  16.334
  193MPD1    H7 2984   1.003   0.141  16.450
  194MPD1     C 2985   3.692   2.668  17.085
  194MPD1    C1 2986   3.630   2.557  17.028
  194MPD1    C2 2987   3.685   2.428  17.051
  194MPD1    C3 2988   3.814   2.415  17.106
  194MPD1    C4 2989   3.873   2.535  17.147
  194MPD1    C5 2990   3.814   2.657  17.141
  194MPD1     H 2991   3.620   2.343  17.037
  194MPD1    H1 2992   3.972   2.533  17.192
  194MPD1    H2 2993   3.650   2.767  17.075
  194MPD1    H3 2994   3.874   2.743  17.170
  194MPD1     N 2995   3.885   2.295  17.123
  194MPD1    H5 2996   3.980   2.297  17.159
  194MPD1    N1 2997   3.492   2.564  16.994
  194MPD1    H6 2998   3.486   2.655  16.949
  194MPD1    H7 2999   3.464   2.498  16.922
  195MPD1     C 3000   1.119   4.347  18.415
  195MPD1    C1 3001   1.020   4.263  18.466
  195MPD1    C2 3002   1.030   4.125  18.452
  195MPD1    C3 3003   1.134   4.071  18.370
  195MPD1    C4 3004   1.227   4.156  18.311
  195MPD1    C5 3005   1.215   4.291  18.338
  195MPD1     H 3006   0.959   4.070  18.512
  195MPD1    H1 3007   1.315   4.113  18.264
  195MPD1    H2 3008   1.114   4.455  18.425
  195MPD1    H3 3009   1.295   4.356  18.306
  195MPD1     N 3010   1.144   3.931  18.341
  195MPD1    H5 3011   1.213   3.897  18.275
  195MPD1    N1 3012   0.920   4.313  18.551
  195MPD1    H6 3013   0.832   4.262  18.554
  195MPD1    H7 3014   0.900   4.410  18.527
  196MPD1     C 3015   0.148   2.680  18.660
  196MPD1    C1 3016   0.192   2.801  18.616
  196MPD1    C2 3017   0.321   2.831  18.658
  196MPD1    C3 3018   0.399   2.746  18.732
  196MPD1    C4 3019   0.356   2.617  18.762
  196MPD1    C5 3020   0.223   2.589  18.731
  196MPD1     H 3021   0.355   2.930  18.631
  196MPD1    H1 3022   0.408   2.547  18.827
  196MPD1    H2 3023   0.048   2.646  18.634
  196MPD1    H3 3024   0.175   2.500  18.771
  196MPD1     N 3025   0.520   2.779  18.792
  196MPD1    H5 3026   0.571   2.716  18.852
  196MPD1    N1 3027   0.104   2.905  18.578
  196MPD1    H6 3028   0.025   2.866  18.527
  196MPD1    H7 3029   0.154   2.974  18.523
  197MPD1     C 3030   0.640   0.711  17.903
  197MPD1    C1 3031   0.627   0.841  17.863
  197MPD1    C2 3032   0.514   0.869  17.788
  197MPD1    C3 3033   0.421   0.774  17.766
  197MPD1    C4 3034   0.434   0.646  17.804
  197MPD1    C5 3035   0.543   0.618  17.878
  197MPD1     H 3036   0.501   0.971  17.753
  197MPD1    H1 3037   0.366   0.564  17.786
  197MPD1    H2 3038   0.733   0.683  17.950
  197MPD1    H3 3039   0.578   0.521  17.913
  197MPD1     N 3040   0.310   0.801  17.676
  197MPD1    H5 3041   0.247   0.722  17.668
  197MPD1    N1 3042   0.726   0.930  17.899
  197MPD1    H6 3043   0.700   1.020  17.859
  197MPD1    H7 3044   0.806   0.915  17.838
  198MPD1     C 3045   2.450   3.250  15.487
  198MPD1    C1 3046   2.402   3.376  15.489
  198MPD1    C2 3047   2.307   3.402  15.588
  198MPD1    C3 3048   2.284   3.316  15.694
  198MPD1    C4 3049   2.354   3.203  15.697
  198MPD1    C5 3050   2.437   3.163  15.592
  198MPD1     H 3051   2.251   3.494  15.582
  198MPD1    H1 3052   2.342   3.133  15.779
  198MPD1    H2 3053   2.519   3.218  15.410
  198MPD1    H3 3054   2.493   3.070  15.592
  198MPD1     N 3055   2.181   3.356  15.790
  198MPD1    H5 3056   2.142   3.449  15.784
  198MPD1    N1 3057   2.418   3.470  15.382
  198MPD1    H6 3058   2.411   3.569  15.405
  198MPD1    H7 3059   2.504   3.446  15.333
  199MPD1     C 3060   4.432   0.272  10.414
  199MPD1    C1 3061   4.370   0.393  10.438
  199MPD1    C2 3062   4.267   0.427  10.362
  199MPD1    C3 3063   4.213   0.344  10.263
  199MPD1    C4 3064   4.274   0.219  10.249
  199MPD1    C5 3065   4.384   0.186  10.316
  199MPD1     H 3066   4.223   0.524  10.384
  199MPD1    H1 3067   4.227   0.152  10.177
  199MPD1    H2 3068   4.527   0.250  10.461
  199MPD1    H3 3069   4.425   0.086  10.308
  199MPD1     N 3070   4.101   0.369  10.180
  199MPD1    H5 3071   4.063   0.285  10.137
  199MPD1    N1 3072   4.436   0.485  10.520
  199MPD1    H6 3073   4.371   0.558  10.548
  199MPD1    H7 3074   4.480   0.439  10.599
  200MPD1     C 3075   2.814   0.299  15.536
  200MPD1    C1 3076   2.778   0.224  15.422
  200MPD1    C2 3077   2.882   0.156  15.358
  200MPD1    C3 3078   3.013   0.179  15.390
  200MPD1    C4 3079   3.039   0.253  15.505
  200MPD1    C5 3080   2.941   0.311  15.577
  200MPD1     H 3081   2.853   0.101  15.269
  200MPD1    H1 3082   3.140   0.272  15.539
  200MPD1    H2 3083   2.735   0.345  15.593
  200MPD1    H3 3084   2.957   0.359  15.673
  200MPD1     N 3085   3.113   0.133  15.302
  200MPD1    H5 3086   3.075   0.093  15.217
  200MPD1    N1 3087   2.644   0.199  15.397
  200MPD1    H6 3088   2.581   0.273  15.428
  200MPD1    H7 3089   2.618   0.173  15.302
  201MPD1     C 3090   0.426   4.503  13.696
  201MPD1    C1 3091   0.328   4.405  13.686
  201MPD1    C2 3092   0.361   4.279  13.732
  201MPD1    C3 3093   0.485   4.235  13.768
  201MPD1    C4 3094   0.580   4.338  13.779
  201MPD1    C5 3095   0.548   4.463  13.753
  201MPD1     H 3096   0.291   4.198  13.720
  201MPD1    H1 3097   0.676   4.307  13.819
  201MPD1    H2 3098   0.408   4.608  13.679
  201MPD1    H3 3099   0.627   4.536  13.766
  201MPD1     N 3100   0.509   4.097  13.797
  201MPD1    H5 3101   0.431   4.033  13.803
  201MPD1    N1 3102   0.193   4.437  13.668
  201MPD1    H6 3103   0.127   4.369  13.633
  201MPD1    H7 3104   0.168   4.526  13.624
  202MPD1     C 3105   0.411   3.596   9.528
  202MPD1    C1 3106   0.479   3.475   9.547
  202MPD1    C2 3107   0.528   3.449   9.677
  202MPD1    C3 3108   0.543   3.553   9.769
  202MPD1    C4 3109   0.493   3.677   9.736
  202MPD1    C5 3110   0.428   3.699   9.619
  202MPD1     H 3111   0.573   3.351   9.690
  202MPD1    H1 3112   0.509   3.759   9.805
  202MPD1    H2 3113   0.347   3.618   9.443
  202MPD1    H3 3114   0.377   3.792   9.597
  202MPD1     N 3115   0.615   3.554   9.891
  202MPD1    H5 3116   0.613   3.637   9.949
  202MPD1    N1 3117   0.468   3.373   9.460
  202MPD1    H6 3118   0.447   3.388   9.361
  202MPD1    H7 3119   0.540   3.303   9.475
  203MPD1     C 3120   4.135   4.635  12.809
  203MPD1    C1 3121   4.229   4.568  12.739
  203MPD1    C2 3122   4.280   4.445  12.790
  203MPD1    C3 3123   4.244   4.397  12.913
  203MPD1    C4 3124   4.152   4.471  12.987
  203MPD1    C5 3125   4.100   4.587  12.937
  203MPD1     H 3126   4.335   4.375  12.727
  203MPD1    H1 3127   4.115   4.438  13.083
  203MPD1    H2 3128   4.092   4.729  12.778
  203MPD1    H3 3129   4.032   4.652  12.990
  203MPD1     N 3130   4.300   4.273  12.962
  203MPD1    H5 3131   4.361   4.224  12.898
  203MPD1    N1 3132   4.259   4.617  12.611
  203MPD1    H6 3133   4.358   4.598  12.594
  203MPD1    H7 3134   4.246   4.718  12.608
  204MPD1     C 3135   3.736   0.787  18.327
  204MPD1    C1 3136   3.783   0.798  18.200
  204MPD1    C2 3137   3.804   0.683  18.121
  204MPD1    C3 3138   3.758   0.556  18.160
  204MPD1    C4 3139   3.696   0.557  18.285
  204MPD1    C5 3140   3.682   0.668  18.361
  204MPD1     H 3141   3.864   0.699  18.032
  204MPD1    H1 3142   3.659   0.462  18.322
  204MPD1    H2 3143   3.736   0.868  18.399
  204MPD1    H3 3144   3.636   0.659  18.459
  204MPD1     N 3145   3.785   0.448  18.076
  204MPD1    H5 3146   3.847   0.481  18.002
  204MPD1    N1 3147   3.843   0.923  18.162
  204MPD1    H6 3148   3.829   0.935  18.062
  204MPD1    H7 3149   3.788   0.997  18.204
  205MPD1     C 3150   4.169   4.212  16.974
  205MPD1    C1 3151   4.159   4.074  17.008
  205MPD1    C2 3152   4.061   4.041  17.101
  205MPD1    C3 3153   3.966   4.136  17.144
  205MPD1    C4 3154   3.972   4.270  17.090
  205MPD1    C5 3155   4.076   4.304  17.014
  205MPD1     H 3156   4.071   3.940  17.140
  205MPD1    H1 3157   3.892   4.340  17.109
  205MPD1    H2 3158   4.250   4.251  16.913
  205MPD1    H3 3159   4.081   4.405  16.975
  205MPD1     N 3160   3.861   4.112  17.236
  205MPD1    H5 3161   3.794   4.187  17.248
  205MPD1    N1 3162   4.252   3.977  16.971
  205MPD1    H6 3163   4.298   3.997  16.883
  205MPD1    H7 3164   4.201   3.890  16.960
  206MPD1     C 3165   4.608   2.562  16.790
  206MPD1    C1 3166   4.557   2.490  16.887
  206MPD1    C2 3167   4.422   2.457  16.873
  206MPD1    C3 3168   4.347   2.498  16.765
  206MPD1    C4 3169   4.393   2.589  16.678
  206MPD1    C5 3170   4.528   2.615  16.687
  206MPD1     H 3171   4.380   2.381  16.938
  206MPD1    H1 3172   4.339   2.632  16.595
  206MPD1    H2 3173   4.712   2.592  16.781
  206MPD1    H3 3174   4.577   2.671  16.609
  206MPD1     N 3175   4.205   2.469  16.750
  206MPD1    H5 3176   4.149   2.508  16.675
  206MPD1    N1 3177   4.633   2.463  16.999
  206MPD1    H6 3178   4.617   2.369  17.034
  206MPD1    H7 3179   4.731   2.477  16.974
  207MPD1     C 3180   1.218   4.456  10.592
  207MPD1    C1 3181   1.298   4.541  10.517
  207MPD1    C2 3182   1.427   4.555  10.555
  207MPD1    C3 3183   1.474   4.512  10.680
  207MPD1    C4 3184   1.388   4.442  10.758
  207MPD1    C5 3185   1.262   4.413  10.717
  207MPD1     H 3186   1.493   4.613  10.492
  207MPD1    H1 3187   1.419   4.417  10.859
  207MPD1    H2 3188   1.121   4.424  10.556
  207MPD1    H3 3189   1.189   4.363  10.779
  207MPD1     N 3190   1.598   4.547  10.737
  207MPD1    H5 3191   1.615   4.521  10.834
  207MPD1    N1 3192   1.255   4.569  10.382
  207MPD1    H6 3193   1.295   4.652  10.339
  207MPD1    H7 3194   1.153   4.565  10.382
  208MPD1     C 3195   4.614   3.591  17.492
  208MPD1    C1 3196   4.551   3.594  17.613
  208MPD1    C2 3197   4.495   3.470  17.648
  208MPD1    C3 3198   4.485   3.363  17.565
  208MPD1    C4 3199   4.520   3.382  17.434
  208MPD1    C5 3200   4.596   3.491  17.401
  208MPD1     H 3201   4.458   3.460  17.749
  208MPD1    H1 3202   4.524   3.303  17.360
  208MPD1    H2 3203   4.667   3.679  17.456
  208MPD1    H3 3204   4.633   3.503  17.300
  208MPD1     N 3205   4.403   3.261  17.611
  208MPD1    H5 3206   4.369   3.273  17.706
  208MPD1    N1 3207   4.568   3.701  17.709
  208MPD1    H6 3208   4.478   3.709  17.756
  208MPD1    H7 3209   4.592   3.788  17.663
  209MPD1     C 3210   1.708   3.661  11.977
  209MPD1    C1 3211   1.763   3.640  11.854
  209MPD1    C2 3212   1.858   3.729  11.814
  209MPD1    C3 3213   1.902   3.825  11.896
  209MPD1    C4 3214   1.856   3.838  12.025
  209MPD1    C5 3215   1.753   3.755  12.062
  209MPD1     H 3216   1.890   3.735  11.711
  209MPD1    H1 3217   1.899   3.908  12.095
  209MPD1    H2 3218   1.632   3.592  12.012
  209MPD1    H3 3219   1.698   3.764  12.155
  209MPD1     N 3220   2.004   3.920  11.848
  209MPD1    H5 3221   2.036   3.901  11.754
  209MPD1    N1 3222   1.695   3.556  11.762
  209MPD1    H6 3223   1.673   3.467  11.805
  209MPD1    H7 3224   1.761   3.535  11.687
  210MPD1     C 3225   2.906   4.494  11.957
  210MPD1    C1 3226   2.865   4.371  12.005
  210MPD1    C2 3227   2.743   4.322  11.966
  210MPD1    C3 3228   2.658   4.400  11.887
  210MPD1    C4 3229   2.699   4.526  11.847
  210MPD1    C5 3230   2.824   4.575  11.885
  210MPD1     H 3231   2.723   4.220  11.998
  210MPD1    H1 3232   2.638   4.593  11.787
  210MPD1    H2 3233   3.006   4.533  11.971
  210MPD1    H3 3234   2.865   4.669  11.848
  210MPD1     N 3235   2.531   4.357  11.845
  210MPD1    H5 3236   2.481   4.423  11.787
  210MPD1    N1 3237   2.957   4.289  12.078
  210MPD1    H6 3238   3.021   4.344  12.136
  210MPD1    H7 3239   2.912   4.226  12.144
  211MPD1     C 3240   4.695   3.914  16.808
  211MPD1    C1 3241   4.710   4.020  16.724
  211MPD1    C2 3242   4.589   4.064  16.665
  211MPD1    C3 3243   4.474   3.997  16.682
  211MPD1    C4 3244   4.469   3.884  16.762
  211MPD1    C5 3245   4.581   3.846  16.828
  211MPD1     H 3246   4.590   4.154  16.604
  211MPD1    H1 3247   4.383   3.820  16.779
  211MPD1    H2 3248   4.779   3.887  16.871
  211MPD1    H3 3249   4.573   3.769  16.903
  211MPD1     N 3250   4.364   4.035  16.601
  211MPD1    H5 3251   4.373   4.113  16.537
  211MPD1    N1 3252   0.034   4.112  16.739
  211MPD1    H6 3253   0.120   4.061  16.761
  211MPD1    H7 3254   0.047   4.166  16.654
  212MPD1     C 3255   3.370   2.421  16.674
  212MPD1    C1 3256   3.282   2.509  16.739
  212MPD1    C2 3257   3.186   2.447  16.821
  212MPD1    C3 3258   3.181   2.313  16.850
  212MPD1    C4 3259   3.274   2.228  16.785
  212MPD1    C5 3260   3.365   2.288  16.700
  212MPD1     H 3261   3.115   2.507  16.876
  212MPD1    H1 3262   3.275   2.124  16.814
  212MPD1    H2 3263   3.438   2.466  16.603
  212MPD1    H3 3264   3.451   2.236  16.661
  212MPD1     N 3265   3.091   2.247  16.935
  212MPD1    H5 3266   3.103   2.146  16.936
  212MPD1    N1 3267   3.277   2.639  16.694
  212MPD1    H6 3268   3.248   2.706  16.765
  212MPD1    H7 3269   3.364   2.682  16.663
  213MPD1     C 3270   1.912   2.749  15.557
  213MPD1    C1 3271   1.914   2.831  15.444
  213MPD1    C2 3272   1.791   2.884  15.407
  213MPD1    C3 3273   1.679   2.875  15.487
  213MPD1    C4 3274   1.681   2.794  15.593
  213MPD1    C5 3275   1.797   2.731  15.621
  213MPD1     H 3276   1.784   2.945  15.318
  213MPD1    H1 3277   1.593   2.766  15.649
  213MPD1    H2 3278   2.001   2.696  15.588
  213MPD1    H3 3279   1.798   2.665  15.707
  213MPD1     N 3280   1.562   2.941  15.436
  213MPD1    H5 3281   1.579   3.000  15.355
  213MPD1    N1 3282   2.029   2.886  15.394
  213MPD1    H6 3283   2.020   2.898  15.293
  213MPD1    H7 3284   2.102   2.819  15.415
  214MPD1     C 3285   0.590   2.685  15.583
  214MPD1    C1 3286   0.598   2.718  15.445
  214MPD1    C2 3287   0.716   2.777  15.401
  214MPD1    C3 3288   0.830   2.783  15.484
  214MPD1    C4 3289   0.822   2.736  15.618
  214MPD1    C5 3290   0.700   2.691  15.662
  214MPD1     H 3291   0.729   2.800  15.296
  214MPD1    H1 3292   0.908   2.750  15.683
  214MPD1    H2 3293   0.504   2.635  15.626
  214MPD1    H3 3294   0.680   2.664  15.765
  214MPD1     N 3295   0.961   2.824  15.448
  214MPD1    H5 3296   1.029   2.818  15.523
  214MPD1    N1 3297   0.478   2.726  15.370
  214MPD1    H6 3298   0.410   2.664  15.413
  214MPD1    H7 3299   0.483   2.708  15.270
  215MPD1     C 3300   1.704   3.370  11.364
  215MPD1    C1 3301   1.814   3.409  11.433
  215MPD1    C2 3302   1.837   3.546  11.438
  215MPD1    C3 3303   1.741   3.639  11.409
  215MPD1    C4 3304   1.620   3.596  11.357
  215MPD1    C5 3305   1.608   3.462  11.328
  215MPD1     H 3306   1.936   3.580  11.465
  215MPD1    H1 3307   1.538   3.665  11.340
  215MPD1    H2 3308   1.683   3.268  11.336
  215MPD1    H3 3309   1.522   3.415  11.281
  215MPD1     N 3310   1.769   3.775  11.432
  215MPD1    H5 3311   1.853   3.790  11.486
  215MPD1    N1 3312   1.924   3.323  11.437
  215MPD1    H6 3313   1.892   3.230  11.462
  215MPD1    H7 3314   1.999   3.356  11.497
  216MPD1     C 3315   3.306   2.300  17.242
  216MPD1    C1 3316   3.332   2.167  17.206
  216MPD1    C2 3317   3.307   2.070  17.304
  216MPD1    C3 3318   3.240   2.093  17.419
  216MPD1    C4 3319   3.191   2.223  17.441
  216MPD1    C5 3320   3.225   2.321  17.354
  216MPD1     H 3321   3.343   1.971  17.277
  216MPD1    H1 3322   3.144   2.248  17.535
  216MPD1    H2 3323   3.331   2.389  17.185
  216MPD1    H3 3324   3.197   2.425  17.365
  216MPD1     N 3325   3.229   1.989  17.507
  216MPD1    H5 3326   3.281   1.904  17.485
  216MPD1    N1 3327   3.417   2.148  17.096
  216MPD1    H6 3328   3.394   2.058  17.055
  216MPD1    H7 3329   3.413   2.222  17.026
  217MPD1     C 3330   3.745   3.383   8.785
  217MPD1    C1 3331   3.878   3.346   8.795
  217MPD1    C2 3332   3.957   3.384   8.899
  217MPD1    C3 3333   3.899   3.467   9.000
  217MPD1    C4 3334   3.770   3.502   8.991
  217MPD1    C5 3335   3.693   3.471   8.882
  217MPD1     H 3336   4.058   3.346   8.896
  217MPD1    H1 3337   3.733   3.577   9.060
  217MPD1    H2 3338   3.683   3.353   8.702
  217MPD1    H3 3339   3.591   3.503   8.866
  217MPD1     N 3340   3.982   3.534   9.091
  217MPD1    H5 3341   3.945   3.590   9.167
  217MPD1    N1 3342   3.927   3.253   8.710
  217MPD1    H6 3343   3.899   3.247   8.612
  217MPD1    H7 3344   4.026   3.231   8.723
  218MPD1     C 3345   0.531   4.766  13.250
  218MPD1    C1 3346   0.622   0.037  13.158
  218MPD1    C2 3347   0.721   4.738  13.109
  218MPD1    C3 3348   0.743   4.607  13.148
  218MPD1    C4 3349   0.651   4.550  13.237
  218MPD1    C5 3350   0.547   4.634  13.285
  218MPD1     H 3351   0.785   4.773  13.029
  218MPD1    H1 3352   0.652   4.445  13.265
  218MPD1    H2 3353   0.447   0.040  13.290
  218MPD1    H3 3354   0.475   4.587  13.352
  218MPD1     N 3355   0.850   4.529  13.100
  218MPD1    H5 3356   0.894   4.561  13.014
  218MPD1    N1 3357   0.598   0.159  13.106
  218MPD1    H6 3358   0.675   0.205  13.057
  218MPD1    H7 3359   0.551   0.232  13.159
  219MPD1     C 3360   1.245   4.241  12.236
  219MPD1    C1 3361   1.305   4.335  12.316
  219MPD1    C2 3362   1.253   4.339  12.446
  219MPD1    C3 3363   1.170   4.238  12.498
  219MPD1    C4 3364   1.139   4.130  12.417
  219MPD1    C5 3365   1.175   4.130  12.282
  219MPD1     H 3366   1.297   4.417  12.507
  219MPD1    H1 3367   1.083   4.052  12.468
  219MPD1    H2 3368   1.269   4.247  12.130
  219MPD1    H3 3369   1.149   4.056  12.207
  219MPD1     N 3370   1.127   4.238  12.633
  219MPD1    H5 3371   1.094   4.148  12.666
  219MPD1    N1 3372   1.383   4.440  12.262
  219MPD1    H6 3373   1.453   4.480  12.324
  219MPD1    H7 3374   1.439   4.404  12.185
  220MPD1     C 3375   1.061   0.271  10.141
  220MPD1    C1 3376   1.094   0.349  10.245
  220MPD1    C2 3377   1.092   0.293  10.372
  220MPD1    C3 3378   1.057   0.160  10.397
  220MPD1    C4 3379   1.023   0.083  10.289
  220MPD1    C5 3380   1.021   0.141  10.160
  220MPD1     H 3381   1.129   0.355  10.453
  220MPD1    H1 3382   0.996   4.759  10.300
  220MPD1    H2 3383   1.074   0.300  10.037
  220MPD1    H3 3384   0.993   0.081  10.074
  220MPD1     N 3385   1.062   0.114  10.531
  220MPD1    H5 3386   1.073   0.182  10.606
  220MPD1    N1 3387   1.166   0.475  10.228
  220MPD1    H6 3388   1.125   0.536  10.299
  220MPD1    H7 3389   1.138   0.526  10.145
  221MPD1     C 3390   3.281   3.269  16.491
  221MPD1    C1 3391   3.378   3.286  16.585
  221MPD1    C2 3392   3.512   3.281  16.554
  221MPD1    C3 3393   3.550   3.263  16.417
  221MPD1    C4 3394   3.450   3.264  16.325
  221MPD1    C5 3395   3.321   3.257  16.355
  221MPD1     H 3396   3.583   3.290  16.636
  221MPD1    H1 3397   3.470   3.264  16.219
  221MPD1    H2 3398   3.175   3.272  16.516
  221MPD1    H3 3399   3.248   3.255  16.275
  221MPD1     N 3400   3.681   3.258  16.374
  221MPD1    H5 3401   3.695   3.255  16.273
  221MPD1    N1 3402   3.336   3.304  16.717
  221MPD1    H6 3403   3.395   3.363  16.774
  221MPD1    H7 3404   3.241   3.337  16.736
  222MPD1     C 3405   2.483   1.966  18.226
  222MPD1    C1 3406   2.547   1.987  18.107
  222MPD1    C2 3407   2.591   2.115  18.066
  222MPD1    C3 3408   2.589   2.222  18.161
  222MPD1    C4 3409   2.525   2.196  18.280
  222MPD1    C5 3410   2.485   2.072  18.313
  222MPD1     H 3411   2.625   2.130  17.964
  222MPD1    H1 3412   2.508   2.272  18.356
  222MPD1    H2 3413   2.435   1.873  18.253
  222MPD1    H3 3414   2.457   2.054  18.416
  222MPD1     N 3415   2.628   2.355  18.131
  222MPD1    H5 3416   2.605   2.422  18.204
  222MPD1    N1 3417   2.541   1.886  18.014
  222MPD1    H6 3418   2.626   1.891  17.958
  222MPD1    H7 3419   2.530   1.797  18.061
  223MPD1     C 3420   2.314   3.218  18.355
  223MPD1    C1 3421   2.448   3.229  18.326
  223MPD1    C2 3422   2.515   3.136  18.255
  223MPD1    C3 3423   2.452   3.028  18.201
  223MPD1    C4 3424   2.319   3.014  18.230
  223MPD1    C5 3425   2.250   3.110  18.299
  223MPD1     H 3426   2.623   3.143  18.247
  223MPD1    H1 3427   2.255   2.931  18.202
  223MPD1    H2 3428   2.257   3.288  18.416
  223MPD1    H3 3429   2.144   3.090  18.311
  223MPD1     N 3430   2.525   2.938  18.132
  223MPD1    H5 3431   2.614   2.978  18.105
  223MPD1    N1 3432   2.512   3.339  18.387
  223MPD1    H6 3433   2.461   3.426  18.401
  223MPD1    H7 3434   2.597   3.371  18.340
  224MPD1     C 3435   0.875   4.562   9.606
  224MPD1    C1 3436   0.775   4.649   9.647
  224MPD1    C2 3437   0.664   4.588   9.701
  224MPD1    C3 3438   0.656   4.454   9.739
  224MPD1    C4 3439   0.754   4.364   9.690
  224MPD1    C5 3440   0.856   4.425   9.616
  224MPD1     H 3441   0.580   4.644   9.742
  224MPD1    H1 3442   0.736   4.257   9.683
  224MPD1    H2 3443   0.960   4.603   9.553
  224MPD1    H3 3444   0.932   4.366   9.566
  224MPD1     N 3445   0.545   4.392   9.809
  224MPD1    H5 3446   0.543   4.291   9.813
  224MPD1    N1 3447   0.790   0.003   9.615
  224MPD1    H6 3448   0.887   0.029   9.600
  224MPD1    H7 3449   0.755   0.073   9.681
  225MPD1     C 3450   1.050   0.716  13.159
  225MPD1    C1 3451   1.000   0.591  13.183
  225MPD1    C2 3452   0.891   0.553  13.104
  225MPD1    C3 3453   0.828   0.644  13.020
  225MPD1    C4 3454   0.864   0.777  13.023
  225MPD1    C5 3455   0.987   0.808  13.083
  225MPD1     H 3456   0.849   0.453  13.110
  225MPD1    H1 3457   0.813   0.854  12.966
  225MPD1    H2 3458   1.150   0.743  13.192
  225MPD1    H3 3459   1.027   0.909  13.083
  225MPD1     N 3460   0.719   0.605  12.943
  225MPD1    H5 3461   0.662   0.687  12.927
  225MPD1    N1 3462   1.061   0.502  13.275
  225MPD1    H6 3463   0.994   0.435  13.312
  225MPD1    H7 3464   1.101   0.548  13.357
  226MPD1     C 3465   4.502   4.325   9.752
  226MPD1    C1 3466   4.560   4.367   9.869
  226MPD1    C2 3467   4.547   4.498   9.913
  226MPD1    C3 3468   4.478   4.594   9.845
  226MPD1    C4 3469   4.416   4.544   9.731
  226MPD1    C5 3470   4.429   4.413   9.686
  226MPD1     H 3471   4.589   4.519  10.011
  226MPD1    H1 3472   4.350   4.605   9.671
  226MPD1    H2 3473   4.500   4.223   9.715
  226MPD1    H3 3474   4.375   4.382   9.597
  226MPD1     N 3475   4.468   4.732   9.883
  226MPD1    H5 3476   4.520   4.753   9.967
  226MPD1    N1 3477   4.649   4.274   9.926
  226MPD1    H6 3478   4.604   4.184   9.915
  226MPD1    H7 3479   4.661   4.287  10.026
  227MPD1     C 3480   3.947   0.675   9.450
  227MPD1    C1 3481   3.972   0.543   9.422
  227MPD1    C2 3482   4.052   0.478   9.514
  227MPD1    C3 3483   4.120   0.544   9.615
  227MPD1    C4 3484   4.107   0.680   9.623
  227MPD1    C5 3485   4.012   0.741   9.548
  227MPD1     H 3486   4.072   0.372   9.506
  227MPD1    H1 3487   4.152   0.744   9.699
  227MPD1    H2 3488   3.873   0.733   9.396
  227MPD1    H3 3489   3.984   0.844   9.565
  227MPD1     N 3490   4.192   0.464   9.707
  227MPD1    H5 3491   4.204   0.367   9.680
  227MPD1    N1 3492   3.892   0.470   9.328
  227MPD1    H6 3493   3.941   0.388   9.292
  227MPD1    H7 3494   3.858   0.524   9.248
  228MPD1     C 3495   2.876   3.097  12.850
  228MPD1    C1 3496   2.785   3.198  12.847
  228MPD1    C2 3497   2.664   3.178  12.906
  228MPD1    C3 3498   2.631   3.049  12.950
  228MPD1    C4 3499   2.722   2.946  12.952
  228MPD1    C5 3500   2.846   2.979  12.908
  228MPD1     H 3501   2.596   3.262  12.919
  228MPD1    H1 3502   2.709   2.848  12.995
  228MPD1    H2 3503   2.976   3.107  12.809
  228MPD1    H3 3504   2.925   2.905  12.920
  228MPD1     N 3505   2.504   3.031  12.997
  228MPD1    H5 3506   2.438   3.105  12.975
  228MPD1    N1 3507   2.803   3.307  12.768
  228MPD1    H6 3508   2.898   3.333  12.743
  228MPD1    H7 3509   2.746   3.386  12.796
  229MPD1     C 3510   2.157   1.517  14.924
  229MPD1    C1 3511   2.124   1.530  15.055
  229MPD1    C2 3512   2.212   1.477  15.146
  229MPD1    C3 3513   2.336   1.423  15.109
  229MPD1    C4 3514   2.370   1.429  14.971
  229MPD1    C5 3515   2.282   1.474  14.884
  229MPD1     H 3516   2.190   1.479  15.252
  229MPD1    H1 3517   2.468   1.390  14.946
  229MPD1    H2 3518   2.083   1.532  14.846
  229MPD1    H3 3519   2.307   1.465  14.779
  229MPD1     N 3520   2.436   1.363  15.192
  229MPD1    H5 3521   2.530   1.362  15.153
  229MPD1    N1 3522   1.991   1.571  15.094
  229MPD1    H6 3523   1.973   1.600  15.190
  229MPD1    H7 3524   1.955   1.639  15.028
  230MPD1     C 3525   3.142   1.335  15.984
  230MPD1    C1 3526   3.140   1.209  15.931
  230MPD1    C2 3527   3.041   1.169  15.849
  230MPD1    C3 3528   2.946   1.261  15.810
  230MPD1    C4 3529   2.946   1.395  15.856
  230MPD1    C5 3530   3.046   1.424  15.949
  230MPD1     H 3531   3.036   1.067  15.813
  230MPD1    H1 3532   2.871   1.465  15.822
  230MPD1    H2 3533   3.216   1.362  16.058
  230MPD1    H3 3534   3.041   1.520  15.999
  230MPD1     N 3535   2.848   1.216  15.715
  230MPD1    H5 3536   2.860   1.122  15.678
  230MPD1    N1 3537   3.239   1.116  15.961
  230MPD1    H6 3538   3.248   1.049  15.885
  230MPD1    H7 3539   3.327   1.166  15.973
  231MPD1     C 3540   0.629   3.056  15.983
  231MPD1    C1 3541   0.533   3.098  15.892
  231MPD1    C2 3542   0.572   3.109  15.763
  231MPD1    C3 3543   0.702   3.093  15.719
  231MPD1    C4 3544   0.794   3.061  15.812
  231MPD1    C5 3545   0.758   3.041  15.944
  231MPD1     H 3546   0.500   3.147  15.691
  231MPD1    H1 3547   0.899   3.039  15.799
  231MPD1    H2 3548   0.614   3.045  16.090
  231MPD1    H3 3549   0.822   3.004  16.024
  231MPD1     N 3550   0.742   3.111  15.583
  231MPD1    H5 3551   0.673   3.133  15.512
  231MPD1    N1 3552   0.402   3.127  15.929
  231MPD1    H6 3553   0.378   3.128  16.028
  231MPD1    H7 3554   0.373   3.216  15.888
  232MPD1     C 3555   2.704   0.900  18.247
  232MPD1    C1 3556   2.723   0.781  18.184
  232MPD1    C2 3557   2.672   0.668  18.244
  232MPD1    C3 3558   2.620   0.684  18.371
  232MPD1    C4 3559   2.613   0.804  18.439
  232MPD1    C5 3560   2.652   0.915  18.372
  232MPD1     H 3561   2.679   0.570  18.197
  232MPD1    H1 3562   2.555   0.812  18.530
  232MPD1    H2 3563   2.728   0.998  18.207
  232MPD1    H3 3564   2.651   1.012  18.421
  232MPD1     N 3565   2.557   0.578  18.430
  232MPD1    H5 3566   2.543   0.499  18.367
  232MPD1    N1 3567   2.765   0.769  18.052
  232MPD1    H6 3568   2.797   0.674  18.035
  232MPD1    H7 3569   2.849   0.825  18.040
  233MPD1     C 3570   3.949   3.734  17.696
  233MPD1    C1 3571   3.944   3.666  17.812
  233MPD1    C2 3572   3.971   3.736  17.923
  233MPD1    C3 3573   3.998   3.869  17.923
  233MPD1    C4 3574   4.001   3.929  17.799
  233MPD1    C5 3575   3.980   3.871  17.683
  233MPD1     H 3576   3.969   3.683  18.017
  233MPD1    H1 3577   4.013   4.036  17.783
  233MPD1    H2 3578   3.921   3.689  17.601
  233MPD1    H3 3579   3.977   3.925  17.589
  233MPD1     N 3580   4.030   3.946  18.040
  233MPD1    H5 3581   4.053   4.043  18.020
  233MPD1    N1 3582   3.899   3.531  17.814
  233MPD1    H6 3583   3.930   3.496  17.905
  233MPD1    H7 3584   3.943   3.482  17.736
  234MPD1     C 3585   0.299   2.498   9.578
  234MPD1    C1 3586   0.288   2.595   9.477
  234MPD1    C2 3587   0.313   2.728   9.515
  234MPD1    C3 3588   0.331   2.764   9.648
  234MPD1    C4 3589   0.333   2.669   9.746
  234MPD1    C5 3590   0.317   2.538   9.710
  234MPD1     H 3591   0.330   2.800   9.436
  234MPD1    H1 3592   0.333   2.697   9.851
  234MPD1    H2 3593   0.296   2.392   9.558
  234MPD1    H3 3594   0.303   2.468   9.792
  234MPD1     N 3595   0.348   2.906   9.663
  234MPD1    H5 3596   0.322   2.959   9.580
  234MPD1    N1 3597   0.291   2.553   9.339
  234MPD1    H6 3598   0.241   2.466   9.321
  234MPD1    H7 3599   0.231   2.618   9.288
  235MPD1     C 3600   1.217   0.297  10.893
  235MPD1    C1 3601   1.158   0.366  10.794
  235MPD1    C2 3602   1.237   0.453  10.724
  235MPD1    C3 3603   1.362   0.492  10.771
  235MPD1    C4 3604   1.410   0.443  10.885
  235MPD1    C5 3605   1.339   0.339  10.942
  235MPD1     H 3606   1.202   0.507  10.636
  235MPD1    H1 3607   1.513   0.459  10.914
  235MPD1    H2 3608   1.174   0.215  10.950
  235MPD1    H3 3609   1.376   0.296  11.034
  235MPD1     N 3610   1.438   0.586  10.696
  235MPD1    H5 3611   1.388   0.622  10.615
  235MPD1    N1 3612   1.035   0.319  10.739
  235MPD1    H6 3613   0.965   0.291  10.807
  235MPD1    H7 3614   1.005   0.399  10.684
  236MPD1     C 3615   0.941   1.990  10.311
  236MPD1    C1 3616   0.914   1.864  10.267
  236MPD1    C2 3617   0.973   1.757  10.328
  236MPD1    C3 3618   1.078   1.780  10.420
  236MPD1    C4 3619   1.105   1.913  10.457
  236MPD1    C5 3620   1.042   2.016  10.406
  236MPD1     H 3621   0.947   1.657  10.294
  236MPD1    H1 3622   1.181   1.940  10.530
  236MPD1    H2 3623   0.881   2.072  10.273
  236MPD1    H3 3624   1.058   2.117  10.441
  236MPD1     N 3625   1.155   1.679  10.476
  236MPD1    H5 3626   1.227   1.701  10.544
  236MPD1    N1 3627   0.794   1.842  10.196
  236MPD1    H6 3628   0.810   1.760  10.139
  236MPD1    H7 3629   0.764   1.922  10.140
  237MPD1     C 3630   1.390   4.371  15.399
  237MPD1    C1 3631   1.344   4.433  15.517
  237MPD1    C2 3632   1.215   4.410  15.552
  237MPD1    C3 3633   1.130   4.349  15.467
  237MPD1    C4 3634   1.172   4.308  15.339
  237MPD1    C5 3635   1.304   4.308  15.313
  237MPD1     H 3636   1.180   4.447  15.648
  237MPD1    H1 3637   1.101   4.263  15.270
  237MPD1    H2 3638   1.496   4.361  15.376
  237MPD1    H3 3639   1.342   4.253  15.228
  237MPD1     N 3640   0.990   4.325  15.496
  237MPD1    H5 3641   0.944   4.276  15.420
  237MPD1    N1 3642   1.439   4.476  15.611
  237MPD1    H6 3643   1.517   4.520  15.563
  237MPD1    H7 3644   1.393   4.538  15.678
  238MPD1     C 3645   2.744   3.451  15.096
  238MPD1    C1 3646   2.703   3.345  15.167
  238MPD1    C2 3647   2.590   3.274  15.115
  238MPD1    C3 3648   2.567   3.283  14.971
  238MPD1    C4 3649   2.615   3.395  14.903
  238MPD1    C5 3650   2.702   3.476  14.968
  238MPD1     H 3651   2.554   3.194  15.178
  238MPD1    H1 3652   2.581   3.424  14.804
  238MPD1    H2 3653   2.820   3.521  15.127
  238MPD1    H3 3654   2.742   3.564  14.919
  238MPD1     N 3655   2.458   3.208  14.913
  238MPD1    H5 3656   2.427   3.231  14.819
  238MPD1    N1 3657   2.740   3.322  15.302
  238MPD1    H6 3658   2.840   3.339  15.313
  238MPD1    H7 3659   2.722   3.228  15.338
  239MPD1     C 3660   2.669   3.742  15.224
  239MPD1    C1 3661   2.785   3.811  15.197
  239MPD1    C2 3662   2.769   3.932  15.120
  239MPD1    C3 3663   2.645   3.987  15.087
  239MPD1    C4 3664   2.540   3.923  15.137
  239MPD1    C5 3665   2.552   3.802  15.199
  239MPD1     H 3666   2.862   3.977  15.087
  239MPD1    H1 3667   2.437   3.954  15.123
  239MPD1    H2 3668   2.679   3.650  15.281
  239MPD1    H3 3669   2.459   3.750  15.221
  239MPD1     N 3670   2.621   4.089  14.996
  239MPD1    H5 3671   2.523   4.085  14.968
  239MPD1    N1 3672   2.910   3.763  15.232
  239MPD1    H6 3673   2.991   3.823  15.215
  239MPD1    H7 3674   2.914   3.716  15.322
  240MPD1     C 3675   1.888   4.226  13.822
  240MPD1    C1 3676   1.766   4.171  13.845
  240MPD1    C2 3677   1.754   4.083  13.951
  240MPD1    C3 3678   1.856   4.064  14.043
  240MPD1    C4 3679   1.967   4.140  14.031
  240MPD1    C5 3680   1.989   4.206  13.917
  240MPD1     H 3681   1.666   4.024  13.974
  240MPD1    H1 3682   2.056   4.130  14.092
  240MPD1    H2 3683   1.907   4.298  13.744
  240MPD1    H3 3684   2.081   4.263  13.913
  240MPD1     N 3685   1.836   3.981  14.157
  240MPD1    H5 3686   1.749   3.930  14.150
  240MPD1    N1 3687   1.664   4.185  13.749
  240MPD1    H6 3688   1.570   4.176  13.786
  240MPD1    H7 3689   1.661   4.279  13.709
  241MPD1     C 3690   2.224   3.423  15.017
  241MPD1    C1 3691   2.290   3.521  14.947
  241MPD1    C2 3692   2.229   3.566  14.831
  241MPD1    C3 3693   2.116   3.505  14.777
  241MPD1    C4 3694   2.067   3.397  14.841
  241MPD1    C5 3695   2.120   3.357  14.963
  241MPD1     H 3696   2.268   3.657  14.788
  241MPD1    H1 3697   1.981   3.340  14.807
  241MPD1    H2 3698   2.259   3.387  15.113
  241MPD1    H3 3699   2.065   3.282  15.019
  241MPD1     N 3700   2.047   3.551  14.663
  241MPD1    H5 3701   1.954   3.516  14.641
  241MPD1    N1 3702   2.389   3.589  15.009
  241MPD1    H6 3703   2.448   3.631  14.938
  241MPD1    H7 3704   2.451   3.524  15.057
  242MPD1     C 3705   1.808   1.927  16.334
  242MPD1    C1 3706   1.929   1.999  16.324
  242MPD1    C2 3707   1.966   2.028  16.190
  242MPD1    C3 3708   1.919   1.952  16.086
  242MPD1    C4 3709   1.807   1.877  16.100
  242MPD1    C5 3710   1.751   1.867  16.223
  242MPD1     H 3711   2.037   2.110  16.181
  242MPD1    H1 3712   1.752   1.835  16.016
  242MPD1    H2 3713   1.762   1.916  16.432
  242MPD1    H3 3714   1.661   1.807  16.232
  242MPD1     N 3715   1.954   1.979  15.954
  242MPD1    H5 3716   1.899   1.925  15.888
  242MPD1    N1 3717   1.955   2.086  16.432
  242MPD1    H6 3718   2.056   2.095  16.441
  242MPD1    H7 3719   1.924   2.040  16.517
  243MPD1     C 3720   3.280   0.804  18.578
  243MPD1    C1 3721   3.279   0.677  18.524
  243MPD1    C2 3722   3.308   0.658  18.397
  243MPD1    C3 3723   3.355   0.765  18.317
  243MPD1    C4 3724   3.354   0.894  18.370
  243MPD1    C5 3725   3.323   0.908  18.502
  243MPD1     H 3726   3.322   0.559  18.355
  243MPD1    H1 3727   3.389   0.979  18.313
  243MPD1    H2 3728   3.257   0.823  18.682
  243MPD1    H3 3729   3.335   1.003  18.554
  243MPD1     N 3730   3.401   0.741  18.186
  243MPD1    H5 3731   3.389   0.645  18.157
  243MPD1    N1 3732   3.209   0.573  18.592
  243MPD1    H6 3733   3.258   0.486  18.571
  243MPD1    H7 3734   3.205   0.589  18.693
  244MPD1     C 3735   3.418   4.718  17.904
  244MPD1    C1 3736   3.374   0.016  18.010
  244MPD1    C2 3737   3.396   0.154  18.004
  244MPD1    C3 3738   3.459   0.219  17.902
  244MPD1    C4 3739   3.494   0.135  17.799
  244MPD1    C5 3740   3.485   4.780  17.801
  244MPD1     H 3741   3.370   0.203  18.097
  244MPD1    H1 3742   3.532   0.174  17.705
  244MPD1    H2 3743   3.399   4.611  17.904
  244MPD1    H3 3744   3.513   4.724  17.712
  244MPD1     N 3745   3.476   0.360  17.909
  244MPD1    H5 3746   3.437   0.412  17.987
  244MPD1    N1 3747   3.330   4.735  18.127
  244MPD1    H6 3748   3.280   0.012  18.194
  244MPD1    H7 3749   3.283   4.647  18.108
  245MPD1     C 3750   0.354   0.859  13.542
  245MPD1    C1 3751   0.426   0.880  13.656
  245MPD1    C2 3752   0.435   1.009  13.701
  245MPD1    C3 3753   0.359   1.109  13.655
  245MPD1    C4 3754   0.269   1.085  13.557
  245MPD1    C5 3755   0.276   0.963  13.499
  245MPD1     H 3756   0.497   1.036  13.786
  245MPD1    H1 3757   0.200   1.155  13.512
  245MPD1    H2 3758   0.352   0.761  13.495
  245MPD1    H3 3759   0.198   0.939  13.427
  245MPD1     N 3760   0.365   1.236  13.724
  245MPD1    H5 3761   0.417   1.241  13.811
  245MPD1    N1 3762   0.512   0.780  13.708
  245MPD1    H6 3763   0.511   0.778  13.810
  245MPD1    H7 3764   0.480   0.687  13.681
  246MPD1     C 3765   1.260   3.656   9.971
  246MPD1    C1 3766   1.191   3.557   9.909
  246MPD1    C2 3767   1.268   3.447   9.868
  246MPD1    C3 3768   1.402   3.462   9.855
  246MPD1    C4 3769   1.471   3.571   9.906
  246MPD1    C5 3770   1.398   3.664   9.972
  246MPD1     H 3771   1.224   3.355   9.833
  246MPD1    H1 3772   1.578   3.589   9.910
  246MPD1    H2 3773   1.208   3.743  10.011
  246MPD1    H3 3774   1.447   3.753  10.011
  246MPD1     N 3775   1.467   3.357   9.796
  246MPD1    H5 3776   1.413   3.283   9.753
  246MPD1    N1 3777   1.050   3.558   9.922
  246MPD1    H6 3778   1.007   3.496   9.854
  246MPD1    H7 3779   0.998   3.643   9.900
  247MPD1     C 3780   4.317   0.722  15.186
  247MPD1    C1 3781   4.388   0.830  15.222
  247MPD1    C2 3782   4.444   0.839  15.347
  247MPD1    C3 3783   4.408   0.750  15.448
  247MPD1    C4 3784   4.317   0.647  15.413
  247MPD1    C5 3785   4.277   0.632  15.283
  247MPD1     H 3786   4.508   0.926  15.359
  247MPD1    H1 3787   4.264   0.574  15.472
  247MPD1    H2 3788   4.276   0.711  15.086
  247MPD1    H3 3789   4.224   0.540  15.262
  247MPD1     N 3790   4.457   0.752  15.581
  247MPD1    H5 3791   4.424   0.673  15.635
  247MPD1    N1 3792   4.440   0.911  15.121
  247MPD1    H6 3793   4.468   1.001  15.160
  247MPD1    H7 3794   4.377   0.931  15.043
  248MPD1     C 3795   1.206   0.606  17.833
  248MPD1    C1 3796   1.110   0.706  17.852
  248MPD1    C2 3797   1.025   0.691  17.962
  248MPD1    C3 3798   1.020   0.584  18.045
  248MPD1    C4 3799   1.111   0.483  18.023
  248MPD1    C5 3800   1.197   0.496  17.912
  248MPD1     H 3801   0.972   0.781  17.993
  248MPD1    H1 3802   1.124   0.404  18.096
  248MPD1    H2 3803   1.284   0.623  17.759
  248MPD1    H3 3804   1.281   0.429  17.902
  248MPD1     N 3805   0.924   0.581  18.154
  248MPD1    H5 3806   0.870   0.666  18.164
  248MPD1    N1 3807   1.127   0.827  17.789
  248MPD1    H6 3808   1.171   0.817  17.698
  248MPD1    H7 3809   1.046   0.888  17.775
  249MPD1     C 3810   2.060   4.310  10.688
  249MPD1    C1 3811   2.166   4.361  10.755
  249MPD1    C2 3812   2.220   4.483  10.709
  249MPD1    C3 3813   2.154   4.557  10.607
  249MPD1    C4 3814   2.044   4.500  10.547
  249MPD1    C5 3815   2.000   4.378  10.582
  249MPD1     H 3816   2.311   4.531  10.745
  249MPD1    H1 3817   1.994   4.549  10.464
  249MPD1    H2 3818   2.022   4.212  10.713
  249MPD1    H3 3819   1.916   4.339  10.526
  249MPD1     N 3820   2.204   4.684  10.570
  249MPD1    H5 3821   2.285   4.716  10.622
  249MPD1    N1 3822   2.236   4.286  10.846
  249MPD1    H6 3823   2.174   4.215  10.883
  249MPD1    H7 3824   2.285   4.335  10.921
  250MPD2     C 3825   3.957   4.344  13.457
  250MPD2    C1 3826   3.867   4.448  13.435
  250MPD2    C2 3827   3.746   4.415  13.376
  250MPD2    C3 3828   3.717   4.287  13.332
  250MPD2    C4 3829   3.807   4.187  13.348
  250MPD2    C5 3830   3.929   4.221  13.401
  250MPD2     H 3831   3.686   4.503  13.354
  250MPD2    H1 3832   3.787   4.085  13.318
  250MPD2    H2 3833   4.044   4.354  13.521
  250MPD2    H3 3834   4.013   4.153  13.404
  250MPD2     N 3835   3.596   4.255  13.282
  250MPD2    H5 3836   3.579   4.167  13.235
  250MPD2    N1 3837   3.906   4.583  13.475
  250MPD2    H7 3838   3.998   4.585  13.518
  251TMC3    C1 3839   3.917   0.033  13.498
  251TMC3    C2 3840   3.857   0.156  13.479
  251TMC3    C3 3841   3.927   0.274  13.485
  251TMC3    C4 3842   4.053   0.032  13.523
  251TMC3    C5 3843   4.117   0.149  13.527
  251TMC3    C6 3844   4.061   0.275  13.504
  251TMC3     C 3845   3.848   4.702  13.451
  251TMC3     O 3846   3.742   4.721  13.395
  251TMC3     H 3847   3.754   0.164  13.447
  251TMC3    H1 3848   4.100   4.716  13.539
  251TMC3    H2 3849   4.117   0.368  13.499
  251TMC3    C7 3850   4.252   0.141  13.573
  251TMC3    C8 3851   3.841   0.378  13.535
  251TMC3    O1 3852   4.299   0.032  13.602
  251TMC3    O2 3853   3.735   0.345  13.589
  252TMC3    C1 3854   3.892   1.575   9.405
  252TMC3    C2 3855   4.004   1.574   9.482
  252TMC3    C3 3856   4.000   1.479   9.584
  252TMC3    C4 3857   3.786   1.494   9.424
  252TMC3    C5 3858   3.789   1.407   9.530
  252TMC3    C6 3859   3.896   1.396   9.611
  252TMC3     C 3860   3.879   1.665   9.287
  252TMC3     O 3861   3.774   1.661   9.221
  252TMC3     H 3862   4.079   1.651   9.470
  252TMC3    H1 3863   3.699   1.503   9.359
  252TMC3    H2 3864   3.884   1.343   9.705
  252TMC3    C7 3865   3.685   1.313   9.536
  252TMC3    C8 3866   4.109   1.507   9.677
  252TMC3    O1 3867   3.585   1.325   9.464
  252TMC3    O2 3868   4.165   1.614   9.666
  253MPD2     C 3869   0.209   4.477  15.459
  253MPD2    C1 3870   0.094   4.442  15.520
  253MPD2    C2 3871   0.084   4.458  15.658
  253MPD2    C3 3872   0.175   4.529  15.732
  253MPD2    C4 3873   0.292   4.565  15.670
  253MPD2    C5 3874   0.307   4.535  15.537
  253MPD2     H 3875   4.767   4.444  15.702
  253MPD2    H1 3876   0.373   4.600  15.732
  253MPD2    H2 3877   0.237   4.440  15.361
  253MPD2    H3 3878   0.400   4.553  15.485
  253MPD2     N 3879   0.148   4.586  15.854
  253MPD2    H5 3880   0.211   4.659  15.885
  253MPD2    N1 3881   4.757   4.400  15.459
  253MPD2    H7 3882   4.678   4.375  15.517
  254TMC3    C1 3883   0.034   4.667  16.042
  254TMC3    C2 3884   4.690   4.692  16.093
  254TMC3    C3 3885   4.672   4.681  16.227
  254TMC3    C4 3886   0.144   4.642  16.129
  254TMC3    C5 3887   0.127   4.646  16.258
  254TMC3    C6 3888   0.003   4.660  16.311
  254TMC3     C 3889   0.031   4.578  15.924
  254TMC3     O 3890   4.705   4.525  15.901
  254TMC3     H 3891   4.606   4.696  16.025
  254TMC3    H1 3892   0.234   4.599  16.088
  254TMC3    H2 3893   4.768   4.646  16.417
  254TMC3    C7 3894   0.221   4.583  16.346
  254TMC3    C8 3895   4.551   4.717  16.301
  254TMC3    O1 3896   0.171   4.514  16.436
  254TMC3    O2 3897   4.560   4.711  16.424
  255MPD2     C 3898   2.853   2.372  10.570
  255MPD2    C1 3899   2.968   2.443  10.604
  255MPD2    C2 3900   3.090   2.380  10.601
  255MPD2    C3 3901   3.098   2.251  10.544
  255MPD2    C4 3902   2.983   2.194  10.497
  255MPD2    C5 3903   2.864   2.243  10.528
  255MPD2     H 3904   3.176   2.419  10.655
  255MPD2    H1 3905   2.983   2.096  10.450
  255MPD2    H2 3906   2.753   2.409  10.587
  255MPD2    H3 3907   2.769   2.202  10.497
  255MPD2     N 3908   3.230   2.203  10.532
  255MPD2    H5 3909   3.286   2.245  10.605
  255MPD2    N1 3910   2.955   2.583  10.650
  255MPD2    H7 3911   2.859   2.616  10.649
  256TMC3    C1 3912   3.008   2.801  10.699
  256TMC3    C2 3913   3.096   2.886  10.647
  256TMC3    C3 3914   3.052   3.008  10.601
  256TMC3    C4 3915   2.875   2.820  10.703
  256TMC3    C5 3916   2.828   2.937  10.649
  256TMC3    C6 3917   2.920   3.031  10.605
  256TMC3     C 3918   3.057   2.662  10.695
  256TMC3     O 3919   3.180   2.641  10.693
  256TMC3     H 3920   3.199   2.856  10.634
  256TMC3    H1 3921   2.800   2.746  10.730
  256TMC3    H2 3922   2.890   3.115  10.544
  256TMC3    C7 3923   2.727   2.904  10.541
  256TMC3    C8 3924   3.093   3.018  10.462
  256TMC3    O1 3925   2.710   2.787  10.519
  256TMC3    O2 3926   3.017   2.979  10.373
  257MPD2     C 3927   2.549   0.205  13.491
  257MPD2    C1 3928   2.496   0.102  13.410
  257MPD2    C2 3929   2.450   4.768  13.472
  257MPD2    C3 3930   2.461   4.751  13.608
  257MPD2    C4 3931   2.511   0.071  13.680
  257MPD2    C5 3932   2.552   0.195  13.625
  257MPD2     H 3933   2.410   4.685  13.415
  257MPD2    H1 3934   2.525   0.059  13.787
  257MPD2    H2 3935   2.598   0.294  13.453
  257MPD2    H3 3936   2.592   0.275  13.686
  257MPD2     N 3937   2.413   4.626  13.660
  257MPD2    H5 3938   2.355   4.578  13.592
  257MPD2    N1 3939   2.477   0.134  13.273
  257MPD2    H7 3940   2.520   0.218  13.235
  258TMC3    C1 3941   2.394   4.439  13.796
  258TMC3    C2 3942   2.453   4.358  13.701
  258TMC3    C3 3943   2.478   4.229  13.741
  258TMC3    C4 3944   2.373   4.389  13.927
  258TMC3    C5 3945   2.406   4.258  13.955
  258TMC3    C6 3946   2.453   4.178  13.859
  258TMC3     C 3947   2.409   4.581  13.793
  258TMC3     O 3948   2.444   4.638  13.897
  258TMC3     H 3949   2.515   4.407  13.627
  258TMC3    H1 3950   2.331   4.453  14.004
  258TMC3    H2 3951   2.483   4.076  13.880
  258TMC3    C7 3952   2.389   4.220  14.088
  258TMC3    C8 3953   2.570   4.155  13.656
  258TMC3    O1 3954   2.299   4.274  14.153
  258TMC3    O2 3955   2.649   4.078  13.711
  259MPD2     C 3956   1.416   0.710  18.862
  259MPD2    C1 3957   1.507   0.747  18.962
  259MPD2    C2 3958   1.623   0.805  18.934
  259MPD2    C3 3959   1.661   0.818  18.804
  259MPD2    C4 3960   1.574   0.782  18.701
  259MPD2    C5 3961   1.452   0.732  18.730
  259MPD2     H 3962   1.706   0.836  18.997
  259MPD2    H1 3963   1.605   0.802  18.599
  259MPD2    H2 3964   1.323   0.662  18.888
  259MPD2    H3 3965   1.391   0.703  18.646
  259MPD2     N 3966   1.779   0.887  18.782
  259MPD2    H5 3967   1.826   0.901  18.871
  259MPD2    N1 3968   1.460   0.736  19.089
  259MPD2    H7 3969   1.371   0.689  19.101
  260TMC3    C1 3970   1.974   0.957  18.680
  260TMC3    C2 3971   2.040   1.001  18.567
  260TMC3    C3 3972   2.159   0.941  18.538
  260TMC3    C4 3973   2.038   0.888  18.780
  260TMC3    C5 3974   2.151   0.822  18.741
  260TMC3    C6 3975   2.213   0.851  18.628
  260TMC3     C 3976   1.830   0.937  18.665
  260TMC3     O 3977   1.779   0.944  18.556
  260TMC3     H 3978   1.984   1.061  18.496
  260TMC3    H1 3979   1.999   0.866  18.879
  260TMC3    H2 3980   2.302   0.797  18.597
  260TMC3    C7 3981   2.134   0.685  18.746
  260TMC3    C8 3982   2.172   0.903  18.399
  260TMC3    O1 3983   2.162   0.624  18.645
  260TMC3    O2 3984   2.178   0.993  18.316
  261MPD2     C 3985   3.181   4.093  12.655
  261MPD2    C1 3986   3.211   4.209  12.731
  261MPD2    C2 3987   3.218   4.331  12.669
  261MPD2    C3 3988   3.197   4.344  12.535
  261MPD2    C4 3989   3.160   4.234  12.463
  261MPD2    C5 3990   3.155   4.109  12.520
  261MPD2     H 3991   3.242   4.413  12.736
  261MPD2    H1 3992   3.138   4.235  12.357
  261MPD2    H2 3993   3.177   3.993  12.696
  261MPD2    H3 3994   3.131   4.034  12.446
  261MPD2     N 3995   3.196   4.472  12.482
  261MPD2    H5 3996   3.242   4.540  12.542
  261MPD2    N1 3997   3.245   4.197  12.871
  261MPD2    H7 3998   3.274   4.285  12.913
  262TMC3    C1 3999   3.147   4.647  12.353
  262TMC3    C2 4000   3.024   4.693  12.318
  262TMC3    C3 4001   2.986   0.028  12.374
  262TMC3    C4 4002   3.235   4.703  12.439
  262TMC3    C5 4003   3.196   0.041  12.487
  262TMC3    C6 4004   3.074   0.095  12.463
  262TMC3     C 4005   3.149   4.505  12.360
  262TMC3     O 4006   3.075   4.442  12.286
  262TMC3     H 4007   2.964   4.630  12.253
  262TMC3    H1 4008   3.340   4.681  12.456
  262TMC3    H2 4009   3.043   0.179  12.524
  262TMC3    C7 4010   3.294   0.137  12.464
  262TMC3    C8 4011   2.925   0.135  12.296
  262TMC3    O1 4012   3.412   0.106  12.483
  262TMC3    O2 4013   2.980   0.246  12.305
  263MPD2     C 4014   4.092   3.942  12.271
  263MPD2    C1 4015   4.183   3.930  12.165
  263MPD2    C2 4016   4.182   4.026  12.067
  263MPD2    C3 4017   4.085   4.123  12.066
  263MPD2    C4 4018   3.988   4.132  12.165
  263MPD2    C5 4019   3.999   4.047  12.273
  263MPD2     H 4020   4.255   4.024  11.986
  263MPD2    H1 4021   3.911   4.208  12.159
  263MPD2    H2 4022   4.105   3.879  12.358
  263MPD2    H3 4023   3.921   4.060  12.347
  263MPD2     N 4024   4.078   4.203  11.945
  263MPD2    H5 4025   4.153   4.184  11.880
  263MPD2    N1 4026   4.291   3.843  12.176
  263MPD2    H7 4027   4.298   3.793  12.264
  264TMC3    C1 4028   4.041   4.385  11.810
  264TMC3    C2 4029   4.036   4.515  11.809
  264TMC3    C3 4030   4.079   4.588  11.694
  264TMC3    C4 4031   4.086   4.314  11.702
  264TMC3    C5 4032   4.134   4.383  11.597
  264TMC3    C6 4033   4.124   4.518  11.586
  264TMC3     C 4034   4.012   4.323  11.935
  264TMC3     O 4035   3.943   4.379  12.016
  264TMC3     H 4036   4.018   4.569  11.901
  264TMC3    H1 4037   4.081   4.206  11.702
  264TMC3    H2 4038   4.149   4.547  11.485
  264TMC3    C7 4039   4.234   4.314  11.519
  264TMC3    C8 4040   4.154   4.710  11.711
  264TMC3    O1 4041   4.286   4.369  11.426
  264TMC3    O2 4042   4.227   4.740  11.615
  265MPD2     C 4043   1.352   4.044  15.901
  265MPD2    C1 4044   1.407   4.157  15.843
  265MPD2    C2 4045   1.479   4.144  15.725
  265MPD2    C3 4046   1.480   4.024  15.657
  265MPD2    C4 4047   1.425   3.919  15.718
  265MPD2    C5 4048   1.363   3.923  15.842
  265MPD2     H 4049   1.498   4.240  15.677
  265MPD2    H1 4050   1.426   3.822  15.669
  265MPD2    H2 4051   1.295   4.048  15.993
  265MPD2    H3 4052   1.324   3.834  15.890
  265MPD2     N 4053   1.546   4.015  15.529
  265MPD2    H5 4054   1.542   3.927  15.478
  265MPD2    N1 4055   1.412   4.282  15.907
  265MPD2    H7 4056   1.433   4.363  15.849
  266TMC3    C1 4057   1.385   4.446  16.075
  266TMC3    C2 4058   1.456   4.476  16.185
  266TMC3    C3 4059   1.469   4.610  16.209
  266TMC3    C4 4060   1.327   4.531  15.988
  266TMC3    C5 4061   1.335   4.664  16.026
  266TMC3    C6 4062   1.411   4.710  16.132
  266TMC3     C 4063   1.386   4.302  16.042
  266TMC3     O 4064   1.353   4.226  16.133
  266TMC3     H 4065   1.490   4.408  16.262
  266TMC3    H1 4066   1.274   4.508  15.896
  266TMC3    H2 4067   1.445   0.031  16.146
  266TMC3    C7 4068   1.315   4.748  15.916
  266TMC3    C8 4069   1.564   4.659  16.307
  266TMC3    O1 4070   1.299   4.701  15.805
  266TMC3    O2 4071   1.638   4.572  16.344
  267MPD2     C 4072   3.367   1.467  18.383
  267MPD2    C1 4073   3.416   1.572  18.307
  267MPD2    C2 4074   3.329   1.631  18.217
  267MPD2    C3 4075   3.199   1.590  18.199
  267MPD2    C4 4076   3.163   1.477  18.272
  267MPD2    C5 4077   3.244   1.415  18.370
  267MPD2     H 4078   3.362   1.720  18.165
  267MPD2    H1 4079   3.060   1.443  18.273
  267MPD2    H2 4080   3.429   1.414  18.454
  267MPD2    H3 4081   3.212   1.329  18.427
  267MPD2     N 4082   3.121   1.641  18.099
  267MPD2    H5 4083   3.030   1.597  18.090
  267MPD2    N1 4084   3.551   1.608  18.333
  267MPD2    H7 4085   3.596   1.550  18.403
  268TMC3    C1 4086   3.746   1.740  18.338
  268TMC3    C2 4087   3.836   1.807  18.257
  268TMC3    C3 4088   3.969   1.807  18.291
  268TMC3    C4 4089   3.776   1.689  18.462
  268TMC3    C5 4090   3.909   1.700  18.492
  268TMC3    C6 4091   4.009   1.745  18.405
  268TMC3     C 4092   3.607   1.725  18.282
  268TMC3     O 4093   3.575   1.802  18.194
  268TMC3     H 4094   3.799   1.850  18.164
  268TMC3    H1 4095   3.713   1.635  18.531
  268TMC3    H2 4096   4.114   1.736  18.430
  268TMC3    C7 4097   3.954   1.670  18.634
  268TMC3    C8 4098   4.064   1.854  18.193
  268TMC3    O1 4099   4.071   1.693  18.661
  268TMC3    O2 4100   4.174   1.873  18.237
  269MPD2     C 4101   4.045   0.153  15.849
  269MPD2    C1 4102   3.976   0.214  15.951
  269MPD2    C2 4103   3.982   0.352  15.951
  269MPD2    C3 4104   4.059   0.426  15.859
  269MPD2    C4 4105   4.124   0.360  15.760
  269MPD2    C5 4106   4.121   0.220  15.763
  269MPD2     H 4107   3.931   0.414  16.024
  269MPD2    H1 4108   4.206   0.399  15.701
  269MPD2    H2 4109   4.043   0.045  15.835
  269MPD2    H3 4110   4.165   0.168  15.679
  269MPD2     N 4111   4.083   0.567  15.888
  269MPD2    H5 4112   4.019   0.607  15.956
  269MPD2    N1 4113   3.920   0.137  16.052
  269MPD2    H7 4114   3.947   0.039  16.047
  270TMC3    C1 4115   3.803   0.065  16.232
  270TMC3    C2 4116   3.671   0.031  16.237
  270TMC3    C3 4117   3.633   4.692  16.295
  270TMC3    C4 4118   3.902   4.768  16.279
  270TMC3    C5 4119   3.859   4.654  16.333
  270TMC3    C6 4120   3.726   4.624  16.354
  270TMC3     C 4121   3.834   0.177  16.148
  270TMC3     O 4122   3.776   0.286  16.157
  270TMC3     H 4123   3.603   0.101  16.189
  270TMC3    H1 4124   4.009   0.004  16.271
  270TMC3    H2 4125   3.698   4.532  16.404
  270TMC3    C7 4126   3.943   4.541  16.294
  270TMC3    C8 4127   3.544   4.607  16.218
  270TMC3    O1 4128   4.067   4.549  16.306
  270TMC3    O2 4129   3.567   4.488  16.222
  271MPD2     C 4130   3.023   4.584  14.400
  271MPD2    C1 4131   2.936   4.575  14.508
  271MPD2    C2 4132   2.805   4.626  14.500
  271MPD2    C3 4133   2.780   4.717  14.398
  271MPD2    C4 4134   2.865   4.729  14.293
  271MPD2    C5 4135   2.987   4.666  14.292
  271MPD2     H 4136   2.738   4.610  14.584
  271MPD2    H1 4137   2.833   0.012  14.212
  271MPD2    H2 4138   3.114   4.526  14.396
  271MPD2    H3 4139   3.047   4.671  14.202
  271MPD2     N 4140   2.649   4.779  14.376
  271MPD2    H5 4141   2.638   0.042  14.285
  271MPD2    N1 4142   2.968   4.508  14.629
  271MPD2    H7 4143   2.894   4.481  14.694
  272TMC3    C1 4144   3.108   4.379  14.765
  272TMC3    C2 4145   3.228   4.317  14.763
  272TMC3    C3 4146   3.274   4.257  14.879
  272TMC3    C4 4147   3.043   4.401  14.877
  272TMC3    C5 4148   3.099   4.355  14.991
  272TMC3    C6 4149   3.209   4.276  15.000
  272TMC3     C 4150   3.096   4.470  14.658
  272TMC3     O 4151   3.205   4.503  14.604
  272TMC3     H 4152   3.271   4.299  14.665
  272TMC3    H1 4153   2.949   4.454  14.877
  272TMC3    H2 4154   3.248   4.228  15.089
  272TMC3    C7 4155   3.042   4.419  15.106
  272TMC3    C8 4156   3.382   4.161  14.870
  272TMC3    O1 4157   2.930   4.464  15.095
  272TMC3    O2 4158   3.413   4.150  14.747
  273MPD2     C 4159   4.594   2.868  12.066
  273MPD2    C1 4160   4.728   2.887  12.035
  273MPD2    C2 4161   4.764   2.887  11.899
  273MPD2    C3 4162   4.669   2.864  11.797
  273MPD2    C4 4163   4.539   2.846  11.832
  273MPD2    C5 4164   4.500   2.860  11.962
  273MPD2     H 4165   0.089   2.888  11.876
  273MPD2    H1 4166   4.473   2.842  11.746
  273MPD2    H2 4167   4.556   2.866  12.167
  273MPD2    H3 4168   4.396   2.848  11.989
  273MPD2     N 4169   4.699   2.857  11.662
  273MPD2    H5 4170   4.626   2.883  11.597
  273MPD2    N1 4171   0.030   2.921  12.141
  273MPD2    H7 4172   4.775   2.919  12.236
  274TMC3    C1 4173   0.068   2.894  11.485
  274TMC3    C2 4174   4.735   2.935  11.416
  274TMC3    C3 4175   4.746   3.048  11.348
  274TMC3    C4 4176   0.167   2.987  11.496
  274TMC3    C5 4177   0.163   3.111  11.441
  274TMC3    C6 4178   0.070   3.130  11.349
  274TMC3     C 4179   0.050   2.833  11.619
  274TMC3     O 4180   0.155   2.796  11.674
  274TMC3     H 4181   4.646   2.877  11.394
  274TMC3    H1 4182   0.237   2.965  11.575
  274TMC3    H2 4183   0.045   3.235  11.337
  274TMC3    C7 4184   0.123   3.197  11.552
  274TMC3    C8 4185   4.638   3.072  11.250
  274TMC3    O1 4186   0.006   3.239  11.548
  274TMC3    O2 4187   4.524   3.041  11.279
  275MPD2     C 4188   4.643   0.535  14.817
  275MPD2    C1 4189   4.569   0.540  14.936
  275MPD2    C2 4190   4.454   0.472  14.939
  275MPD2    C3 4191   4.403   0.410  14.824
  275MPD2    C4 4192   4.472   0.416  14.706
  275MPD2    C5 4193   4.596   0.473  14.707
  275MPD2     H 4194   4.399   0.489  15.031
  275MPD2    H1 4195   4.433   0.371  14.615
  275MPD2    H2 4196   4.737   0.588  14.810
  275MPD2    H3 4197   4.648   0.480  14.612
  275MPD2     N 4198   4.275   0.349  14.823
  275MPD2    H5 4199   4.227   0.343  14.734
  275MPD2    N1 4200   4.604   0.608  15.052
  275MPD2    H7 4201   4.525   0.612  15.115
  276TMC3    C1 4202   4.737   0.701  15.222
  276TMC3    C2 4203   4.688   0.602  15.306
  276TMC3    C3 4204   4.738   0.595  15.430
  276TMC3    C4 4205   0.072   0.764  15.252
  276TMC3    C5 4206   0.119   0.756  15.381
  276TMC3    C6 4207   0.068   0.667  15.469
  276TMC3     C 4208   4.710   0.689  15.075
  276TMC3     O 4209   0.028   0.727  15.002
  276TMC3     H 4210   4.604   0.542  15.273
  276TMC3    H1 4211   0.110   0.830  15.174
  276TMC3    H2 4212   0.108   0.666  15.570
  276TMC3    C7 4213   0.246   0.816  15.412
  276TMC3    C8 4214   4.698   0.482  15.517
  276TMC3    O1 4215   0.265   0.841  15.529
  276TMC3    O2 4216   4.701   0.500  15.636
  277MPD2     C 4217   1.886   4.724  13.649
  277MPD2    C1 4218   1.749   4.719  13.631
  277MPD2    C2 4219   1.680   4.655  13.735
  277MPD2    C3 4220   1.753   4.594  13.839
  277MPD2    C4 4221   1.888   4.597  13.848
  277MPD2    C5 4222   1.955   4.663  13.753
  277MPD2     H 4223   1.572   4.652  13.745
  277MPD2    H1 4224   1.940   4.544  13.927
  277MPD2    H2 4225   1.951   0.005  13.588
  277MPD2    H3 4226   2.063   4.655  13.752
  277MPD2     N 4227   1.675   4.537  13.945
  277MPD2    H5 4228   1.575   4.554  13.935
  277MPD2    N1 4229   1.688   0.009  13.527
  277MPD2    H7 4230   1.747   0.080  13.484
  278TMC3    C1 4231   1.601   4.430  14.139
  278TMC3    C2 4232   1.592   4.300  14.164
  278TMC3    C3 4233   1.473   4.236  14.183
  278TMC3    C4 4234   1.485   4.505  14.120
  278TMC3    C5 4235   1.364   4.445  14.149
  278TMC3    C6 4236   1.357   4.308  14.185
  278TMC3     C 4237   1.720   4.471  14.064
  278TMC3     O 4238   1.829   4.427  14.092
  278TMC3     H 4239   1.682   4.240  14.163
  278TMC3    H1 4240   1.503   4.605  14.083
  278TMC3    H2 4241   1.266   4.265  14.224
  278TMC3    C7 4242   1.253   4.522  14.108
  278TMC3    C8 4243   1.466   4.089  14.183
  278TMC3    O1 4244   1.277   4.616  14.032
  278TMC3    O2 4245   1.562   4.022  14.223
  279MPD2     C 4246   0.699   4.017  18.338
  279MPD2    C1 4247   0.684   4.147  18.351
  279MPD2    C2 4248   0.758   4.222  18.266
  279MPD2    C3 4249   0.817   4.171  18.154
  279MPD2    C4 4250   0.811   4.035  18.131
  279MPD2    C5 4251   0.740   3.963  18.222
  279MPD2     H 4252   0.766   4.329  18.278
  279MPD2    H1 4253   0.857   3.995  18.042
  279MPD2    H2 4254   0.638   3.949  18.396
  279MPD2    H3 4255   0.752   3.856  18.214
  279MPD2     N 4256   0.879   4.241  18.053
  279MPD2    H5 4257   0.884   4.182  17.971
  279MPD2    N1 4258   0.607   4.198  18.456
  279MPD2    H7 4259   0.563   4.126  18.513
  280TMC3    C1 4260   0.556   4.411  18.369
  280TMC3    C2 4261   0.506   4.367  18.248
  280TMC3    C3 4262   0.489   4.454  18.145
  280TMC3    C4 4263   0.580   4.546  18.392
  280TMC3    C5 4264   0.543   4.632  18.291
  280TMC3    C6 4265   0.504   4.585  18.165
  280TMC3     C 4266   0.561   4.323  18.482
  280TMC3     O 4267   0.513   4.371  18.587
  280TMC3     H 4268   0.474   4.264  18.234
  280TMC3    H1 4269   0.605   4.577  18.493
  280TMC3    H2 4270   0.495   4.651  18.079
  280TMC3    C7 4271   0.532   4.773  18.328
  280TMC3    C8 4272   0.501   4.416  18.001
  280TMC3    O1 4273   0.599   0.021  18.421
  280TMC3    O2 4274   0.511   4.498  17.915
  281TMC3    C1 4275   4.526   4.656  13.917
  281TMC3    C2 4276   4.584   4.748  13.831
  281TMC3    C3 4277   4.633   4.702  13.704
  281TMC3    C4 4278   4.546   4.522  13.888
  281TMC3    C5 4279   4.586   4.481  13.763
  281TMC3    C6 4280   4.628   4.570  13.669
  281TMC3     C 4281   4.393   4.686  13.953
  281TMC3     O 4282   4.331   4.587  13.985
  281TMC3     H 4283   4.587   0.074  13.851
  281TMC3    H1 4284   4.519   4.453  13.968
  281TMC3    H2 4285   4.662   4.536  13.572
  281TMC3    C7 4286   4.497   4.378  13.709
  281TMC3    C8 4287   4.750   4.770  13.653
  281TMC3    O1 4288   4.534   4.314  13.613
  281TMC3    O2 4289   0.060   4.689  13.625
  282MPD2     C 4290   1.653   1.240  15.386
  282MPD2    C1 4291   1.530   1.288  15.421
  282MPD2    C2 4292   1.448   1.314  15.316
  282MPD2    C3 4293   1.490   1.304  15.179
  282MPD2    C4 4294   1.614   1.245  15.150
  282MPD2    C5 4295   1.691   1.213  15.255
  282MPD2     H 4296   1.350   1.354  15.339
  282MPD2    H1 4297   1.647   1.220  15.050
  282MPD2    H2 4298   1.730   1.216  15.459
  282MPD2    H3 4299   1.780   1.155  15.234
  282MPD2     N 4300   1.403   1.333  15.077
  282MPD2    H5 4301   1.319   1.384  15.104
  282MPD2    N1 4302   1.478   1.294  15.552
  282MPD2    H7 4303   1.383   1.331  15.557
  283TMC3    C1 4304   1.472   1.283  15.788
  283TMC3    C2 4305   1.445   1.413  15.814
  283TMC3    C3 4306   1.413   1.450  15.946
  283TMC3    C4 4307   1.442   1.181  15.875
  283TMC3    C5 4308   1.418   1.221  16.006
  283TMC3    C6 4309   1.404   1.353  16.040
  283TMC3     C 4310   1.542   1.244  15.667
  283TMC3     O 4311   1.617   1.150  15.665
  283TMC3     H 4312   1.468   1.490  15.742
  283TMC3    H1 4313   1.476   1.082  15.846
  283TMC3    H2 4314   1.371   1.390  16.136
  283TMC3    C7 4315   1.351   1.129  16.089
  283TMC3    C8 4316   1.413   1.584  15.984
  283TMC3    O1 4317   1.308   1.163  16.197
  283TMC3    O2 4318   1.457   1.602  16.095
  284MPD2     C 4319   4.100   0.969  12.270
  284MPD2    C1 4320   4.197   0.913  12.193
  284MPD2    C2 4321   4.256   0.798  12.229
  284MPD2    C3 4322   4.235   0.743  12.358
  284MPD2    C4 4323   4.151   0.813  12.441
  284MPD2    C5 4324   4.072   0.911  12.391
  284MPD2     H 4325   4.339   0.752  12.177
  284MPD2    H1 4326   4.133   0.790  12.545
  284MPD2    H2 4327   4.048   1.056  12.230
  284MPD2    H3 4328   3.994   0.959  12.449
  284MPD2     N 4329   4.300   0.624  12.407
  284MPD2    H5 4330   4.291   0.612  12.507
  284MPD2    N1 4331   4.233   0.966  12.063
  284MPD2    H7 4332   4.315   0.925  12.020
  285TMC3    C1 4333   4.250   1.134  11.903
  285TMC3    C2 4334   4.347   1.051  11.853
  285TMC3    C3 4335   4.472   1.112  11.831
  285TMC3    C4 4336   4.271   1.268  11.921
  285TMC3    C5 4337   4.399   1.317  11.902
  285TMC3    C6 4338   4.502   1.239  11.866
  285TMC3     C 4339   4.169   1.071  12.004
  285TMC3     O 4340   4.061   1.123  12.035
  285TMC3     H 4341   4.336   0.948  11.823
  285TMC3    H1 4342   4.195   1.331  11.967
  285TMC3    H2 4343   4.600   1.279  11.841
  285TMC3    C7 4344   4.433   1.425  11.993
  285TMC3    C8 4345   4.571   1.033  11.762
  285TMC3    O1 4346   4.380   1.536  11.972
  285TMC3    O2 4347   4.527   0.940  11.691
  286MPD2     C 4348   4.345   4.064  19.639
  286MPD2    C1 4349   4.371   4.111  19.514
  286MPD2    C2 4350   4.473   4.049  19.438
  286MPD2    C3 4351   4.547   3.947  19.490
  286MPD2    C4 4352   4.526   3.915  19.619
  286MPD2    C5 4353   4.424   3.970  19.695
  286MPD2     H 4354   4.475   4.083  19.335
  286MPD2    H1 4355   4.582   3.838  19.671
  286MPD2    H2 4356   4.266   4.109  19.697
  286MPD2    H3 4357   4.416   3.943  19.800
  286MPD2     N 4358   4.660   3.889  19.432
  286MPD2    H5 4359   4.707   3.818  19.487
  286MPD2    N1 4360   4.294   4.215  19.454
  286MPD2    H7 4361   4.317   4.240  19.358
  287TMC3    C1 4362   0.023   3.834  19.259
  287TMC3    C2 4363   0.023   3.798  19.126
  287TMC3    C3 4364   0.105   3.690  19.092
  287TMC3    C4 4365   0.117   3.792  19.348
  287TMC3    C5 4366   0.204   3.700  19.303
  287TMC3    C6 4367   0.196   3.643  19.182
  287TMC3     C 4368   4.694   3.920  19.303
  287TMC3     O 4369   4.646   3.989  19.219
  287TMC3     H 4370   4.737   3.834  19.049
  287TMC3    H1 4371   0.129   3.848  19.440
  287TMC3    H2 4372   0.261   3.559  19.162
  287TMC3    C7 4373   0.326   3.690  19.383
  287TMC3    C8 4374   0.066   3.624  18.970
  287TMC3    O1 4375   0.311   3.718  19.501
  287TMC3    O2 4376   4.725   3.621  18.935
  288TMC3    C1 4377   1.409   3.970  14.570
  288TMC3    C2 4378   1.307   3.953  14.655
  288TMC3    C3 4379   1.246   4.065  14.707
  288TMC3    C4 4380   1.447   4.096  14.529
  288TMC3    C5 4381   1.387   4.207  14.589
  288TMC3    C6 4382   1.287   4.185  14.674
  288TMC3     C 4383   1.514   3.875  14.602
  288TMC3     O 4384   1.479   3.757  14.613
  288TMC3     H 4385   1.290   3.854  14.696
  288TMC3    H1 4386   1.529   4.120  14.462
  288TMC3    H2 4387   1.236   4.274  14.710
  288TMC3    C7 4388   1.387   4.330  14.522
  288TMC3    C8 4389   1.166   4.051  14.825
  288TMC3    O1 4390   1.274   4.371  14.502
  288TMC3    O2 4391   1.130   4.154  14.880
  289MPD2     C 4392   1.644   3.196  14.475
  289MPD2    C1 4393   1.596   3.306  14.410
  289MPD2    C2 4394   1.469   3.307  14.346
  289MPD2    C3 4395   1.388   3.195  14.354
  289MPD2    C4 4396   1.438   3.084  14.430
  289MPD2    C5 4397   1.566   3.086  14.486
  289MPD2     H 4398   1.444   3.403  14.302
  289MPD2    H1 4399   1.387   2.989  14.442
  289MPD2    H2 4400   1.742   3.191  14.522
  289MPD2    H3 4401   1.603   2.996  14.533
  289MPD2     N 4402   1.255   3.189  14.314
  289MPD2    H5 4403   1.221   3.093  14.314
  289MPD2    N1 4404   1.685   3.417  14.411
  289MPD2    H7 4405   1.764   3.409  14.474
  290TMC3    C1 4406   1.039   3.261  14.252
  290TMC3    C2 4407   0.956   3.360  14.220
  290TMC3    C3 4408   0.821   3.341  14.216
  290TMC3    C4 4409   0.998   3.133  14.273
  290TMC3    C5 4410   0.866   3.111  14.242
  290TMC3    C6 4411   0.776   3.211  14.232
  290TMC3     C 4412   1.178   3.293  14.266
  290TMC3     O 4413   1.207   3.411  14.265
  290TMC3     H 4414   0.996   3.454  14.184
  290TMC3    H1 4415   1.059   3.043  14.267
  290TMC3    H2 4416   0.668   3.203  14.228
  290TMC3    C7 4417   0.812   2.978  14.268
  290TMC3    C8 4418   0.734   3.451  14.211
  290TMC3    O1 4419   0.695   2.974  14.231
  290TMC3    O2 4420   0.624   3.429  14.162
  291MPD2     C 4421   0.458   3.186  18.314
  291MPD2    C1 4422   0.577   3.121  18.330
  291MPD2    C2 4423   0.693   3.185  18.366
  291MPD2    C3 4424   0.701   3.326  18.361
  291MPD2    C4 4425   0.580   3.391  18.340
  291MPD2    C5 4426   0.463   3.323  18.327
  291MPD2     H 4427   0.788   3.134  18.355
  291MPD2    H1 4428   0.582   3.499  18.334
  291MPD2    H2 4429   0.372   3.127  18.283
  291MPD2    H3 4430   0.373   3.383  18.314
  291MPD2     N 4431   0.814   3.406  18.373
  291MPD2    H5 4432   0.799   3.500  18.408
  291MPD2    N1 4433   0.592   2.980  18.315
  291MPD2    H7 4434   0.684   2.942  18.336
  292TMC3    C1 4435   0.550   2.749  18.301
  292TMC3    C2 4436   0.614   2.724  18.416
  292TMC3    C3 4437   0.659   2.596  18.434
  292TMC3    C4 4438   0.520   2.653  18.213
  292TMC3    C5 4439   0.572   2.527  18.233
  292TMC3    C6 4440   0.640   2.495  18.346
  292TMC3     C 4441   0.500   2.885  18.273
  292TMC3     O 4442   0.399   2.901  18.213
  292TMC3     H 4443   0.601   2.801  18.491
  292TMC3    H1 4444   0.463   2.669  18.122
  292TMC3    H2 4445   0.679   2.394  18.355
  292TMC3    C7 4446   0.564   2.426  18.125
  292TMC3    C8 4447   0.685   2.554  18.570
  292TMC3    O1 4448   0.651   2.343  18.146
  292TMC3    O2 4449   0.764   2.622  18.630
  293MPD2     C 4450   2.606   4.563  12.885
  293MPD2    C1 4451   2.523   4.524  12.982
  293MPD2    C2 4452   2.562   4.545  13.114
  293MPD2    C3 4453   2.680   4.608  13.144
  293MPD2    C4 4454   2.771   4.635  13.043
  293MPD2    C5 4455   2.730   4.619  12.912
  293MPD2     H 4456   2.486   4.521  13.187
  293MPD2    H1 4457   2.864   4.690  13.051
  293MPD2    H2 4458   2.576   4.560  12.781
  293MPD2    H3 4459   2.780   4.659  12.824
  293MPD2     N 4460   2.711   4.636  13.280
  293MPD2    H5 4461   2.635   4.633  13.348
  293MPD2    N1 4462   2.398   4.479  12.941
  293MPD2    H7 4463   2.377   4.475  12.842
  294TMC3    C1 4464   2.204   4.358  12.938
  294TMC3    C2 4465   2.135   4.260  13.001
  294TMC3    C3 4466   2.040   4.199  12.930
  294TMC3    C4 4467   2.191   4.394  12.809
  294TMC3    C5 4468   2.098   4.322  12.741
  294TMC3    C6 4469   2.020   4.222  12.795
  294TMC3     C 4470   2.309   4.412  13.019
  294TMC3     O 4471   2.328   4.365  13.131
  294TMC3     H 4472   2.154   4.226  13.102
  294TMC3    H1 4473   2.242   4.476  12.759
  294TMC3    H2 4474   1.935   4.175  12.748
  294TMC3    C7 4475   2.090   4.329  12.599
  294TMC3    C8 4476   1.988   4.078  12.979
  294TMC3    O1 4477   1.989   4.285  12.552
  294TMC3    O2 4478   1.973   4.074  13.101
  295MPD2     C 4479   3.514   3.079  18.555
  295MPD2    C1 4480   3.395   3.128  18.517
  295MPD2    C2 4481   3.304   3.168  18.615
  295MPD2    C3 4482   3.328   3.141  18.749
  295MPD2    C4 4483   3.442   3.072  18.777
  295MPD2    C5 4484   3.538   3.040  18.685
  295MPD2     H 4485   3.213   3.218  18.586
  295MPD2    H1 4486   3.471   3.049  18.879
  295MPD2    H2 4487   3.593   3.050  18.487
  295MPD2    H3 4488   3.630   2.985  18.705
  295MPD2     N 4489   3.246   3.154  18.865
  295MPD2    H5 4490   3.281   3.155  18.960
  295MPD2    N1 4491   3.384   3.185  18.382
  295MPD2    H7 4492   3.308   3.251  18.368
  296TMC3    C1 4493   3.035   3.199  18.977
  296TMC3    C2 4494   3.090   3.272  19.077
  296TMC3    C3 4495   3.002   3.320  19.174
  296TMC3    C4 4496   2.909   3.154  18.973
  296TMC3    C5 4497   2.829   3.199  19.080
  296TMC3    C6 4498   2.873   3.278  19.178
  296TMC3     C 4499   3.111   3.199  18.849
  296TMC3     O 4500   3.049   3.210  18.745
  296TMC3     H 4501   3.192   3.309  19.073
  296TMC3    H1 4502   2.872   3.098  18.888
  296TMC3    H2 4503   2.807   3.321  19.252
  296TMC3    C7 4504   2.712   3.118  19.094
  296TMC3    C8 4505   3.052   3.434  19.246
  296TMC3    O1 4506   2.663   3.082  18.992
  296TMC3    O2 4507   3.165   3.418  19.278
  297MPD2     C 4508   0.417   0.078  16.663
  297MPD2    C1 4509   0.388   0.191  16.586
  297MPD2    C2 4510   0.489   0.271  16.545
  297MPD2    C3 4511   0.624   0.247  16.577
  297MPD2    C4 4512   0.647   0.126  16.636
  297MPD2    C5 4513   0.550   0.043  16.691
  297MPD2     H 4514   0.459   0.358  16.488
  297MPD2    H1 4515   0.747   0.086  16.645
  297MPD2    H2 4516   0.350   0.013  16.718
  297MPD2    H3 4517   0.568   4.726  16.734
  297MPD2     N 4518   0.724   0.352  16.558
  297MPD2    H5 4519   0.697   0.440  16.516
  297MPD2    N1 4520   0.259   0.222  16.533
  297MPD2    H7 4521   0.262   0.290  16.458
  298TMC3    C1 4522   0.030   0.205  16.499
  298TMC3    C2 4523   0.052   0.204  16.365
  298TMC3    C3 4524   4.729   0.254  16.287
  298TMC3    C4 4525   4.694   0.253  16.553
  298TMC3    C5 4526   4.600   0.308  16.469
  298TMC3    C6 4527   4.613   0.300  16.337
  298TMC3     C 4528   0.139   0.173  16.584
  298TMC3     O 4529   0.115   0.132  16.700
  298TMC3     H 4530   0.136   0.157  16.315
  298TMC3    H1 4531   4.669   0.259  16.658
  298TMC3    H2 4532   4.536   0.336  16.270
  298TMC3    C7 4533   4.516   0.415  16.532
  298TMC3    C8 4534   4.744   0.244  16.143
  298TMC3    O1 4535   4.492   0.395  16.650
  298TMC3    O2 4536   4.644   0.267  16.077
  299MPD2     C 4537   0.715   0.110  11.244
  299MPD2    C1 4538   0.780   0.177  11.144
  299MPD2    C2 4539   0.735   0.170  11.019
  299MPD2    C3 4540   0.614   0.105  10.991
  299MPD2    C4 4541   0.543   0.049  11.094
  299MPD2    C5 4542   0.596   0.056  11.225
  299MPD2     H 4543   0.793   0.213  10.938
  299MPD2    H1 4544   0.442   0.013  11.079
  299MPD2    H2 4545   0.747   0.117  11.347
  299MPD2    H3 4546   0.555   0.009  11.314
  299MPD2     N 4547   0.559   0.090  10.862
  299MPD2    H5 4548   0.474   0.035  10.857
  299MPD2    N1 4549   0.893   0.248  11.186
  299MPD2    H7 4550   0.938   0.223  11.274
  300TMC3    C1 4551   0.520   0.127  10.635
  300TMC3    C2 4552   0.468   0.253  10.602
  300TMC3    C3 4553   0.337   0.281  10.612
  300TMC3    C4 4554   0.431   0.026  10.663
  300TMC3    C5 4555   0.301   0.062  10.687
  300TMC3    C6 4556   0.250   0.185  10.663
  300TMC3     C 4557   0.606   0.143  10.749
  300TMC3     O 4558   0.699   0.223  10.731
  300TMC3     H 4559   0.537   0.333  10.578
  300TMC3    H1 4560   0.466   4.706  10.678
  300TMC3    H2 4561   0.143   0.200  10.669
  300TMC3    C7 4562   0.241   4.764  10.783
  300TMC3    C8 4563   0.298   0.421  10.625
  300TMC3    O1 4564   0.218   4.650  10.746
  300TMC3    O2 4565   0.391   0.502  10.628
  301MPD2     C 4566   3.160   1.450  19.829
  301MPD2    C1 4567   3.072   1.421  19.723
  301MPD2    C2 4568   3.108   1.322  19.635
  301MPD2    C3 4569   3.214   1.241  19.657
  301MPD2    C4 4570   3.293   1.260  19.768
  301MPD2    C5 4571   3.265   1.367  19.845
  301MPD2     H 4572   3.045   1.299  19.550
  301MPD2    H1 4573   3.385   1.207  19.790
  301MPD2    H2 4574   3.161   1.530  19.902
  301MPD2    H3 4575   3.334   1.384  19.927
  301MPD2     N 4576   3.247   1.131  19.571
  301MPD2    H5 4577   3.306   1.054  19.601
  301MPD2    N1 4578   2.958   1.499  19.702
  301MPD2    H7 4579   2.898   1.472  19.625
  302TMC3    C1 4580   3.228   1.005  19.361
  302TMC3    C2 4581   3.329   0.918  19.398
  302TMC3    C3 4582   3.362   0.823  19.297
  302TMC3    C4 4583   3.163   1.005  19.241
  302TMC3    C5 4584   3.196   0.900  19.159
  302TMC3    C6 4585   3.307   0.821  19.175
  302TMC3     C 4586   3.208   1.126  19.441
  302TMC3     O 4587   3.161   1.224  19.382
  302TMC3     H 4588   3.382   0.929  19.492
  302TMC3    H1 4589   3.091   1.083  19.218
  302TMC3    H2 4590   3.343   0.742  19.110
  302TMC3    C7 4591   3.121   0.893  19.031
  302TMC3    C8 4592   3.464   0.727  19.328
  302TMC3    O1 4593   3.183   0.865  18.933
  302TMC3    O2 4594   3.540   0.693  19.236
  303MPD2     C 4595   3.402   4.583  10.973
  303MPD2    C1 4596   3.325   4.469  10.934
  303MPD2    C2 4597   3.338   4.427  10.804
  303MPD2    C3 4598   3.414   4.493  10.707
  303MPD2    C4 4599   3.486   4.606  10.750
  303MPD2    C5 4600   3.484   4.647  10.882
  303MPD2     H 4601   3.288   4.334  10.780
  303MPD2    H1 4602   3.533   4.674  10.680
  303MPD2    H2 4603   3.404   4.610  11.078
  303MPD2    H3 4604   3.554   4.720  10.921
  303MPD2     N 4605   3.438   4.441  10.580
  303MPD2    H5 4606   3.480   4.503  10.512
  303MPD2    N1 4607   3.250   4.398  11.032
  303MPD2    H7 4608   3.277   4.428  11.125
  304TMC3    C1 4609   3.112   4.233  11.122
  304TMC3    C2 4610   2.990   4.173  11.106
  304TMC3    C3 4611   2.934   4.106  11.209
  304TMC3    C4 4612   3.181   4.222  11.238
  304TMC3    C5 4613   3.135   4.133  11.333
  304TMC3    C6 4614   3.006   4.083  11.322
  304TMC3     C 4615   3.162   4.295  11.007
  304TMC3     O 4616   3.130   4.259  10.894
  304TMC3     H 4617   2.939   4.186  11.011
  304TMC3    H1 4618   3.280   4.262  11.258
  304TMC3    H2 4619   2.982   4.014  11.402
  304TMC3    C7 4620   3.226   4.014  11.339
  304TMC3    C8 4621   2.884   3.984  11.154
  304TMC3    O1 4622   3.312   4.014  11.255
  304TMC3    O2 4623   2.907   3.943  11.040
  305MPD2     C 4624   1.488   1.813  14.336
  305MPD2    C1 4625   1.503   1.680  14.365
  305MPD2    C2 4626   1.495   1.591  14.261
  305MPD2    C3 4627   1.462   1.632  14.135
  305MPD2    C4 4628   1.452   1.765  14.107
  305MPD2    C5 4629   1.460   1.858  14.210
  305MPD2     H 4630   1.496   1.484  14.275
  305MPD2    H1 4631   1.437   1.801  14.006
  305MPD2    H2 4632   1.495   1.885  14.417
  305MPD2    H3 4633   1.438   1.961  14.186
  305MPD2     N 4634   1.444   1.545  14.027
  305MPD2    H5 4635   1.445   1.583  13.933
  305MPD2    N1 4636   1.537   1.647  14.503
  305MPD2    H7 4637   1.534   1.724  14.569
  306TMC3    C1 4638   1.614   1.509  14.681
  306TMC3    C2 4639   1.700   1.410  14.703
  306TMC3    C3 4640   1.758   1.407  14.827
  306TMC3    C4 4641   1.575   1.599  14.778
  306TMC3    C5 4642   1.629   1.586  14.906
  306TMC3    C6 4643   1.723   1.493  14.927
  306TMC3     C 4644   1.563   1.518  14.545
  306TMC3     O 4645   1.555   1.411  14.485
  306TMC3     H 4646   1.731   1.336  14.630
  306TMC3    H1 4647   1.487   1.662  14.769
  306TMC3    H2 4648   1.764   1.492  15.027
  306TMC3    C7 4649   1.562   1.657  15.009
  306TMC3    C8 4650   1.838   1.280  14.856
  306TMC3    O1 4651   1.442   1.676  15.006
  306TMC3    O2 4652   1.814   1.183  14.784
  307MPD2     C 4653   3.908   4.268  18.188
  307MPD2    C1 4654   4.001   4.366  18.194
  307MPD2    C2 4655   4.025   4.420  18.321
  307MPD2    C3 4656   3.946   4.381  18.428
  307MPD2    C4 4657   3.842   4.303  18.413
  307MPD2    C5 4658   3.824   4.249  18.287
  307MPD2     H 4659   4.104   4.494  18.333
  307MPD2    H1 4660   3.790   4.259  18.497
  307MPD2    H2 4661   3.884   4.223  18.092
  307MPD2    H3 4662   3.746   4.177  18.266
  307MPD2     N 4663   3.982   4.433  18.553
  307MPD2    H5 4664   4.056   4.503  18.559
  307MPD2    N1 4665   4.070   4.410  18.077
  307MPD2    H7 4666   4.120   4.498  18.080
  308TMC3    C1 4667   3.928   4.325  18.996
  308TMC3    C2 4668   3.915   4.452  19.054
  308TMC3    C3 4669   3.935   4.557  18.973
  308TMC3    C4 4670   3.981   4.308  18.868
  308TMC3    C5 4671   3.990   4.422  18.787
  308TMC3    C6 4672   3.972   4.547  18.841
  308TMC3     C 4673   3.808   4.249  19.019
  308TMC3     O 4674   3.818   4.133  18.982
  308TMC3     H 4675   3.882   4.459  19.157
  308TMC3    H1 4676   3.982   4.210  18.821
  308TMC3    H2 4677   3.942   4.627  18.775
  308TMC3    C7 4678   3.916   4.400  18.665
  308TMC3    C8 4679   3.872   4.675  19.027
  308TMC3    O1 4680   3.801   4.365  18.679
  308TMC3    O2 4681   3.778   4.649  19.102
  309MPD2     C 4682   3.142   4.632  17.648
  309MPD2    C1 4683   3.123   4.744  17.572
  309MPD2    C2 4684   3.049   0.063  17.634
  309MPD2    C3 4685   2.991   0.050  17.758
  309MPD2    C4 4686   3.018   4.724  17.837
  309MPD2    C5 4687   3.087   4.622  17.767
  309MPD2     H 4688   3.020   0.151  17.577
  309MPD2    H1 4689   2.981   4.707  17.937
  309MPD2    H2 4690   3.183   4.542  17.604
  309MPD2    H3 4691   3.097   4.529  17.823
  309MPD2     N 4692   2.914   0.157  17.818
  309MPD2    H5 4693   2.873   0.142  17.910
  309MPD2    N1 4694   3.176   4.769  17.440
  309MPD2    H7 4695   3.150   0.075  17.394
  310TMC3    C1 4696   3.306   4.730  17.247
  310TMC3    C2 4697   3.242   0.054  17.181
  310TMC3    C3 4698   3.299   0.094  17.063
  310TMC3    C4 4699   3.416   4.657  17.191
  310TMC3    C5 4700   3.461   4.698  17.071
  310TMC3    C6 4701   3.405   0.030  17.005
  310TMC3     C 4702   3.268   4.684  17.380
  310TMC3     O 4703   3.304   4.571  17.410
  310TMC3     H 4704   3.150   0.094  17.222
  310TMC3    H1 4705   3.463   4.569  17.235
  310TMC3    H2 4706   3.439   0.055  16.905
  310TMC3    C7 4707   3.570   4.633  17.008
  310TMC3    C8 4708   3.229   0.181  16.962
  310TMC3    O1 4709   3.587   4.514  17.040
  310TMC3    O2 4710   3.113   0.159  16.945
  311MPD2     C 4711   0.307   1.332  13.026
  311MPD2    C1 4712   0.325   1.397  13.145
  311MPD2    C2 4713   0.229   1.366  13.244
  311MPD2    C3 4714   0.128   1.270  13.228
  311MPD2    C4 4715   0.121   1.199  13.109
  311MPD2    C5 4716   0.206   1.234  13.008
  311MPD2     H 4717   0.237   1.418  13.339
  311MPD2    H1 4718   0.034   1.140  13.085
  311MPD2    H2 4719   0.363   1.363  12.938
  311MPD2    H3 4720   0.195   1.182  12.913
  311MPD2     N 4721   0.026   1.257  13.326
  311MPD2    H5 4722   0.034   1.334  13.392
  311MPD2    N1 4723   0.429   1.483  13.164
  311MPD2    H7 4724   0.406   1.553  13.234
  312TMC3    C1 4725   4.614   1.198  13.444
  312TMC3    C2 4726   4.487   1.166  13.406
  312TMC3    C3 4727   4.392   1.263  13.417
  312TMC3    C4 4728   4.639   1.306  13.519
  312TMC3    C5 4729   4.540   1.393  13.536
  312TMC3    C6 4730   4.413   1.377  13.480
  312TMC3     C 4731   4.708   1.162  13.337
  312TMC3     O 4732   4.695   1.056  13.278
  312TMC3     H 4733   4.470   1.081  13.340
  312TMC3    H1 4734   4.733   1.324  13.569
  312TMC3    H2 4735   4.338   1.452  13.501
  312TMC3    C7 4736   4.564   1.512  13.613
  312TMC3    C8 4737   4.260   1.232  13.365
  312TMC3    O1 4738   4.491   1.610  13.594
  312TMC3    O2 4739   4.238   1.110  13.343
  313MPD2     C 4740   4.234   0.552  11.671
  313MPD2    C1 4741   4.281   0.633  11.570
  313MPD2    C2 4742   4.372   0.574  11.483
  313MPD2    C3 4743   4.417   0.443  11.495
  313MPD2    C4 4744   4.365   0.364  11.588
  313MPD2    C5 4745   4.270   0.419  11.674
  313MPD2     H 4746   4.432   0.633  11.414
  313MPD2    H1 4747   4.372   0.258  11.609
  313MPD2    H2 4748   4.167   0.587  11.749
  313MPD2    H3 4749   4.230   0.354  11.751
  313MPD2     N 4750   4.507   0.402  11.394
  313MPD2    H5 4751   4.524   0.464  11.315
  313MPD2    N1 4752   4.234   0.763  11.548
  313MPD2    H7 4753   4.304   0.819  11.502
  314TMC3    C1 4754   4.101   0.953  11.582
  314TMC3    C2 4755   4.212   1.034  11.560
  314TMC3    C3 4756   4.191   1.160  11.499
  314TMC3    C4 4757   3.975   0.998  11.553
  314TMC3    C5 4758   3.963   1.115  11.479
  314TMC3    C6 4759   4.070   1.191  11.447
  314TMC3     C 4760   4.121   0.813  11.609
  314TMC3     O 4761   4.027   0.747  11.647
  314TMC3     H 4762   4.311   1.000  11.587
  314TMC3    H1 4763   3.896   0.925  11.569
  314TMC3    H2 4764   4.055   1.292  11.409
  314TMC3    C7 4765   3.865   1.108  11.375
  314TMC3    C8 4766   4.304   1.252  11.496
  314TMC3    O1 4767   3.770   1.034  11.394
  314TMC3    O2 4768   4.284   1.369  11.523
  315MPD2     C 4769   4.577   4.592  17.884
  315MPD2    C1 4770   4.591   4.652  18.007
  315MPD2    C2 4771   4.573   0.008  18.011
  315MPD2    C3 4772   4.565   0.080  17.895
  315MPD2    C4 4773   4.557   0.013  17.774
  315MPD2    C5 4774   4.557   4.659  17.770
  315MPD2     H 4775   4.572   0.072  18.099
  315MPD2    H1 4776   4.547   0.071  17.683
  315MPD2    H2 4777   4.598   4.487  17.866
  315MPD2    H3 4778   4.551   4.601  17.679
  315MPD2     N 4779   4.568   0.222  17.919
  315MPD2    H5 4780   4.608   0.252  18.007
  315MPD2    N1 4781   4.619   4.582  18.124
  315MPD2    H7 4782   4.632   4.643  18.204
  316TMC3    C1 4783   4.616   0.440  17.872
  316TMC3    C2 4784   4.726   0.437  17.961
  316TMC3    C3 4785   0.012   0.553  17.994
  316TMC3    C4 4786   4.602   0.556  17.806
  316TMC3    C5 4787   4.660   0.674  17.850
  316TMC3    C6 4788   4.748   0.674  17.952
  316TMC3     C 4789   4.571   0.311  17.817
  316TMC3     O 4790   4.536   0.303  17.702
  316TMC3     H 4791   4.758   0.344  18.006
  316TMC3    H1 4792   4.533   0.545  17.723
  316TMC3    H2 4793   0.031   0.755  17.986
  316TMC3    C7 4794   4.650   0.791  17.762
  316TMC3    C8 4795   0.105   0.549  18.107
  316TMC3    O1 4796   4.705   0.890  17.802
  316TMC3    O2 4797   0.101   0.637  18.190
  317MPD2     C 4798   1.409   3.471  12.972
  317MPD2    C1 4799   1.427   3.337  12.949
  317MPD2    C2 4800   1.500   3.263  13.043
  317MPD2    C3 4801   1.540   3.320  13.161
  317MPD2    C4 4802   1.507   3.454  13.182
  317MPD2    C5 4803   1.452   3.527  13.085
  317MPD2     H 4804   1.508   3.155  13.037
  317MPD2    H1 4805   1.530   3.512  13.270
  317MPD2    H2 4806   1.350   3.537  12.910
  317MPD2    H3 4807   1.435   3.633  13.100
  317MPD2     N 4808   1.595   3.236  13.253
  317MPD2    H5 4809   1.596   3.136  13.234
  317MPD2    N1 4810   1.381   3.269  12.837
  317MPD2    H7 4811   1.416   3.175  12.822
  318TMC3    C1 4812   1.689   3.174  13.453
  318TMC3    C2 4813   1.602   3.072  13.473
  318TMC3    C3 4814   1.653   2.949  13.512
  318TMC3    C4 4815   1.826   3.162  13.483
  318TMC3    C5 4816   1.865   3.042  13.533
  318TMC3    C6 4817   1.782   2.933  13.549
  318TMC3     C 4818   1.652   3.283  13.370
  318TMC3     O 4819   1.689   3.397  13.402
  318TMC3     H 4820   1.500   3.087  13.438
  318TMC3    H1 4821   1.902   3.238  13.465
  318TMC3    H2 4822   1.812   2.834  13.581
  318TMC3    C7 4823   2.000   3.044  13.584
  318TMC3    C8 4824   1.599   2.835  13.455
  318TMC3    O1 4825   2.037   3.153  13.619
  318TMC3    O2 4826   1.665   2.736  13.429
  319MPD2     C 4827   2.605   4.377  16.742
  319MPD2    C1 4828   2.495   4.332  16.813
  319MPD2    C2 4829   2.413   4.235  16.765
  319MPD2    C3 4830   2.429   4.187  16.630
  319MPD2    C4 4831   2.542   4.235  16.563
  319MPD2    C5 4832   2.632   4.326  16.613
  319MPD2     H 4833   2.334   4.200  16.830
  319MPD2    H1 4834   2.568   4.200  16.464
  319MPD2    H2 4835   2.677   4.450  16.776
  319MPD2    H3 4836   2.712   4.372  16.557
  319MPD2     N 4837   2.345   4.097  16.554
  319MPD2    H5 4838   2.369   4.086  16.456
  319MPD2    N1 4839   2.465   4.383  16.941
  319MPD2    H7 4840   2.374   4.362  16.980
  320TMC3    C1 4841   2.147   3.984  16.506
  320TMC3    C2 4842   2.118   4.063  16.396
  320TMC3    C3 4843   2.004   4.037  16.325
  320TMC3    C4 4844   2.055   3.898  16.556
  320TMC3    C5 4845   1.941   3.871  16.478
  320TMC3    C6 4846   1.913   3.947  16.358
  320TMC3     C 4847   2.232   4.042  16.610
  320TMC3     O 4848   2.190   4.047  16.725
  320TMC3     H 4849   2.178   4.149  16.371
  320TMC3    H1 4850   2.075   3.849  16.650
  320TMC3    H2 4851   1.828   3.917  16.299
  320TMC3    C7 4852   1.905   3.728  16.458
  320TMC3    C8 4853   1.947   4.164  16.278
  320TMC3    O1 4854   1.851   3.705  16.353
  320TMC3    O2 4855   1.988   4.265  16.337
  321TMC3    C1 4856   2.473   4.535  17.124
  321TMC3    C2 4857   2.382   4.452  17.190
  321TMC3    C3 4858   2.329   4.496  17.309
  321TMC3    C4 4859   2.517   4.650  17.179
  321TMC3    C5 4860   2.461   4.686  17.294
  321TMC3    C6 4861   2.365   4.619  17.357
  321TMC3     C 4862   2.530   4.489  17.002
  321TMC3     O 4863   2.616   4.565  16.955
  321TMC3     H 4864   2.337   4.358  17.159
  321TMC3    H1 4865   2.599   4.710  17.143
  321TMC3    H2 4866   2.333   4.643  17.458
  321TMC3    C7 4867   2.560   4.734  17.390
  321TMC3    C8 4868   2.333   4.395  17.420
  321TMC3    O1 4869   2.673   4.689  17.384
  321TMC3    O2 4870   2.323   4.437  17.537
  322MPD2     C 4871   1.089   0.988  14.013
  322MPD2    C1 4872   1.154   0.913  14.102
  322MPD2    C2 4873   1.208   0.791  14.057
  322MPD2    C3 4874   1.205   0.749  13.924
  322MPD2    C4 4875   1.127   0.820  13.838
  322MPD2    C5 4876   1.073   0.936  13.887
  322MPD2     H 4877   1.244   0.715  14.126
  322MPD2    H1 4878   1.121   0.798  13.732
  322MPD2    H2 4879   1.046   1.084  14.038
  322MPD2    H3 4880   1.015   0.992  13.814
  322MPD2     N 4881   1.292   0.641  13.897
  322MPD2    H5 4882   1.324   0.591  13.980
  322MPD2    N1 4883   1.169   0.962  14.231
  322MPD2    H7 4884   1.179   1.063  14.233
  323TMC3    C1 4885   1.300   0.973  14.424
  323TMC3    C2 4886   1.383   1.073  14.382
  323TMC3    C3 4887   1.495   1.102  14.456
  323TMC3    C4 4888   1.317   0.925  14.551
  323TMC3    C5 4889   1.419   0.968  14.629
  323TMC3    C6 4890   1.513   1.051  14.579
  323TMC3     C 4891   1.225   0.892  14.335
  323TMC3     O 4892   1.222   0.772  14.351
  323TMC3     H 4893   1.382   1.102  14.278
  323TMC3    H1 4894   1.252   0.847  14.589
  323TMC3    H2 4895   1.600   1.093  14.629
  323TMC3    C7 4896   1.449   0.891  14.746
  323TMC3    C8 4897   1.619   1.120  14.388
  323TMC3    O1 4898   1.370   0.796  14.767
  323TMC3    O2 4899   1.715   1.061  14.435
  324MPD2     C 4900   2.808   1.818  14.593
  324MPD2    C1 4901   2.833   1.937  14.525
  324MPD2    C2 4902   2.744   1.992  14.442
  324MPD2    C3 4903   2.632   1.915  14.402
  324MPD2    C4 4904   2.613   1.797  14.460
  324MPD2    C5 4905   2.704   1.746  14.554
  324MPD2     H 4906   2.766   2.092  14.408
  324MPD2    H1 4907   2.532   1.734  14.425
  324MPD2    H2 4908   2.866   1.783  14.677
  324MPD2    H3 4909   2.681   1.653  14.604
  324MPD2     N 4910   2.529   1.965  14.322
  324MPD2    H5 4911   2.453   1.899  14.308
  324MPD2    N1 4912   2.958   2.011  14.549
  324MPD2    H7 4913   2.963   2.100  14.501
  325TMC3    C1 4914   2.396   2.118  14.211
  325TMC3    C2 4915   2.291   2.040  14.246
  325TMC3    C3 4916   2.169   2.065  14.185
  325TMC3    C4 4917   2.385   2.229  14.125
  325TMC3    C5 4918   2.263   2.254  14.075
  325TMC3    C6 4919   2.154   2.173  14.096
  325TMC3     C 4920   2.523   2.092  14.268
  325TMC3     O 4921   2.606   2.180  14.257
  325TMC3     H 4922   2.290   1.960  14.319
  325TMC3    H1 4923   2.464   2.300  14.107
  325TMC3    H2 4924   2.067   2.195  14.035
  325TMC3    C7 4925   2.243   2.390  14.047
  325TMC3    C8 4926   2.077   1.958  14.187
  325TMC3    O1 4927   2.343   2.451  14.004
  325TMC3    O2 4928   2.100   1.864  14.259
  326MPD2     C 4929   4.284   3.643  11.555
  326MPD2    C1 4930   4.316   3.599  11.429
  326MPD2    C2 4931   4.447   3.558  11.407
  326MPD2    C3 4932   4.550   3.578  11.501
  326MPD2    C4 4933   4.517   3.633  11.624
  326MPD2    C5 4934   4.386   3.666  11.645
  326MPD2     H 4935   4.465   3.509  11.312
  326MPD2    H1 4936   4.586   3.657  11.704
  326MPD2    H2 4937   4.185   3.681  11.577
  326MPD2    H3 4938   4.375   3.727  11.734
  326MPD2     N 4939   4.689   3.555  11.473
  326MPD2    H5 4940   4.751   3.571  11.551
  326MPD2    N1 4941   4.223   3.572  11.324
  326MPD2    H7 4942   4.250   3.517  11.243
  327TMC3    C1 4943   4.015   3.571  11.210
  327TMC3    C2 4944   3.957   3.679  11.155
  327TMC3    C3 4945   3.941   3.672  11.017
  327TMC3    C4 4946   4.073   3.472  11.131
  327TMC3    C5 4947   4.055   3.463  10.995
  327TMC3    C6 4948   3.997   3.571  10.937
  327TMC3     C 4949   4.087   3.608  11.326
  327TMC3     O 4950   4.031   3.680  11.403
  327TMC3     H 4951   3.947   3.773  11.209
  327TMC3    H1 4952   4.109   3.387  11.188
  327TMC3    H2 4953   3.986   3.577  10.829
  327TMC3    C7 4954   4.170   3.409  10.917
  327TMC3    C8 4955   3.898   3.793  10.948
  327TMC3    O1 4956   4.187   3.435  10.798
  327TMC3    O2 4957   3.948   3.815  10.837
  328MPD2     C 4958   1.834   3.112  17.600
  328MPD2    C1 4959   1.792   3.025  17.499
  328MPD2    C2 4960   1.790   3.063  17.369
  328MPD2    C3 4961   1.857   3.176  17.325
  328MPD2    C4 4962   1.899   3.259  17.424
  328MPD2    C5 4963   1.892   3.231  17.555
  328MPD2     H 4964   1.752   2.994  17.295
  328MPD2    H1 4965   1.957   3.347  17.400
  328MPD2    H2 4966   1.820   3.092  17.706
  328MPD2    H3 4967   1.924   3.303  17.629
  328MPD2     N 4968   1.828   3.229  17.196
  328MPD2    H5 4969   1.850   3.328  17.201
  328MPD2    N1 4970   1.708   2.912  17.539
  328MPD2    H7 4971   1.691   2.918  17.639
  329TMC3    C1 4972   1.530   2.766  17.513
  329TMC3    C2 4973   1.452   2.866  17.565
  329TMC3    C3 4974   1.321   2.865  17.536
  329TMC3    C4 4975   1.470   2.676  17.432
  329TMC3    C5 4976   1.336   2.672  17.410
  329TMC3    C6 4977   1.256   2.769  17.460
  329TMC3     C 4978   1.647   2.823  17.453
  329TMC3     O 4979   1.666   2.798  17.333
  329TMC3     H 4980   1.493   2.947  17.625
  329TMC3    H1 4981   1.539   2.612  17.378
  329TMC3    H2 4982   1.149   2.764  17.445
  329TMC3    C7 4983   1.279   2.568  17.330
  329TMC3    C8 4984   1.251   2.989  17.560
  329TMC3    O1 4985   1.159   2.551  17.347
  329TMC3    O2 4986   1.146   2.998  17.495
  330TMC3    C1 4987   0.013   2.815   9.823
  330TMC3    C2 4988   4.735   2.720   9.750
  330TMC3    C3 4989   4.723   2.595   9.800
  330TMC3    C4 4990   0.063   2.795   9.948
  330TMC3    C5 4991   0.062   2.669   9.991
  330TMC3    C6 4992   0.004   2.566   9.919
  330TMC3     C 4993   4.754   2.958   9.794
  330TMC3     O 4994   0.001   3.042   9.885
  330TMC3     H 4995   4.694   2.739   9.652
  330TMC3    H1 4996   0.113   2.869  10.009
  330TMC3    H2 4997   4.776   2.465   9.958
  330TMC3    C7 4998   0.128   2.635  10.121
  330TMC3    C8 4999   4.632   2.504   9.726
  330TMC3    O1 5000   0.229   2.699  10.147
  330TMC3    O2 5001   4.619   2.525   9.605
  331MPD2     C 5002   2.869   1.451  13.587
  331MPD2    C1 5003   2.935   1.472  13.474
  331MPD2    C2 5004   2.900   1.403  13.360
  331MPD2    C3 5005   2.790   1.321  13.359
  331MPD2    C4 5006   2.716   1.309  13.473
  331MPD2    C5 5007   2.758   1.370  13.587
  331MPD2     H 5008   2.944   1.432  13.265
  331MPD2    H1 5009   2.625   1.251  13.479
  331MPD2    H2 5010   2.897   1.496  13.681
  331MPD2    H3 5011   2.722   1.356  13.688
  331MPD2     N 5012   2.756   1.267  13.231
  331MPD2    H5 5013   2.812   1.292  13.150
  331MPD2    N1 5014   3.043   1.565  13.468
  331MPD2    H7 5015   3.056   1.621  13.551
  332TMC3    C1 5016   2.658   1.137  13.068
  332TMC3    C2 5017   2.735   1.200  12.972
  332TMC3    C3 5018   2.754   1.138  12.847
  332TMC3    C4 5019   2.621   1.010  13.046
  332TMC3    C5 5020   2.637   0.945  12.922
  332TMC3    C6 5021   2.707   1.014  12.819
  332TMC3     C 5022   2.664   1.173  13.209
  332TMC3     O 5023   2.588   1.122  13.288
  332TMC3     H 5024   2.775   1.301  12.976
  332TMC3    H1 5025   2.550   0.972  13.119
  332TMC3    H2 5026   2.724   0.972  12.721
  332TMC3    C7 5027   2.691   0.806  12.938
  332TMC3    C8 5028   2.800   1.227  12.744
  332TMC3    O1 5029   2.649   0.721  12.861
  332TMC3    O2 5030   2.875   1.316  12.776
  333MPD2     C 5031   2.844   1.865  11.401
  333MPD2    C1 5032   2.821   1.809  11.281
  333MPD2    C2 5033   2.804   1.670  11.277
  333MPD2    C3 5034   2.788   1.597  11.396
  333MPD2    C4 5035   2.816   1.656  11.519
  333MPD2    C5 5036   2.853   1.786  11.518
  333MPD2     H 5037   2.792   1.610  11.187
  333MPD2    H1 5038   2.820   1.601  11.612
  333MPD2    H2 5039   2.862   1.971  11.418
  333MPD2    H3 5040   2.856   1.823  11.620
  333MPD2     N 5041   2.748   1.465  11.382
  333MPD2    H5 5042   2.733   1.425  11.290
  333MPD2    N1 5043   2.838   1.896  11.168
  333MPD2    H7 5044   2.848   1.996  11.181
  334TMC3    C1 5045   2.850   1.948  10.937
  334TMC3    C2 5046   2.943   1.886  10.853
  334TMC3    C3 5047   3.037   1.969  10.797
  334TMC3    C4 5048   2.862   2.081  10.967
  334TMC3    C5 5049   2.964   2.151  10.915
  334TMC3    C6 5050   3.060   2.100  10.831
  334TMC3     C 5051   2.803   1.858  11.042
  334TMC3     O 5052   2.760   1.755  10.992
  334TMC3     H 5053   2.943   1.781  10.825
  334TMC3    H1 5054   2.800   2.129  11.042
  334TMC3    H2 5055   3.135   2.168  10.792
  334TMC3    C7 5056   2.981   2.286  10.959
  334TMC3    C8 5057   3.150   1.894  10.740
  334TMC3    O1 5058   3.098   2.318  10.984
  334TMC3    O2 5059   3.131   1.799  10.661
  335TMC3    C1 5060   2.697   3.082  17.564
  335TMC3    C2 5061   2.629   2.995  17.488
  335TMC3    C3 5062   2.677   2.962  17.364
  335TMC3    C4 5063   2.816   3.136  17.529
  335TMC3    C5 5064   2.865   3.096  17.406
  335TMC3    C6 5065   2.801   3.015  17.319
  335TMC3     C 5066   2.632   3.128  17.683
  335TMC3     O 5067   2.538   3.063  17.730
  335TMC3     H 5068   2.532   2.958  17.521
  335TMC3    H1 5069   2.871   3.193  17.603
  335TMC3    H2 5070   2.840   2.994  17.220
  335TMC3    C7 5071   3.006   3.127  17.364
  335TMC3    C8 5072   2.613   2.864  17.274
  335TMC3    O1 5073   3.060   3.054  17.280
  335TMC3    O2 5074   2.665   2.861  17.162
  336MPD2     C 5075   2.455   0.627  16.524
  336MPD2    C1 5076   2.398   0.583  16.403
  336MPD2    C2 5077   2.412   0.449  16.379
  336MPD2    C3 5078   2.478   0.367  16.469
  336MPD2    C4 5079   2.528   0.414  16.587
  336MPD2    C5 5080   2.508   0.546  16.618
  336MPD2     H 5081   2.379   0.421  16.280
  336MPD2    H1 5082   2.596   0.356  16.649
  336MPD2    H2 5083   2.466   0.728  16.561
  336MPD2    H3 5084   2.545   0.594  16.708
  336MPD2     N 5085   2.508   0.228  16.438
  336MPD2    H5 5086   2.546   0.170  16.512
  336MPD2    N1 5087   2.328   0.656  16.308
  336MPD2    H7 5088   2.296   0.598  16.231
  337TMC3    C1 5089   2.206   0.840  16.222
  337TMC3    C2 5090   2.134   0.751  16.148
  337TMC3    C3 5091   2.044   0.805  16.058
  337TMC3    C4 5092   2.198   0.973  16.210
  337TMC3    C5 5093   2.110   1.018  16.113
  337TMC3    C6 5094   2.025   0.941  16.047
  337TMC3     C 5095   2.286   0.789  16.330
  337TMC3     O 5096   2.333   0.865  16.413
  337TMC3     H 5097   2.147   0.643  16.148
  337TMC3    H1 5098   2.243   1.043  16.280
  337TMC3    H2 5099   1.957   0.977  15.971
  337TMC3    C7 5100   2.077   1.160  16.108
  337TMC3    C8 5101   1.941   0.712  15.995
  337TMC3    O1 5102   1.958   1.193  16.098
  337TMC3    O2 5103   1.939   0.599  16.043
  338MPD2     C 5104   3.368   0.329  19.231
  338MPD2    C1 5105   3.247   0.337  19.158
  338MPD2    C2 5106   3.138   0.387  19.220
  338MPD2    C3 5107   3.131   0.421  19.355
  338MPD2    C4 5108   3.254   0.411  19.423
  338MPD2    C5 5109   3.368   0.369  19.363
  338MPD2     H 5110   3.051   0.401  19.157
  338MPD2    H1 5111   3.263   0.441  19.527
  338MPD2    H2 5112   3.459   0.291  19.186
  338MPD2    H3 5113   3.452   0.370  19.431
  338MPD2     N 5114   3.013   0.464  19.412
  338MPD2    H5 5115   2.937   0.490  19.350
  338MPD2    N1 5116   3.228   0.293  19.024
  338MPD2    H7 5117   3.147   0.327  18.974
  339TMC3    C1 5118   2.853   0.525  19.571
  339TMC3    C2 5119   2.802   0.497  19.694
  339TMC3    C3 5120   2.662   0.488  19.703
  339TMC3    C4 5121   2.772   0.556  19.468
  339TMC3    C5 5122   2.631   0.542  19.478
  339TMC3    C6 5123   2.575   0.500  19.598
  339TMC3     C 5124   2.997   0.490  19.544
  339TMC3     O 5125   3.071   0.468  19.636
  339TMC3     H 5126   2.870   0.475  19.776
  339TMC3    H1 5127   2.812   0.582  19.371
  339TMC3    H2 5128   2.467   0.498  19.605
  339TMC3    C7 5129   2.560   0.527  19.350
  339TMC3    C8 5130   2.605   0.434  19.822
  339TMC3    O1 5131   2.628   0.500  19.252
  339TMC3    O2 5132   2.660   0.471  19.927
  340MPD2     C 5133   2.535   3.073  10.098
  340MPD2    C1 5134   2.573   2.941  10.133
  340MPD2    C2 5135   2.609   2.920  10.266
  340MPD2    C3 5136   2.611   3.022  10.358
  340MPD2    C4 5137   2.583   3.153  10.316
  340MPD2    C5 5138   2.546   3.171  10.188
  340MPD2     H 5139   2.647   2.821  10.287
  340MPD2    H1 5140   2.583   3.236  10.385
  340MPD2    H2 5141   2.489   3.100  10.003
  340MPD2    H3 5142   2.516   3.270  10.154
  340MPD2     N 5143   2.674   3.012  10.484
  340MPD2    H5 5144   2.690   3.102  10.528
  340MPD2    N1 5145   2.557   2.840  10.034
  340MPD2    H7 5146   2.525   2.876   9.945
  341TMC3    C1 5147   2.544   2.628   9.935
  341TMC3    C2 5148   2.523   2.494   9.960
  341TMC3    C3 5149   2.569   2.405   9.872
  341TMC3    C4 5150   2.621   2.674   9.833
  341TMC3    C5 5151   2.660   2.578   9.735
  341TMC3    C6 5152   2.629   2.442   9.755
  341TMC3     C 5153   2.550   2.707  10.052
  341TMC3     O 5154   2.572   2.643  10.156
  341TMC3     H 5155   2.477   2.466  10.054
  341TMC3    H1 5156   2.667   2.772   9.841
  341TMC3    H2 5157   2.678   2.370   9.690
  341TMC3    C7 5158   2.774   2.610   9.651
  341TMC3    C8 5159   2.513   2.274   9.889
  341TMC3    O1 5160   2.870   2.527   9.649
  341TMC3    O2 5161   2.459   2.260  10.002
  342MPD2     C 5162   0.511   1.122  17.371
  342MPD2    C1 5163   0.636   1.124  17.437
  342MPD2    C2 5164   0.677   1.242  17.491
  342MPD2    C3 5165   0.597   1.355  17.482
  342MPD2    C4 5166   0.480   1.346  17.407
  342MPD2    C5 5167   0.442   1.234  17.350
  342MPD2     H 5168   0.768   1.238  17.549
  342MPD2    H1 5169   0.414   1.432  17.400
  342MPD2    H2 5170   0.461   1.033  17.336
  342MPD2    H3 5171   0.346   1.236  17.299
  342MPD2     N 5172   0.633   1.482  17.544
  342MPD2    H5 5173   0.561   1.554  17.547
  342MPD2    N1 5174   0.712   1.010  17.466
  342MPD2    H7 5175   0.790   1.019  17.531
  343TMC3    C1 5176   0.765   0.773  17.472
  343TMC3    C2 5177   0.897   0.784  17.453
  343TMC3    C3 5178   0.974   0.673  17.467
  343TMC3    C4 5179   0.722   0.654  17.519
  343TMC3    C5 5180   0.802   0.544  17.542
  343TMC3    C6 5181   0.934   0.548  17.517
  343TMC3     C 5182   0.672   0.881  17.437
  343TMC3     O 5183   0.575   0.839  17.379
  343TMC3     H 5184   0.938   0.878  17.418
  343TMC3    H1 5185   0.617   0.646  17.546
  343TMC3    H2 5186   0.998   0.463  17.536
  343TMC3    C7 5187   0.730   0.427  17.602
  343TMC3    C8 5188   1.115   0.696  17.456
  343TMC3    O1 5189   0.625   0.400  17.552
  343TMC3    O2 5190   1.163   0.796  17.506
  344MPD2     C 5191   1.353   0.978  11.174
  344MPD2    C1 5192   1.331   0.882  11.080
  344MPD2    C2 5193   1.391   0.894  10.953
  344MPD2    C3 5194   1.475   1.002  10.927
  344MPD2    C4 5195   1.506   1.084  11.036
  344MPD2    C5 5196   1.450   1.067  11.157
  344MPD2     H 5197   1.376   0.819  10.876
  344MPD2    H1 5198   1.573   1.168  11.020
  344MPD2    H2 5199   1.300   0.987  11.268
  344MPD2    H3 5200   1.481   1.130  11.240
  344MPD2     N 5201   1.532   1.039  10.809
  344MPD2    H5 5202   1.605   1.109  10.820
  344MPD2    N1 5203   1.254   0.766  11.096
  344MPD2    H7 5204   1.249   0.700  11.019
  345TMC3    C1 5205   1.598   1.050  10.596
  345TMC3    C2 5206   1.724   1.061  10.640
  345TMC3    C3 5207   1.793   1.163  10.586
  345TMC3    C4 5208   1.539   1.137  10.506
  345TMC3    C5 5209   1.606   1.246  10.471
  345TMC3    C6 5210   1.734   1.264  10.517
  345TMC3     C 5211   1.506   0.985  10.685
  345TMC3     O 5212   1.402   0.941  10.637
  345TMC3     H 5213   1.775   0.987  10.700
  345TMC3    H1 5214   1.431   1.128  10.508
  345TMC3    H2 5215   1.775   1.361  10.492
  345TMC3    C7 5216   1.548   1.350  10.389
  345TMC3    C8 5217   1.911   1.204  10.668
  345TMC3    O1 5218   1.606   1.456  10.383
  345TMC3    O2 5219   1.923   1.155  10.781
  346MPD2     C 5220   1.285   2.100  14.014
  346MPD2    C1 5221   1.397   2.169  13.982
  346MPD2    C2 5222   1.419   2.291  14.038
  346MPD2    C3 5223   1.326   2.347  14.128
  346MPD2    C4 5224   1.214   2.274  14.159
  346MPD2    C5 5225   1.191   2.154  14.101
  346MPD2     H 5226   1.506   2.354  14.023
  346MPD2    H1 5227   1.136   2.307  14.227
  346MPD2    H2 5228   1.254   2.007  13.968
  346MPD2    H3 5229   1.105   2.094  14.127
  346MPD2     N 5230   1.366   2.471  14.186
  346MPD2    H5 5231   1.451   2.512  14.148
  346MPD2    N1 5232   1.496   2.119  13.887
  346MPD2    H7 5233   1.575   2.181  13.872
  347TMC3    C1 5234   1.362   2.654  14.304
  347TMC3    C2 5235   1.443   2.692  14.204
  347TMC3    C3 5236   1.566   2.753  14.232
  347TMC3    C4 5237   1.398   2.678  14.436
  347TMC3    C5 5238   1.520   2.730  14.462
  347TMC3    C6 5239   1.599   2.779  14.364
  347TMC3     C 5240   1.296   2.535  14.287
  347TMC3     O 5241   1.209   2.496  14.364
  347TMC3     H 5242   1.404   2.694  14.103
  347TMC3    H1 5243   1.329   2.640  14.511
  347TMC3    H2 5244   1.692   2.833  14.379
  347TMC3    C7 5245   1.564   2.712  14.597
  347TMC3    C8 5246   1.672   2.706  14.155
  347TMC3    O1 5247   1.481   2.698  14.685
  347TMC3    O2 5248   1.660   2.597  14.098
  348MPD2     C 5249   0.121   2.272  12.502
  348MPD2    C1 5250   0.229   2.246  12.423
  348MPD2    C2 5251   0.246   2.327  12.315
  348MPD2    C3 5252   0.158   2.430  12.282
  348MPD2    C4 5253   0.049   2.452  12.362
  348MPD2    C5 5254   0.032   2.368  12.467
  348MPD2     H 5255   0.327   2.314  12.244
  348MPD2    H1 5256   4.761   2.535  12.354
  348MPD2    H2 5257   0.105   2.204  12.585
  348MPD2    H3 5258   4.721   2.368  12.524
  348MPD2     N 5259   0.179   2.496  12.165
  348MPD2    H5 5260   0.275   2.501  12.134
  348MPD2    N1 5261   0.324   2.153  12.449
  348MPD2    H7 5262   0.405   2.157  12.388
  349TMC3    C1 5263   0.438   1.973  12.563
  349TMC3    C2 5264   0.412   1.846  12.630
  349TMC3    C3 5265   0.476   1.736  12.582
  349TMC3    C4 5266   0.529   1.983  12.461
  349TMC3    C5 5267   0.583   1.865  12.421
  349TMC3    C6 5268   0.566   1.744  12.482
  349TMC3     C 5269   0.327   2.066  12.561
  349TMC3     O 5270   0.223   2.029  12.623
  349TMC3     H 5271   0.350   1.827  12.717
  349TMC3    H1 5272   0.572   2.075  12.424
  349TMC3    H2 5273   0.621   1.654  12.457
  349TMC3    C7 5274   0.713   1.874  12.348
  349TMC3    C8 5275   0.473   1.607  12.652
  349TMC3    O1 5276   0.800   1.808  12.398
  349TMC3    O2 5277   0.455   1.613  12.772
  350MPD2     C 5278   4.111   0.339  10.707
  350MPD2    C1 5279   4.199   0.237  10.675
  350MPD2    C2 5280   4.322   0.242  10.731
  350MPD2    C3 5281   4.365   0.333  10.822
  350MPD2    C4 5282   4.272   0.428  10.865
  350MPD2    C5 5283   4.148   0.429  10.803
  350MPD2     H 5284   4.395   0.166  10.708
  350MPD2    H1 5285   4.278   0.505  10.940
  350MPD2    H2 5286   4.007   0.349  10.677
  350MPD2    H3 5287   4.075   0.500  10.840
  350MPD2     N 5288   4.498   0.320  10.869
  350MPD2    H5 5289   4.548   0.240  10.831
  350MPD2    N1 5290   4.177   0.134  10.582
  350MPD2    H7 5291   4.252   0.066  10.577
  351TMC3    C1 5292   4.067   0.000  10.419
  351TMC3    C2 5293   4.169   4.689  10.442
  351TMC3    C3 5294   4.209   4.620  10.327
  351TMC3    C4 5295   3.998   0.015  10.302
  351TMC3    C5 5296   4.046   4.724  10.198
  351TMC3    C6 5297   4.152   4.642  10.200
  351TMC3     C 5298   4.059   0.114  10.513
  351TMC3     O 5299   3.964   0.190  10.499
  351TMC3     H 5300   4.232   4.689  10.530
  351TMC3    H1 5301   3.919   0.089  10.291
  351TMC3    H2 5302   4.195   4.588  10.116
  351TMC3    C7 5303   4.003   4.766  10.069
  351TMC3    C8 5304   4.343   4.557  10.319
  351TMC3    O1 5305   3.990   0.106  10.050
  351TMC3    O2 5306   4.408   4.585  10.222
  352MPD2     C 5307   2.780   2.429  19.477
  352MPD2    C1 5308   2.660   2.363  19.460
  352MPD2    C2 5309   2.648   2.241  19.512
  352MPD2    C3 5310   2.746   2.187  19.586
  352MPD2    C4 5311   2.858   2.260  19.612
  352MPD2    C5 5312   2.881   2.383  19.551
  352MPD2     H 5313   2.567   2.172  19.491
  352MPD2    H1 5314   2.931   2.213  19.678
  352MPD2    H2 5315   2.784   2.529  19.434
  352MPD2    H3 5316   2.966   2.446  19.576
  352MPD2     N 5317   2.739   2.053  19.635
  352MPD2    H5 5318   2.826   2.020  19.676
  352MPD2    N1 5319   2.560   2.420  19.372
  352MPD2    H7 5320   2.590   2.509  19.333
  353TMC3    C1 5321   2.657   1.831  19.677
  353TMC3    C2 5322   2.777   1.790  19.728
  353TMC3    C3 5323   2.796   1.656  19.741
  353TMC3    C4 5324   2.557   1.742  19.646
  353TMC3    C5 5325   2.580   1.609  19.662
  353TMC3    C6 5326   2.704   1.561  19.709
  353TMC3     C 5327   2.630   1.965  19.618
  353TMC3     O 5328   2.517   1.976  19.574
  353TMC3     H 5329   2.846   1.858  19.776
  353TMC3    H1 5330   2.453   1.765  19.624
  353TMC3    H2 5331   2.713   1.458  19.741
  353TMC3    C7 5332   2.483   1.518  19.600
  353TMC3    C8 5333   2.932   1.614  19.761
  353TMC3    O1 5334   2.424   1.557  19.502
  353TMC3    O2 5335   3.000   1.695  19.826
  354TMC3    C1 5336   4.181   3.482  13.964
  354TMC3    C2 5337   4.275   3.573  13.992
  354TMC3    C3 5338   4.374   3.597  13.898
  354TMC3    C4 5339   4.170   3.428  13.838
  354TMC3    C5 5340   4.274   3.451  13.747
  354TMC3    C6 5341   4.377   3.535  13.778
  354TMC3     C 5342   4.129   3.398  14.075
  354TMC3     O 5343   4.020   3.343  14.048
  354TMC3     H 5344   4.286   3.615  14.091
  354TMC3    H1 5345   4.109   3.339  13.826
  354TMC3    H2 5346   4.440   3.572  13.698
  354TMC3    C7 5347   4.257   3.408  13.609
  354TMC3    C8 5348   4.410   3.734  13.870
  354TMC3    O1 5349   4.150   3.365  13.567
  354TMC3    O2 5350   4.312   3.804  13.844
  355MPD2     C 5351   4.454   4.182  12.157
  355MPD2    C1 5352   4.572   4.136  12.104
  355MPD2    C2 5353   4.656   4.063  12.181
  355MPD2    C3 5354   4.628   4.040  12.316
  355MPD2    C4 5355   4.505   4.080  12.363
  355MPD2    C5 5356   4.417   4.146  12.282
  355MPD2     H 5357   4.751   4.029  12.140
  355MPD2    H1 5358   4.476   4.067  12.467
  355MPD2    H2 5359   4.392   4.234  12.086
  355MPD2    H3 5360   4.318   4.163  12.323
  355MPD2     N 5361   4.715   3.976  12.400
  355MPD2    H5 5362   4.693   3.969  12.499
  355MPD2    N1 5363   4.597   4.175  11.972
  355MPD2    H7 5364   4.533   4.239  11.927
  356TMC3    C1 5365   0.141   4.077  12.381
  356TMC3    C2 5366   0.215   4.125  12.275
  356TMC3    C3 5367   0.265   4.250  12.279
  356TMC3    C4 5368   0.112   4.154  12.491
  356TMC3    C5 5369   0.174   4.279  12.495
  356TMC3    C6 5370   0.252   4.329  12.390
  356TMC3     C 5371   0.064   3.953  12.361
  356TMC3     O 5372   0.092   3.881  12.261
  356TMC3     H 5373   0.237   4.065  12.188
  356TMC3    H1 5374   0.055   4.112  12.573
  356TMC3    H2 5375   0.297   4.427  12.390
  356TMC3    C7 5376   0.185   4.341  12.625
  356TMC3    C8 5377   0.314   4.309  12.153
  356TMC3    O1 5378   0.192   4.264  12.719
  356TMC3    O2 5379   0.274   4.250  12.054
  357MPD2     C 5380   4.498   3.722  18.169
  357MPD2    C1 5381   4.429   3.781  18.278
  357MPD2    C2 5382   4.427   3.916  18.292
  357MPD2    C3 5383   4.472   4.000  18.190
  357MPD2    C4 5384   4.538   3.940  18.086
  357MPD2    C5 5385   4.549   3.804  18.074
  357MPD2     H 5386   4.381   3.950  18.384
  357MPD2    H1 5387   4.584   3.997  18.006
  357MPD2    H2 5388   4.492   3.614  18.163
  357MPD2    H3 5389   4.604   3.766  17.989
  357MPD2     N 5390   4.460   4.142  18.194
  357MPD2    H5 5391   4.527   4.186  18.131
  357MPD2    N1 5392   4.361   3.695  18.373
  357MPD2    H7 5393   4.351   3.603  18.330
  358TMC3    C1 5394   4.235   3.619  18.553
  358TMC3    C2 5395   4.194   3.513  18.475
  358TMC3    C3 5396   4.149   3.397  18.535
  358TMC3    C4 5397   4.228   3.608  18.691
  358TMC3    C5 5398   4.192   3.487  18.742
  358TMC3    C6 5399   4.141   3.379  18.670
  358TMC3     C 5400   4.308   3.726  18.496
  358TMC3     O 5401   4.332   3.828  18.559
  358TMC3     H 5402   4.197   3.509  18.367
  358TMC3    H1 5403   4.239   3.702  18.743
  358TMC3    H2 5404   4.140   3.277  18.706
  358TMC3    C7 5405   4.197   3.466  18.883
  358TMC3    C8 5406   4.171   3.279  18.449
  358TMC3    O1 5407   4.163   3.361  18.934
  358TMC3    O2 5408   4.267   3.284  18.372
  359MPD2     C 5409   4.701   3.256  12.744
  359MPD2    C1 5410   4.694   3.161  12.636
  359MPD2    C2 5411   4.598   3.059  12.651
  359MPD2    C3 5412   4.522   3.044  12.765
  359MPD2    C4 5413   4.533   3.139  12.863
  359MPD2    C5 5414   4.617   3.248  12.857
  359MPD2     H 5415   4.570   3.000  12.565
  359MPD2    H1 5416   4.473   3.133  12.953
  359MPD2    H2 5417   0.002   3.327  12.753
  359MPD2    H3 5418   4.603   3.334  12.921
  359MPD2     N 5419   4.430   2.940  12.787
  359MPD2    H5 5420   4.366   2.945  12.866
  359MPD2    N1 5421   4.778   3.151  12.522
  359MPD2    H7 5422   4.774   3.074  12.457
  360TMC3    C1 5423   0.173   3.195  12.397
  360TMC3    C2 5424   0.305   3.208  12.418
  360TMC3    C3 5425   0.394   3.115  12.367
  360TMC3    C4 5426   0.126   3.099  12.310
  360TMC3    C5 5427   0.215   3.024  12.236
  360TMC3    C6 5428   0.346   3.032  12.264
  360TMC3     C 5429   0.082   3.255  12.493
  360TMC3     O 5430   0.117   3.356  12.555
  360TMC3     H 5431   0.346   3.264  12.501
  360TMC3    H1 5432   0.020   3.107  12.290
  360TMC3    H2 5433   0.409   2.962  12.211
  360TMC3    C7 5434   0.168   2.936  12.128
  360TMC3    C8 5435   0.516   3.178  12.330
  360TMC3    O1 5436   0.250   2.891  12.043
  360TMC3    O2 5437   0.531   3.295  12.358
  361MPD2     C 5438   1.641   1.241  16.908
  361MPD2    C1 5439   1.626   1.340  16.998
  361MPD2    C2 5440   1.731   1.370  17.083
  361MPD2    C3 5441   1.846   1.279  17.084
  361MPD2    C4 5442   1.858   1.184  16.987
  361MPD2    C5 5443   1.757   1.171  16.903
  361MPD2     H 5444   1.735   1.461  17.141
  361MPD2    H1 5445   1.942   1.119  16.965
  361MPD2    H2 5446   1.564   1.204  16.842
  361MPD2    H3 5447   1.766   1.089  16.833
  361MPD2     N 5448   1.966   1.310  17.155
  361MPD2    H5 5449   2.040   1.241  17.145
  361MPD2    N1 5450   1.512   1.418  17.007
  361MPD2    H7 5451   1.486   1.454  17.098
  362TMC3    C1 5452   1.309   1.520  16.936
  362TMC3    C2 5453   1.276   1.531  17.064
  362TMC3    C3 5454   1.207   1.641  17.101
  362TMC3    C4 5455   1.274   1.606  16.836
  362TMC3    C5 5456   1.199   1.713  16.873
  362TMC3    C6 5457   1.181   1.743  17.007
  362TMC3     C 5458   1.427   1.442  16.897
  362TMC3     O 5459   1.448   1.416  16.778
  362TMC3     H 5460   1.285   1.446  17.130
  362TMC3    H1 5461   1.300   1.584  16.733
  362TMC3    H2 5462   1.128   1.834  17.032
  362TMC3    C7 5463   1.159   1.812  16.775
  362TMC3    C8 5464   1.091   1.606  17.182
  362TMC3    O1 5465   1.164   1.928  16.818
  362TMC3    O2 5466   1.067   1.486  17.201
  363TMC3    C1 5467   0.637   4.607  10.112
  363TMC3    C2 5468   0.616   4.482  10.150
  363TMC3    C3 5469   0.514   4.459  10.234
  363TMC3    C4 5470   0.550   4.710  10.141
  363TMC3    C5 5471   0.446   4.684  10.223
  363TMC3    C6 5472   0.428   4.560  10.272
  363TMC3     C 5473   0.759   4.654  10.046
  363TMC3     O 5474   0.754   4.756   9.986
  363TMC3     H 5475   0.682   4.401  10.122
  363TMC3    H1 5476   0.571   0.026  10.097
  363TMC3    H2 5477   0.342   4.541  10.336
  363TMC3    C7 5478   0.337   4.775  10.223
  363TMC3    C8 5479   0.519   4.352  10.333
  363TMC3    O1 5480   0.221   4.727  10.233
  363TMC3    O2 5481   0.465   4.371  10.443
  364MPD2     C 5482   3.601   4.201  10.904
  364MPD2    C1 5483   3.674   4.136  10.815
  364MPD2    C2 5484   3.726   4.012  10.838
  364MPD2    C3 5485   3.726   3.963  10.968
  364MPD2    C4 5486   3.636   4.021  11.057
  364MPD2    C5 5487   3.588   4.144  11.027
  364MPD2     H 5488   3.773   3.946  10.766
  364MPD2    H1 5489   3.634   3.989  11.160
  364MPD2    H2 5490   3.544   4.291  10.885
  364MPD2    H3 5491   3.532   4.203  11.099
  364MPD2     N 5492   3.792   3.853  11.012
  364MPD2    H5 5493   3.788   3.832  11.111
  364MPD2    N1 5494   3.679   4.200  10.689
  364MPD2    H7 5495   3.619   4.279  10.667
  365TMC3    C1 5496   3.903   4.137  10.624
  365TMC3    C2 5497   3.982   4.092  10.520
  365TMC3    C3 5498   4.115   4.130  10.511
  365TMC3    C4 5499   3.962   4.227  10.708
  365TMC3    C5 5500   4.088   4.273  10.690
  365TMC3    C6 5501   4.173   4.218  10.596
  365TMC3     C 5502   3.770   4.176  10.586
  365TMC3     O 5503   3.773   4.233  10.473
  365TMC3     H 5504   3.932   4.034  10.444
  365TMC3    H1 5505   3.894   4.283  10.770
  365TMC3    H2 5506   4.268   4.258  10.561
  365TMC3    C7 5507   4.120   4.409  10.739
  365TMC3    C8 5508   4.193   4.063  10.412
  365TMC3    O1 5509   4.191   4.485  10.674
  365TMC3    O2 5510   4.287   4.124  10.364
  366MPD2     C 5511   2.015   4.406  15.584
  366MPD2    C1 5512   2.097   4.511  15.566
  366MPD2    C2 5513   2.202   4.510  15.478
  366MPD2    C3 5514   2.223   4.395  15.404
  366MPD2    C4 5515   2.135   4.287  15.420
  366MPD2    C5 5516   2.035   4.292  15.513
  366MPD2     H 5517   2.272   4.593  15.484
  366MPD2    H1 5518   2.144   4.191  15.370
  366MPD2    H2 5519   1.924   4.404  15.644
  366MPD2    H3 5520   1.980   4.201  15.534
  366MPD2     N 5521   2.321   4.393  15.303
  366MPD2    H5 5522   2.362   4.483  15.282
  366MPD2    N1 5523   2.061   4.641  15.612
  366MPD2    H7 5524   2.130   4.715  15.615
  367TMC3    C1 5525   1.933   0.042  15.684
  367TMC3    C2 5526   2.035   0.094  15.760
  367TMC3    C3 5527   2.037   0.226  15.785
  367TMC3    C4 5528   1.827   0.125  15.641
  367TMC3    C5 5529   1.817   0.256  15.679
  367TMC3    C6 5530   1.927   0.306  15.744
  367TMC3     C 5531   1.936   4.681  15.645
  367TMC3     O 5532   1.828   4.623  15.640
  367TMC3     H 5533   2.112   0.024  15.792
  367TMC3    H1 5534   1.748   0.077  15.584
  367TMC3    H2 5535   1.920   0.412  15.767
  367TMC3    C7 5536   1.754   0.340  15.581
  367TMC3    C8 5537   2.143   0.282  15.863
  367TMC3    O1 5538   1.811   0.439  15.548
  367TMC3    O2 5539   2.200   0.198  15.940
  368MPD2     C 5540   3.559   1.636  13.780
  368MPD2    C1 5541   3.556   1.742  13.690
  368MPD2    C2 5542   3.673   1.779  13.623
  368MPD2    C3 5543   3.791   1.719  13.642
  368MPD2    C4 5544   3.798   1.621  13.738
  368MPD2    C5 5545   3.680   1.581  13.802
  368MPD2     H 5546   3.673   1.865  13.556
  368MPD2    H1 5547   3.895   1.578  13.759
  368MPD2    H2 5548   3.477   1.606  13.845
  368MPD2    H3 5549   3.690   1.492  13.863
  368MPD2     N 5550   3.901   1.742  13.554
  368MPD2    H5 5551   3.991   1.706  13.584
  368MPD2    N1 5552   3.426   1.801  13.672
  368MPD2    H7 5553   3.353   1.755  13.726
  369TMC3    C1 5554   3.283   1.989  13.649
  369TMC3    C2 5555   3.281   2.124  13.618
  369TMC3    C3 5556   3.159   2.182  13.604
  369TMC3    C4 5557   3.168   1.922  13.687
  369TMC3    C5 5558   3.053   1.993  13.682
  369TMC3    C6 5559   3.039   2.114  13.626
  369TMC3     C 5560   3.409   1.922  13.608
  369TMC3     O 5561   3.499   1.983  13.552
  369TMC3     H 5562   3.378   2.164  13.590
  369TMC3    H1 5563   3.163   1.820  13.725
  369TMC3    H2 5564   2.948   2.173  13.621
  369TMC3    C7 5565   2.930   1.907  13.661
  369TMC3    C8 5566   3.155   2.311  13.534
  369TMC3    O1 5567   2.937   1.791  13.695
  369TMC3    O2 5568   3.047   2.342  13.490
  370TMC3    C1 5569   2.662   2.409  16.384
  370TMC3    C2 5570   2.592   2.341  16.484
  370TMC3    C3 5571   2.566   2.202  16.465
  370TMC3    C4 5572   2.705   2.348  16.274
  370TMC3    C5 5573   2.676   2.217  16.257
  370TMC3    C6 5574   2.610   2.139  16.353
  370TMC3     C 5575   2.750   2.505  16.443
  370TMC3     O 5576   2.773   2.512  16.564
  370TMC3     H 5577   2.584   2.381  16.585
  370TMC3    H1 5578   2.778   2.392  16.207
  370TMC3    H2 5579   2.584   2.034  16.348
  370TMC3    C7 5580   2.760   2.160  16.155
  370TMC3    C8 5581   2.533   2.118  16.576
  370TMC3    O1 5582   2.773   2.226  16.050
  370TMC3    O2 5583   2.538   2.000  16.572
  371TMC3    C1 5584   4.172   0.793  15.854
  371TMC3    C2 5585   4.123   0.810  15.976
  371TMC3    C3 5586   4.095   0.939  16.014
  371TMC3    C4 5587   4.183   0.893  15.758
  371TMC3    C5 5588   4.138   1.015  15.794
  371TMC3    C6 5589   4.080   1.038  15.921
  371TMC3     C 5590   4.161   0.653  15.811
  371TMC3     O 5591   4.205   0.638  15.697
  371TMC3     H 5592   4.144   0.730  16.046
  371TMC3    H1 5593   4.217   0.868  15.658
  371TMC3    H2 5594   4.063   1.142  15.945
  371TMC3    C7 5595   4.160   1.132  15.710
  371TMC3    C8 5596   4.061   0.970  16.150
  371TMC3    O1 5597   4.079   1.222  15.732
  371TMC3    O2 5598   4.135   0.914  16.232
  372MPD2     C 5599   3.466   2.063  13.930
  372MPD2    C1 5600   3.581   1.985  13.952
  372MPD2    C2 5601   3.567   1.862  14.027
  372MPD2    C3 5602   3.443   1.819  14.066
  372MPD2    C4 5603   3.338   1.894  14.031
  372MPD2    C5 5604   3.347   2.011  13.971
  372MPD2     H 5605   3.653   1.796  14.035
  372MPD2    H1 5606   3.235   1.871  14.054
  372MPD2    H2 5607   3.458   2.154  13.872
  372MPD2    H3 5608   3.257   2.068  13.952
  372MPD2     N 5609   3.440   1.695  14.137
  372MPD2    H5 5610   3.520   1.633  14.125
  372MPD2    N1 5611   3.711   2.020  13.902
  372MPD2    H7 5612   3.771   1.939  13.907
  373TMC3    C1 5613   3.351   1.524  14.271
  373TMC3    C2 5614   3.287   1.502  14.390
  373TMC3    C3 5615   3.276   1.380  14.442
  373TMC3    C4 5616   3.401   1.415  14.197
  373TMC3    C5 5617   3.377   1.291  14.247
  373TMC3    C6 5618   3.305   1.268  14.363
  373TMC3     C 5619   3.329   1.654  14.216
  373TMC3     O 5620   3.225   1.711  14.234
  373TMC3     H 5621   3.241   1.586  14.441
  373TMC3    H1 5622   3.441   1.435  14.098
  373TMC3    H2 5623   3.279   1.171  14.405
  373TMC3    C7 5624   3.452   1.192  14.178
  373TMC3    C8 5625   3.207   1.355  14.558
  373TMC3    O1 5626   3.515   1.224  14.080
  373TMC3    O2 5627   3.110   1.272  14.546
  374TMC3    C1 5628   4.035   2.360  10.037
  374TMC3    C2 5629   4.162   2.425  10.054
  374TMC3    C3 5630   4.207   2.514   9.956
  374TMC3    C4 5631   3.969   2.367   9.919
  374TMC3    C5 5632   4.018   2.454   9.822
  374TMC3    C6 5633   4.133   2.526   9.843
  374TMC3     C 5634   3.994   2.249  10.121
  374TMC3     O 5635   3.926   2.165  10.066
  374TMC3     H 5636   4.216   2.404  10.145
  374TMC3    H1 5637   3.871   2.323   9.909
  374TMC3    H2 5638   4.170   2.593   9.766
  374TMC3    C7 5639   3.951   2.454   9.689
  374TMC3    C8 5640   4.314   2.607   9.979
  374TMC3    O1 5641   3.891   2.350   9.663
  374TMC3    O2 5642   4.348   2.689   9.889
  375MPD2     C 5643   4.129   3.074  16.714
  375MPD2    C1 5644   4.022   2.987  16.705
  375MPD2    C2 5645   4.021   2.894  16.607
  375MPD2    C3 5646   4.122   2.883  16.510
  375MPD2    C4 5647   4.225   2.979  16.521
  375MPD2    C5 5648   4.230   3.074  16.618
  375MPD2     H 5649   3.941   2.822  16.592
  375MPD2    H1 5650   4.301   2.974  16.444
  375MPD2    H2 5651   4.135   3.158  16.782
  375MPD2    H3 5652   4.316   3.141  16.621
  375MPD2     N 5653   4.112   2.782  16.408
  375MPD2    H5 5654   4.179   2.792  16.332
  375MPD2    N1 5655   3.905   2.993  16.780
  375MPD2    H7 5656   3.834   2.922  16.769
  376TMC3    C1 5657   4.091   2.558  16.334
  376TMC3    C2 5658   4.153   2.445  16.373
  376TMC3    C3 5659   4.217   2.364  16.280
  376TMC3    C4 5660   4.073   2.590  16.203
  376TMC3    C5 5661   4.129   2.501  16.117
  376TMC3    C6 5662   4.201   2.389  16.147
  376TMC3     C 5663   4.064   2.661  16.439
  376TMC3     O 5664   4.055   2.607  16.547
  376TMC3     H 5665   4.181   2.433  16.477
  376TMC3    H1 5666   4.028   2.685  16.175
  376TMC3    H2 5667   4.252   2.324  16.076
  376TMC3    C7 5668   4.141   2.555  15.985
  376TMC3    C8 5669   4.348   2.310  16.316
  376TMC3    O1 5670   4.129   2.678  15.967
  376TMC3    O2 5671   4.440   2.318  16.236
  377MPD2     C 5672   2.287   2.553  12.901
  377MPD2    C1 5673   2.300   2.416  12.928
  377MPD2    C2 5674   2.195   2.355  12.999
  377MPD2    C3 5675   2.086   2.434  13.031
  377MPD2    C4 5676   2.081   2.565  13.005
  377MPD2    C5 5677   2.186   2.630  12.942
  377MPD2     H 5678   2.208   2.253  13.034
  377MPD2    H1 5679   1.990   2.611  13.041
  377MPD2    H2 5680   2.364   2.600  12.840
  377MPD2    H3 5681   2.181   2.734  12.912
  377MPD2     N 5682   1.977   2.381  13.106
  377MPD2    H5 5683   1.907   2.448  13.136
  377MPD2    N1 5684   2.410   2.342  12.876
  377MPD2    H7 5685   2.494   2.392  12.849
  378TMC3    C1 5686   2.610   2.057  12.602
  378TMC3    C2 5687   2.511   2.080  12.694
  378TMC3    C3 5688   2.540   2.171  12.791
  378TMC3    C4 5689   2.725   2.127  12.606
  378TMC3    C5 5690   2.750   2.217  12.716
  378TMC3    C6 5691   2.658   2.232  12.816
  378TMC3     C 5692   2.542   2.037  12.477
  378TMC3     O 5693   2.423   2.020  12.472
  378TMC3     H 5694   2.412   2.036  12.697
  378TMC3    H1 5695   2.810   2.095  12.548
  378TMC3    H2 5696   2.675   2.294  12.903
  378TMC3    C7 5697   2.882   2.269  12.726
  378TMC3    C8 5698   2.420   2.207  12.864
  378TMC3    O1 5699   2.945   2.260  12.832
  378TMC3    O2 5700   2.358   2.118  12.915
  379MPD2     C 5701   3.256   0.476  16.532
  379MPD2    C1 5702   3.152   0.404  16.590
  379MPD2    C2 5703   3.171   0.336  16.712
  379MPD2    C3 5704   3.297   0.334  16.775
  379MPD2    C4 5705   3.399   0.400  16.712
  379MPD2    C5 5706   3.377   0.464  16.594
  379MPD2     H 5707   3.091   0.293  16.771
  379MPD2    H1 5708   3.501   0.401  16.748
  379MPD2    H2 5709   3.243   0.546  16.450
  379MPD2    H3 5710   3.459   0.512  16.542
  379MPD2     N 5711   3.318   0.263  16.894
  379MPD2    H5 5712   3.412   0.276  16.929
  379MPD2    N1 5713   3.029   0.425  16.521
  379MPD2    H7 5714   3.038   0.478  16.435
  380TMC3    C1 5715   2.830   0.338  16.436
  380TMC3    C2 5716   2.847   0.220  16.381
  380TMC3    C3 5717   2.833   0.204  16.249
  380TMC3    C4 5718   2.787   0.449  16.369
  380TMC3    C5 5719   2.764   0.428  16.236
  380TMC3    C6 5720   2.783   0.309  16.182
  380TMC3     C 5721   2.913   0.362  16.555
  380TMC3     O 5722   2.889   0.285  16.650
  380TMC3     H 5723   2.889   0.148  16.451
  380TMC3    H1 5724   2.772   0.549  16.409
  380TMC3    H2 5725   2.759   0.285  16.079
  380TMC3    C7 5726   2.685   0.520  16.161
  380TMC3    C8 5727   2.948   0.143  16.182
  380TMC3    O1 5728   2.719   0.636  16.178
  380TMC3    O2 5729   2.939   0.127  16.061
  381TMC3    C1 5730   2.580   1.512  16.436
  381TMC3    C2 5731   2.691   1.586  16.438
  381TMC3    C3 5732   2.714   1.670  16.541
  381TMC3    C4 5733   2.486   1.524  16.542
  381TMC3    C5 5734   2.503   1.613  16.642
  381TMC3    C6 5735   2.614   1.688  16.642
  381TMC3     C 5736   2.586   1.376  16.391
  381TMC3     O 5737   2.523   1.295  16.465
  381TMC3     H 5738   2.775   1.568  16.373
  381TMC3    H1 5739   2.403   1.454  16.542
  381TMC3    H2 5740   2.625   1.764  16.719
  381TMC3    C7 5741   2.480   1.563  16.777
  381TMC3    C8 5742   2.838   1.738  16.544
  381TMC3    O1 5743   2.558   1.480  16.813
  381TMC3    O2 5744   2.924   1.686  16.475
  382MPD2     C 5745   2.053   4.081  17.270
  382MPD2    C1 5746   1.984   4.086  17.388
  382MPD2    C2 5747   1.912   3.977  17.442
  382MPD2    C3 5748   1.912   3.858  17.369
  382MPD2    C4 5749   1.988   3.849  17.256
  382MPD2    C5 5750   2.059   3.956  17.206
  382MPD2     H 5751   1.860   3.990  17.536
  382MPD2    H1 5752   1.979   3.759  17.197
  382MPD2    H2 5753   2.122   4.157  17.234
  382MPD2    H3 5754   2.108   3.964  17.109
  382MPD2     N 5755   1.838   3.750  17.413
  382MPD2    H5 5756   1.834   3.663  17.360
  382MPD2    N1 5757   1.960   4.214  17.454
  382MPD2    H7 5758   1.910   4.206  17.542
  383TMC3    C1 5759   1.692   3.614  17.528
  383TMC3    C2 5760   1.646   3.536  17.423
  383TMC3    C3 5761   1.588   3.416  17.449
  383TMC3    C4 5762   1.664   3.569  17.658
  383TMC3    C5 5763   1.603   3.444  17.679
  383TMC3    C6 5764   1.564   3.371  17.578
  383TMC3     C 5765   1.766   3.736  17.523
  383TMC3     O 5766   1.770   3.801  17.624
  383TMC3     H 5767   1.659   3.564  17.319
  383TMC3    H1 5768   1.691   3.626  17.746
  383TMC3    H2 5769   1.511   3.279  17.597
  383TMC3    C7 5770   1.578   3.386  17.810
  383TMC3    C8 5771   1.492   3.366  17.350
  383TMC3    O1 5772   1.579   3.263  17.815
  383TMC3    O2 5773   1.444   3.448  17.274
  384MPD2     C 5774   3.465   0.920  12.336
  384MPD2    C1 5775   3.511   0.834  12.435
  384MPD2    C2 5776   3.635   0.769  12.421
  384MPD2    C3 5777   3.710   0.788  12.301
  384MPD2    C4 5778   3.669   0.876  12.204
  384MPD2    C5 5779   3.548   0.942  12.227
  384MPD2     H 5780   3.670   0.697  12.493
  384MPD2    H1 5781   3.719   0.883  12.108
  384MPD2    H2 5782   3.365   0.961  12.330
  384MPD2    H3 5783   3.510   1.004  12.146
  384MPD2     N 5784   3.823   0.705  12.272
  384MPD2    H5 5785   3.861   0.709  12.178
  384MPD2    N1 5786   3.426   0.814  12.550
  384MPD2    H7 5787   3.327   0.800  12.531
  385TMC3    C1 5788   3.969   0.520  12.311
  385TMC3    C2 5789   3.926   0.455  12.197
  385TMC3    C3 5790   3.926   0.320  12.199
  385TMC3    C4 5791   4.043   0.455  12.406
  385TMC3    C5 5792   4.036   0.320  12.407
  385TMC3    C6 5793   3.987   0.253  12.303
  385TMC3     C 5794   3.899   0.637  12.366
  385TMC3     O 5795   3.881   0.636  12.490
  385TMC3     H 5796   3.854   0.491  12.124
  385TMC3    H1 5797   4.082   0.503  12.495
  385TMC3    H2 5798   4.006   0.148  12.286
  385TMC3    C7 5799   4.010   0.266  12.538
  385TMC3    C8 5800   3.807   0.252  12.159
  385TMC3    O1 5801   4.007   0.337  12.635
  385TMC3    O2 5802   3.758   0.162  12.228
  386TMC3    C1 5803   3.881   2.527  12.240
  386TMC3    C2 5804   3.896   2.564  12.108
  386TMC3    C3 5805   3.829   2.674  12.054
  386TMC3    C4 5806   3.793   2.608  12.312
  386TMC3    C5 5807   3.714   2.704  12.255
  386TMC3    C6 5808   3.730   2.738  12.117
  386TMC3     C 5809   3.991   2.468  12.313
  386TMC3     O 5810   4.031   2.537  12.404
  386TMC3     H 5811   3.976   2.505  12.064
  386TMC3    H1 5812   3.789   2.577  12.416
  386TMC3    H2 5813   3.659   2.796  12.059
  386TMC3    C7 5814   3.589   2.736  12.320
  386TMC3    C8 5815   3.846   2.713  11.912
  386TMC3    O1 5816   3.581   2.712  12.442
  386TMC3    O2 5817   3.809   2.831  11.888
  387MPD2     C 5818   1.228   2.795   9.995
  387MPD2    C1 5819   1.335   2.753  10.062
  387MPD2    C2 5820   1.339   2.623  10.100
  387MPD2    C3 5821   1.234   2.533  10.072
  387MPD2    C4 5822   1.126   2.579  10.001
  387MPD2    C5 5823   1.120   2.715   9.966
  387MPD2     H 5824   1.434   2.587  10.137
  387MPD2    H1 5825   1.046   2.513   9.972
  387MPD2    H2 5826   1.216   2.899   9.966
  387MPD2    H3 5827   1.028   2.750   9.921
  387MPD2     N 5828   1.260   2.400  10.099
  387MPD2    H5 5829   1.339   2.388  10.162
  387MPD2    N1 5830   1.448   2.829  10.094
  387MPD2    H7 5831   1.526   2.781  10.137
  388TMC3    C1 5832   1.601   2.993  10.061
  388TMC3    C2 5833   1.639   3.120  10.094
  388TMC3    C3 5834   1.756   3.138  10.162
  388TMC3    C4 5835   1.688   2.884  10.080
  388TMC3    C5 5836   1.811   2.907  10.140
  388TMC3    C6 5837   1.830   3.029  10.197
  388TMC3     C 5838   1.465   2.960  10.055
  388TMC3     O 5839   1.381   3.042  10.014
  388TMC3     H 5840   1.569   3.197  10.063
  388TMC3    H1 5841   1.670   2.785  10.039
  388TMC3    H2 5842   1.925   3.046  10.247
  388TMC3    C7 5843   1.881   2.789  10.204
  388TMC3    C8 5844   1.793   3.275  10.196
  388TMC3    O1 5845   1.914   2.797  10.322
  388TMC3    O2 5846   1.736   3.364  10.135
  389MPD2     C 5847   0.680   1.155  11.609
  389MPD2    C1 5848   0.599   1.055  11.556
  389MPD2    C2 5849   0.606   0.923  11.605
  389MPD2    C3 5850   0.707   0.897  11.701
  389MPD2    C4 5851   0.790   0.994  11.742
  389MPD2    C5 5852   0.776   1.119  11.695
  389MPD2     H 5853   0.536   0.848  11.570
  389MPD2    H1 5854   0.873   0.980  11.811
  389MPD2    H2 5855   0.677   1.256  11.569
  389MPD2    H3 5856   0.846   1.191  11.734
  389MPD2     N 5857   0.731   0.772  11.755
  389MPD2    H5 5858   0.796   0.772  11.833
  389MPD2    N1 5859   0.508   1.087  11.460
  389MPD2    H7 5860   0.495   1.185  11.437
  390TMC3    C1 5861   0.664   0.565  11.851
  390TMC3    C2 5862   0.586   0.456  11.842
  390TMC3    C3 5863   0.555   0.390  11.959
  390TMC3    C4 5864   0.707   0.616  11.977
  390TMC3    C5 5865   0.651   0.558  12.084
  390TMC3    C6 5866   0.592   0.434  12.084
  390TMC3     C 5867   0.654   0.659  11.742
  390TMC3     O 5868   0.570   0.634  11.657
  390TMC3     H 5869   0.553   0.427  11.743
  390TMC3    H1 5870   0.743   0.717  11.992
  390TMC3    H2 5871   0.564   0.383  12.175
  390TMC3    C7 5872   0.613   0.647  12.195
  390TMC3    C8 5873   0.449   0.292  11.946
  390TMC3    O1 5874   0.705   0.704  12.257
  390TMC3    O2 5875   0.443   0.244  11.834
  391MPD2     C 5876   4.542   2.607  11.554
  391MPD2    C1 5877   4.673   2.563  11.522
  391MPD2    C2 5878   4.719   2.545  11.391
  391MPD2    C3 5879   4.632   2.582  11.289
  391MPD2    C4 5880   4.508   2.629  11.320
  391MPD2    C5 5881   4.467   2.652  11.446
  391MPD2     H 5882   0.037   2.515  11.359
  391MPD2    H1 5883   4.446   2.655  11.235
  391MPD2    H2 5884   4.503   2.626  11.653
  391MPD2    H3 5885   4.369   2.696  11.459
  391MPD2     N 5886   4.678   2.559  11.159
  391MPD2    H5 5887   4.773   2.527  11.141
  391MPD2    N1 5888   4.746   2.527  11.636
  391MPD2    H7 5889   4.713   2.571  11.721
  392TMC3    C1 5890   4.680   2.568  10.930
  392TMC3    C2 5891   4.619   2.551  10.810
  392TMC3    C3 5892   4.678   2.595  10.696
  392TMC3    C4 5893   0.032   2.621  10.934
  392TMC3    C5 5894   0.093   2.660  10.813
  392TMC3    C6 5895   0.027   2.640  10.694
  392TMC3     C 5896   4.600   2.570  11.042
  392TMC3     O 5897   4.481   2.565  11.021
  392TMC3     H 5898   4.516   2.517  10.806
  392TMC3    H1 5899   0.086   2.627  11.028
  392TMC3    H2 5900   0.081   2.630  10.600
  392TMC3    C7 5901   0.236   2.680  10.820
  392TMC3    C8 5902   4.592   2.618  10.579
  392TMC3    O1 5903   0.302   2.638  10.914
  392TMC3    O2 5904   4.479   2.578  10.581
  393TMC3    C1 5905   4.050   0.702  11.152
  393TMC3    C2 5906   3.950   0.738  11.228
  393TMC3    C3 5907   3.926   0.679  11.347
  393TMC3    C4 5908   4.134   0.595  11.183
  393TMC3    C5 5909   4.102   0.521  11.297
  393TMC3    C6 5910   4.010   0.576  11.386
  393TMC3     C 5911   4.030   0.727  11.011
  393TMC3     O 5912   3.914   0.721  10.970
  393TMC3     H 5913   3.877   0.813  11.200
  393TMC3    H1 5914   4.199   0.560  11.103
  393TMC3    H2 5915   3.996   0.526  11.481
  393TMC3    C7 5916   4.092   0.381  11.300
  393TMC3    C8 5917   3.790   0.691  11.407
  393TMC3    O1 5918   3.988   0.334  11.338
  393TMC3    O2 5919   3.703   0.722  11.334
  394TMC3    C1 5920   0.365   1.056  11.275
  394TMC3    C2 5921   0.254   0.984  11.236
  394TMC3    C3 5922   0.251   0.969  11.096
  394TMC3    C4 5923   0.458   1.113  11.191
  394TMC3    C5 5924   0.441   1.091  11.058
  394TMC3    C6 5925   0.341   1.020  11.010
  394TMC3     C 5926   0.420   1.000  11.392
  394TMC3     O 5927   0.399   0.880  11.401
  394TMC3     H 5928   0.195   0.921  11.302
  394TMC3    H1 5929   0.560   1.121  11.226
  394TMC3    H2 5930   0.320   1.009  10.904
  394TMC3    C7 5931   0.563   1.098  10.976
  394TMC3    C8 5932   0.145   0.887  11.046
  394TMC3    O1 5933   0.652   1.165  11.029
  394TMC3    O2 5934   0.033   0.910  11.093
  395TMC3    C1 5935   0.172   2.339  14.908
  395TMC3    C2 5936   0.038   2.351  14.936
  395TMC3    C3 5937   4.766   2.447  15.017
  395TMC3    C4 5938   0.252   2.444  14.935
  395TMC3    C5 5939   0.199   2.554  14.997
  395TMC3    C6 5940   0.071   2.552  15.048
  395TMC3     C 5941   0.211   2.248  14.801
  395TMC3     O 5942   0.287   2.294  14.717
  395TMC3     H 5943   4.761   2.265  14.903
  395TMC3    H1 5944   0.351   2.438  14.892
  395TMC3    H2 5945   0.025   2.636  15.099
  395TMC3    C7 5946   0.284   2.670  15.017
  395TMC3    C8 5947   4.655   2.413  15.100
  395TMC3    O1 5948   0.263   2.750  15.108
  395TMC3    O2 5949   4.633   2.466  15.209
  396MPD2     C 5950   0.050   3.466  17.045
  396MPD2    C1 5951   0.131   3.520  17.146
  396MPD2    C2 5952   0.203   3.632  17.127
  396MPD2    C3 5953   0.196   3.700  17.010
  396MPD2    C4 5954   0.112   3.653  16.912
  396MPD2    C5 5955   0.037   3.538  16.935
  396MPD2     H 5956   0.269   3.667  17.206
  396MPD2    H1 5957   0.090   3.700  16.817
  396MPD2    H2 5958   0.002   3.369  17.049
  396MPD2    H3 5959   4.751   3.504  16.857
  396MPD2     N 5960   0.277   3.809  17.000
  396MPD2    H5 5961   0.336   3.822  17.081
  396MPD2    N1 5962   0.123   3.442  17.264
  396MPD2    H7 5963   0.076   3.352  17.266
  397TMC3    C1 5964   0.190   3.363  17.472
  397TMC3    C2 5965   0.316   3.325  17.488
  397TMC3    C3 5966   0.353   3.199  17.463
  397TMC3    C4 5967   0.096   3.273  17.455
  397TMC3    C5 5968   0.127   3.140  17.463
  397TMC3    C6 5969   0.256   3.096  17.461
  397TMC3     C 5970   0.175   3.481  17.391
  397TMC3     O 5971   0.234   3.584  17.422
  397TMC3     H 5972   0.387   3.405  17.473
  397TMC3    H1 5973   4.777   3.313  17.443
  397TMC3    H2 5974   0.285   2.992  17.450
  397TMC3    C7 5975   0.033   3.036  17.497
  397TMC3    C8 5976   0.448   3.190  17.350
  397TMC3    O1 5977   0.036   2.930  17.439
  397TMC3    O2 5978   0.413   3.121  17.256
  398MPD2     C 5979   3.172   0.143  18.435
  398MPD2    C1 5980   3.252   0.030  18.456
  398MPD2    C2 5981   3.382   0.053  18.494
  398MPD2    C3 5982   3.432   0.172  18.498
  398MPD2    C4 5983   3.349   0.282  18.478
  398MPD2    C5 5984   3.221   0.267  18.453
  398MPD2     H 5985   3.455   4.756  18.515
  398MPD2    H1 5986   3.394   0.380  18.482
  398MPD2    H2 5987   3.066   0.132  18.414
  398MPD2    H3 5988   3.147   0.346  18.445
  398MPD2     N 5989   3.574   0.190  18.531
  398MPD2    H5 5990   3.635   0.110  18.521
  398MPD2    N1 5991   3.196   4.680  18.444
  398MPD2    H7 5992   3.256   4.601  18.468
  399TMC3    C1 5993   3.037   4.510  18.416
  399TMC3    C2 5994   3.116   4.428  18.483
  399TMC3    C3 5995   3.060   4.308  18.514
  399TMC3    C4 5996   2.905   4.481  18.377
  399TMC3    C5 5997   2.851   4.359  18.408
  399TMC3    C6 5998   2.931   4.267  18.473
  399TMC3     C 5999   3.067   4.653  18.388
  399TMC3     O 6000   2.995   4.727  18.326
  399TMC3     H 6001   3.212   4.456  18.524
  399TMC3    H1 6002   2.844   4.555  18.327
  399TMC3    H2 6003   2.900   4.164  18.487
  399TMC3    C7 6004   2.723   4.328  18.351
  399TMC3    C8 6005   3.139   4.207  18.586
  399TMC3    O1 6006   2.698   4.209  18.333
  399TMC3    O2 6007   3.068   4.126  18.640
  400TMC3    C1 6008   1.725   3.238  16.986
  400TMC3    C2 6009   1.596   3.200  16.957
  400TMC3    C3 6010   1.498   3.303  16.940
  400TMC3    C4 6011   1.755   3.371  17.007
  400TMC3    C5 6012   1.658   3.463  16.992
  400TMC3    C6 6013   1.533   3.437  16.957
  400TMC3     C 6014   1.782   3.157  17.085
  400TMC3     O 6015   1.775   3.035  17.069
  400TMC3     H 6016   1.559   3.099  16.968
  400TMC3    H1 6017   1.858   3.402  17.019
  400TMC3    H2 6018   1.461   3.516  16.943
  400TMC3    C7 6019   1.694   3.598  17.036
  400TMC3    C8 6020   1.377   3.276  16.874
  400TMC3    O1 6021   1.810   3.634  17.020
  400TMC3    O2 6022   1.288   3.362  16.875
  401MPD2     C 6023   4.501   1.732  18.638
  401MPD2    C1 6024   4.606   1.649  18.653
  401MPD2    C2 6025   4.607   1.527  18.593
  401MPD2    C3 6026   4.502   1.490  18.514
  401MPD2    C4 6027   4.395   1.576  18.492
  401MPD2    C5 6028   4.401   1.697  18.552
  401MPD2     H 6029   4.699   1.472  18.609
  401MPD2    H1 6030   4.313   1.567  18.422
  401MPD2    H2 6031   4.508   1.835  18.672
  401MPD2    H3 6032   4.317   1.759  18.524
  401MPD2     N 6033   4.511   1.368  18.456
  401MPD2    H5 6034   4.603   1.325  18.457
  401MPD2    N1 6035   4.722   1.681  18.738
  401MPD2    H7 6036   0.000   1.600  18.755
  402TMC3    C1 6037   4.442   1.162  18.362
  402TMC3    C2 6038   4.430   1.077  18.468
  402TMC3    C3 6039   4.512   0.970  18.482
  402TMC3    C4 6040   4.554   1.155  18.286
  402TMC3    C5 6041   4.629   1.043  18.297
  402TMC3    C6 6042   4.607   0.942  18.385
  402TMC3     C 6043   4.403   1.300  18.404
  402TMC3     O 6044   4.284   1.329  18.400
  402TMC3     H 6045   4.343   1.099  18.529
  402TMC3    H1 6046   4.580   1.237  18.220
  402TMC3    H2 6047   4.652   0.844  18.382
  402TMC3    C7 6048   4.743   1.035  18.202
  402TMC3    C8 6049   4.565   0.962  18.619
  402TMC3    O1 6050   4.750   1.117  18.108
  402TMC3    O2 6051   4.643   0.877  18.650
  403MPD2     C 6052   3.362   0.119  13.619
  403MPD2    C1 6053   3.261   0.109  13.711
  403MPD2    C2 6054   3.291   0.097  13.843
  403MPD2    C3 6055   3.422   0.083  13.878
  403MPD2    C4 6056   3.529   0.087  13.788
  403MPD2    C5 6057   3.495   0.116  13.655
  403MPD2     H 6058   3.215   0.096  13.920
  403MPD2    H1 6059   3.631   0.072  13.820
  403MPD2    H2 6060   3.343   0.128  13.513
  403MPD2    H3 6061   3.576   0.124  13.584
  403MPD2     N 6062   3.441   0.047  14.016
  403MPD2    H5 6063   3.362   0.045  14.079
  403MPD2    N1 6064   3.127   0.110  13.664
  403MPD2    H7 6065   3.122   0.106  13.563
  404TMC3    C1 6066   2.896   0.035  13.671
  404TMC3    C2 6067   2.834   4.731  13.747
  404TMC3    C3 6068   2.782   4.616  13.691
  404TMC3    C4 6069   2.892   0.028  13.539
  404TMC3    C5 6070   2.823   4.708  13.473
  404TMC3    C6 6071   2.772   4.601  13.551
  404TMC3     C 6072   3.016   0.095  13.736
  404TMC3     O 6073   3.000   0.116  13.858
  404TMC3     H 6074   2.848   4.725  13.854
  404TMC3    H1 6075   2.934   0.106  13.477
  404TMC3    H2 6076   2.743   4.508  13.503
  404TMC3    C7 6077   2.817   4.705  13.329
  404TMC3    C8 6078   2.786   4.493  13.766
  404TMC3    O1 6079   2.900   4.774  13.272
  404TMC3    O2 6080   2.801   4.388  13.701
  405MPD2     C 6081   3.452   0.634  15.145
  405MPD2    C1 6082   3.386   0.570  15.043
  405MPD2    C2 6083   3.271   0.627  14.988
  405MPD2    C3 6084   3.218   0.737  15.039
  405MPD2    C4 6085   3.274   0.799  15.147
  405MPD2    C5 6086   3.393   0.749  15.193
  405MPD2     H 6087   3.214   0.582  14.907
  405MPD2    H1 6088   3.226   0.883  15.195
  405MPD2    H2 6089   3.536   0.590  15.198
  405MPD2    H3 6090   3.451   0.803  15.268
  405MPD2     N 6091   3.092   0.773  14.985
  405MPD2    H5 6092   3.053   0.708  14.918
  405MPD2    N1 6093   3.429   0.442  15.013
  405MPD2    H7 6094   3.498   0.406  15.077
  406TMC3    C1 6095   2.656   0.923  14.943
  406TMC3    C2 6096   2.618   0.796  14.936
  406TMC3    C3 6097   2.711   0.695  14.945
  406TMC3    C4 6098   2.793   0.954  14.970
  406TMC3    C5 6099   2.877   0.849  14.988
  406TMC3    C6 6100   2.843   0.712  14.974
  406TMC3     C 6101   2.573   1.020  14.866
  406TMC3     O 6102   2.590   1.141  14.898
  406TMC3     H 6103   2.516   0.762  14.920
  406TMC3    H1 6104   2.827   1.057  14.974
  406TMC3    H2 6105   2.909   0.632  15.006
  406TMC3    C7 6106   3.019   0.882  15.019
  406TMC3    C8 6107   2.666   0.559  14.897
  406TMC3    O1 6108   3.047   0.987  15.081
  406TMC3    O2 6109   2.570   0.558  14.823
  407MPD2     C 6110   0.705   1.976   9.889
  407MPD2    C1 6111   0.798   2.067   9.924
  407MPD2    C2 6112   0.773   2.149  10.035
  407MPD2    C3 6113   0.654   2.134  10.107
  407MPD2    C4 6114   0.565   2.038  10.070
  407MPD2    C5 6115   0.590   1.963   9.961
  407MPD2     H 6116   0.850   2.219  10.067
  407MPD2    H1 6117   0.470   2.024  10.121
  407MPD2    H2 6118   0.722   1.902   9.812
  407MPD2    H3 6119   0.521   1.888   9.925
  407MPD2     N 6120   0.629   2.204  10.230
  407MPD2    H5 6121   0.548   2.172  10.283
  407MPD2    N1 6122   0.919   2.079   9.863
  407MPD2    H7 6123   0.986   2.145   9.899
  408TMC3    C1 6124   1.102   2.052   9.705
  408TMC3    C2 6125   1.213   1.969   9.697
  408TMC3    C3 6126   1.335   2.024   9.682
  408TMC3    C4 6127   1.110   2.187   9.688
  408TMC3    C5 6128   1.234   2.242   9.682
  408TMC3    C6 6129   1.348   2.162   9.674
  408TMC3     C 6130   0.973   1.998   9.759
  408TMC3     O 6131   0.934   1.890   9.715
  408TMC3     H 6132   1.208   1.861   9.704
  408TMC3    H1 6133   1.026   2.252   9.710
  408TMC3    H2 6134   1.446   2.206   9.662
  408TMC3    C7 6135   1.260   2.383   9.698
  408TMC3    C8 6136   1.449   1.950   9.736
  408TMC3    O1 6137   1.371   2.417   9.726
  408TMC3    O2 6138   1.426   1.837   9.777
  409MPD2     C 6139   0.473   2.531  16.841
  409MPD2    C1 6140   0.500   2.572  16.973
  409MPD2    C2 6141   0.551   2.698  16.984
  409MPD2    C3 6142   0.569   2.793  16.882
  409MPD2    C4 6143   0.542   2.746  16.750
  409MPD2    C5 6144   0.497   2.615  16.733
  409MPD2     H 6145   0.592   2.726  17.080
  409MPD2    H1 6146   0.562   2.801  16.658
  409MPD2    H2 6147   0.442   2.431  16.813
  409MPD2    H3 6148   0.494   2.571  16.634
  409MPD2     N 6149   0.615   2.926  16.895
  409MPD2    H5 6150   0.622   2.976  16.807
  409MPD2    N1 6151   0.484   2.495  17.090
  409MPD2    H7 6152   0.522   2.532  17.177
  410TMC3    C1 6153   0.708   3.123  16.994
  410TMC3    C2 6154   0.809   3.157  17.082
  410TMC3    C3 6155   0.888   3.264  17.058
  410TMC3    C4 6156   0.673   3.199  16.890
  410TMC3    C5 6157   0.753   3.309  16.873
  410TMC3    C6 6158   0.860   3.345  16.954
  410TMC3     C 6159   0.642   2.989  17.014
  410TMC3     O 6160   0.649   2.943  17.126
  410TMC3     H 6161   0.829   3.101  17.173
  410TMC3    H1 6162   0.581   3.179  16.836
  410TMC3    H2 6163   0.927   3.429  16.938
  410TMC3    C7 6164   0.722   3.382  16.747
  410TMC3    C8 6165   1.021   3.273  17.125
  410TMC3    O1 6166   0.640   3.330  16.674
  410TMC3    O2 6167   1.075   3.382  17.108
  411MPD2     C 6168   0.712   3.420  14.643
  411MPD2    C1 6169   0.656   3.460  14.763
  411MPD2    C2 6170   0.575   3.373  14.827
  411MPD2    C3 6171   0.547   3.246  14.774
  411MPD2    C4 6172   0.597   3.210  14.651
  411MPD2    C5 6173   0.685   3.298  14.590
  411MPD2     H 6174   0.521   3.404  14.915
  411MPD2    H1 6175   0.604   3.108  14.616
  411MPD2    H2 6176   0.779   3.498  14.610
  411MPD2    H3 6177   0.739   3.256  14.506
  411MPD2     N 6178   0.440   3.163  14.817
  411MPD2    H5 6179   0.419   3.074  14.772
  411MPD2    N1 6180   0.678   3.592  14.811
  411MPD2    H7 6181   0.722   3.661  14.750
  412TMC3    C1 6182   0.246   3.089  14.923
  412TMC3    C2 6183   0.132   3.135  14.983
  412TMC3    C3 6184   0.015   3.078  14.934
  412TMC3    C4 6185   0.246   2.994  14.830
  412TMC3    C5 6186   0.133   2.936  14.790
  412TMC3    C6 6187   0.014   2.973  14.847
  412TMC3     C 6188   0.355   3.185  14.921
  412TMC3     O 6189   0.363   3.269  15.007
  412TMC3     H 6190   0.136   3.229  15.037
  412TMC3    H1 6191   0.336   2.945  14.793
  412TMC3    H2 6192   4.707   2.926  14.805
  412TMC3    C7 6193   0.128   2.829  14.688
  412TMC3    C8 6194   4.688   3.176  14.926
  412TMC3    O1 6195   0.063   2.735  14.726
  412TMC3    O2 6196   4.716   3.293  14.949
  413MPD2     C 6197   2.693   2.106  15.675
  413MPD2    C1 6198   2.589   2.041  15.604
  413MPD2    C2 6199   2.616   1.927  15.531
  413MPD2    C3 6200   2.742   1.866  15.540
  413MPD2    C4 6201   2.841   1.930  15.608
  413MPD2    C5 6202   2.818   2.049  15.675
  413MPD2     H 6203   2.540   1.868  15.480
  413MPD2    H1 6204   2.939   1.884  15.612
  413MPD2    H2 6205   2.682   2.191  15.742
  413MPD2    H3 6206   2.898   2.086  15.737
  413MPD2     N 6207   2.765   1.738  15.477
  413MPD2    H5 6208   2.695   1.715  15.407
  413MPD2    N1 6209   2.452   2.087  15.619
  413MPD2    H7 6210   2.436   2.149  15.698
  414TMC3    C1 6211   2.889   1.536  15.427
  414TMC3    C2 6212   2.965   1.434  15.475
  414TMC3    C3 6213   2.985   1.322  15.400
  414TMC3    C4 6214   2.832   1.518  15.299
  414TMC3    C5 6215   2.883   1.422  15.219
  414TMC3    C6 6216   2.951   1.316  15.270
  414TMC3     C 6217   2.874   1.654  15.513
  414TMC3     O 6218   2.937   1.656  15.616
  414TMC3     H 6219   2.993   1.441  15.580
  414TMC3    H1 6220   2.787   1.605  15.253
  414TMC3    H2 6221   2.984   1.224  15.224
  414TMC3    C7 6222   2.805   1.406  15.092
  414TMC3    C8 6223   3.078   1.227  15.444
  414TMC3    O1 6224   2.692   1.447  15.099
  414TMC3    O2 6225   3.069   1.115  15.401
  415TMC3    C1 6226   3.427   4.276  10.405
  415TMC3    C2 6227   3.495   4.351  10.314
  415TMC3    C3 6228   3.562   4.287  10.214
  415TMC3    C4 6229   3.438   4.142  10.393
  415TMC3    C5 6230   3.507   4.082  10.295
  415TMC3    C6 6231   3.576   4.149  10.207
  415TMC3     C 6232   3.375   4.327  10.528
  415TMC3     O 6233   3.291   4.252  10.576
  415TMC3     H 6234   3.493   4.459  10.312
  415TMC3    H1 6235   3.375   4.079  10.456
  415TMC3    H2 6236   3.615   4.106  10.116
  415TMC3    C7 6237   3.445   3.956  10.253
  415TMC3    C8 6238   3.612   4.358  10.096
  415TMC3    O1 6239   3.430   3.943  10.132
  415TMC3    O2 6240   3.632   4.284   9.999
  416MPD2     C 6241   0.238   3.340  12.026
  416MPD2    C1 6242   0.113   3.355  11.957
  416MPD2    C2 6243   0.110   3.297  11.832
  416MPD2    C3 6244   0.228   3.241  11.776
  416MPD2    C4 6245   0.335   3.214  11.854
  416MPD2    C5 6246   0.342   3.266  11.980
  416MPD2     H 6247   0.023   3.316  11.770
  416MPD2    H1 6248   0.421   3.173  11.802
  416MPD2    H2 6249   0.248   3.397  12.117
  416MPD2    H3 6250   0.437   3.272  12.032
  416MPD2     N 6251   0.220   3.190  11.648
  416MPD2    H5 6252   0.302   3.131  11.637
  416MPD2    N1 6253   4.778   3.409  12.019
  416MPD2    H7 6254   0.015   3.431  12.117
  417TMC3    C1 6255   4.578   3.518  12.063
  417TMC3    C2 6256   4.613   3.504  12.198
  417TMC3    C3 6257   4.573   3.609  12.288
  417TMC3    C4 6258   4.504   3.621  12.015
  417TMC3    C5 6259   4.474   3.720  12.103
  417TMC3    C6 6260   4.502   3.716  12.244
  417TMC3     C 6261   4.659   3.441  11.964
  417TMC3     O 6262   4.612   3.426  11.849
  417TMC3     H 6263   4.655   3.414  12.241
  417TMC3    H1 6264   4.468   3.629  11.913
  417TMC3    H2 6265   4.485   3.797  12.315
  417TMC3    C7 6266   4.364   3.807  12.070
  417TMC3    C8 6267   4.568   3.598  12.432
  417TMC3    O1 6268   4.338   3.830  11.952
  417TMC3    O2 6269   4.601   3.696  12.493
  418TMC3    C1 6270   3.973   0.372  18.499
  418TMC3    C2 6271   3.849   0.310  18.494
  418TMC3    C3 6272   3.771   0.302  18.605
  418TMC3    C4 6273   4.018   0.423  18.620
  418TMC3    C5 6274   3.929   0.428  18.724
  418TMC3    C6 6275   3.808   0.360  18.720
  418TMC3     C 6276   4.035   0.406  18.379
  418TMC3     O 6277   4.089   0.517  18.375
  418TMC3     H 6278   3.817   0.292  18.392
  418TMC3    H1 6279   4.107   0.484  18.626
  418TMC3    H2 6280   3.741   0.367  18.805
  418TMC3    C7 6281   3.956   0.524  18.831
  418TMC3    C8 6282   3.628   0.304  18.582
  418TMC3    O1 6283   4.010   0.627  18.797
  418TMC3    O2 6284   3.573   0.413  18.608
  419MPD2     C 6285   2.295   3.313  13.165
  419MPD2    C1 6286   2.258   3.424  13.084
  419MPD2    C2 6287   2.201   3.532  13.150
  419MPD2    C3 6288   2.173   3.526  13.283
  419MPD2    C4 6289   2.208   3.413  13.357
  419MPD2    C5 6290   2.265   3.312  13.296
  419MPD2     H 6291   2.149   3.604  13.087
  419MPD2    H1 6292   2.186   3.399  13.462
  419MPD2    H2 6293   2.338   3.224  13.119
  419MPD2    H3 6294   2.291   3.226  13.357
  419MPD2     N 6295   2.110   3.645  13.330
  419MPD2    H5 6296   2.094   3.727  13.272
  419MPD2    N1 6297   2.272   3.439  12.946
  419MPD2    H7 6298   2.219   3.509  12.895
  420TMC3    C1 6299   2.000   3.778  13.490
  420TMC3    C2 6300   1.909   3.816  13.389
  420TMC3    C3 6301   1.832   3.923  13.425
  420TMC3    C4 6302   2.005   3.841  13.609
  420TMC3    C5 6303   1.912   3.928  13.647
  420TMC3    C6 6304   1.832   3.989  13.548
  420TMC3     C 6305   2.079   3.658  13.466
  420TMC3     O 6306   2.085   3.583  13.561
  420TMC3     H 6307   1.904   3.771  13.290
  420TMC3    H1 6308   2.081   3.808  13.679
  420TMC3    H2 6309   1.775   4.080  13.561
  420TMC3    C7 6310   1.829   3.843  13.727
  420TMC3    C8 6311   1.709   3.939  13.352
  420TMC3    O1 6312   1.882   3.751  13.782
  420TMC3    O2 6313   1.691   4.040  13.282
  421TMC3    C1 6314   3.541   4.720  14.202
  421TMC3    C2 6315   3.481   0.010  14.295
  421TMC3    C3 6316   3.488   4.746  14.424
  421TMC3    C4 6317   3.615   4.604  14.234
  421TMC3    C5 6318   3.627   4.565  14.363
  421TMC3    C6 6319   3.560   4.638  14.461
  421TMC3     C 6320   3.554   4.768  14.060
  421TMC3     O 6321   3.657   4.736  14.002
  421TMC3     H 6322   3.438   0.108  14.278
  421TMC3    H1 6323   3.670   4.563  14.150
  421TMC3    H2 6324   3.576   4.625  14.567
  421TMC3    C7 6325   3.743   4.491  14.396
  421TMC3    C8 6326   3.532   0.085  14.511
  421TMC3    O1 6327   3.841   4.517  14.324
  421TMC3    O2 6328   3.642   0.073  14.565
  422TMC3    C1 6329   0.865   1.666  13.126
  422TMC3    C2 6330   0.829   1.786  13.175
  422TMC3    C3 6331   0.697   1.813  13.210
  422TMC3    C4 6332   0.780   1.566  13.102
  422TMC3    C5 6333   0.645   1.591  13.135
  422TMC3    C6 6334   0.601   1.710  13.187
  422TMC3     C 6335   0.996   1.649  13.065
  422TMC3     O 6336   1.056   1.751  13.032
  422TMC3     H 6337   0.906   1.863  13.172
  422TMC3    H1 6338   0.810   1.477  13.047
  422TMC3    H2 6339   0.493   1.722  13.193
  422TMC3    C7 6340   0.545   1.489  13.092
  422TMC3    C8 6341   0.654   1.947  13.223
  422TMC3    O1 6342   0.591   1.410  13.016
  422TMC3    O2 6343   0.738   2.031  13.198
  423MPD2     C 6344   2.421   2.763  18.700
  423MPD2    C1 6345   2.347   2.652  18.720
  423MPD2    C2 6346   2.282   2.585  18.616
  423MPD2    C3 6347   2.313   2.616  18.479
  423MPD2    C4 6348   2.387   2.732  18.464
  423MPD2    C5 6349   2.440   2.800  18.571
  423MPD2     H 6350   2.229   2.494  18.640
  423MPD2    H1 6351   2.418   2.769  18.367
  423MPD2    H2 6352   2.473   2.825  18.771
  423MPD2    H3 6353   2.480   2.896  18.542
  423MPD2     N 6354   2.266   2.550  18.366
  423MPD2    H5 6355   2.318   2.575  18.282
  423MPD2    N1 6356   2.318   2.606  18.852
  423MPD2    H7 6357   2.232   2.554  18.868
  424TMC3    C1 6358   2.339   2.579  19.070
  424TMC3    C2 6359   2.419   2.528  19.166
  424TMC3    C3 6360   2.360   2.459  19.266
  424TMC3    C4 6361   2.200   2.571  19.080
  424TMC3    C5 6362   2.141   2.511  19.187
  424TMC3    C6 6363   2.220   2.451  19.281
  424TMC3     C 6364   2.396   2.639  18.958
  424TMC3     O 6365   2.512   2.680  18.964
  424TMC3     H 6366   2.526   2.528  19.146
  424TMC3    H1 6367   2.135   2.630  19.017
  424TMC3    H2 6368   2.168   2.434  19.375
  424TMC3    C7 6369   2.001   2.508  19.210
  424TMC3    C8 6370   2.434   2.385  19.359
  424TMC3    O1 6371   1.967   2.518  19.329
  424TMC3    O2 6372   2.375   2.296  19.415
  425MPD2     C 6373   1.519   1.740  17.967
  425MPD2    C1 6374   1.482   1.671  17.854
  425MPD2    C2 6375   1.350   1.681  17.815
  425MPD2    C3 6376   1.260   1.760  17.884
  425MPD2    C4 6377   1.299   1.817  17.996
  425MPD2    C5 6378   1.429   1.819  18.030
  425MPD2     H 6379   1.313   1.626  17.729
  425MPD2    H1 6380   1.226   1.867  18.059
  425MPD2    H2 6381   1.621   1.745  18.003
  425MPD2    H3 6382   1.464   1.873  18.118
  425MPD2     N 6383   1.127   1.755  17.834
  425MPD2    H5 6384   1.113   1.721  17.739
  425MPD2    N1 6385   1.581   1.588  17.789
  425MPD2    H7 6386   1.677   1.612  17.812
  426TMC3    C1 6387   1.662   1.430  17.643
  426TMC3    C2 6388   1.665   1.372  17.520
  426TMC3    C3 6389   1.755   1.273  17.495
  426TMC3    C4 6390   1.751   1.395  17.736
  426TMC3    C5 6391   1.841   1.301  17.714
  426TMC3    C6 6392   1.844   1.231  17.594
  426TMC3     C 6393   1.549   1.507  17.681
  426TMC3     O 6394   1.461   1.512  17.597
  426TMC3     H 6395   1.605   1.414  17.440
  426TMC3    H1 6396   1.721   1.409  17.839
  426TMC3    H2 6397   1.907   1.144  17.583
  426TMC3    C7 6398   1.879   1.221  17.831
  426TMC3    C8 6399   1.715   1.166  17.405
  426TMC3    O1 6400   1.990   1.217  17.876
  426TMC3    O2 6401   1.806   1.090  17.374
  427MPD2     C 6402   4.481   3.365  15.201
  427MPD2    C1 6403   4.501   3.414  15.326
  427MPD2    C2 6404   4.398   3.492  15.382
  427MPD2    C3 6405   4.288   3.530  15.310
  427MPD2    C4 6406   4.274   3.479  15.186
  427MPD2    C5 6407   4.369   3.397  15.132
  427MPD2     H 6408   4.398   3.530  15.484
  427MPD2    H1 6409   4.182   3.495  15.132
  427MPD2    H2 6410   4.548   3.295  15.152
  427MPD2    H3 6411   4.360   3.359  15.031
  427MPD2     N 6412   4.174   3.597  15.361
  427MPD2    H5 6413   4.106   3.631  15.294
  427MPD2    N1 6414   4.607   3.362  15.407
  427MPD2    H7 6415   4.625   3.418  15.490
  428TMC3    C1 6416   4.780   3.228  15.480
  428TMC3    C2 6417   0.018   3.098  15.514
  428TMC3    C3 6418   0.115   3.066  15.608
  428TMC3    C4 6419   0.089   3.325  15.519
  428TMC3    C5 6420   0.189   3.288  15.604
  428TMC3    C6 6421   0.201   3.159  15.653
  428TMC3     C 6422   4.684   3.255  15.380
  428TMC3     O 6423   4.670   3.177  15.287
  428TMC3     H 6424   4.723   3.025  15.486
  428TMC3    H1 6425   0.087   3.427  15.481
  428TMC3    H2 6426   0.290   3.131  15.708
  428TMC3    C7 6427   0.303   3.361  15.640
  428TMC3    C8 6428   0.123   2.927  15.649
  428TMC3    O1 6429   0.345   3.354  15.754
  428TMC3    O2 6430   0.045   2.846  15.601
  429MPD2     C 6431   0.640   3.601  17.962
  429MPD2    C1 6432   0.748   3.527  17.907
  429MPD2    C2 6433   0.838   3.595  17.827
  429MPD2    C3 6434   0.830   3.736  17.817
  429MPD2    C4 6435   0.730   3.803  17.887
  429MPD2    C5 6436   0.628   3.732  17.953
  429MPD2     H 6437   0.923   3.548  17.779
  429MPD2    H1 6438   0.715   3.910  17.880
  429MPD2    H2 6439   0.578   3.556  18.038
  429MPD2    H3 6440   0.556   3.791  18.009
  429MPD2     N 6441   0.923   3.798  17.728
  429MPD2    H5 6442   0.993   3.739  17.683
  429MPD2    N1 6443   0.764   3.389  17.926
  429MPD2    H7 6444   0.851   3.344  17.899
  430TMC3    C1 6445   1.034   3.982  17.624
  430TMC3    C2 6446   1.009   4.101  17.559
  430TMC3    C3 6447   1.111   4.168  17.493
  430TMC3    C4 6448   1.157   3.919  17.611
  430TMC3    C5 6449   1.258   3.993  17.554
  430TMC3    C6 6450   1.234   4.116  17.499
  430TMC3     C 6451   0.929   3.937  17.712
  430TMC3     O 6452   0.870   4.024  17.770
  430TMC3     H 6453   0.915   4.155  17.563
  430TMC3    H1 6454   1.181   3.819  17.645
  430TMC3    H2 6455   1.310   4.188  17.472
  430TMC3    C7 6456   1.363   3.910  17.505
  430TMC3    C8 6457   1.077   4.215  17.366
  430TMC3    O1 6458   1.339   3.793  17.505
  430TMC3    O2 6459   0.995   4.157  17.297
  431MPD2     C 6460   1.818   3.842  13.024
  431MPD2    C1 6461   1.900   3.860  12.914
  431MPD2    C2 6462   1.910   3.757  12.824
  431MPD2    C3 6463   1.835   3.646  12.830
  431MPD2    C4 6464   1.763   3.617  12.952
  431MPD2    C5 6465   1.758   3.713  13.045
  431MPD2     H 6466   1.978   3.769  12.740
  431MPD2    H1 6467   1.705   3.528  12.973
  431MPD2    H2 6468   1.799   3.923  13.094
  431MPD2    H3 6469   1.697   3.692  13.132
  431MPD2     N 6470   1.859   3.528  12.756
  431MPD2    H5 6471   1.824   3.439  12.789
  431MPD2    N1 6472   1.982   3.975  12.890
  431MPD2    H7 6473   2.022   3.995  12.799
  432TMC3    C1 6474   2.005   3.394  12.638
  432TMC3    C2 6475   2.060   3.362  12.519
  432TMC3    C3 6476   2.194   3.327  12.514
  432TMC3    C4 6477   2.079   3.379  12.752
  432TMC3    C5 6478   2.217   3.340  12.739
  432TMC3    C6 6479   2.271   3.308  12.625
  432TMC3     C 6480   1.935   3.521  12.643
  432TMC3     O 6481   1.960   3.612  12.566
  432TMC3     H 6482   2.004   3.366  12.426
  432TMC3    H1 6483   2.044   3.398  12.853
  432TMC3    H2 6484   2.376   3.281  12.629
  432TMC3    C7 6485   2.303   3.332  12.860
  432TMC3    C8 6486   2.251   3.295  12.386
  432TMC3    O1 6487   2.359   3.228  12.875
  432TMC3    O2 6488   2.188   3.242  12.296
  433MPD2     C 6489   0.950   2.508  11.179
  433MPD2    C1 6490   0.867   2.463  11.279
  433MPD2    C2 6491   0.886   2.498  11.412
  433MPD2    C3 6492   0.991   2.585  11.432
  433MPD2    C4 6493   1.081   2.618  11.334
  433MPD2    C5 6494   1.056   2.580  11.213
  433MPD2     H 6495   0.820   2.477  11.495
  433MPD2    H1 6496   1.163   2.684  11.359
  433MPD2    H2 6497   0.920   2.468  11.083
  433MPD2    H3 6498   1.125   2.604  11.133
  433MPD2     N 6499   1.006   2.614  11.568
  433MPD2    H5 6500   0.949   2.568  11.638
  433MPD2    N1 6501   0.759   2.374  11.240
  433MPD2    H7 6502   0.748   2.342  11.144
  434TMC3    C1 6503   0.579   2.226  11.274
  434TMC3    C2 6504   0.569   2.125  11.363
  434TMC3    C3 6505   0.596   1.998  11.313
  434TMC3    C4 6506   0.573   2.201  11.137
  434TMC3    C5 6507   0.567   2.073  11.096
  434TMC3    C6 6508   0.577   1.965  11.187
  434TMC3     C 6509   0.661   2.337  11.325
  434TMC3     O 6510   0.636   2.366  11.441
  434TMC3     H 6511   0.591   2.141  11.468
  434TMC3    H1 6512   0.566   2.284  11.068
  434TMC3    H2 6513   0.581   1.863  11.150
  434TMC3    C7 6514   0.613   2.050  10.963
  434TMC3    C8 6515   0.689   1.927  11.399
  434TMC3    O1 6516   0.695   2.129  10.917
  434TMC3    O2 6517   0.707   1.959  11.515
  435MPD2     C 6518   2.998   2.355  15.615
  435MPD2    C1 6519   2.955   2.374  15.743
  435MPD2    C2 6520   3.038   2.337  15.847
  435MPD2    C3 6521   3.173   2.306  15.823
  435MPD2    C4 6522   3.203   2.275  15.689
  435MPD2    C5 6523   3.114   2.294  15.590
  435MPD2     H 6524   3.002   2.343  15.949
  435MPD2    H1 6525   3.298   2.229  15.663
  435MPD2    H2 6526   2.942   2.381  15.526
  435MPD2    H3 6527   3.137   2.264  15.488
  435MPD2     N 6528   3.250   2.284  15.932
  435MPD2    H5 6529   3.206   2.297  16.022
  435MPD2    N1 6530   2.825   2.418  15.776
  435MPD2    H7 6531   2.804   2.421  15.875
  436TMC3    C1 6532   2.496   2.520  15.975
  436TMC3    C2 6533   2.610   2.507  15.899
  436TMC3    C3 6534   2.601   2.479  15.761
  436TMC3    C4 6535   2.374   2.506  15.911
  436TMC3    C5 6536   2.368   2.471  15.775
  436TMC3    C6 6537   2.483   2.461  15.703
  436TMC3     C 6538   2.508   2.576  16.111
  436TMC3     O 6539   2.620   2.621  16.132
  436TMC3     H 6540   2.702   2.534  15.950
  436TMC3    H1 6541   2.285   2.514  15.973
  436TMC3    H2 6542   2.475   2.442  15.597
  436TMC3    C7 6543   2.242   2.445  15.703
  436TMC3    C8 6544   2.724   2.462  15.689
  436TMC3    O1 6545   2.253   2.415  15.586
  436TMC3    O2 6546   2.732   2.481  15.570
  437TMC3    C1 6547   1.645   4.474  12.804
  437TMC3    C2 6548   1.554   4.571  12.824
  437TMC3    C3 6549   1.484   4.614  12.712
  437TMC3    C4 6550   1.669   4.427  12.681
  437TMC3    C5 6551   1.605   4.474  12.568
  437TMC3    C6 6552   1.507   4.573  12.584
  437TMC3     C 6553   1.768   4.474  12.883
  437TMC3     O 6554   1.857   4.526  12.820
  437TMC3     H 6555   1.548   4.620  12.921
  437TMC3    H1 6556   1.756   4.363  12.680
  437TMC3    H2 6557   1.464   4.614  12.494
  437TMC3    C7 6558   1.700   4.519  12.468
  437TMC3    C8 6559   1.378   4.710  12.734
  437TMC3    O1 6560   1.662   4.536  12.355
  437TMC3    O2 6561   1.340   4.764  12.634
  438MPD2     C 6562   3.864   0.511  17.190
  438MPD2    C1 6563   3.957   0.419  17.234
  438MPD2    C2 6564   3.941   0.352  17.353
  438MPD2    C3 6565   3.842   0.390  17.438
  438MPD2    C4 6566   3.748   0.487  17.395
  438MPD2    C5 6567   3.763   0.543  17.271
  438MPD2     H 6568   4.019   0.279  17.371
  438MPD2    H1 6569   3.666   0.535  17.448
  438MPD2    H2 6570   3.869   0.553  17.090
  438MPD2    H3 6571   3.685   0.602  17.225
  438MPD2     N 6572   3.810   0.334  17.564
  438MPD2    H5 6573   3.718   0.359  17.598
  438MPD2    N1 6574   4.061   0.363  17.156
  438MPD2    H7 6575   4.123   0.293  17.195
  439TMC3    C1 6576   4.212   0.324  16.970
  439TMC3    C2 6577   4.212   0.302  16.836
  439TMC3    C3 6578   4.280   0.190  16.787
  439TMC3    C4 6579   4.271   0.235  17.052
  439TMC3    C5 6580   4.341   0.130  17.000
  439TMC3    C6 6581   4.357   0.114  16.866
  439TMC3     C 6582   4.094   0.397  17.029
  439TMC3     O 6583   4.033   0.461  16.949
  439TMC3     H 6584   4.151   0.367  16.775
  439TMC3    H1 6585   4.280   0.257  17.158
  439TMC3    H2 6586   4.422   0.049  16.808
  439TMC3    C7 6587   4.424   0.046  17.087
  439TMC3    C8 6588   4.258   0.131  16.656
  439TMC3    O1 6589   4.455   0.105  17.191
  439TMC3    O2 6590   4.270   0.011  16.642
  440MPD2     C 6591   2.763   0.693  15.279
  440MPD2    C1 6592   2.850   0.789  15.329
  440MPD2    C2 6593   2.972   0.749  15.377
  440MPD2    C3 6594   3.006   0.614  15.382
  440MPD2    C4 6595   2.923   0.522  15.316
  440MPD2    C5 6596   2.798   0.563  15.278
  440MPD2     H 6597   3.041   0.827  15.405
  440MPD2    H1 6598   2.958   0.420  15.302
  440MPD2    H2 6599   2.666   0.717  15.237
  440MPD2    H3 6600   2.725   0.495  15.236
  440MPD2     N 6601   3.140   0.562  15.419
  440MPD2    H5 6602   3.152   0.461  15.413
  440MPD2    N1 6603   2.827   0.929  15.333
  440MPD2    H7 6604   2.901   0.989  15.368
  441TMC3    C1 6605   3.344   0.574  15.539
  441TMC3    C2 6606   3.442   0.668  15.561
  441TMC3    C3 6607   3.497   0.673  15.685
  441TMC3    C4 6608   3.300   0.491  15.634
  441TMC3    C5 6609   3.359   0.493  15.755
  441TMC3    C6 6610   3.456   0.587  15.784
  441TMC3     C 6611   3.235   0.643  15.471
  441TMC3     O 6612   3.237   0.762  15.502
  441TMC3     H 6613   3.484   0.735  15.486
  441TMC3    H1 6614   3.221   0.422  15.607
  441TMC3    H2 6615   3.502   0.608  15.880
  441TMC3    C7 6616   3.289   0.415  15.853
  441TMC3    C8 6617   3.514   0.812  15.738
  441TMC3    O1 6618   3.179   0.377  15.832
  441TMC3    O2 6619   3.573   0.827  15.844
  442MPD2     C 6620   1.047   1.226  16.920
  442MPD2    C1 6621   0.935   1.199  16.852
  442MPD2    C2 6622   0.913   1.071  16.798
  442MPD2    C3 6623   1.020   0.985  16.796
  442MPD2    C4 6624   1.140   1.020  16.865
  442MPD2    C5 6625   1.154   1.141  16.922
  442MPD2     H 6626   0.817   1.045  16.754
  442MPD2    H1 6627   1.232   0.963  16.869
  442MPD2    H2 6628   1.064   1.322  16.968
  442MPD2    H3 6629   1.250   1.162  16.967
  442MPD2     N 6630   1.028   0.863  16.727
  442MPD2    H5 6631   1.115   0.810  16.729
  442MPD2    N1 6632   0.831   1.294  16.859
  442MPD2    H7 6633   0.740   1.249  16.850
  443TMC3    C1 6634   0.729   1.508  16.893
  443TMC3    C2 6635   0.715   1.619  16.819
  443TMC3    C3 6636   0.590   1.659  16.783
  443TMC3    C4 6637   0.621   1.438  16.946
  443TMC3    C5 6638   0.501   1.503  16.926
  443TMC3    C6 6639   0.477   1.604  16.845
  443TMC3     C 6640   0.847   1.434  16.875
  443TMC3     O 6641   0.955   1.497  16.854
  443TMC3     H 6642   0.796   1.665  16.764
  443TMC3    H1 6643   0.632   1.356  17.015
  443TMC3    H2 6644   0.376   1.637  16.822
  443TMC3    C7 6645   0.389   1.443  16.997
  443TMC3    C8 6646   0.575   1.637  16.639
  443TMC3    O1 6647   0.379   1.322  16.992
  443TMC3    O2 6648   0.673   1.598  16.575
  444MPD2     C 6649   1.403   0.666  17.390
  444MPD2    C1 6650   1.306   0.578  17.342
  444MPD2    C2 6651   1.344   0.476  17.262
  444MPD2    C3 6652   1.480   0.455  17.230
  444MPD2    C4 6653   1.572   0.545  17.277
  444MPD2    C5 6654   1.535   0.646  17.361
  444MPD2     H 6655   1.268   0.408  17.226
  444MPD2    H1 6656   1.678   0.548  17.252
  444MPD2    H2 6657   1.380   0.752  17.452
  444MPD2    H3 6658   1.606   0.714  17.407
  444MPD2     N 6659   1.501   0.356  17.137
  444MPD2    H5 6660   1.419   0.299  17.120
  444MPD2    N1 6661   1.171   0.586  17.390
  444MPD2    H7 6662   1.107   0.513  17.360
  445TMC3    C1 6663   1.624   0.207  16.993
  445TMC3    C2 6664   1.504   0.155  16.945
  445TMC3    C3 6665   1.506   0.056  16.849
  445TMC3    C4 6666   1.743   0.149  16.964
  445TMC3    C5 6667   1.745   0.035  16.884
  445TMC3    C6 6668   1.625   4.772  16.826
  445TMC3     C 6669   1.629   0.314  17.092
  445TMC3     O 6670   1.740   0.349  17.132
  445TMC3     H 6671   1.405   0.190  16.970
  445TMC3    H1 6672   1.834   0.173  17.018
  445TMC3    H2 6673   1.635   4.696  16.749
  445TMC3    C7 6674   1.867   4.766  16.839
  445TMC3    C8 6675   1.386   0.038  16.767
  445TMC3    O1 6676   1.961   0.061  16.855
  445TMC3    O2 6677   1.284   0.092  16.814
  446MPD2     C 6678   0.562   1.747  11.949
  446MPD2    C1 6679   0.515   1.837  11.849
  446MPD2    C2 6680   0.602   1.927  11.798
  446MPD2    C3 6681   0.737   1.932  11.824
  446MPD2    C4 6682   0.782   1.850  11.931
  446MPD2    C5 6683   0.700   1.755  11.988
  446MPD2     H 6684   0.565   1.983  11.713
  446MPD2    H1 6685   0.881   1.869  11.970
  446MPD2    H2 6686   0.495   1.668  11.980
  446MPD2    H3 6687   0.736   1.693  12.070
  446MPD2     N 6688   0.820   2.021  11.747
  446MPD2    H5 6689   0.780   2.094  11.689
  446MPD2    N1 6690   0.380   1.845  11.815
  446MPD2    H7 6691   0.355   1.908  11.739
  447TMC3    C1 6692   1.033   2.093  11.657
  447TMC3    C2 6693   0.986   2.118  11.530
  447TMC3    C3 6694   1.082   2.125  11.428
  447TMC3    C4 6695   1.167   2.080  11.677
  447TMC3    C5 6696   1.257   2.077  11.576
  447TMC3    C6 6697   1.219   2.095  11.450
  447TMC3     C 6698   0.956   2.013  11.753
  447TMC3     O 6699   1.024   1.938  11.817
  447TMC3     H 6700   0.879   2.116  11.512
  447TMC3    H1 6701   1.196   2.079  11.782
  447TMC3    H2 6702   1.298   2.102  11.377
  447TMC3    C7 6703   1.387   2.012  11.603
  447TMC3    C8 6704   1.031   2.134  11.287
  447TMC3    O1 6705   1.459   1.980  11.507
  447TMC3    O2 6706   0.919   2.104  11.257
  448TMC3    C1 6707   3.914   2.059  17.158
  448TMC3    C2 6708   3.885   1.932  17.122
  448TMC3    C3 6709   3.916   1.827  17.214
  448TMC3    C4 6710   3.976   2.076  17.279
  448TMC3    C5 6711   3.993   1.981  17.371
  448TMC3    C6 6712   3.965   1.848  17.337
  448TMC3     C 6713   3.834   2.165  17.094
  448TMC3     O 6714   3.731   2.129  17.039
  448TMC3     H 6715   3.849   1.916  17.021
  448TMC3    H1 6716   3.991   2.175  17.319
  448TMC3    H2 6717   3.957   1.764  17.406
  448TMC3    C7 6718   4.071   2.019  17.482
  448TMC3    C8 6719   3.883   1.687  17.184
  448TMC3    O1 6720   4.129   2.128  17.474
  448TMC3    O2 6721   3.947   1.600  17.247
  449MPD2     C 6722   0.783   0.161  14.345
  449MPD2    C1 6723   0.668   0.181  14.284
  449MPD2    C2 6724   0.560   0.092  14.307
  449MPD2    C3 6725   0.582   4.760  14.380
  449MPD2    C4 6726   0.704   4.739  14.443
  449MPD2    C5 6727   0.796   0.053  14.431
  449MPD2     H 6728   0.467   0.110  14.254
  449MPD2    H1 6729   0.713   4.646  14.498
  449MPD2    H2 6730   0.859   0.236  14.325
  449MPD2    H3 6731   0.889   0.039  14.485
  449MPD2     N 6732   0.466   4.681  14.391
  449MPD2    H5 6733   0.389   4.717  14.335
  449MPD2    N1 6734   0.639   0.297  14.207
  449MPD2    H7 6735   0.544   0.308  14.173
  450TMC3    C1 6736   0.655   0.477  14.070
  450TMC3    C2 6737   0.677   0.457  13.940
  450TMC3    C3 6738   0.580   0.463  13.846
  450TMC3    C4 6739   0.526   0.500  14.111
  450TMC3    C5 6740   0.427   0.487  14.019
  450TMC3    C6 6741   0.453   0.485  13.885
  450TMC3     C 6742   0.722   0.387  14.164
  450TMC3     O 6743   0.844   0.391  14.169
  450TMC3     H 6744   0.779   0.440  13.907
  450TMC3    H1 6745   0.505   0.513  14.216
  450TMC3    H2 6746   0.374   0.451  13.819
  450TMC3    C7 6747   0.326   0.399  14.072
  450TMC3    C8 6748   0.593   0.361  13.754
  450TMC3    O1 6749   0.359   0.343  14.175
  450TMC3    O2 6750   0.503   0.278  13.750
  451MPD2     C 6751   2.261   3.784  19.548
  451MPD2    C1 6752   2.231   3.845  19.431
  451MPD2    C2 6753   2.223   3.765  19.320
  451MPD2    C3 6754   2.262   3.630  19.315
  451MPD2    C4 6755   2.309   3.577  19.429
  451MPD2    C5 6756   2.302   3.654  19.543
  451MPD2     H 6757   2.185   3.802  19.226
  451MPD2    H1 6758   2.343   3.475  19.443
  451MPD2    H2 6759   2.271   3.830  19.646
  451MPD2    H3 6760   2.329   3.610  19.638
  451MPD2     N 6761   2.247   3.545  19.199
  451MPD2    H5 6762   2.273   3.448  19.210
  451MPD2    N1 6763   2.185   3.980  19.433
  451MPD2    H7 6764   2.169   4.010  19.529
  452TMC3    C1 6765   2.175   3.465  18.993
  452TMC3    C2 6766   2.085   3.383  19.046
  452TMC3    C3 6767   1.997   3.314  18.961
  452TMC3    C4 6768   2.185   3.476  18.855
  452TMC3    C5 6769   2.096   3.409  18.777
  452TMC3    C6 6770   2.007   3.319  18.822
  452TMC3     C 6771   2.219   3.584  19.075
  452TMC3     O 6772   2.206   3.689  19.015
  452TMC3     H 6773   2.062   3.383  19.152
  452TMC3    H1 6774   2.250   3.553  18.817
  452TMC3    H2 6775   1.939   3.256  18.767
  452TMC3    C7 6776   2.102   3.443  18.641
  452TMC3    C8 6777   1.879   3.250  19.020
  452TMC3    O1 6778   2.198   3.512  18.603
  452TMC3    O2 6779   1.906   3.194  19.132
  453TMC3    C1 6780   2.794   0.907  12.070
  453TMC3    C2 6781   2.797   0.764  12.038
  453TMC3    C3 6782   2.800   0.733  11.902
  453TMC3    C4 6783   2.783   0.996  11.968
  453TMC3    C5 6784   2.799   0.956  11.839
  453TMC3    C6 6785   2.797   0.822  11.806
  453TMC3     C 6786   2.889   0.943  12.170
  453TMC3     O 6787   2.996   0.982  12.122
  453TMC3     H 6788   2.819   0.693  12.117
  453TMC3    H1 6789   2.804   1.098  11.997
  453TMC3    H2 6790   2.822   0.792  11.705
  453TMC3    C7 6791   2.898   1.027  11.760
  453TMC3    C8 6792   2.779   0.594  11.859
  453TMC3    O1 6793   2.899   1.020  11.638
  453TMC3    O2 6794   2.753   0.581  11.742
  454MPD2     C 6795   2.174   0.256  16.515
  454MPD2    C1 6796   2.099   0.341  16.442
  454MPD2    C2 6797   2.050   0.457  16.498
  454MPD2    C3 6798   2.078   0.487  16.632
  454MPD2    C4 6799   2.139   0.383  16.712
  454MPD2    C5 6800   2.191   0.275  16.651
  454MPD2     H 6801   1.982   0.517  16.438
  454MPD2    H1 6802   2.142   0.394  16.820
  454MPD2    H2 6803   2.211   0.166  16.467
  454MPD2    H3 6804   2.234   0.191  16.704
  454MPD2     N 6805   2.013   0.600  16.698
  454MPD2    H5 6806   1.997   0.580  16.796
  454MPD2    N1 6807   2.048   0.303  16.318
  454MPD2    H7 6808   1.989   0.369  16.268
  455TMC3    C1 6809   1.814   0.719  16.698
  455TMC3    C2 6810   1.814   0.742  16.834
  455TMC3    C3 6811   1.712   0.693  16.910
  455TMC3    C4 6812   1.728   0.631  16.648
  455TMC3    C5 6813   1.641   0.569  16.734
  455TMC3    C6 6814   1.630   0.594  16.869
  455TMC3     C 6815   1.944   0.699  16.641
  455TMC3     O 6816   1.959   0.735  16.526
  455TMC3     H 6817   1.881   0.814  16.880
  455TMC3    H1 6818   1.743   0.591  16.548
  455TMC3    H2 6819   1.568   0.540  16.940
  455TMC3    C7 6820   1.594   0.434  16.699
  455TMC3    C8 6821   1.690   0.767  17.035
  455TMC3    O1 6822   1.483   0.398  16.713
  455TMC3    O2 6823   1.790   0.804  17.098
  456MPD2     C 6824   4.246   0.599  16.379
  456MPD2    C1 6825   4.326   0.554  16.482
  456MPD2    C2 6826   4.284   0.582  16.610
  456MPD2    C3 6827   4.167   0.658  16.635
  456MPD2    C4 6828   4.083   0.690  16.527
  456MPD2    C5 6829   4.125   0.658  16.401
  456MPD2     H 6830   4.349   0.567  16.696
  456MPD2    H1 6831   3.991   0.746  16.540
  456MPD2    H2 6832   4.273   0.576  16.277
  456MPD2    H3 6833   4.060   0.686  16.319
  456MPD2     N 6834   4.137   0.695  16.770
  456MPD2    H5 6835   4.210   0.672  16.837
  456MPD2    N1 6836   4.438   0.482  16.443
  456MPD2    H7 6837   4.460   0.470  16.345
  457TMC3    C1 6838   4.036   0.829  16.936
  457TMC3    C2 6839   3.971   0.951  16.940
  457TMC3    C3 6840   4.007   1.038  17.046
  457TMC3    C4 6841   4.120   0.787  17.038
  457TMC3    C5 6842   4.148   0.882  17.129
  457TMC3    C6 6843   4.093   1.002  17.144
  457TMC3     C 6844   4.017   0.756  16.810
  457TMC3     O 6845   3.924   0.797  16.737
  457TMC3     H 6846   3.905   0.975  16.858
  457TMC3    H1 6847   4.173   0.693  17.049
  457TMC3    H2 6848   4.109   1.074  17.224
  457TMC3    C7 6849   4.253   0.843  17.234
  457TMC3    C8 6850   3.964   1.180  17.044
  457TMC3    O1 6851   4.266   0.726  17.265
  457TMC3    O2 6852   3.997   1.252  17.140
  458MPD2     C 6853   2.161   4.741  12.390
  458MPD2    C1 6854   2.137   4.731  12.526
  458MPD2    C2 6855   2.017   4.669  12.560
  458MPD2    C3 6856   1.933   4.612  12.473
  458MPD2    C4 6857   1.960   4.620  12.339
  458MPD2    C5 6858   2.071   4.688  12.296
  458MPD2     H 6859   1.982   4.657  12.662
  458MPD2    H1 6860   1.912   4.565  12.259
  458MPD2    H2 6861   2.254   0.010  12.363
  458MPD2    H3 6862   2.088   4.718  12.193
  458MPD2     N 6863   1.815   4.561  12.532
  458MPD2    H5 6864   1.816   4.536  12.630
  458MPD2    N1 6865   2.239   0.002  12.609
  458MPD2    H7 6866   2.306   0.062  12.562
  459TMC3    C1 6867   2.325   0.057  12.829
  459TMC3    C2 6868   2.424   0.135  12.767
  459TMC3    C3 6869   2.527   0.182  12.854
  459TMC3    C4 6870   2.327   0.038  12.964
  459TMC3    C5 6871   2.429   0.090  13.042
  459TMC3    C6 6872   2.534   0.161  12.991
  459TMC3     C 6873   2.225   0.005  12.747
  459TMC3     O 6874   2.131   4.743  12.816
  459TMC3     H 6875   2.407   0.171  12.666
  459TMC3    H1 6876   2.254   4.757  13.015
  459TMC3    H2 6877   2.615   0.194  13.054
  459TMC3    C7 6878   2.412   0.053  13.184
  459TMC3    C8 6879   2.639   0.259  12.798
  459TMC3    O1 6880   2.349   4.731  13.207
  459TMC3    O2 6881   2.740   0.244  12.866
  460MPD2     C 6882   1.253   2.200  10.998
  460MPD2    C1 6883   1.129   2.196  11.064
  460MPD2    C2 6884   1.013   2.231  10.994
  460MPD2    C3 6885   1.018   2.263  10.868
  460MPD2    C4 6886   1.139   2.267  10.799
  460MPD2    C5 6887   1.256   2.239  10.863
  460MPD2     H 6888   0.919   2.230  11.048
  460MPD2    H1 6889   1.144   2.298  10.695
  460MPD2    H2 6890   1.350   2.173  11.039
  460MPD2    H3 6891   1.353   2.259  10.818
  460MPD2     N 6892   0.889   2.289  10.800
  460MPD2    H5 6893   0.808   2.286  10.861
  460MPD2    N1 6894   1.137   2.178  11.203
  460MPD2    H7 6895   1.226   2.178  11.252
  461TMC3    C1 6896   0.737   2.355  10.621
  461TMC3    C2 6897   0.702   2.295  10.511
  461TMC3    C3 6898   0.655   2.362  10.406
  461TMC3    C4 6899   0.731   2.495  10.635
  461TMC3    C5 6900   0.694   2.565  10.522
  461TMC3    C6 6901   0.664   2.502  10.404
  461TMC3     C 6902   0.877   2.307  10.664
  461TMC3     O 6903   0.954   2.310  10.571
  461TMC3     H 6904   0.721   2.190  10.494
  461TMC3    H1 6905   0.744   2.552  10.726
  461TMC3    H2 6906   0.639   2.556  10.314
  461TMC3    C7 6907   0.748   2.700  10.488
  461TMC3    C8 6908   0.705   2.312  10.279
  461TMC3    O1 6909   0.699   2.760  10.390
  461TMC3    O2 6910   0.777   2.391  10.217
  462TMC3    C1 6911   1.070   3.704  18.315
  462TMC3    C2 6912   1.133   3.696  18.194
  462TMC3    C3 6913   1.130   3.569  18.143
  462TMC3    C4 6914   1.020   3.598  18.385
  462TMC3    C5 6915   1.032   3.474  18.334
  462TMC3    C6 6916   1.105   3.462  18.219
  462TMC3     C 6917   1.049   3.835  18.375
  462TMC3     O 6918   0.948   3.844  18.447
  462TMC3     H 6919   1.164   3.781  18.134
  462TMC3    H1 6920   0.968   3.609  18.480
  462TMC3    H2 6921   1.097   3.368  18.166
  462TMC3    C7 6922   0.943   3.364  18.369
  462TMC3    C8 6923   1.156   3.559  17.998
  462TMC3    O1 6924   0.983   3.254  18.334
  462TMC3    O2 6925   1.142   3.666  17.935
  463MPD2     C 6926   2.577   1.775  20.048
  463MPD2    C1 6927   2.468   1.833  19.984
  463MPD2    C2 6928   2.467   1.975  19.967
  463MPD2    C3 6929   2.583   2.050  19.987
  463MPD2    C4 6930   2.685   1.987  20.049
  463MPD2    C5 6931   2.686   1.855  20.077
  463MPD2     H 6932   2.383   2.024  19.920
  463MPD2    H1 6933   2.776   2.046  20.059
  463MPD2    H2 6934   2.577   1.671  20.080
  463MPD2    H3 6935   2.779   1.817  20.118
  463MPD2     N 6936   2.605   2.185  19.942
  463MPD2    H5 6937   2.704   2.208  19.941
  463MPD2    N1 6938   2.351   1.764  19.951
  463MPD2    H7 6939   2.305   1.800  19.868
  464TMC3    C1 6940   2.216   1.572  19.908
  464TMC3    C2 6941   2.190   1.602  19.779
  464TMC3    C3 6942   2.138   1.513  19.697
  464TMC3    C4 6943   2.170   1.458  19.959
  464TMC3    C5 6944   2.083   1.378  19.883
  464TMC3    C6 6945   2.063   1.407  19.747
  464TMC3     C 6946   2.324   1.632  19.983
  464TMC3     O 6947   2.362   1.563  20.076
  464TMC3     H 6948   2.236   1.689  19.734
  464TMC3    H1 6949   2.190   1.427  20.061
  464TMC3    H2 6950   2.016   1.336  19.679
  464TMC3    C7 6951   2.073   1.239  19.927
  464TMC3    C8 6952   2.067   1.574  19.584
  464TMC3    O1 6953   2.149   1.183  20.009
  464TMC3    O2 6954   2.083   1.695  19.559
  465MPD2     C 6955   3.703   1.020  17.415
  465MPD2    C1 6956   3.621   0.904  17.416
  465MPD2    C2 6957   3.562   0.865  17.291
  465MPD2    C3 6958   3.604   0.920  17.170
  465MPD2    C4 6959   3.692   1.029  17.173
  465MPD2    C5 6960   3.727   1.078  17.296
  465MPD2     H 6961   3.494   0.783  17.307
  465MPD2    H1 6962   3.721   1.079  17.082
  465MPD2    H2 6963   3.749   1.074  17.497
  465MPD2    H3 6964   3.789   1.167  17.297
  465MPD2     N 6965   3.545   0.868  17.057
  465MPD2    H5 6966   3.481   0.791  17.071
  465MPD2    N1 6967   3.584   0.845  17.534
  465MPD2    H7 6968   3.533   0.757  17.532
  466TMC3    C1 6969   3.292   0.691  16.848
  466TMC3    C2 6970   3.248   0.771  16.744
  466TMC3    C3 6971   3.334   0.858  16.676
  466TMC3    C4 6972   3.418   0.715  16.897
  466TMC3    C5 6973   3.502   0.812  16.838
  466TMC3    C6 6974   3.459   0.876  16.722
  466TMC3     C 6975   3.200   0.616  16.932
  466TMC3     O 6976   3.241   0.591  17.047
  466TMC3     H 6977   3.143   0.784  16.722
  466TMC3    H1 6978   3.451   0.651  16.978
  466TMC3    H2 6979   3.518   0.951  16.669
  466TMC3    C7 6980   3.583   0.894  16.921
  466TMC3    C8 6981   3.278   0.970  16.603
  466TMC3    O1 6982   3.674   0.960  16.875
  466TMC3    O2 6983   3.320   0.998  16.490
  467TMC3    C1 6984   4.193   4.182  14.336
  467TMC3    C2 6985   4.140   4.265  14.241
  467TMC3    C3 6986   4.011   4.252  14.202
  467TMC3    C4 6987   4.121   4.077  14.386
  467TMC3    C5 6988   3.988   4.067  14.348
  467TMC3    C6 6989   3.935   4.145  14.249
  467TMC3     C 6990   4.329   4.145  14.310
  467TMC3     O 6991   4.411   4.118  14.398
  467TMC3     H 6992   4.210   4.333  14.195
  467TMC3    H1 6993   4.179   4.013  14.452
  467TMC3    H2 6994   3.837   4.130  14.206
  467TMC3    C7 6995   3.918   3.949  14.393
  467TMC3    C8 6996   3.975   4.319  14.082
  467TMC3    O1 6997   3.994   3.869  14.442
  467TMC3    O2 6998   4.013   4.438  14.064
  468MPD2     C 6999   2.801   2.763  11.083
  468MPD2    C1 7000   2.924   2.695  11.114
  468MPD2    C2 7001   2.944   2.563  11.068
  468MPD2    C3 7002   2.850   2.498  10.991
  468MPD2    C4 7003   2.730   2.566  10.962
  468MPD2    C5 7004   2.710   2.696  11.011
  468MPD2     H 7005   3.036   2.511  11.092
  468MPD2    H1 7006   2.650   2.512  10.912
  468MPD2    H2 7007   2.771   2.858  11.126
  468MPD2    H3 7008   2.616   2.742  10.983
  468MPD2     N 7009   2.864   2.362  10.948
  468MPD2    H5 7010   2.778   2.328  10.906
  468MPD2    N1 7011   3.035   2.755  11.178
  468MPD2    H7 7012   3.100   2.685  11.213
  469TMC3    C1 7013   3.157   2.905  11.310
  469TMC3    C2 7014   3.273   2.828  11.303
  469TMC3    C3 7015   3.377   2.861  11.384
  469TMC3    C4 7016   3.163   3.027  11.371
  469TMC3    C5 7017   3.272   3.055  11.452
  469TMC3    C6 7018   3.383   2.973  11.463
  469TMC3     C 7019   3.045   2.884  11.218
  469TMC3     O 7020   2.963   2.977  11.209
  469TMC3     H 7021   3.276   2.732  11.254
  469TMC3    H1 7022   3.079   3.095  11.369
  469TMC3    H2 7023   3.478   2.991  11.513
  469TMC3    C7 7024   3.256   3.156  11.553
  469TMC3    C8 7025   3.496   2.772  11.373
  469TMC3    O1 7026   3.177   3.248  11.536
  469TMC3    O2 7027   3.507   2.700  11.275
  470TMC3    C1 7028   0.681   2.915  18.883
  470TMC3    C2 7029   0.810   2.934  18.842
  470TMC3    C3 7030   0.903   2.943  18.941
  470TMC3    C4 7031   0.642   2.889  19.016
  470TMC3    C5 7032   0.740   2.898  19.112
  470TMC3    C6 7033   0.871   2.922  19.073
  470TMC3     C 7034   0.582   2.903  18.783
  470TMC3     O 7035   0.566   2.998  18.707
  470TMC3     H 7036   0.827   2.941  18.735
  470TMC3    H1 7037   0.536   2.875  19.035
  470TMC3    H2 7038   0.938   2.948  19.154
  470TMC3    C7 7039   0.701   2.889  19.250
  470TMC3    C8 7040   0.991   3.056  18.936
  470TMC3    O1 7041   0.790   2.857  19.332
  470TMC3    O2 7042   1.024   3.115  19.039
  471MPD2     C 7043   1.221   4.496  16.953
  471MPD2    C1 7044   1.146   4.379  16.956
  471MPD2    C2 7045   1.119   4.319  17.072
  471MPD2    C3 7046   1.167   4.377  17.194
  471MPD2    C4 7047   1.250   4.491  17.181
  471MPD2    C5 7048   1.275   4.554  17.066
  471MPD2     H 7049   1.064   4.227  17.084
  471MPD2    H1 7050   1.296   4.516  17.276
  471MPD2    H2 7051   1.239   4.534  16.853
  471MPD2    H3 7052   1.335   4.644  17.062
  471MPD2     N 7053   1.155   4.324  17.324
  471MPD2    H5 7054   1.215   4.360  17.397
  471MPD2    N1 7055   1.098   4.311  16.842
  471MPD2    H7 7056   1.061   4.218  16.860
  472TMC3    C1 7057   1.055   4.273  16.610
  472TMC3    C2 7058   0.978   4.315  16.508
  472TMC3    C3 7059   0.968   4.226  16.401
  472TMC3    C4 7060   1.106   4.147  16.622
  472TMC3    C5 7061   1.092   4.064  16.517
  472TMC3    C6 7062   1.019   4.101  16.407
  472TMC3     C 7063   1.076   4.368  16.720
  472TMC3     O 7064   1.054   4.484  16.693
  472TMC3     H 7065   0.942   4.415  16.489
  472TMC3    H1 7066   1.171   4.115  16.703
  472TMC3    H2 7067   1.019   4.046  16.314
  472TMC3    C7 7068   1.050   3.925  16.558
  472TMC3    C8 7069   0.850   4.227  16.318
  472TMC3    O1 7070   1.075   3.899  16.676
  472TMC3    O2 7071   0.862   4.265  16.202
  473MPD2     C 7072   0.595   1.534  14.370
  473MPD2    C1 7073   0.670   1.590  14.268
  473MPD2    C2 7074   0.771   1.687  14.302
  473MPD2    C3 7075   0.792   1.719  14.429
  473MPD2    C4 7076   0.725   1.655  14.531
  473MPD2    C5 7077   0.635   1.558  14.495
  473MPD2     H 7078   0.819   1.752  14.230
  473MPD2    H1 7079   0.737   1.678  14.636
  473MPD2    H2 7080   0.517   1.459  14.360
  473MPD2    H3 7081   0.588   1.509  14.580
  473MPD2     N 7082   0.878   1.826  14.475
  473MPD2    H5 7083   0.870   1.858  14.571
  473MPD2    N1 7084   0.628   1.569  14.138
  473MPD2    H7 7085   0.670   1.628  14.067
  474TMC3    C1 7086   1.035   2.008  14.473
  474TMC3    C2 7087   0.959   2.096  14.537
  474TMC3    C3 7088   1.016   2.219  14.561
  474TMC3    C4 7089   1.165   2.037  14.436
  474TMC3    C5 7090   1.218   2.161  14.467
  474TMC3    C6 7091   1.148   2.246  14.535
  474TMC3     C 7092   0.973   1.891  14.402
  474TMC3     O 7093   1.012   1.864  14.286
  474TMC3     H 7094   0.855   2.066  14.545
  474TMC3    H1 7095   1.220   1.960  14.384
  474TMC3    H2 7096   1.183   2.335  14.586
  474TMC3    C7 7097   1.359   2.173  14.499
  474TMC3    C8 7098   0.924   2.323  14.565
  474TMC3    O1 7099   1.439   2.158  14.410
  474TMC3    O2 7100   0.816   2.294  14.615
  475MPD2     C 7101   4.237   4.680  11.207
  475MPD2    C1 7102   4.328   4.757  11.146
  475MPD2    C2 7103   4.313   0.112  11.160
  475MPD2    C3 7104   4.215   0.171  11.241
  475MPD2    C4 7105   4.128   0.087  11.314
  475MPD2    C5 7106   4.140   4.736  11.286
  475MPD2     H 7107   4.368   0.178  11.094
  475MPD2    H1 7108   4.038   0.113  11.369
  475MPD2    H2 7109   4.251   4.572  11.205
  475MPD2    H3 7110   4.069   4.666  11.328
  475MPD2     N 7111   4.198   0.319  11.246
  475MPD2    H5 7112   4.271   0.374  11.201
  475MPD2    N1 7113   4.432   4.700  11.068
  475MPD2    H7 7114   4.420   4.602  11.044
  476TMC3    C1 7115   4.615   0.094  11.078
  476TMC3    C2 7116   4.653   0.193  10.992
  476TMC3    C3 7117   4.655   0.324  11.037
  476TMC3    C4 7118   4.601   0.111  11.213
  476TMC3    C5 7119   4.615   0.240  11.252
  476TMC3    C6 7120   4.655   0.342  11.171
  476TMC3     C 7121   4.551   4.757  11.022
  476TMC3     O 7122   4.602   4.708  10.919
  476TMC3     H 7123   4.685   0.165  10.892
  476TMC3    H1 7124   4.590   0.036  11.290
  476TMC3    H2 7125   4.652   0.447  11.197
  476TMC3    C7 7126   4.557   0.273  11.386
  476TMC3    C8 7127   4.556   0.396  10.969
  476TMC3    O1 7128   4.552   0.175  11.461
  476TMC3    O2 7129   4.495   0.489  11.026
  477MPD2     C 7130   1.798   1.437  11.754
  477MPD2    C1 7131   1.741   1.469  11.873
  477MPD2    C2 7132   1.818   1.435  11.991
  477MPD2    C3 7133   1.942   1.367  11.986
  477MPD2    C4 7134   1.983   1.345  11.864
  477MPD2    C5 7135   1.917   1.379  11.753
  477MPD2     H 7136   1.778   1.453  12.090
  477MPD2    H1 7137   2.080   1.297  11.851
  477MPD2    H2 7138   1.757   1.487  11.667
  477MPD2    H3 7139   1.965   1.360  11.657
  477MPD2     N 7140   1.999   1.338  12.114
  477MPD2    H5 7141   1.961   1.383  12.197
  477MPD2    N1 7142   1.627   1.554  11.874
  477MPD2    H7 7143   1.597   1.555  11.777
  478TMC3    C1 7144   1.451   1.675  11.957
  478TMC3    C2 7145   1.367   1.682  12.065
  478TMC3    C3 7146   1.232   1.688  12.040
  478TMC3    C4 7147   1.406   1.670  11.828
  478TMC3    C5 7148   1.272   1.687  11.808
  478TMC3    C6 7149   1.184   1.694  11.913
  478TMC3     C 7150   1.574   1.619  11.984
  478TMC3     O 7151   1.615   1.620  12.098
  478TMC3     H 7152   1.403   1.672  12.167
  478TMC3    H1 7153   1.472   1.671  11.742
  478TMC3    H2 7154   1.079   1.710  11.893
  478TMC3    C7 7155   1.217   1.638  11.685
  478TMC3    C8 7156   1.171   1.775  12.142
  478TMC3    O1 7157   1.271   1.542  11.634
  478TMC3    O2 7158   1.195   1.740  12.257
  479MPD2     C 7159   0.538   3.511  15.410
  479MPD2    C1 7160   0.499   3.452  15.519
  479MPD2    C2 7161   0.590   3.441  15.628
  479MPD2    C3 7162   0.718   3.492  15.614
  479MPD2    C4 7163   0.745   3.565  15.497
  479MPD2    C5 7164   0.661   3.559  15.388
  479MPD2     H 7165   0.566   3.389  15.720
  479MPD2    H1 7166   0.843   3.609  15.484
  479MPD2    H2 7167   0.467   3.519  15.328
  479MPD2    H3 7168   0.690   3.599  15.292
  479MPD2     N 7169   0.823   3.485  15.706
  479MPD2    H5 7170   0.916   3.507  15.673
  479MPD2    N1 7171   0.367   3.404  15.527
  479MPD2    H7 7172   0.306   3.406  15.446
  480TMC3    C1 7173   0.566   3.431  16.095
  480TMC3    C2 7174   0.496   3.549  16.075
  480TMC3    C3 7175   0.540   3.638  15.977
  480TMC3    C4 7176   0.665   3.389  16.010
  480TMC3    C5 7177   0.692   3.478  15.903
  480TMC3    C6 7178   0.642   3.602  15.893
  480TMC3     C 7179   0.512   3.329  16.184
  480TMC3     O 7180   0.594   3.257  16.238
  480TMC3     H 7181   0.413   3.573  16.141
  480TMC3    H1 7182   0.712   3.292  16.020
  480TMC3    H2 7183   0.685   3.675  15.826
  480TMC3    C7 7184   0.814   3.443  15.834
  480TMC3    C8 7185   0.427   3.704  15.913
  480TMC3    O1 7186   0.902   3.388  15.903
  480TMC3    O2 7187   0.329   3.716  15.978
  481MPD2     C 7188   2.030   3.404  14.199
  481MPD2    C1 7189   1.963   3.289  14.222
  481MPD2    C2 7190   1.996   3.223  14.342
  481MPD2    C3 7191   2.109   3.267  14.418
  481MPD2    C4 7192   2.181   3.372  14.378
  481MPD2    C5 7193   2.145   3.440  14.268
  481MPD2     H 7194   1.958   3.127  14.375
  481MPD2    H1 7195   2.254   3.424  14.440
  481MPD2    H2 7196   1.993   3.462  14.116
  481MPD2    H3 7197   2.212   3.506  14.214
  481MPD2     N 7198   2.147   3.203  14.539
  481MPD2    H5 7199   2.217   3.255  14.591
  481MPD2    N1 7200   1.845   3.258  14.151
  481MPD2    H7 7201   1.829   3.327  14.078
  482TMC3    C1 7202   1.671   3.153  14.053
  482TMC3    C2 7203   1.640   3.030  14.006
  482TMC3    C3 7204   1.518   3.019  13.933
  482TMC3    C4 7205   1.595   3.264  14.032
  482TMC3    C5 7206   1.476   3.254  13.972
  482TMC3    C6 7207   1.438   3.130  13.914
  482TMC3     C 7208   1.760   3.145  14.163
  482TMC3     O 7209   1.780   3.040  14.224
  482TMC3     H 7210   1.719   2.955  14.008
  482TMC3    H1 7211   1.623   3.347  14.096
  482TMC3    H2 7212   1.362   3.131  13.837
  482TMC3    C7 7213   1.423   3.370  13.904
  482TMC3    C8 7214   1.501   2.890  13.868
  482TMC3    O1 7215   1.305   3.371  13.879
  482TMC3    O2 7216   1.605   2.825  13.848
  483TMC3    C1 7217   0.093   1.814  18.865
  483TMC3    C2 7218   0.155   1.933  18.846
  483TMC3    C3 7219   0.285   1.942  18.883
  483TMC3    C4 7220   0.150   1.697  18.917
  483TMC3    C5 7221   0.278   1.712  18.959
  483TMC3    C6 7222   0.347   1.834  18.942
  483TMC3     C 7223   4.748   1.804  18.795
  483TMC3     O 7224   4.690   1.910  18.773
  483TMC3     H 7225   0.118   2.021  18.795
  483TMC3    H1 7226   0.095   1.604  18.917
  483TMC3    H2 7227   0.454   1.829  18.958
  483TMC3    C7 7228   0.352   1.599  19.014
  483TMC3    C8 7229   0.362   2.048  18.823
  483TMC3    O1 7230   0.454   1.624  19.077
  483TMC3    O2 7231   0.304   2.117  18.744
  484MPD2     C 7232   2.654   0.450  12.485
  484MPD2    C1 7233   2.696   0.392  12.604
  484MPD2    C2 7234   2.832   0.412  12.639
  484MPD2    C3 7235   2.913   0.491  12.561
  484MPD2    C4 7236   2.868   0.535  12.441
  484MPD2    C5 7237   2.736   0.517  12.403
  484MPD2     H 7238   2.869   0.387  12.738
  484MPD2    H1 7239   2.939   0.578  12.371
  484MPD2    H2 7240   2.553   0.447  12.445
  484MPD2    H3 7241   2.704   0.541  12.302
  484MPD2     N 7242   3.053   0.507  12.585
  484MPD2    H5 7243   3.112   0.568  12.529
  484MPD2    N1 7244   2.604   0.320  12.683
  484MPD2    H7 7245   2.508   0.321  12.650
  485TMC3    C1 7246   3.257   0.477  12.702
  485TMC3    C2 7247   3.340   0.394  12.775
  485TMC3    C3 7248   3.462   0.438  12.814
  485TMC3    C4 7249   3.286   0.606  12.673
  485TMC3    C5 7250   3.409   0.656  12.726
  485TMC3    C6 7251   3.494   0.575  12.793
  485TMC3     C 7252   3.123   0.426  12.672
  485TMC3     O 7253   3.096   0.320  12.727
  485TMC3     H 7254   3.297   0.301  12.810
  485TMC3    H1 7255   3.214   0.672  12.627
  485TMC3    H2 7256   3.581   0.616  12.844
  485TMC3    C7 7257   3.476   0.767  12.667
  485TMC3    C8 7258   3.578   0.348  12.826
  485TMC3    O1 7259   3.585   0.794  12.712
  485TMC3    O2 7260   3.688   0.407  12.835
  486MPD2     C 7261   0.441   4.067  13.422
  486MPD2    C1 7262   0.337   4.017  13.353
  486MPD2    C2 7263   0.257   4.105  13.283
  486MPD2    C3 7264   0.276   4.241  13.295
  486MPD2    C4 7265   0.381   4.288  13.373
  486MPD2    C5 7266   0.473   4.201  13.434
  486MPD2     H 7267   0.168   4.067  13.234
  486MPD2    H1 7268   0.408   4.392  13.388
  486MPD2    H2 7269   0.507   4.001  13.478
  486MPD2    H3 7270   0.557   4.237  13.492
  486MPD2     N 7271   0.176   4.318  13.248
  486MPD2    H5 7272   0.093   4.273  13.209
  486MPD2    N1 7273   0.316   3.875  13.355
  486MPD2    H7 7274   0.388   3.827  13.408
  487TMC3    C1 7275   0.218   3.661  13.325
  487TMC3    C2 7276   0.151   3.577  13.236
  487TMC3    C3 7277   0.148   3.443  13.274
  487TMC3    C4 7278   0.276   3.621  13.438
  487TMC3    C5 7279   0.261   3.487  13.469
  487TMC3    C6 7280   0.226   3.396  13.376
  487TMC3     C 7281   0.215   3.805  13.295
  487TMC3     O 7282   0.145   3.843  13.199
  487TMC3     H 7283   0.105   3.610  13.144
  487TMC3    H1 7284   0.294   3.688  13.521
  487TMC3    H2 7285   0.223   3.293  13.410
  487TMC3    C7 7286   0.215   3.460  13.604
  487TMC3    C8 7287   0.025   3.371  13.266
  487TMC3    O1 7288   0.266   3.515  13.698
  487TMC3    O2 7289   0.008   3.297  13.364
  488MPD2     C 7290   0.419   0.530  16.759
  488MPD2    C1 7291   0.412   0.668  16.766
  488MPD2    C2 7292   0.359   0.729  16.878
  488MPD2    C3 7293   0.307   0.658  16.977
  488MPD2    C4 7294   0.306   0.520  16.976
  488MPD2    C5 7295   0.367   0.455  16.867
  488MPD2     H 7296   0.366   0.835  16.898
  488MPD2    H1 7297   0.258   0.458  17.051
  488MPD2    H2 7298   0.461   0.481  16.672
  488MPD2    H3 7299   0.385   0.349  16.876
  488MPD2     N 7300   0.263   0.733  17.086
  488MPD2    H5 7301   0.269   0.834  17.086
  488MPD2    N1 7302   0.456   0.753  16.656
  488MPD2    H7 7303   0.432   0.851  16.652
  489TMC3    C1 7304   0.162   0.787  17.293
  489TMC3    C2 7305   0.100   0.899  17.244
  489TMC3    C3 7306   0.078   1.002  17.329
  489TMC3    C4 7307   0.196   0.775  17.424
  489TMC3    C5 7308   0.182   0.889  17.504
  489TMC3    C6 7309   0.128   0.999  17.454
  489TMC3     C 7310   0.221   0.686  17.207
  489TMC3     O 7311   0.217   0.569  17.250
  489TMC3     H 7312   0.068   0.891  17.141
  489TMC3    H1 7313   0.249   0.687  17.460
  489TMC3    H2 7314   0.136   1.089  17.513
  489TMC3    C7 7315   0.274   0.912  17.611
  489TMC3    C8 7316   0.067   1.128  17.254
  489TMC3    O1 7317   0.312   1.029  17.633
  489TMC3    O2 7318   0.056   1.128  17.129
  490MPD2     C 7319   1.403   0.004  17.745
  490MPD2    C1 7320   1.315   0.028  17.847
  490MPD2    C2 7321   1.359   0.109  17.947
  490MPD2    C3 7322   1.481   0.169  17.948
  490MPD2    C4 7323   1.561   0.154  17.838
  490MPD2    C5 7324   1.528   0.061  17.743
  490MPD2     H 7325   1.304   0.122  18.040
  490MPD2    H1 7326   1.665   0.184  17.828
  490MPD2    H2 7327   1.390   4.706  17.671
  490MPD2    H3 7328   1.589   0.034  17.658
  490MPD2     N 7329   1.528   0.264  18.041
  490MPD2    H5 7330   1.628   0.281  18.036
  490MPD2    N1 7331   1.190   4.740  17.854
  490MPD2    H7 7332   1.147   4.745  17.946
  491TMC3    C1 7333   1.004   4.619  17.793
  491TMC3    C2 7334   1.000   4.541  17.906
  491TMC3    C3 7335   0.933   4.418  17.911
  491TMC3    C4 7336   0.937   4.571  17.680
  491TMC3    C5 7337   0.867   4.452  17.691
  491TMC3    C6 7338   0.858   4.374  17.805
  491TMC3     C 7339   1.131   4.673  17.752
  491TMC3     O 7340   1.166   4.647  17.640
  491TMC3     H 7341   1.053   4.566  17.997
  491TMC3    H1 7342   0.931   4.627  17.588
  491TMC3    H2 7343   0.813   4.276  17.794
  491TMC3    C7 7344   0.768   4.415  17.585
  491TMC3    C8 7345   0.894   4.379  18.043
  491TMC3    O1 7346   0.730   4.303  17.568
  491TMC3    O2 7347   0.874   4.467  18.124
  492MPD2     C 7348   1.414   0.525  11.755
  492MPD2    C1 7349   1.331   0.428  11.705
  492MPD2    C2 7350   1.282   0.328  11.790
  492MPD2    C3 7351   1.316   0.324  11.924
  492MPD2    C4 7352   1.394   0.427  11.964
  492MPD2    C5 7353   1.441   0.530  11.885
  492MPD2     H 7354   1.231   0.241  11.751
  492MPD2    H1 7355   1.443   0.426  12.061
  492MPD2    H2 7356   1.461   0.596  11.688
  492MPD2    H3 7357   1.494   0.617  11.923
  492MPD2     N 7358   1.291   0.216  12.013
  492MPD2    H5 7359   1.318   0.234  12.109
  492MPD2    N1 7360   1.314   0.438  11.566
  492MPD2    H7 7361   1.374   0.500  11.511
  493TMC3    C1 7362   1.191   0.413  11.372
  493TMC3    C2 7363   1.210   0.548  11.350
  493TMC3    C3 7364   1.160   0.596  11.237
  493TMC3    C4 7365   1.110   0.335  11.292
  493TMC3    C5 7366   1.077   0.389  11.172
  493TMC3    C6 7367   1.101   0.523  11.142
  493TMC3     C 7368   1.230   0.354  11.492
  493TMC3     O 7369   1.176   0.250  11.526
  493TMC3     H 7370   1.268   0.608  11.419
  493TMC3    H1 7371   1.096   0.229  11.312
  493TMC3    H2 7372   1.051   0.562  11.054
  493TMC3    C7 7373   0.960   0.343  11.110
  493TMC3    C8 7374   1.182   0.741  11.210
  493TMC3    O1 7375   0.923   0.391  11.007
  493TMC3    O2 7376   1.142   0.821  11.296
  494TMC3    C1 7377   1.586   1.977  18.454
  494TMC3    C2 7378   1.624   1.843  18.460
  494TMC3    C3 7379   1.724   1.789  18.390
  494TMC3    C4 7380   1.670   2.058  18.380
  494TMC3    C5 7381   1.775   2.001  18.310
  494TMC3    C6 7382   1.810   1.870  18.315
  494TMC3     C 7383   1.550   2.031  18.580
  494TMC3     O 7384   1.587   1.967  18.678
  494TMC3     H 7385   1.559   1.781  18.521
  494TMC3    H1 7386   1.656   2.165  18.372
  494TMC3    H2 7387   1.894   1.837  18.255
  494TMC3    C7 7388   1.825   2.071  18.187
  494TMC3    C8 7389   1.782   1.671  18.436
  494TMC3    O1 7390   1.841   1.990  18.099
  494TMC3    O2 7391   1.903   1.660  18.444
  495TMC3    C1 7392   0.619   3.767  14.951
  495TMC3    C2 7393   0.523   3.805  14.862
  495TMC3    C3 7394   0.406   3.852  14.918
  495TMC3    C4 7395   0.599   3.791  15.081
  495TMC3    C5 7396   0.482   3.839  15.136
  495TMC3    C6 7397   0.380   3.870  15.054
  495TMC3     C 7398   0.648   3.629  14.936
  495TMC3     O 7399   0.618   3.562  15.038
  495TMC3     H 7400   0.538   3.782  14.757
  495TMC3    H1 7401   0.679   3.755  15.144
  495TMC3    H2 7402   0.292   3.911  15.103
  495TMC3    C7 7403   0.474   3.844  15.281
  495TMC3    C8 7404   0.282   3.849  14.850
  495TMC3    O1 7405   0.579   3.850  15.338
  495TMC3    O2 7406   0.181   3.863  14.912
  496MPD2     C 7407   2.227   4.161  15.730
  496MPD2    C1 7408   2.263   4.036  15.681
  496MPD2    C2 7409   2.216   3.925  15.745
  496MPD2    C3 7410   2.130   3.939  15.852
  496MPD2    C4 7411   2.096   4.065  15.900
  496MPD2    C5 7412   2.142   4.179  15.834
  496MPD2     H 7413   2.261   3.831  15.714
  496MPD2    H1 7414   2.026   4.066  15.983
  496MPD2    H2 7415   2.269   4.244  15.674
  496MPD2    H3 7416   2.109   4.279  15.860
  496MPD2     N 7417   2.086   3.829  15.922
  496MPD2    H5 7418   2.034   3.838  16.009
  496MPD2    N1 7419   2.368   4.028  15.587
  496MPD2    H7 7420   2.413   4.117  15.567
  497TMC3    C1 7421   2.042   3.610  15.978
  497TMC3    C2 7422   2.025   3.485  15.916
  497TMC3    C3 7423   2.062   3.372  15.984
  497TMC3    C4 7424   2.102   3.612  16.098
  497TMC3    C5 7425   2.130   3.497  16.161
  497TMC3    C6 7426   2.102   3.373  16.110
  497TMC3     C 7427   2.101   3.700  15.885
  497TMC3     O 7428   2.168   3.637  15.796
  497TMC3     H 7429   1.992   3.484  15.813
  497TMC3    H1 7430   2.101   3.707  16.151
  497TMC3    H2 7431   2.142   3.285  16.159
  497TMC3    C7 7432   2.207   3.491  16.288
  497TMC3    C8 7433   2.149   3.289  15.907
  497TMC3    O1 7434   2.213   3.377  16.344
  497TMC3    O2 7435   2.197   3.190  15.963
  498MPD2     C 7436   3.635   4.772   9.813
  498MPD2    C1 7437   3.662   0.036   9.938
  498MPD2    C2 7438   3.659   4.724  10.039
  498MPD2    C3 7439   3.637   4.587  10.012
  498MPD2    C4 7440   3.621   4.544   9.879
  498MPD2    C5 7441   3.628   4.643   9.782
  498MPD2     H 7442   3.674   4.757  10.141
  498MPD2    H1 7443   3.600   4.442   9.849
  498MPD2    H2 7444   3.644   0.058   9.728
  498MPD2    H3 7445   3.616   4.618   9.677
  498MPD2     N 7446   3.636   4.489  10.119
  498MPD2    H5 7447   3.653   4.519  10.214
  498MPD2    N1 7448   3.703   0.174   9.971
  498MPD2    H7 7449   3.733   0.187  10.067
  499TMC3    C1 7450   3.775   0.395   9.940
  499TMC3    C2 7451   3.868   0.387  10.047
  499TMC3    C3 7452   3.928   0.505  10.090
  499TMC3    C4 7453   3.752   0.515   9.876
  499TMC3    C5 7454   3.819   0.627   9.923
  499TMC3    C6 7455   3.908   0.624  10.027
  499TMC3     C 7456   3.718   0.278   9.879
  499TMC3     O 7457   3.689   0.282   9.760
  499TMC3     H 7458   3.883   0.295  10.102
  499TMC3    H1 7459   3.680   0.525   9.796
  499TMC3    H2 7460   3.946   0.717  10.068
  499TMC3    C7 7461   3.785   0.756   9.864
  499TMC3    C8 7462   4.031   0.492  10.182
  499TMC3    O1 7463   3.871   0.842   9.884
  499TMC3    O2 7464   4.064   0.596  10.237
  500MPD2     C 7465   4.690   1.341  11.138
  500MPD2    C1 7466   4.748   1.307  11.019
  500MPD2    C2 7467   4.671   1.249  10.921
  500MPD2    C3 7468   4.532   1.236  10.935
  500MPD2    C4 7469   4.475   1.286  11.050
  500MPD2    C5 7470   4.551   1.330  11.155
  500MPD2     H 7471   4.716   1.217  10.828
  500MPD2    H1 7472   4.368   1.290  11.067
  500MPD2    H2 7473   4.750   1.383  11.218
  500MPD2    H3 7474   4.519   1.369  11.251
  500MPD2     N 7475   4.447   1.189  10.839
  500MPD2    H5 7476   4.349   1.197  10.863
  500MPD2    N1 7477   0.101   1.332  10.999
  500MPD2    H7 7478   0.132   1.317  10.904
  501TMC3    C1 7479   0.324   1.421  11.046
  501TMC3    C2 7480   0.352   1.422  10.914
  501TMC3    C3 7481   0.473   1.464  10.873
  501TMC3    C4 7482   0.425   1.454  11.141
  501TMC3    C5 7483   0.550   1.485  11.094
  501TMC3    C6 7484   0.575   1.487  10.959
  501TMC3     C 7485   0.197   1.369  11.093
  501TMC3     O 7486   0.189   1.362  11.217
  501TMC3     H 7487   0.278   1.397  10.838
  501TMC3    H1 7488   0.402   1.441  11.246
  501TMC3    H2 7489   0.673   1.510  10.918
  501TMC3    C7 7490   0.667   1.490  11.186
  501TMC3    C8 7491   0.508   1.436  10.730
  501TMC3    O1 7492   0.769   1.465  11.134
  501TMC3    O2 7493   0.466   1.331  10.684
  502TMC3    C1 7494   4.603   4.371  15.291
  502TMC3    C2 7495   4.573   4.475  15.208
  502TMC3    C3 7496   4.457   4.543  15.226
  502TMC3    C4 7497   4.517   4.324  15.383
  502TMC3    C5 7498   4.388   4.380  15.391
  502TMC3    C6 7499   4.363   4.495  15.314
  502TMC3     C 7500   4.740   4.370  15.321
  502TMC3     O 7501   0.044   4.377  15.233
  502TMC3     H 7502   4.649   4.523  15.148
  502TMC3    H1 7503   4.546   4.232  15.432
  502TMC3    H2 7504   4.268   4.548  15.311
  502TMC3    C7 7505   4.329   4.356  15.517
  502TMC3    C8 7506   4.487   4.692  15.251
  502TMC3    O1 7507   4.377   4.269  15.591
  502TMC3    O2 7508   4.584   4.736  15.196
  503MPD2     C 7509   2.256   0.808  17.400
  503MPD2    C1 7510   2.294   0.882  17.513
  503MPD2    C2 7511   2.324   0.824  17.628
  503MPD2    C3 7512   2.348   0.688  17.630
  503MPD2    C4 7513   2.325   0.613  17.517
  503MPD2    C5 7514   2.262   0.670  17.413
  503MPD2     H 7515   2.339   0.877  17.721
  503MPD2    H1 7516   2.321   0.505  17.512
  503MPD2    H2 7517   2.216   0.847  17.307
  503MPD2    H3 7518   2.226   0.603  17.335
  503MPD2     N 7519   2.408   0.625  17.743
  503MPD2    H5 7520   2.420   0.692  17.819
  503MPD2    N1 7521   2.290   1.023  17.513
  503MPD2    H7 7522   2.299   1.068  17.603
  504TMC3    C1 7523   2.589   0.502  17.833
  504TMC3    C2 7524   2.557   0.461  17.956
  504TMC3    C3 7525   2.648   0.384  18.025
  504TMC3    C4 7526   2.702   0.449  17.778
  504TMC3    C5 7527   2.794   0.369  17.842
  504TMC3    C6 7528   2.769   0.335  17.971
  504TMC3     C 7529   2.477   0.507  17.740
  504TMC3     O 7530   2.493   0.426  17.648
  504TMC3     H 7531   2.467   0.501  18.001
  504TMC3    H1 7532   2.719   0.466  17.672
  504TMC3    H2 7533   2.827   0.260  18.023
  504TMC3    C7 7534   2.868   0.275  17.756
  504TMC3    C8 7535   2.593   0.318  18.141
  504TMC3    O1 7536   2.881   0.304  17.637
  504TMC3    O2 7537   2.470   0.311  18.138
  505MPD2     C 7538   2.681   3.524  11.278
  505MPD2    C1 7539   2.759   3.567  11.174
  505MPD2    C2 7540   2.803   3.695  11.163
  505MPD2    C3 7541   2.754   3.785  11.243
  505MPD2    C4 7542   2.661   3.746  11.339
  505MPD2    C5 7543   2.619   3.614  11.355
  505MPD2     H 7544   2.877   3.714  11.086
  505MPD2    H1 7545   2.635   3.824  11.409
  505MPD2    H2 7546   2.640   3.424  11.285
  505MPD2    H3 7547   2.542   3.594  11.428
  505MPD2     N 7548   2.802   3.918  11.249
  505MPD2    H5 7549   2.775   3.979  11.326
  505MPD2    N1 7550   2.819   3.465  11.105
  505MPD2    H7 7551   2.828   3.375  11.150
  506TMC3    C1 7552   2.966   3.382  10.938
  506TMC3    C2 7553   2.994   3.387  10.801
  506TMC3    C3 7554   3.127   3.391  10.768
  506TMC3    C4 7555   3.065   3.367  11.029
  506TMC3    C5 7556   3.192   3.370  10.988
  506TMC3    C6 7557   3.230   3.373  10.854
  506TMC3     C 7558   2.866   3.481  10.975
  506TMC3     O 7559   2.833   3.568  10.900
  506TMC3     H 7560   2.918   3.418  10.730
  506TMC3    H1 7561   3.040   3.380  11.134
  506TMC3    H2 7562   3.333   3.378  10.822
  506TMC3    C7 7563   3.279   3.418  11.089
  506TMC3    C8 7564   3.148   3.408  10.626
  506TMC3    O1 7565   3.352   3.331  11.143
  506TMC3    O2 7566   3.062   3.355  10.551
  507TMC3    C1 7567   3.310   0.114  15.187
  507TMC3    C2 7568   3.234   0.023  15.115
  507TMC3    C3 7569   3.217   0.036  14.978
  507TMC3    C4 7570   3.385   0.211  15.125
  507TMC3    C5 7571   3.374   0.214  14.991
  507TMC3    C6 7572   3.302   0.125  14.918
  507TMC3     C 7573   3.242   0.166  15.307
  507TMC3     O 7574   3.299   0.247  15.384
  507TMC3     H 7575   3.183   4.718  15.156
  507TMC3    H1 7576   3.430   0.287  15.187
  507TMC3    H2 7577   3.295   0.146  14.812
  507TMC3    C7 7578   3.357   0.344  14.944
  507TMC3    C8 7579   3.074   0.056  14.954
  507TMC3    O1 7580   3.252   0.356  14.881
  507TMC3    O2 7581   3.003   0.060  15.051
  508MPD2     C 7582   4.131   2.363  15.666
  508MPD2    C1 7583   4.162   2.471  15.750
  508MPD2    C2 7584   4.219   2.585  15.700
  508MPD2    C3 7585   4.226   2.597  15.557
  508MPD2    C4 7586   4.185   2.494  15.481
  508MPD2    C5 7587   4.148   2.370  15.533
  508MPD2     H 7588   4.246   2.669  15.763
  508MPD2    H1 7589   4.189   2.484  15.373
  508MPD2    H2 7590   4.108   2.269  15.715
  508MPD2    H3 7591   4.138   2.285  15.467
  508MPD2     N 7592   4.298   2.706  15.507
  508MPD2    H5 7593   4.349   2.771  15.567
  508MPD2    N1 7594   4.135   2.456  15.888
  508MPD2    H7 7595   4.110   2.364  15.924
  509TMC3    C1 7596   4.259   3.083  15.333
  509TMC3    C2 7597   4.322   3.131  15.446
  509TMC3    C3 7598   4.402   3.053  15.513
  509TMC3    C4 7599   4.275   2.954  15.282
  509TMC3    C5 7600   4.356   2.870  15.365
  509TMC3    C6 7601   4.427   2.921  15.473
  509TMC3     C 7602   4.133   3.146  15.293
  509TMC3     O 7603   4.100   3.113  15.181
  509TMC3     H 7604   4.322   3.237  15.470
  509TMC3    H1 7605   4.206   2.914  15.208
  509TMC3    H2 7606   4.492   2.857  15.531
  509TMC3    C7 7607   4.305   2.737  15.376
  509TMC3    C8 7608   4.457   3.097  15.636
  509TMC3    O1 7609   4.236   2.693  15.280
  509TMC3    O2 7610   4.513   3.009  15.694
  510MPD2     C 7611   1.844   4.353  14.804
  510MPD2    C1 7612   1.920   4.269  14.885
  510MPD2    C2 7613   2.051   4.238  14.853
  510MPD2    C3 7614   2.123   4.309  14.755
  510MPD2    C4 7615   2.049   4.406  14.686
  510MPD2    C5 7616   1.917   4.423  14.702
  510MPD2     H 7617   2.090   4.151  14.905
  510MPD2    H1 7618   2.102   4.449  14.602
  510MPD2    H2 7619   1.743   4.383  14.828
  510MPD2    H3 7620   1.863   4.491  14.638
  510MPD2     N 7621   2.262   4.285  14.739
  510MPD2    H5 7622   2.290   4.214  14.806
  510MPD2    N1 7623   1.843   4.176  14.970
  510MPD2    H7 7624   1.749   4.145  14.949
  511TMC3    C1 7625   1.812   4.051  15.166
  511TMC3    C2 7626   1.779   4.098  15.291
  511TMC3    C3 7627   1.653   4.062  15.338
  511TMC3    C4 7628   1.708   4.004  15.084
  511TMC3    C5 7629   1.591   3.964  15.141
  511TMC3    C6 7630   1.558   3.986  15.272
  511TMC3     C 7631   1.897   4.139  15.086
  511TMC3     O 7632   1.995   4.170  15.146
  511TMC3     H 7633   1.846   4.153  15.357
  511TMC3    H1 7634   1.727   3.965  14.985
  511TMC3    H2 7635   1.457   3.967  15.307
  511TMC3    C7 7636   1.509   3.883  15.053
  511TMC3    C8 7637   1.620   4.111  15.467
  511TMC3    O1 7638   1.498   3.930  14.941
  511TMC3    O2 7639   1.680   4.209  15.516
  512TMC3    C1 7640   0.622   3.901  13.850
  512TMC3    C2 7641   0.732   3.852  13.916
  512TMC3    C3 7642   0.784   3.733  13.872
  512TMC3    C4 7643   0.570   3.838  13.743
  512TMC3    C5 7644   0.626   3.718  13.701
  512TMC3    C6 7645   0.738   3.670  13.757
  512TMC3     C 7646   0.624   4.043  13.848
  512TMC3     O 7647   0.734   4.085  13.877
  512TMC3     H 7648   0.750   3.889  14.016
  512TMC3    H1 7649   0.481   3.872  13.691
  512TMC3    H2 7650   0.792   3.583  13.721
  512TMC3    C7 7651   0.595   3.684  13.564
  512TMC3    C8 7652   0.911   3.685  13.933
  512TMC3    O1 7653   0.534   3.768  13.498
  512TMC3    O2 7654   0.951   3.568  13.910
  513MPD2     C 7655   2.507   3.041  13.475
  513MPD2    C1 7656   2.641   3.028  13.434
  513MPD2    C2 7657   2.726   3.104  13.507
  513MPD2    C3 7658   2.685   3.200  13.598
  513MPD2    C4 7659   2.550   3.212  13.629
  513MPD2    C5 7660   2.466   3.132  13.561
  513MPD2     H 7661   2.831   3.106  13.481
  513MPD2    H1 7662   2.509   3.286  13.697
  513MPD2    H2 7663   2.430   2.980  13.429
  513MPD2    H3 7664   2.359   3.137  13.578
  513MPD2     N 7665   2.783   3.273  13.672
  513MPD2    H5 7666   2.859   3.299  13.609
  513MPD2    N1 7667   2.674   2.937  13.336
  513MPD2    H7 7668   2.594   2.882  13.305
  514TMC3    C1 7669   2.894   3.015  13.240
  514TMC3    C2 7670   2.862   3.148  13.243
  514TMC3    C3 7671   2.957   3.244  13.218
  514TMC3    C4 7672   3.019   2.972  13.218
  514TMC3    C5 7673   3.115   3.065  13.193
  514TMC3    C6 7674   3.082   3.201  13.181
  514TMC3     C 7675   2.799   2.910  13.274
  514TMC3     O 7676   2.815   2.801  13.220
  514TMC3     H 7677   2.755   3.165  13.254
  514TMC3    H1 7678   3.044   2.867  13.226
  514TMC3    H2 7679   3.161   3.269  13.150
  514TMC3    C7 7680   3.242   3.017  13.139
  514TMC3    C8 7681   2.905   3.368  13.175
  514TMC3    O1 7682   3.232   2.917  13.074
  514TMC3    O2 7683   2.801   3.412  13.222
  515MPD2     C 7684   0.896   0.400  15.300
  515MPD2    C1 7685   0.941   0.454  15.176
  515MPD2    C2 7686   1.003   0.581  15.179
  515MPD2    C3 7687   1.014   0.646  15.299
  515MPD2    C4 7688   0.959   0.599  15.418
  515MPD2    C5 7689   0.906   0.469  15.418
  515MPD2     H 7690   1.044   0.619  15.086
  515MPD2    H1 7691   0.971   0.650  15.513
  515MPD2    H2 7692   0.847   0.303  15.302
  515MPD2    H3 7693   0.874   0.412  15.505
  515MPD2     N 7694   1.091   0.764  15.305
  515MPD2    H5 7695   1.100   0.804  15.398
  515MPD2    N1 7696   0.932   0.384  15.052
  515MPD2    H7 7697   0.972   0.441  14.978
  516TMC3    C1 7698   0.860   0.212  14.897
  516TMC3    C2 7699   0.771   0.282  14.824
  516TMC3    C3 7700   0.679   0.215  14.752
  516TMC3    C4 7701   0.860   0.078  14.891
  516TMC3    C5 7702   0.755   0.011  14.833
  516TMC3    C6 7703   0.662   0.078  14.758
  516TMC3     C 7704   0.877   0.258  15.036
  516TMC3     O 7705   0.874   0.171  15.124
  516TMC3     H 7706   0.760   0.389  14.835
  516TMC3    H1 7707   0.927   0.030  14.962
  516TMC3    H2 7708   0.575   0.032  14.713
  516TMC3    C7 7709   0.735   4.663  14.890
  516TMC3    C8 7710   0.600   0.292  14.654
  516TMC3    O1 7711   0.818   4.615  14.964
  516TMC3    O2 7712   0.492   0.239  14.628
  517MPD2     C 7713   0.344   2.132  17.767
  517MPD2    C1 7714   0.467   2.133  17.829
  517MPD2    C2 7715   0.498   2.233  17.922
  517MPD2    C3 7716   0.424   2.335  17.944
  517MPD2    C4 7717   0.303   2.348  17.873
  517MPD2    C5 7718   0.264   2.244  17.788
  517MPD2     H 7719   0.592   2.227  17.975
  517MPD2    H1 7720   0.238   2.435  17.878
  517MPD2    H2 7721   0.313   2.058  17.694
  517MPD2    H3 7722   0.170   2.243  17.734
  517MPD2     N 7723   0.461   2.440  18.035
  517MPD2    H5 7724   0.394   2.516  18.045
  517MPD2    N1 7725   0.561   2.033  17.822
  517MPD2    H7 7726   0.635   2.029  17.892
  518TMC3    C1 7727   0.661   1.827  17.752
  518TMC3    C2 7728   0.655   1.715  17.665
  518TMC3    C3 7729   0.763   1.641  17.654
  518TMC3    C4 7730   0.768   1.852  17.825
  518TMC3    C5 7731   0.884   1.776  17.812
  518TMC3    C6 7732   0.878   1.663  17.723
  518TMC3     C 7733   0.554   1.921  17.739
  518TMC3     O 7734   0.456   1.889  17.669
  518TMC3     H 7735   0.564   1.700  17.608
  518TMC3    H1 7736   0.769   1.938  17.891
  518TMC3    H2 7737   0.968   1.603  17.727
  518TMC3    C7 7738   1.004   1.803  17.892
  518TMC3    C8 7739   0.754   1.508  17.593
  518TMC3    O1 7740   0.984   1.865  17.998
  518TMC3    O2 7741   0.862   1.450  17.600
  519MPD2     C 7742   1.868   0.510  14.731
  519MPD2    C1 7743   1.888   0.516  14.595
  519MPD2    C2 7744   1.961   0.426  14.534
  519MPD2    C3 7745   2.013   0.321  14.607
  519MPD2    C4 7746   2.000   0.320  14.748
  519MPD2    C5 7747   1.932   0.418  14.811
  519MPD2     H 7748   1.979   0.429  14.427
  519MPD2    H1 7749   2.039   0.237  14.806
  519MPD2    H2 7750   1.809   0.582  14.787
  519MPD2    H3 7751   1.917   0.429  14.918
  519MPD2     N 7752   2.088   0.210  14.560
  519MPD2    H5 7753   2.134   0.143  14.622
  519MPD2    N1 7754   1.833   0.627  14.532
  519MPD2    H7 7755   1.787   0.701  14.584
  520TMC3    C1 7756   2.188   0.071  14.401
  520TMC3    C2 7757   2.184   0.054  14.268
  520TMC3    C3 7758   2.303   0.056  14.200
  520TMC3    C4 7759   2.310   0.066  14.466
  520TMC3    C5 7760   2.426   0.060  14.402
  520TMC3    C6 7761   2.430   0.063  14.265
  520TMC3     C 7762   2.112   0.185  14.426
  520TMC3     O 7763   2.107   0.260  14.327
  520TMC3     H 7764   2.090   0.071  14.217
  520TMC3    H1 7765   2.312   0.059  14.574
  520TMC3    H2 7766   2.514   0.056  14.196
  520TMC3    C7 7767   2.538   4.777  14.459
  520TMC3    C8 7768   2.299   0.108  14.062
  520TMC3    O1 7769   2.526   4.737  14.574
  520TMC3    O2 7770   2.408   0.146  14.027
  521MPD2     C 7771   3.187   3.447  17.419
  521MPD2    C1 7772   3.168   3.313  17.382
  521MPD2    C2 7773   3.269   3.258  17.302
  521MPD2    C3 7774   3.377   3.328  17.268
  521MPD2    C4 7775   3.389   3.468  17.299
  521MPD2    C5 7776   3.293   3.523  17.378
  521MPD2     H 7777   3.266   3.159  17.258
  521MPD2    H1 7778   3.480   3.523  17.276
  521MPD2    H2 7779   3.121   3.507  17.480
  521MPD2    H3 7780   3.304   3.623  17.418
  521MPD2     N 7781   3.450   3.268  17.159
  521MPD2    H5 7782   3.422   3.173  17.137
  521MPD2    N1 7783   3.051   3.253  17.411
  521MPD2    H7 7784   3.014   3.286  17.500
  522TMC3    C1 7785   3.587   3.261  16.967
  522TMC3    C2 7786   3.716   3.226  16.971
  522TMC3    C3 7787   3.746   3.098  16.922
  522TMC3    C4 7788   3.490   3.174  16.933
  522TMC3    C5 7789   3.527   3.049  16.889
  522TMC3    C6 7790   3.654   3.001  16.892
  522TMC3     C 7791   3.559   3.321  17.095
  522TMC3     O 7792   3.631   3.413  17.132
  522TMC3     H 7793   3.791   3.301  16.996
  522TMC3    H1 7794   3.388   3.208  16.949
  522TMC3    H2 7795   3.670   2.899  16.858
  522TMC3    C7 7796   3.422   2.953  16.863
  522TMC3    C8 7797   3.884   3.078  16.886
  522TMC3    O1 7798   3.444   2.834  16.887
  522TMC3    O2 7799   3.964   3.156  16.931
  523MPD2     C 7800   1.019   2.880  10.663
  523MPD2    C1 7801   0.914   2.865  10.580
  523MPD2    C2 7802   0.878   2.976  10.505
  523MPD2    C3 7803   0.955   3.087  10.508
  523MPD2    C4 7804   1.061   3.102  10.592
  523MPD2    C5 7805   1.085   2.993  10.675
  523MPD2     H 7806   0.792   2.961  10.441
  523MPD2    H1 7807   1.107   3.198  10.612
  523MPD2    H2 7808   1.045   2.803  10.735
  523MPD2    H3 7809   1.174   3.005  10.736
  523MPD2     N 7810   0.918   3.196  10.426
  523MPD2    H5 7811   0.971   3.282  10.440
  523MPD2    N1 7812   0.853   2.738  10.572
  523MPD2    H7 7813   0.896   2.665  10.628
  524TMC3    C1 7814   0.833   3.331  10.258
  524TMC3    C2 7815   0.801   3.339  10.128
  524TMC3    C3 7816   0.737   3.450  10.078
  524TMC3    C4 7817   0.771   3.424  10.341
  524TMC3    C5 7818   0.703   3.532  10.285
  524TMC3    C6 7819   0.697   3.549  10.156
  524TMC3     C 7820   0.831   3.205  10.316
  524TMC3     O 7821   0.759   3.122  10.262
  524TMC3     H 7822   0.819   3.250  10.070
  524TMC3    H1 7823   0.765   3.402  10.447
  524TMC3    H2 7824   0.634   3.628  10.116
  524TMC3    C7 7825   0.682   3.645  10.369
  524TMC3    C8 7826   0.682   3.445   9.942
  524TMC3    O1 7827   0.686   3.616  10.488
  524TMC3    O2 7828   0.704   3.338   9.887
  525MPD2     C 7829   3.463   4.494  15.012
  525MPD2    C1 7830   3.581   4.514  15.071
  525MPD2    C2 7831   3.669   4.607  15.016
  525MPD2    C3 7832   3.642   4.674  14.899
  525MPD2    C4 7833   3.515   4.649  14.838
  525MPD2    C5 7834   3.437   4.560  14.896
  525MPD2     H 7835   3.769   4.608  15.058
  525MPD2    H1 7836   3.480   4.717  14.761
  525MPD2    H2 7837   3.394   4.423  15.056
  525MPD2    H3 7838   3.339   4.549  14.850
  525MPD2     N 7839   3.717   4.775  14.840
  525MPD2    H5 7840   3.671   0.054  14.772
  525MPD2    N1 7841   3.616   4.449  15.193
  525MPD2    H7 7842   3.700   4.484  15.238
  526TMC3    C1 7843   3.601   4.317  15.387
  526TMC3    C2 7844   3.535   4.326  15.504
  526TMC3    C3 7845   3.602   4.296  15.626
  526TMC3    C4 7846   3.736   4.294  15.382
  526TMC3    C5 7847   3.798   4.250  15.501
  526TMC3    C6 7848   3.730   4.252  15.621
  526TMC3     C 7849   3.532   4.361  15.264
  526TMC3     O 7850   3.420   4.314  15.240
  526TMC3     H 7851   3.438   4.375  15.504
  526TMC3    H1 7852   3.793   4.292  15.290
  526TMC3    H2 7853   3.783   4.222  15.711
  526TMC3    C7 7854   3.926   4.172  15.508
  526TMC3    C8 7855   3.560   4.344  15.757
  526TMC3    O1 7856   3.962   4.126  15.614
  526TMC3    O2 7857   3.636   4.342  15.850
  527MPD2     C 7858   1.526   2.592  19.047
  527MPD2    C1 7859   1.611   2.603  18.942
  527MPD2    C2 7860   1.741   2.557  18.962
  527MPD2    C3 7861   1.789   2.519  19.083
  527MPD2    C4 7862   1.707   2.545  19.194
  527MPD2    C5 7863   1.565   2.558  19.177
  527MPD2     H 7864   1.807   2.548  18.876
  527MPD2    H1 7865   1.739   2.510  19.292
  527MPD2    H2 7866   1.419   2.607  19.034
  527MPD2    H3 7867   1.507   2.547  19.268
  527MPD2     N 7868   1.930   2.516  19.095
  527MPD2    H5 7869   1.984   2.513  19.009
  527MPD2    N1 7870   1.573   2.644  18.818
  527MPD2    H7 7871   1.652   2.645  18.754
  528TMC3    C1 7872   1.459   2.744  18.643
  528TMC3    C2 7873   1.453   2.880  18.612
  528TMC3    C3 7874   1.499   2.917  18.491
  528TMC3    C4 7875   1.487   2.650  18.554
  528TMC3    C5 7876   1.515   2.689  18.426
  528TMC3    C6 7877   1.517   2.821  18.396
  528TMC3     C 7878   1.453   2.698  18.781
  528TMC3     O 7879   1.364   2.744  18.853
  528TMC3     H 7880   1.441   2.953  18.691
  528TMC3    H1 7881   1.477   2.546  18.584
  528TMC3    H2 7882   1.529   2.858  18.295
  528TMC3    C7 7883   1.432   2.599  18.345
  528TMC3    C8 7884   1.593   3.024  18.507
  528TMC3    O1 7885   1.433   2.480  18.367
  528TMC3    O2 7886   1.560   3.116  18.577
  529MPD2     C 7887   3.916   1.497  19.114
  529MPD2    C1 7888   4.025   1.493  19.029
  529MPD2    C2 7889   4.001   1.535  18.898
  529MPD2    C3 7890   3.879   1.588  18.856
  529MPD2    C4 7891   3.770   1.583  18.941
  529MPD2    C5 7892   3.792   1.531  19.065
  529MPD2     H 7893   4.090   1.535  18.836
  529MPD2    H1 7894   3.675   1.626  18.911
  529MPD2    H2 7895   3.919   1.465  19.217
  529MPD2    H3 7896   3.717   1.524  19.143
  529MPD2     N 7897   3.859   1.635  18.725
  529MPD2    H5 7898   3.770   1.683  18.711
  529MPD2    N1 7899   4.154   1.459  19.074
  529MPD2    H7 7900   4.226   1.444  19.004
  530TMC3    C1 7901   4.322   1.360  19.211
  530TMC3    C2 7902   4.375   1.347  19.332
  530TMC3    C3 7903   4.467   1.247  19.356
  530TMC3    C4 7904   4.331   1.259  19.118
  530TMC3    C5 7905   4.412   1.162  19.145
  530TMC3    C6 7906   4.480   1.150  19.260
  530TMC3     C 7907   4.198   1.434  19.202
  530TMC3     O 7908   4.127   1.440  19.304
  530TMC3     H 7909   4.352   1.416  19.412
  530TMC3    H1 7910   4.261   1.256  19.035
  530TMC3    H2 7911   4.545   1.066  19.280
  530TMC3    C7 7912   4.397   1.044  19.062
  530TMC3    C8 7913   4.500   1.225  19.494
  530TMC3    O1 7914   4.343   1.060  18.952
  530TMC3    O2 7915   4.418   1.263  19.580
  531MPD2     C 7916   3.470   3.383  13.431
  531MPD2    C1 7917   3.355   3.311  13.463
  531MPD2    C2 7918   3.326   3.205  13.377
  531MPD2    C3 7919   3.395   3.179  13.268
  531MPD2    C4 7920   3.509   3.256  13.238
  531MPD2    C5 7921   3.542   3.355  13.320
  531MPD2     H 7922   3.232   3.151  13.383
  531MPD2    H1 7923   3.563   3.225  13.149
  531MPD2    H2 7924   3.504   3.473  13.481
  531MPD2    H3 7925   3.627   3.417  13.293
  531MPD2     N 7926   3.357   3.082  13.168
  531MPD2    H5 7927   3.434   3.058  13.106
  531MPD2    N1 7928   3.275   3.367  13.562
  531MPD2    H7 7929   3.320   3.431  13.626
  532TMC3    C1 7930   3.089   3.407  13.698
  532TMC3    C2 7931   2.960   3.440  13.678
  532TMC3    C3 7932   2.882   3.442  13.791
  532TMC3    C4 7933   3.149   3.395  13.818
  532TMC3    C5 7934   3.065   3.412  13.930
  532TMC3    C6 7935   2.934   3.439  13.918
  532TMC3     C 7936   3.146   3.326  13.587
  532TMC3     O 7937   3.067   3.263  13.519
  532TMC3     H 7938   2.919   3.441  13.578
  532TMC3    H1 7939   3.257   3.389  13.816
  532TMC3    H2 7940   2.864   3.438  14.000
  532TMC3    C7 7941   3.136   3.441  14.050
  532TMC3    C8 7942   2.766   3.362  13.776
  532TMC3    O1 7943   3.082   3.509  14.134
  532TMC3    O2 7944   2.674   3.371  13.859
  533TMC3    C1 7945   3.873   0.164  14.841
  533TMC3    C2 7946   4.010   0.180  14.853
  533TMC3    C3 7947   4.050   0.297  14.914
  533TMC3    C4 7948   3.779   0.247  14.897
  533TMC3    C5 7949   3.828   0.356  14.971
  533TMC3    C6 7950   3.964   0.378  14.975
  533TMC3     C 7951   3.844   0.025  14.875
  533TMC3     O 7952   3.931   4.751  14.945
  533TMC3     H 7953   4.087   0.113  14.816
  533TMC3    H1 7954   3.676   0.214  14.904
  533TMC3    H2 7955   4.012   0.467  15.015
  533TMC3    C7 7956   3.755   0.391  15.092
  533TMC3    C8 7957   4.196   0.326  14.937
  533TMC3    O1 7958   3.650   0.334  15.120
  533TMC3    O2 7959   4.232   0.349  15.052
  534MPD2     C 7960   2.005   0.944  19.898
  534MPD2    C1 7961   1.935   1.046  19.839
  534MPD2    C2 7962   1.826   1.013  19.766
  534MPD2    C3 7963   1.786   0.886  19.737
  534MPD2    C4 7964   1.865   0.788  19.785
  534MPD2    C5 7965   1.964   0.819  19.878
  534MPD2     H 7966   1.767   1.097  19.731
  534MPD2    H1 7967   1.846   0.682  19.770
  534MPD2    H2 7968   2.083   0.958  19.973
  534MPD2    H3 7969   2.013   0.733  19.922
  534MPD2     N 7970   1.678   0.855  19.656
  534MPD2    H5 7971   1.664   0.761  19.619
  534MPD2    N1 7972   1.972   1.182  19.849
  534MPD2    H7 7973   1.910   1.253  19.812
  535TMC3    C1 7974   1.478   0.872  19.532
  535TMC3    C2 7975   1.343   0.926  19.533
  535TMC3    C3 7976   1.262   0.889  19.427
  535TMC3    C4 7977   1.526   0.807  19.429
  535TMC3    C5 7978   1.448   0.766  19.327
  535TMC3    C6 7979   1.315   0.812  19.325
  535TMC3     C 7980   1.572   0.942  19.622
  535TMC3     O 7981   1.541   1.044  19.675
  535TMC3     H 7982   1.314   0.995  19.612
  535TMC3    H1 7983   1.629   0.774  19.430
  535TMC3    H2 7984   1.257   0.787  19.237
  535TMC3    C7 7985   1.526   0.761  19.205
  535TMC3    C8 7986   1.124   0.924  19.423
  535TMC3    O1 7987   1.643   0.797  19.215
  535TMC3    O2 7988   1.053   0.875  19.336
  536MPD2     C 7989   0.684   4.515  16.544
  536MPD2    C1 7990   0.559   4.459  16.579
  536MPD2    C2 7991   0.453   4.504  16.510
  536MPD2    C3 7992   0.459   4.592  16.405
  536MPD2    C4 7993   0.583   4.634  16.366
  536MPD2    C5 7994   0.688   4.598  16.440
  536MPD2     H 7995   0.361   4.465  16.552
  536MPD2    H1 7996   0.591   4.707  16.287
  536MPD2    H2 7997   0.772   4.482  16.599
  536MPD2    H3 7998   0.781   4.646  16.412
  536MPD2     N 7999   0.350   4.622  16.321
  536MPD2    H5 8000   0.366   4.682  16.241
  536MPD2    N1 8001   0.560   4.368  16.686
  536MPD2    H7 8002   0.646   4.345  16.735
  537TMC3    C1 8003   0.465   4.213  16.829
  537TMC3    C2 8004   0.453   4.283  16.943
  537TMC3    C3 8005   0.412   4.205  17.049
  537TMC3    C4 8006   0.422   4.084  16.815
  537TMC3    C5 8007   0.383   4.010  16.927
  537TMC3    C6 8008   0.377   4.074  17.051
  537TMC3     C 8009   0.454   4.289  16.713
  537TMC3     O 8010   0.346   4.273  16.655
  537TMC3     H 8011   0.494   4.382  16.931
  537TMC3    H1 8012   0.408   4.037  16.718
  537TMC3    H2 8013   0.324   4.023  17.131
  537TMC3    C7 8014   0.297   3.892  16.895
  537TMC3    C8 8015   0.426   4.267  17.179
  537TMC3    O1 8016   0.248   3.885  16.785
  537TMC3    O2 8017   0.434   4.193  17.277
  538TMC3    C1 8018   1.609   2.277  11.154
  538TMC3    C2 8019   1.744   2.253  11.156
  538TMC3    C3 8020   1.823   2.353  11.107
  538TMC3    C4 8021   1.555   2.384  11.085
  538TMC3    C5 8022   1.641   2.476  11.028
  538TMC3    C6 8023   1.771   2.472  11.062
  538TMC3     C 8024   1.537   2.252  11.277
  538TMC3     O 8025   1.414   2.254  11.265
  538TMC3     H 8026   1.797   2.167  11.196
  538TMC3    H1 8027   1.448   2.385  11.067
  538TMC3    H2 8028   1.837   2.548  11.021
  538TMC3    C7 8029   1.583   2.608  11.020
  538TMC3    C8 8030   1.960   2.319  11.057
  538TMC3    O1 8031   1.478   2.611  10.953
  538TMC3    O2 8032   1.991   2.203  11.036
  539MPD2     C 8033   1.046   1.987  12.297
  539MPD2    C1 8034   1.082   1.996  12.162
  539MPD2    C2 8035   1.084   2.118  12.091
  539MPD2    C3 8036   1.058   2.235  12.160
  539MPD2    C4 8037   1.038   2.230  12.296
  539MPD2    C5 8038   1.035   2.110  12.359
  539MPD2     H 8039   1.126   2.111  11.991
  539MPD2    H1 8040   1.022   2.314  12.362
  539MPD2    H2 8041   1.047   1.901  12.362
  539MPD2    H3 8042   1.022   2.107  12.467
  539MPD2     N 8043   1.072   2.359  12.100
  539MPD2    H5 8044   1.036   2.437  12.155
  539MPD2    N1 8045   1.127   1.886  12.088
  539MPD2    H7 8046   1.116   1.889  11.987
  540TMC3    C1 8047   1.115   2.525  11.935
  540TMC3    C2 8048   1.108   2.552  11.804
  540TMC3    C3 8049   1.105   2.679  11.762
  540TMC3    C4 8050   1.097   2.621  12.023
  540TMC3    C5 8051   1.090   2.751  11.975
  540TMC3    C6 8052   1.109   2.779  11.843
  540TMC3     C 8053   1.115   2.383  11.972
  540TMC3     O 8054   1.157   2.308  11.884
  540TMC3     H 8055   1.097   2.474  11.729
  540TMC3    H1 8056   1.102   2.596  12.128
  540TMC3    H2 8057   1.097   2.881  11.810
  540TMC3    C7 8058   0.997   2.830  12.053
  540TMC3    C8 8059   1.099   2.701  11.621
  540TMC3    O1 8060   0.916   2.772  12.118
  540TMC3    O2 8061   1.170   2.790  11.578
  541MPD2     C 8062   4.739   3.808  13.725
  541MPD2    C1 8063   4.599   3.812  13.735
  541MPD2    C2 8064   4.533   3.846  13.625
  541MPD2    C3 8065   4.597   3.901  13.518
  541MPD2    C4 8066   4.730   3.928  13.522
  541MPD2    C5 8067   0.021   3.874  13.626
  541MPD2     H 8068   4.428   3.821  13.612
  541MPD2    H1 8069   4.770   3.971  13.431
  541MPD2    H2 8070   0.020   3.758  13.799
  541MPD2    H3 8071   0.129   3.879  13.627
  541MPD2     N 8072   4.528   3.927  13.395
  541MPD2    H5 8073   4.564   4.003  13.338
  541MPD2    N1 8074   4.540   3.745  13.847
  541MPD2    H7 8075   4.601   3.698  13.914
  542TMC3    C1 8076   4.357   3.901  13.236
  542TMC3    C2 8077   4.363   3.816  13.129
  542TMC3    C3 8078   4.341   3.866  13.006
  542TMC3    C4 8079   4.351   4.036  13.216
  542TMC3    C5 8080   4.337   4.083  13.092
  542TMC3    C6 8081   4.333   4.000  12.980
  542TMC3     C 8082   4.416   3.858  13.358
  542TMC3     O 8083   4.370   3.754  13.403
  542TMC3     H 8084   4.367   3.709  13.143
  542TMC3    H1 8085   4.351   4.101  13.302
  542TMC3    H2 8086   4.320   4.039  12.880
  542TMC3    C7 8087   4.275   4.210  13.086
  542TMC3    C8 8088   4.355   3.789  12.887
  542TMC3    O1 8089   4.212   4.248  13.184
  542TMC3    O2 8090   4.375   3.846  12.781
  543TMC3    C1 8091   3.845   0.194  17.755
  543TMC3    C2 8092   3.863   0.066  17.778
  543TMC3    C3 8093   3.828   0.018  17.902
  543TMC3    C4 8094   3.820   0.286  17.857
  543TMC3    C5 8095   3.803   0.235  17.984
  543TMC3    C6 8096   3.802   0.099  18.003
  543TMC3     C 8097   3.889   0.236  17.625
  543TMC3     O 8098   3.990   0.174  17.586
  543TMC3     H 8099   3.857   0.002  17.690
  543TMC3    H1 8100   3.808   0.392  17.835
  543TMC3    H2 8101   3.778   0.049  18.096
  543TMC3    C7 8102   3.758   0.315  18.093
  543TMC3    C8 8103   3.787   4.656  17.900
  543TMC3    O1 8104   3.693   0.269  18.180
  543TMC3    O2 8105   3.835   4.590  17.805
  544MPD2     C 8106   3.554   4.227  18.059
  544MPD2    C1 8107   3.634   4.253  17.949
  544MPD2    C2 8108   3.685   4.381  17.934
  544MPD2    C3 8109   3.656   4.482  18.024
  544MPD2    C4 8110   3.577   4.446  18.134
  544MPD2    C5 8111   3.531   4.321  18.155
  544MPD2     H 8112   3.739   4.405  17.843
  544MPD2    H1 8113   3.550   4.514  18.214
  544MPD2    H2 8114   3.493   4.137  18.067
  544MPD2    H3 8115   3.474   4.298  18.245
  544MPD2     N 8116   3.697   4.617  17.999
  544MPD2    H5 8117   3.651   4.690  18.053
  544MPD2    N1 8118   3.649   4.151  17.849
  544MPD2    H7 8119   3.595   4.067  17.867
  545TMC3    C1 8120   3.697   4.061  17.630
  545TMC3    C2 8121   3.752   4.085  17.504
  545TMC3    C3 8122   3.741   3.996  17.404
  545TMC3    C4 8123   3.623   3.947  17.656
  545TMC3    C5 8124   3.617   3.857  17.552
  545TMC3    C6 8125   3.671   3.878  17.426
  545TMC3     C 8126   3.727   4.163  17.734
  545TMC3     O 8127   3.818   4.247  17.711
  545TMC3     H 8128   3.811   4.174  17.489
  545TMC3    H1 8129   3.589   3.923  17.756
  545TMC3    H2 8130   3.653   3.805  17.347
  545TMC3    C7 8131   3.565   3.724  17.585
  545TMC3    C8 8132   3.839   3.994  17.303
  545TMC3    O1 8133   3.483   3.709  17.674
  545TMC3    O2 8134   3.882   3.886  17.282
  546MPD2     C 8135   0.705   4.775  17.874
  546MPD2    C1 8136   0.621   0.052  17.789
  546MPD2    C2 8137   0.650   0.177  17.739
  546MPD2    C3 8138   0.775   0.232  17.752
  546MPD2    C4 8139   0.856   0.175  17.846
  546MPD2    C5 8140   0.824   0.058  17.907
  546MPD2     H 8141   0.571   0.230  17.687
  546MPD2    H1 8142   0.957   0.212  17.858
  546MPD2    H2 8143   0.689   4.682  17.927
  546MPD2    H3 8144   0.895   0.007  17.971
  546MPD2     N 8145   0.809   0.358  17.696
  546MPD2    H5 8146   0.901   0.393  17.721
  546MPD2    N1 8147   0.496   4.768  17.763
  546MPD2    H7 8148   0.490   4.673  17.798
  547TMC3    C1 8149   0.273   4.729  17.688
  547TMC3    C2 8150   0.195   4.733  17.578
  547TMC3    C3 8151   0.095   4.642  17.563
  547TMC3    C4 8152   0.248   4.635  17.785
  547TMC3    C5 8153   0.147   4.549  17.772
  547TMC3    C6 8154   0.074   4.542  17.660
  547TMC3     C 8155   0.384   0.042  17.698
  547TMC3     O 8156   0.364   0.145  17.638
  547TMC3     H 8157   0.201   0.029  17.502
  547TMC3    H1 8158   0.293   4.640  17.883
  547TMC3    H2 8159   4.762   4.486  17.654
  547TMC3    C7 8160   0.129   4.444  17.871
  547TMC3    C8 8161   0.006   4.656  17.453
  547TMC3    O1 8162   0.157   4.490  17.984
  547TMC3    O2 8163   0.005   4.766  17.399
  548MPD2     C 8164   4.758   1.011  12.814
  548MPD2    C1 8165   4.751   0.908  12.900
  548MPD2    C2 8166   0.067   0.805  12.882
  548MPD2    C3 8167   0.161   0.812  12.777
  548MPD2    C4 8168   0.169   0.928  12.696
  548MPD2    C5 8169   0.080   1.024  12.722
  548MPD2     H 8170   0.066   0.711  12.937
  548MPD2    H1 8171   0.238   0.937  12.613
  548MPD2    H2 8172   4.692   1.096  12.807
  548MPD2    H3 8173   0.078   1.116  12.665
  548MPD2     N 8174   0.241   0.697  12.764
  548MPD2    H5 8175   0.228   0.625  12.834
  548MPD2    N1 8176   4.647   0.905  12.991
  548MPD2    H7 8177   4.587   0.987  12.998
  549TMC3    C1 8178   4.484   0.802  13.140
  549TMC3    C2 8179   4.391   0.886  13.092
  549TMC3    C3 8180   4.256   0.867  13.126
  549TMC3    C4 8181   4.449   0.696  13.219
  549TMC3    C5 8182   4.316   0.687  13.254
  549TMC3    C6 8183   4.214   0.763  13.205
  549TMC3     C 8184   4.615   0.798  13.076
  549TMC3     O 8185   4.674   0.696  13.099
  549TMC3     H 8186   4.427   0.963  13.024
  549TMC3    H1 8187   4.521   0.626  13.258
  549TMC3    H2 8188   4.110   0.756  13.235
  549TMC3    C7 8189   4.274   0.556  13.298
  549TMC3    C8 8190   4.159   0.948  13.061
  549TMC3    O1 8191   4.166   0.547  13.355
  549TMC3    O2 8192   4.047   0.895  13.040
  550TMC3    C1 8193   3.805   3.792  12.839
  550TMC3    C2 8194   3.762   3.786  12.972
  550TMC3    C3 8195   3.698   3.893  13.024
  550TMC3    C4 8196   3.787   3.902  12.758
  550TMC3    C5 8197   3.717   4.005  12.816
  550TMC3    C6 8198   3.673   4.000  12.947
  550TMC3     C 8199   3.845   3.670  12.773
  550TMC3     O 8200   3.925   3.590  12.823
  550TMC3     H 8201   3.796   3.698  13.026
  550TMC3    H1 8202   3.815   3.894  12.654
  550TMC3    H2 8203   3.599   4.074  12.976
  550TMC3    C7 8204   3.628   4.056  12.720
  550TMC3    C8 8205   3.616   3.887  13.142
  550TMC3    O1 8206   3.513   4.050  12.760
  550TMC3    O2 8207   3.575   3.987  13.194
  551TMC3    C1 8208   1.320   1.220  13.745
  551TMC3    C2 8209   1.427   1.229  13.652
  551TMC3    C3 8210   1.530   1.308  13.698
  551TMC3    C4 8211   1.325   1.271  13.874
  551TMC3    C5 8212   1.426   1.358  13.899
  551TMC3    C6 8213   1.528   1.378  13.816
  551TMC3     C 8214   1.192   1.210  13.676
  551TMC3     O 8215   1.185   1.154  13.565
  551TMC3     H 8216   1.430   1.199  13.548
  551TMC3    H1 8217   1.245   1.263  13.947
  551TMC3    H2 8218   1.605   1.453  13.831
  551TMC3    C7 8219   1.430   1.409  14.035
  551TMC3    C8 8220   1.646   1.328  13.614
  551TMC3    O1 8221   1.401   1.339  14.130
  551TMC3    O2 8222   1.690   1.226  13.557
  552MPD2     C 8223   3.097   3.255  14.379
  552MPD2    C1 8224   3.067   3.132  14.441
  552MPD2    C2 8225   3.159   3.075  14.529
  552MPD2    C3 8226   3.264   3.152  14.577
  552MPD2    C4 8227   3.273   3.283  14.535
  552MPD2    C5 8228   3.196   3.328  14.426
  552MPD2     H 8229   3.153   2.972  14.562
  552MPD2    H1 8230   3.351   3.346  14.576
  552MPD2    H2 8231   3.046   3.301  14.295
  552MPD2    H3 8232   3.223   3.418  14.372
  552MPD2     N 8233   3.367   3.098  14.656
  552MPD2    H5 8234   3.444   3.162  14.672
  552MPD2    N1 8235   2.956   3.051  14.398
  552MPD2    H7 8236   2.963   2.953  14.425
  553TMC3    C1 8237   2.792   3.002  14.247
  553TMC3    C2 8238   2.758   3.043  14.118
  553TMC3    C3 8239   2.767   2.972  14.005
  553TMC3    C4 8240   2.826   2.875  14.264
  553TMC3    C5 8241   2.828   2.797  14.148
  553TMC3    C6 8242   2.787   2.837  14.025
  553TMC3     C 8243   2.852   3.104  14.330
  553TMC3     O 8244   2.820   3.219  14.300
  553TMC3     H 8245   2.741   3.149  14.104
  553TMC3    H1 8246   2.856   2.841  14.362
  553TMC3    H2 8247   2.810   2.772  13.941
  553TMC3    C7 8248   2.898   2.669  14.159
  553TMC3    C8 8249   2.865   3.028  13.913
  553TMC3    O1 8250   2.837   2.574  14.107
  553TMC3    O2 8251   2.943   3.112  13.956
  554TMC3    C1 8252   0.134   2.599  11.969
  554TMC3    C2 8253   0.068   2.541  11.865
  554TMC3    C3 8254   0.145   2.480  11.772
  554TMC3    C4 8255   0.271   2.603  11.974
  554TMC3    C5 8256   0.340   2.543  11.875
  554TMC3    C6 8257   0.280   2.467  11.780
  554TMC3     C 8258   0.079   2.553  12.089
  554TMC3     O 8259   4.741   2.522  12.092
  554TMC3     H 8260   4.741   2.543  11.863
  554TMC3    H1 8261   0.312   2.666  12.052
  554TMC3    H2 8262   0.325   2.422  11.692
  554TMC3    C7 8263   0.463   2.601  11.840
  554TMC3    C8 8264   0.087   2.472  11.639
  554TMC3    O1 8265   0.522   2.535  11.757
  554TMC3    O2 8266   0.164   2.446  11.544
  555TMC3    C1 8267   3.998   1.851  15.197
  555TMC3    C2 8268   3.945   1.935  15.286
  555TMC3    C3 8269   3.945   1.902  15.415
  555TMC3    C4 8270   4.059   1.732  15.235
  555TMC3    C5 8271   4.050   1.705  15.362
  555TMC3    C6 8272   3.995   1.786  15.459
  555TMC3     C 8273   4.009   1.883  15.057
  555TMC3     O 8274   4.086   1.814  14.991
  555TMC3     H 8275   3.896   2.028  15.260
  555TMC3    H1 8276   4.102   1.663  15.163
  555TMC3    H2 8277   3.982   1.739  15.556
  555TMC3    C7 8278   4.090   1.572  15.418
  555TMC3    C8 8279   3.941   2.002  15.519
  555TMC3    O1 8280   4.005   1.500  15.469
  555TMC3    O2 8281   3.870   2.100  15.493
  556MPD2     C 8282   2.196   3.591  11.345
  556MPD2    C1 8283   2.273   3.485  11.386
  556MPD2    C2 8284   2.328   3.397  11.289
  556MPD2    C3 8285   2.289   3.407  11.154
  556MPD2    C4 8286   2.200   3.514  11.124
  556MPD2    C5 8287   2.164   3.602  11.212
  556MPD2     H 8288   2.387   3.308  11.308
  556MPD2    H1 8289   2.154   3.521  11.026
  556MPD2    H2 8290   2.163   3.674  11.406
  556MPD2    H3 8291   2.094   3.676  11.177
  556MPD2     N 8292   2.334   3.312  11.062
  556MPD2    H5 8293   2.397   3.239  11.094
  556MPD2    N1 8294   2.289   3.456  11.526
  556MPD2    H7 8295   2.355   3.386  11.558
  557TMC3    C1 8296   2.341   3.201  10.855
  557TMC3    C2 8297   2.322   3.221  10.724
  557TMC3    C3 8298   2.295   3.111  10.643
  557TMC3    C4 8299   2.346   3.078  10.910
  557TMC3    C5 8300   2.324   2.967  10.829
  557TMC3    C6 8301   2.310   2.980  10.693
  557TMC3     C 8302   2.306   3.316  10.929
  557TMC3     O 8303   2.249   3.404  10.868
  557TMC3     H 8304   2.313   3.321  10.683
  557TMC3    H1 8305   2.357   3.069  11.018
  557TMC3    H2 8306   2.294   2.899  10.623
  557TMC3    C7 8307   2.297   2.839  10.899
  557TMC3    C8 8308   2.275   3.137  10.501
  557TMC3    O1 8309   2.259   2.846  11.017
  557TMC3    O2 8310   2.250   3.255  10.479
  558TMC3    C1 8311   4.360   1.100  10.637
  558TMC3    C2 8312   4.240   1.095  10.695
  558TMC3    C3 8313   4.136   1.094  10.607
  558TMC3    C4 8314   4.375   1.128  10.505
  558TMC3    C5 8315   4.269   1.146  10.421
  558TMC3    C6 8316   4.141   1.120  10.474
  558TMC3     C 8317   4.480   1.132  10.715
  558TMC3     O 8318   4.588   1.123  10.661
  558TMC3     H 8319   4.231   1.050  10.793
  558TMC3    H1 8320   4.473   1.120  10.460
  558TMC3    H2 8321   4.051   1.146  10.419
  558TMC3    C7 8322   4.289   1.255  10.333
  558TMC3    C8 8323   4.000   1.111  10.660
  558TMC3    O1 8324   4.392   1.319  10.353
  558TMC3    O2 8325   3.908   1.073  10.596
  559MPD2     C 8326   4.509   2.254  11.205
  559MPD2    C1 8327   4.426   2.173  11.274
  559MPD2    C2 8328   4.474   2.094  11.379
  559MPD2    C3 8329   4.609   2.104  11.415
  559MPD2    C4 8330   4.689   2.186  11.340
  559MPD2    C5 8331   4.641   2.258  11.238
  559MPD2     H 8332   4.405   2.016  11.408
  559MPD2    H1 8333   0.012   2.196  11.370
  559MPD2    H2 8334   4.469   2.321  11.130
  559MPD2    H3 8335   4.710   2.318  11.179
  559MPD2     N 8336   4.645   2.039  11.532
  559MPD2    H5 8337   4.567   1.992  11.577
  559MPD2    N1 8338   4.292   2.174  11.233
  559MPD2    H7 8339   4.255   2.253  11.182
  560TMC3    C1 8340   0.010   1.928  11.689
  560TMC3    C2 8341   4.693   1.831  11.706
  560TMC3    C3 8342   4.720   1.715  11.764
  560TMC3    C4 8343   0.137   1.903  11.728
  560TMC3    C5 8344   0.160   1.791  11.796
  560TMC3    C6 8345   0.066   1.690  11.805
  560TMC3     C 8346   4.778   2.008  11.562
  560TMC3     O 8347   0.095   2.015  11.492
  560TMC3     H 8348   4.593   1.856  11.672
  560TMC3    H1 8349   0.205   1.987  11.729
  560TMC3    H2 8350   0.086   1.600  11.861
  560TMC3    C7 8351   0.282   1.770  11.866
  560TMC3    C8 8352   4.647   1.601  11.706
  560TMC3    O1 8353   0.276   1.689  11.959
  560TMC3    O2 8354   4.528   1.614  11.677
  561TMC3    C1 8355   2.743   1.093  11.258
  561TMC3    C2 8356   2.660   1.004  11.323
  561TMC3    C3 8357   2.607   1.039  11.444
  561TMC3    C4 8358   2.773   1.219  11.308
  561TMC3    C5 8359   2.709   1.249  11.426
  561TMC3    C6 8360   2.636   1.155  11.501
  561TMC3     C 8361   2.806   1.052  11.130
  561TMC3     O 8362   2.767   0.953  11.079
  561TMC3     H 8363   2.645   0.904  11.284
  561TMC3    H1 8364   2.814   1.297  11.245
  561TMC3    H2 8365   2.605   1.185  11.601
  561TMC3    C7 8366   2.730   1.382  11.483
  561TMC3    C8 8367   2.572   0.926  11.532
  561TMC3    O1 8368   2.719   1.395  11.604
  561TMC3    O2 8369   2.595   0.810  11.492
  562TMC3    C1 8370   3.994   2.371  16.795
  562TMC3    C2 8371   3.929   2.487  16.784
  562TMC3    C3 8372   3.796   2.486  16.739
  562TMC3    C4 8373   3.935   2.249  16.762
  562TMC3    C5 8374   3.806   2.246  16.714
  562TMC3    C6 8375   3.737   2.365  16.701
  562TMC3     C 8376   4.140   2.367  16.816
  562TMC3     O 8377   4.191   2.273  16.873
  562TMC3     H 8378   3.972   2.585  16.797
  562TMC3    H1 8379   3.998   2.161  16.761
  562TMC3    H2 8380   3.634   2.356  16.668
  562TMC3    C7 8381   3.753   2.131  16.655
  562TMC3    C8 8382   3.743   2.608  16.692
  562TMC3    O1 8383   3.652   2.144  16.584
  562TMC3    O2 8384   3.774   2.716  16.746
  563MPD2     C 8385   1.250   3.393  15.825
  563MPD2    C1 8386   1.313   3.438  15.936
  563MPD2    C2 8387   1.439   3.383  15.966
  563MPD2    C3 8388   1.507   3.299  15.877
  563MPD2    C4 8389   1.446   3.253  15.763
  563MPD2    C5 8390   1.317   3.307  15.739
  563MPD2     H 8391   1.483   3.386  16.065
  563MPD2    H1 8392   1.479   3.173  15.698
  563MPD2    H2 8393   1.150   3.425  15.798
  563MPD2    H3 8394   1.263   3.266  15.654
  563MPD2     N 8395   1.623   3.233  15.937
  563MPD2    H5 8396   1.648   3.270  16.028
  563MPD2    N1 8397   1.234   3.519  16.024
  563MPD2    H7 8398   1.138   3.538  15.996
  564TMC3    C1 8399   1.172   3.553  16.239
  564TMC3    C2 8400   1.061   3.477  16.205
  564TMC3    C3 8401   1.002   3.403  16.310
  564TMC3    C4 8402   1.219   3.552  16.371
  564TMC3    C5 8403   1.182   3.462  16.460
  564TMC3    C6 8404   1.064   3.397  16.435
  564TMC3     C 8405   1.277   3.563  16.147
  564TMC3     O 8406   1.393   3.577  16.188
  564TMC3     H 8407   1.013   3.489  16.109
  564TMC3    H1 8408   1.314   3.595  16.401
  564TMC3    H2 8409   1.042   3.327  16.514
  564TMC3    C7 8410   1.290   3.370  16.487
  564TMC3    C8 8411   0.984   3.269  16.280
  564TMC3    O1 8412   1.377   3.392  16.569
  564TMC3    O2 8413   0.969   3.198  16.378
  565TMC3    C1 8414   1.994   4.762  10.840
  565TMC3    C2 8415   2.020   4.669  10.943
  565TMC3    C3 8416   1.945   4.557  10.949
  565TMC3    C4 8417   1.900   4.736  10.739
  565TMC3    C5 8418   1.827   4.619  10.754
  565TMC3    C6 8419   1.842   4.535  10.861
  565TMC3     C 8420   2.046   0.111  10.848
  565TMC3     O 8421   2.043   0.170  10.741
  565TMC3     H 8422   2.105   4.685  11.009
  565TMC3    H1 8423   1.878   0.024  10.659
  565TMC3    H2 8424   1.795   4.437  10.855
  565TMC3    C7 8425   1.698   4.621  10.677
  565TMC3    C8 8426   1.995   4.457  11.042
  565TMC3    O1 8427   1.711   4.663  10.563
  565TMC3    O2 8428   2.072   4.490  11.130
  566MPD2     C 8429   3.567   1.663  14.739
  566MPD2    C1 8430   3.586   1.550  14.666
  566MPD2    C2 8431   3.472   1.469  14.651
  566MPD2    C3 8432   3.344   1.510  14.693
  566MPD2    C4 8433   3.333   1.621  14.773
  566MPD2    C5 8434   3.450   1.689  14.800
  566MPD2     H 8435   3.478   1.383  14.585
  566MPD2    H1 8436   3.241   1.659  14.816
  566MPD2    H2 8437   3.653   1.726  14.759
  566MPD2    H3 8438   3.431   1.780  14.856
  566MPD2     N 8439   3.223   1.439  14.667
  566MPD2    H5 8440   3.141   1.460  14.723
  566MPD2    N1 8441   3.711   1.521  14.614
  566MPD2    H7 8442   3.769   1.602  14.596
  567TMC3    C1 8443   3.875   1.384  14.513
  567TMC3    C2 8444   3.926   1.502  14.453
  567TMC3    C3 8445   4.061   1.505  14.420
  567TMC3    C4 8446   3.962   1.287  14.554
  567TMC3    C5 8447   4.102   1.302  14.539
  567TMC3    C6 8448   4.146   1.411  14.466
  567TMC3     C 8449   3.743   1.391  14.575
  567TMC3     O 8450   3.706   1.285  14.627
  567TMC3     H 8451   3.852   1.565  14.405
  567TMC3    H1 8452   3.921   1.196  14.596
  567TMC3    H2 8453   4.252   1.421  14.447
  567TMC3    C7 8454   4.174   1.288  14.660
  567TMC3    C8 8455   4.109   1.595  14.315
  567TMC3    O1 8456   4.300   1.286  14.671
  567TMC3    O2 8457   4.182   1.543  14.229
  568MPD2     C 8458   0.945   1.772  16.472
  568MPD2    C1 8459   1.011   1.839  16.571
  568MPD2    C2 8460   1.013   1.980  16.563
  568MPD2    C3 8461   0.962   2.048  16.451
  568MPD2    C4 8462   0.883   1.979  16.365
  568MPD2    C5 8463   0.885   1.844  16.376
  568MPD2     H 8464   1.072   2.035  16.636
  568MPD2    H1 8465   0.834   2.020  16.278
  568MPD2    H2 8466   0.945   1.664  16.469
  568MPD2    H3 8467   0.828   1.790  16.302
  568MPD2     N 8468   0.981   2.191  16.441
  568MPD2    H5 8469   1.045   2.220  16.515
  568MPD2    N1 8470   1.086   1.760  16.668
  568MPD2    H7 8471   1.079   1.660  16.650
  569TMC3    C1 8472   1.030   2.404  16.336
  569TMC3    C2 8473   1.039   2.457  16.458
  569TMC3    C3 8474   1.118   2.570  16.466
  569TMC3    C4 8475   1.086   2.455  16.217
  569TMC3    C5 8476   1.163   2.564  16.242
  569TMC3    C6 8477   1.185   2.618  16.360
  569TMC3     C 8478   0.969   2.274  16.327
  569TMC3     O 8479   0.941   2.234  16.217
  569TMC3     H 8480   0.985   2.416  16.543
  569TMC3    H1 8481   1.065   2.414  16.119
  569TMC3    H2 8482   1.260   2.694  16.380
  569TMC3    C7 8483   1.164   2.665  16.132
  569TMC3    C8 8484   1.088   2.656  16.584
  569TMC3    O1 8485   1.186   2.629  16.015
  569TMC3    O2 8486   0.972   2.658  16.620
  570TMC3    C1 8487   0.569   0.817  16.450
  570TMC3    C2 8488   0.695   0.809  16.393
  570TMC3    C3 8489   0.742   0.919  16.337
  570TMC3    C4 8490   0.498   0.936  16.451
  570TMC3    C5 8491   0.542   1.035  16.374
  570TMC3    C6 8492   0.668   1.035  16.323
  570TMC3     C 8493   0.541   0.711  16.554
  570TMC3     O 8494   0.585   0.598  16.536
  570TMC3     H 8495   0.760   0.723  16.407
  570TMC3    H1 8496   0.396   0.941  16.487
  570TMC3    H2 8497   0.711   1.125  16.281
  570TMC3    C7 8498   0.510   1.170  16.427
  570TMC3    C8 8499   0.883   0.936  16.308
  570TMC3    O1 8500   0.529   1.185  16.550
  570TMC3    O2 8501   0.936   1.047  16.296
  571MPD2     C 8502   3.209   2.663  17.669
  571MPD2    C1 8503   3.124   2.754  17.734
  571MPD2    C2 8504   3.177   2.866  17.794
  571MPD2    C3 8505   3.311   2.896  17.768
  571MPD2    C4 8506   3.395   2.805  17.702
  571MPD2    C5 8507   3.344   2.688  17.652
  571MPD2     H 8508   3.113   2.934  17.848
  571MPD2    H1 8509   3.502   2.819  17.698
  571MPD2    H2 8510   3.172   2.573  17.621
  571MPD2    H3 8511   3.409   2.614  17.608
  571MPD2     N 8512   3.371   3.013  17.812
  571MPD2    H5 8513   3.471   3.026  17.806
  571MPD2    N1 8514   2.993   2.714  17.763
  571MPD2    H7 8515   2.968   2.618  17.743
  572TMC3    C1 8516   3.385   3.227  17.926
  572TMC3    C2 8517   3.448   3.171  18.039
  572TMC3    C3 8518   3.426   3.228  18.159
  572TMC3    C4 8519   3.331   3.354  17.938
  572TMC3    C5 8520   3.322   3.413  18.061
  572TMC3    C6 8521   3.361   3.351  18.175
  572TMC3     C 8522   3.306   3.126  17.855
  572TMC3     O 8523   3.190   3.160  17.846
  572TMC3     H 8524   3.465   3.064  18.046
  572TMC3    H1 8525   3.270   3.383  17.853
  572TMC3    H2 8526   3.359   3.395  18.274
  572TMC3    C7 8527   3.262   3.546  18.066
  572TMC3    C8 8528   3.465   3.151  18.282
  572TMC3    O1 8529   3.204   3.589  17.968
  572TMC3    O2 8530   3.539   3.061  18.263
  573MPD2     C 8531   3.931   3.004  18.412
  573MPD2    C1 8532   4.035   3.088  18.380
  573MPD2    C2 8533   4.085   3.075  18.255
  573MPD2    C3 8534   4.037   2.976  18.164
  573MPD2    C4 8535   3.936   2.893  18.196
  573MPD2    C5 8536   3.890   2.908  18.322
  573MPD2     H 8537   4.152   3.151  18.217
  573MPD2    H1 8538   3.886   2.818  18.136
  573MPD2    H2 8539   3.879   3.011  18.507
  573MPD2    H3 8540   3.804   2.852  18.356
  573MPD2     N 8541   4.077   2.961  18.033
  573MPD2    H5 8542   4.031   2.884  17.985
  573MPD2    N1 8543   4.061   3.195  18.462
  573MPD2    H7 8544   4.006   3.201  18.547
  574TMC3    C1 8545   4.162   3.024  17.811
  574TMC3    C2 8546   4.035   3.011  17.752
  574TMC3    C3 8547   4.022   3.043  17.618
  574TMC3    C4 8548   4.271   3.077  17.736
  574TMC3    C5 8549   4.249   3.104  17.604
  574TMC3    C6 8550   4.126   3.088  17.543
  574TMC3     C 8551   4.161   3.040  17.959
  574TMC3     O 8552   4.249   3.120  17.999
  574TMC3     H 8553   3.947   2.979  17.806
  574TMC3    H1 8554   4.366   3.087  17.786
  574TMC3    H2 8555   4.108   3.098  17.437
  574TMC3    C7 8556   4.353   3.164  17.537
  574TMC3    C8 8557   3.888   3.061  17.579
  574TMC3    O1 8558   4.362   3.133  17.421
  574TMC3    O2 8559   3.802   2.986  17.620
  575TMC3    C1 8560   2.345   4.213  11.813
  575TMC3    C2 8561   2.275   4.127  11.891
  575TMC3    C3 8562   2.155   4.093  11.843
  575TMC3    C4 8563   2.318   4.246  11.684
  575TMC3    C5 8564   2.196   4.197  11.642
  575TMC3    C6 8565   2.113   4.125  11.717
  575TMC3     C 8566   2.469   4.240  11.879
  575TMC3     O 8567   2.518   4.154  11.949
  575TMC3     H 8568   2.297   4.124  11.997
  575TMC3    H1 8569   2.381   4.306  11.620
  575TMC3    H2 8570   2.011   4.100  11.690
  575TMC3    C7 8571   2.152   4.229  11.512
  575TMC3    C8 8572   2.066   4.016  11.927
  575TMC3    O1 8573   2.194   4.328  11.457
  575TMC3    O2 8574   2.101   4.003  12.045
  576MPD2     C 8575   1.877   0.996  12.803
  576MPD2    C1 8576   1.873   1.113  12.730
  576MPD2    C2 8577   1.819   1.230  12.792
  576MPD2    C3 8578   1.762   1.223  12.914
  576MPD2    C4 8579   1.772   1.102  12.985
  576MPD2    C5 8580   1.823   0.994  12.928
  576MPD2     H 8581   1.833   1.329  12.749
  576MPD2    H1 8582   1.745   1.086  13.089
  576MPD2    H2 8583   1.938   0.913  12.770
  576MPD2    H3 8584   1.837   0.902  12.984
  576MPD2     N 8585   1.711   1.343  12.972
  576MPD2    H5 8586   1.735   1.429  12.924
  576MPD2    N1 8587   1.932   1.128  12.604
  576MPD2    H7 8588   1.933   1.224  12.572
  577TMC3    C1 8589   2.071   1.069  12.415
  577TMC3    C2 8590   2.182   0.990  12.388
  577TMC3    C3 8591   2.276   1.035  12.298
  577TMC3    C4 8592   2.058   1.187  12.343
  577TMC3    C5 8593   2.159   1.228  12.257
  577TMC3    C6 8594   2.273   1.161  12.239
  577TMC3     C 8595   1.983   1.026  12.525
  577TMC3     O 8596   1.969   0.902  12.540
  577TMC3     H 8597   2.192   0.893  12.436
  577TMC3    H1 8598   1.969   1.246  12.362
  577TMC3    H2 8599   2.360   1.212  12.198
  577TMC3    C7 8600   2.120   1.271  12.123
  577TMC3    C8 8601   2.326   0.933  12.212
  577TMC3    O1 8602   2.187   1.215  12.036
  577TMC3    O2 8603   2.351   0.825  12.263
  578MPD2     C 8604   4.598   1.260  18.819
  578MPD2    C1 8605   4.621   1.124  18.793
  578MPD2    C2 8606   4.694   1.036  18.877
  578MPD2    C3 8607   4.738   1.090  18.987
  578MPD2    C4 8608   4.722   1.225  19.015
  578MPD2    C5 8609   4.645   1.308  18.939
  578MPD2     H 8610   4.713   0.931  18.857
  578MPD2    H1 8611   4.752   1.272  19.108
  578MPD2    H2 8612   4.544   1.332  18.758
  578MPD2    H3 8613   4.616   1.407  18.972
  578MPD2     N 8614   0.030   1.013  19.077
  578MPD2    H5 8615   0.069   0.932  19.031
  578MPD2    N1 8616   4.546   1.079  18.682
  578MPD2    H7 8617   4.500   1.149  18.625
  579TMC3    C1 8618   0.177   0.960  19.259
  579TMC3    C2 8619   0.254   1.026  19.349
  579TMC3    C3 8620   0.377   0.971  19.377
  579TMC3    C4 8621   0.208   0.841  19.203
  579TMC3    C5 8622   0.325   0.785  19.237
  579TMC3    C6 8623   0.416   0.849  19.325
  579TMC3     C 8624   0.059   1.038  19.212
  579TMC3     O 8625   0.011   1.125  19.283
  579TMC3     H 8626   0.226   1.123  19.389
  579TMC3    H1 8627   0.138   0.786  19.142
  579TMC3    H2 8628   0.513   0.806  19.347
  579TMC3    C7 8629   0.351   0.642  19.226
  579TMC3    C8 8630   0.473   1.056  19.433
  579TMC3    O1 8631   0.426   0.598  19.316
  579TMC3    O2 8632   0.430   1.152  19.494
  580TMC3    C1 8633   4.459   0.446  12.393
  580TMC3    C2 8634   4.574   0.467  12.321
  580TMC3    C3 8635   4.636   0.361  12.265
  580TMC3    C4 8636   4.412   0.320  12.423
  580TMC3    C5 8637   4.479   0.219  12.361
  580TMC3    C6 8638   4.590   0.230  12.284
  580TMC3     C 8639   4.363   0.531  12.327
  580TMC3     O 8640   4.370   0.540  12.208
  580TMC3     H 8641   4.606   0.566  12.292
  580TMC3    H1 8642   4.344   0.310  12.506
  580TMC3    H2 8643   4.649   0.150  12.241
  580TMC3    C7 8644   4.452   0.085  12.425
  580TMC3    C8 8645   4.722   0.401  12.156
  580TMC3    O1 8646   4.384   0.079  12.530
  580TMC3    O2 8647   4.693   0.386  12.038
  581MPD2     C 8648   2.239   4.682  14.778
  581MPD2    C1 8649   2.253   4.705  14.914
  581MPD2    C2 8650   2.128   4.725  14.982
  581MPD2    C3 8651   2.010   4.745  14.917
  581MPD2    C4 8652   2.006   4.736  14.782
  581MPD2    C5 8653   2.118   4.703  14.714
  581MPD2     H 8654   2.140   4.744  15.088
  581MPD2    H1 8655   1.922   4.736  14.714
  581MPD2    H2 8656   2.329   4.659  14.722
  581MPD2    H3 8657   2.106   4.686  14.608
  581MPD2     N 8658   1.888   4.767  14.994
  581MPD2    H5 8659   1.903   0.008  15.092
  581MPD2    N1 8660   2.372   4.666  14.977
  581MPD2    H7 8661   2.448   4.639  14.915
  582TMC3    C1 8662   2.500   4.578  15.146
  582TMC3    C2 8663   2.562   4.612  15.267
  582TMC3    C3 8664   2.611   4.510  15.344
  582TMC3    C4 8665   2.488   4.448  15.113
  582TMC3    C5 8666   2.511   4.344  15.199
  582TMC3    C6 8667   2.591   4.379  15.307
  582TMC3     C 8668   2.394   4.663  15.114
  582TMC3     O 8669   2.325   4.696  15.209
  582TMC3     H 8670   2.565   4.717  15.294
  582TMC3    H1 8671   2.417   4.432  15.033
  582TMC3    H2 8672   2.616   4.300  15.377
  582TMC3    C7 8673   2.383   4.294  15.250
  582TMC3    C8 8674   2.651   4.531  15.481
  582TMC3    O1 8675   2.367   4.171  15.254
  582TMC3    O2 8676   2.608   4.637  15.526
  583MPD2     C 8677   2.397   1.531  17.069
  583MPD2    C1 8678   2.362   1.640  16.986
  583MPD2    C2 8679   2.294   1.744  17.042
  583MPD2    C3 8680   2.267   1.741  17.180
  583MPD2    C4 8681   2.303   1.637  17.252
  583MPD2    C5 8682   2.371   1.536  17.194
  583MPD2     H 8683   2.278   1.837  16.989
  583MPD2    H1 8684   2.267   1.623  17.353
  583MPD2    H2 8685   2.464   1.456  17.028
  583MPD2    H3 8686   2.388   1.449  17.257
  583MPD2     N 8687   2.211   1.859  17.242
  583MPD2    H5 8688   2.164   1.930  17.187
  583MPD2    N1 8689   2.393   1.650  16.849
  583MPD2    H7 8690   2.343   1.716  16.791
  584TMC3    C1 8691   2.170   2.005  17.411
  584TMC3    C2 8692   2.160   2.098  17.314
  584TMC3    C3 8693   2.137   2.224  17.361
  584TMC3    C4 8694   2.148   2.029  17.546
  584TMC3    C5 8695   2.112   2.158  17.578
  584TMC3    C6 8696   2.101   2.255  17.486
  584TMC3     C 8697   2.201   1.870  17.380
  584TMC3     O 8698   2.215   1.790  17.470
  584TMC3     H 8699   2.180   2.087  17.208
  584TMC3    H1 8700   2.164   1.952  17.620
  584TMC3    H2 8701   2.063   2.353  17.511
  584TMC3    C7 8702   2.058   2.164  17.710
  584TMC3    C8 8703   2.154   2.329  17.263
  584TMC3    O1 8704   2.056   2.067  17.780
  584TMC3    O2 8705   2.150   2.295  17.145
  585MPD2     C 8706   1.874   0.526  18.932
  585MPD2    C1 8707   1.956   0.545  18.819
  585MPD2    C2 8708   1.904   0.516  18.692
  585MPD2    C3 8709   1.773   0.460  18.683
  585MPD2    C4 8710   1.693   0.440  18.795
  585MPD2    C5 8711   1.748   0.472  18.920
  585MPD2     H 8712   1.952   0.532  18.596
  585MPD2    H1 8713   1.587   0.422  18.778
  585MPD2    H2 8714   1.903   0.541  19.035
  585MPD2    H3 8715   1.691   0.444  19.008
  585MPD2     N 8716   1.706   0.430  18.562
  585MPD2    H5 8717   1.607   0.409  18.571
  585MPD2    N1 8718   2.060   0.637  18.844
  585MPD2    H7 8719   2.055   0.693  18.928
  586TMC3    C1 8720   1.696   0.462  18.323
  586TMC3    C2 8721   1.771   0.509  18.223
  586TMC3    C3 8722   1.725   0.523  18.100
  586TMC3    C4 8723   1.570   0.422  18.308
  586TMC3    C5 8724   1.521   0.432  18.184
  586TMC3    C6 8725   1.599   0.495  18.080
  586TMC3     C 8726   1.771   0.431  18.441
  586TMC3     O 8727   1.890   0.403  18.429
  586TMC3     H 8728   1.879   0.503  18.236
  586TMC3    H1 8729   1.506   0.388  18.388
  586TMC3    H2 8730   1.558   0.497  17.980
  586TMC3    C7 8731   1.457   0.312  18.147
  586TMC3    C8 8732   1.794   0.435  18.005
  586TMC3    O1 8733   1.360   0.265  18.208
  586TMC3    O2 8734   1.804   0.318  18.039
  587TMC3    C1 8735   3.913   4.054  16.492
  587TMC3    C2 8736   3.908   4.183  16.532
  587TMC3    C3 8737   4.027   4.243  16.561
  587TMC3    C4 8738   4.025   3.981  16.488
  587TMC3    C5 8739   4.141   4.042  16.531
  587TMC3    C6 8740   4.143   4.173  16.559
  587TMC3     C 8741   3.789   3.984  16.447
  587TMC3     O 8742   3.809   3.878  16.390
  587TMC3     H 8743   3.815   4.239  16.532
  587TMC3    H1 8744   4.030   3.873  16.478
  587TMC3    H2 8745   4.238   4.220  16.582
  587TMC3    C7 8746   4.240   3.972  16.598
  587TMC3    C8 8747   4.028   4.380  16.610
  587TMC3    O1 8748   4.211   3.860  16.639
  587TMC3    O2 8749   4.141   4.435  16.609
  588TMC3    C1 8750   1.283   2.184  10.042
  588TMC3    C2 8751   1.222   2.062  10.065
  588TMC3    C3 8752   1.305   1.963  10.087
  588TMC3    C4 8753   1.418   2.203  10.023
  588TMC3    C5 8754   1.500   2.097  10.051
  588TMC3    C6 8755   1.444   1.979  10.083
  588TMC3     C 8756   1.190   2.295  10.054
  588TMC3     O 8757   1.082   2.280   9.999
  588TMC3     H 8758   1.115   2.049  10.073
  588TMC3    H1 8759   1.464   2.297   9.996
  588TMC3    H2 8760   1.498   1.890  10.114
  588TMC3    C7 8761   1.628   2.127  10.117
  588TMC3    C8 8762   1.247   1.836  10.078
  588TMC3    O1 8763   1.655   2.053  10.209
  588TMC3    O2 8764   1.153   1.822   9.999
  589TMC3    C1 8765   0.802   3.845  19.074
  589TMC3    C2 8766   0.848   3.903  19.188
  589TMC3    C3 8767   0.976   3.862  19.232
  589TMC3    C4 8768   0.888   3.776  18.992
  589TMC3    C5 8769   1.011   3.726  19.038
  589TMC3    C6 8770   1.054   3.767  19.166
  589TMC3     C 8771   0.662   3.846  19.040
  589TMC3     O 8772   0.626   3.771  18.951
  589TMC3     H 8773   0.783   3.965  19.248
  589TMC3    H1 8774   0.849   3.721  18.907
  589TMC3    H2 8775   1.140   3.725  19.217
  589TMC3    C7 8776   1.048   3.593  18.999
  589TMC3    C8 8777   1.039   3.939  19.331
  589TMC3    O1 8778   1.060   3.507  19.086
  589TMC3    O2 8779   0.972   4.005  19.403
  590MPD2     C 8780   4.473   2.166  16.637
  590MPD2    C1 8781   4.477   2.246  16.524
  590MPD2    C2 8782   4.602   2.296  16.485
  590MPD2    C3 8783   4.716   2.275  16.564
  590MPD2    C4 8784   4.714   2.198  16.675
  590MPD2    C5 8785   4.590   2.138  16.709
  590MPD2     H 8786   4.601   2.370  16.406
  590MPD2    H1 8787   0.017   2.182  16.742
  590MPD2    H2 8788   4.391   2.101  16.664
  590MPD2    H3 8789   4.585   2.064  16.789
  590MPD2     N 8790   0.044   2.359  16.533
  590MPD2    H5 8791   0.030   2.435  16.467
  590MPD2    N1 8792   4.357   2.260  16.447
  590MPD2    H7 8793   4.273   2.222  16.490
  591TMC3    C1 8794   0.254   2.452  16.527
  591TMC3    C2 8795   0.349   2.411  16.439
  591TMC3    C3 8796   0.408   2.509  16.359
  591TMC3    C4 8797   0.205   2.581  16.536
  591TMC3    C5 8798   0.270   2.676  16.459
  591TMC3    C6 8799   0.368   2.646  16.368
  591TMC3     C 8800   0.170   2.351  16.582
  591TMC3     O 8801   0.220   2.287  16.672
  591TMC3     H 8802   0.384   2.309  16.433
  591TMC3    H1 8803   0.137   2.610  16.615
  591TMC3    H2 8804   0.412   2.717  16.300
  591TMC3    C7 8805   0.212   2.800  16.458
  591TMC3    C8 8806   0.513   2.473  16.268
  591TMC3    O1 8807   0.094   2.811  16.489
  591TMC3    O2 8808   0.521   2.359  16.229
  592MPD2     C 8809   0.594   4.620  11.856
  592MPD2    C1 8810   0.612   4.667  11.986
  592MPD2    C2 8811   0.539   4.599  12.089
  592MPD2    C3 8812   0.450   4.495  12.056
  592MPD2    C4 8813   0.436   4.453  11.925
  592MPD2    C5 8814   0.508   4.516  11.829
  592MPD2     H 8815   0.551   4.611  12.196
  592MPD2    H1 8816   0.380   4.366  11.891
  592MPD2    H2 8817   0.656   4.666  11.780
  592MPD2    H3 8818   0.501   4.491  11.724
  592MPD2     N 8819   0.382   4.428  12.165
  592MPD2    H5 8820   0.402   4.469  12.256
  592MPD2    N1 8821   0.697   4.771  12.011
  592MPD2    H7 8822   0.734   0.045  11.934
  593TMC3    C1 8823   0.814   0.152  12.142
  593TMC3    C2 8824   0.834   0.195  12.267
  593TMC3    C3 8825   0.901   0.312  12.287
  593TMC3    C4 8826   0.868   0.213  12.032
  593TMC3    C5 8827   0.936   0.328  12.054
  593TMC3    C6 8828   0.952   0.378  12.183
  593TMC3     C 8829   0.743   0.023  12.138
  593TMC3     O 8830   0.741   4.742  12.245
  593TMC3     H 8831   0.798   0.140  12.353
  593TMC3    H1 8832   0.875   0.149  11.945
  593TMC3    H2 8833   1.005   0.472  12.192
  593TMC3    C7 8834   0.982   0.413  11.943
  593TMC3    C8 8835   0.847   0.394  12.395
  593TMC3    O1 8836   1.053   0.505  11.981
  593TMC3    O2 8837   0.733   0.359  12.431
  594MPD2     C 8838   3.875   3.256  14.470
  594MPD2    C1 8839   3.892   3.264  14.609
  594MPD2    C2 8840   3.942   3.377  14.663
  594MPD2    C3 8841   4.004   3.472  14.581
  594MPD2    C4 8842   4.009   3.450  14.443
  594MPD2    C5 8843   3.952   3.340  14.393
  594MPD2     H 8844   3.938   3.391  14.770
  594MPD2    H1 8845   4.042   3.519  14.366
  594MPD2    H2 8846   3.833   3.172  14.415
  594MPD2    H3 8847   3.953   3.312  14.288
  594MPD2     N 8848   4.084   3.581  14.635
  594MPD2    H5 8849   4.056   3.614  14.727
  594MPD2    N1 8850   3.807   3.174  14.673
  594MPD2    H7 8851   3.743   3.121  14.615
  595TMC3    C1 8852   4.414   3.922  14.691
  595TMC3    C2 8853   4.348   3.835  14.607
  595TMC3    C3 8854   4.227   3.780  14.639
  595TMC3    C4 8855   4.354   3.947  14.810
  595TMC3    C5 8856   4.225   3.905  14.837
  595TMC3    C6 8857   4.161   3.821  14.752
  595TMC3     C 8858   4.554   3.941  14.687
  595TMC3     O 8859   4.610   3.963  14.791
  595TMC3     H 8860   4.395   3.788  14.522
  595TMC3    H1 8861   4.403   4.001  14.890
  595TMC3    H2 8862   4.067   3.783  14.789
  595TMC3    C7 8863   4.171   3.940  14.967
  595TMC3    C8 8864   4.174   3.664  14.564
  595TMC3    O1 8865   4.053   3.968  14.956
  595TMC3    O2 8866   4.227   3.645  14.458
  596MPD2     C 8867   3.101   1.594  17.223
  596MPD2    C1 8868   3.101   1.695  17.128
  596MPD2    C2 8869   3.132   1.665  16.993
  596MPD2    C3 8870   3.159   1.538  16.953
  596MPD2    C4 8871   3.174   1.444  17.048
  596MPD2    C5 8872   3.141   1.471  17.184
  596MPD2     H 8873   3.127   1.750  16.926
  596MPD2    H1 8874   3.200   1.344  17.014
  596MPD2    H2 8875   3.069   1.616  17.324
  596MPD2    H3 8876   3.172   1.406  17.265
  596MPD2     N 8877   3.188   1.502  16.823
  596MPD2    H5 8878   3.239   1.415  16.812
  596MPD2    N1 8879   3.054   1.827  17.153
  596MPD2    H7 8880   3.074   1.895  17.080
  597TMC3    C1 8881   2.959   2.015  17.243
  597TMC3    C2 8882   3.007   2.095  17.144
  597TMC3    C3 8883   2.946   2.212  17.122
  597TMC3    C4 8884   2.850   2.057  17.321
  597TMC3    C5 8885   2.789   2.175  17.290
  597TMC3    C6 8886   2.838   2.261  17.198
  597TMC3     C 8887   2.999   1.879  17.265
  597TMC3     O 8888   2.978   1.825  17.369
  597TMC3     H 8889   3.088   2.051  17.087
  597TMC3    H1 8890   2.816   1.988  17.398
  597TMC3    H2 8891   2.798   2.360  17.179
  597TMC3    C7 8892   2.690   2.213  17.397
  597TMC3    C8 8893   2.995   2.302  17.014
  597TMC3    O1 8894   2.659   2.128  17.480
  597TMC3    O2 8895   2.937   2.409  17.023
  598TMC3    C1 8896   1.331   2.984  15.406
  598TMC3    C2 8897   1.221   2.901  15.398
  598TMC3    C3 8898   1.123   2.929  15.308
  598TMC3    C4 8899   1.344   3.093  15.320
  598TMC3    C5 8900   1.244   3.109  15.235
  598TMC3    C6 8901   1.134   3.033  15.228
  598TMC3     C 8902   1.437   2.935  15.486
  598TMC3     O 8903   1.403   2.872  15.585
  598TMC3     H 8904   1.215   2.811  15.458
  598TMC3    H1 8905   1.424   3.165  15.334
  598TMC3    H2 8906   1.058   3.050  15.152
  598TMC3    C7 8907   1.246   3.218  15.137
  598TMC3    C8 8908   0.997   2.867  15.319
  598TMC3    O1 8909   1.203   3.182  15.025
  598TMC3    O2 8910   0.926   2.887  15.220
  599MPD2     C 8911   1.691   0.716  16.245
  599MPD2    C1 8912   1.643   0.588  16.244
  599MPD2    C2 8913   1.525   0.562  16.318
  599MPD2    C3 8914   1.463   0.662  16.381
  599MPD2    C4 8915   1.517   0.791  16.387
  599MPD2    C5 8916   1.636   0.809  16.325
  599MPD2     H 8917   1.490   0.461  16.335
  599MPD2    H1 8918   1.469   0.871  16.443
  599MPD2    H2 8919   1.787   0.735  16.199
  599MPD2    H3 8920   1.672   0.911  16.321
  599MPD2     N 8921   1.344   0.647  16.463
  599MPD2    H5 8922   1.319   0.718  16.530
  599MPD2    N1 8923   1.716   0.490  16.169
  599MPD2    H7 8924   1.816   0.507  16.170
  600TMC3    C1 8925   1.131   0.554  16.515
  600TMC3    C2 8926   1.053   0.440  16.509
  600TMC3    C3 8927   0.937   0.450  16.573
  600TMC3    C4 8928   1.084   0.673  16.555
  600TMC3    C5 8929   0.967   0.673  16.619
  600TMC3    C6 8930   0.886   0.565  16.632
  600TMC3     C 8931   1.256   0.536  16.451
  600TMC3     O 8932   1.276   0.430  16.392
  600TMC3     H 8933   1.097   0.343  16.486
  600TMC3    H1 8934   1.131   0.765  16.522
  600TMC3    H2 8935   0.797   0.558  16.694
  600TMC3    C7 8936   0.917   0.800  16.678
  600TMC3    C8 8937   0.856   0.329  16.585
  600TMC3    O1 8938   0.800   0.827  16.683
  600TMC3    O2 8939   0.921   0.230  16.603
  601MPD2     C 8940   3.270   4.018  18.283
  601MPD2    C1 8941   3.179   3.965  18.196
  601MPD2    C2 8942   3.195   3.833  18.160
  601MPD2    C3 8943   3.296   3.748  18.216
  601MPD2    C4 8944   3.382   3.808  18.302
  601MPD2    C5 8945   3.370   3.944  18.330
  601MPD2     H 8946   3.120   3.779  18.103
  601MPD2    H1 8947   3.466   3.751  18.339
  601MPD2    H2 8948   3.269   4.122  18.313
  601MPD2    H3 8949   3.434   3.982  18.408
  601MPD2     N 8950   3.319   3.618  18.170
  601MPD2    H5 8951   3.396   3.569  18.213
  601MPD2    N1 8952   3.075   4.047  18.137
  601MPD2    H7 8953   3.009   3.999  18.078
  602TMC3    C1 8954   2.931   4.209  18.080
  602TMC3    C2 8955   2.918   4.341  18.046
  602TMC3    C3 8956   2.807   4.376  17.985
  602TMC3    C4 8957   2.850   4.107  18.028
  602TMC3    C5 8958   2.749   4.150  17.946
  602TMC3    C6 8959   2.712   4.286  17.935
  602TMC3     C 8960   3.044   4.176  18.160
  602TMC3     O 8961   3.111   4.263  18.213
  602TMC3     H 8962   2.970   4.424  18.091
  602TMC3    H1 8963   2.855   4.005  18.066
  602TMC3    H2 8964   2.622   4.330  17.893
  602TMC3    C7 8965   2.679   4.058  17.859
  602TMC3    C8 8966   2.766   4.514  17.976
  602TMC3    O1 8967   2.664   3.939  17.898
  602TMC3    O2 8968   2.794   4.590  18.065
  603TMC3    C1 8969   1.717   3.993  11.462
  603TMC3    C2 8970   1.718   3.973  11.598
  603TMC3    C3 8971   1.732   4.091  11.670
  603TMC3    C4 8972   1.727   4.114  11.398
  603TMC3    C5 8973   1.739   4.220  11.478
  603TMC3    C6 8974   1.752   4.214  11.613
  603TMC3     C 8975   1.686   3.872  11.394
  603TMC3     O 8976   1.603   3.884  11.306
  603TMC3     H 8977   1.672   3.880  11.629
  603TMC3    H1 8978   1.724   4.118  11.290
  603TMC3    H2 8979   1.746   4.305  11.671
  603TMC3    C7 8980   1.750   4.358  11.424
  603TMC3    C8 8981   1.680   4.080  11.804
  603TMC3    O1 8982   1.818   4.443  11.487
  603TMC3    O2 8983   1.603   3.985  11.831
  604MPD2     C 8984   2.342   2.745  16.565
  604MPD2    C1 8985   2.235   2.678  16.500
  604MPD2    C2 8986   2.256   2.616  16.378
  604MPD2    C3 8987   2.382   2.639  16.318
  604MPD2    C4 8988   2.478   2.710  16.376
  604MPD2    C5 8989   2.461   2.762  16.499
  604MPD2     H 8990   2.179   2.566  16.319
  604MPD2    H1 8991   2.573   2.736  16.331
  604MPD2    H2 8992   2.328   2.789  16.663
  604MPD2    H3 8993   2.554   2.808  16.530
  604MPD2     N 8994   2.397   2.582  16.185
  604MPD2    H5 8995   2.322   2.516  16.166
  604MPD2    N1 8996   2.111   2.681  16.564
  604MPD2    H7 8997   2.109   2.740  16.647
  605TMC3    C1 8998   1.885   2.658  16.615
  605TMC3    C2 8999   1.944   2.671  16.741
  605TMC3    C3 9000   1.905   2.780  16.823
  605TMC3    C4 9001   1.806   2.761  16.569
  605TMC3    C5 9002   1.763   2.864  16.659
  605TMC3    C6 9003   1.804   2.869  16.789
  605TMC3     C 9004   1.989   2.623  16.522
  605TMC3     O 9005   1.965   2.561  16.419
  605TMC3     H 9006   2.011   2.595  16.778
  605TMC3    H1 9007   1.778   2.757  16.464
  605TMC3    H2 9008   1.777   2.950  16.856
  605TMC3    C7 9009   1.669   2.964  16.613
  605TMC3    C8 9010   2.028   2.852  16.858
  605TMC3    O1 9011   1.595   3.002  16.705
  605TMC3    O2 9012   2.128   2.803  16.809
  606TMC3    C1 9013   3.147   1.871  17.697
  606TMC3    C2 9014   3.119   1.874  17.825
  606TMC3    C3 9015   3.097   1.759  17.894
  606TMC3    C4 9016   3.169   1.755  17.632
  606TMC3    C5 9017   3.131   1.641  17.693
  606TMC3    C6 9018   3.098   1.641  17.827
  606TMC3     C 9019   3.165   2.002  17.631
  606TMC3     O 9020   3.139   2.097  17.697
  606TMC3     H 9021   3.107   1.968  17.878
  606TMC3    H1 9022   3.178   1.742  17.525
  606TMC3    H2 9023   3.084   1.543  17.871
  606TMC3    C7 9024   3.194   1.523  17.638
  606TMC3    C8 9025   3.151   1.757  18.026
  606TMC3    O1 9026   3.295   1.540  17.572
  606TMC3    O2 9027   3.222   1.853  18.057
  607MPD2     C 9028   0.787   4.317  12.144
  607MPD2    C1 9029   0.831   4.378  12.257
  607MPD2    C2 9030   0.771   4.364  12.381
  607MPD2    C3 9031   0.670   4.274  12.389
  607MPD2    C4 9032   0.624   4.213  12.278
  607MPD2    C5 9033   0.677   4.238  12.156
  607MPD2     H 9034   0.822   4.408  12.466
  607MPD2    H1 9035   0.540   4.145  12.277
  607MPD2    H2 9036   0.835   4.331  12.048
  607MPD2    H3 9037   0.613   4.190  12.083
  607MPD2     N 9038   0.629   4.248  12.520
  607MPD2    H5 9039   0.656   4.309  12.596
  607MPD2    N1 9040   0.951   4.461  12.265
  607MPD2    H7 9041   0.963   4.530  12.339
  608TMC3    C1 9042   1.125   4.601  12.189
  608TMC3    C2 9043   1.125   4.642  12.315
  608TMC3    C3 9044   1.166   4.771  12.343
  608TMC3    C4 9045   1.152   4.677  12.084
  608TMC3    C5 9046   1.199   0.018  12.114
  608TMC3    C6 9047   1.195   0.073  12.237
  608TMC3     C 9048   1.016   4.508  12.147
  608TMC3     O 9049   0.995   4.484  12.031
  608TMC3     H 9050   1.130   4.569  12.394
  608TMC3    H1 9051   1.140   4.642  11.982
  608TMC3    H2 9052   1.217   0.179  12.248
  608TMC3    C7 9053   1.204   0.107  11.992
  608TMC3    C8 9054   1.096   0.050  12.448
  608TMC3    O1 9055   1.139   0.070  11.899
  608TMC3    O2 9056   1.082   0.175  12.458
  609TMC3    C1 9057   4.178   3.702   9.409
  609TMC3    C2 9058   4.103   3.646   9.306
  609TMC3    C3 9059   4.178   3.607   9.196
  609TMC3    C4 9060   4.319   3.710   9.407
  609TMC3    C5 9061   4.382   3.664   9.299
  609TMC3    C6 9062   4.316   3.624   9.187
  609TMC3     C 9063   4.109   3.734   9.536
  609TMC3     O 9064   3.996   3.686   9.554
  609TMC3     H 9065   4.003   3.612   9.331
  609TMC3    H1 9066   4.378   3.740   9.492
  609TMC3    H2 9067   4.366   3.607   9.092
  609TMC3    C7 9068   4.515   3.609   9.333
  609TMC3    C8 9069   4.122   3.522   9.095
  609TMC3    O1 9070   4.550   3.615   9.446
  609TMC3    O2 9071   4.201   3.481   9.010
  610TMC3    C1 9072   1.002   4.337  13.061
  610TMC3    C2 9073   1.033   4.382  12.933
  610TMC3    C3 9074   1.110   4.304  12.859
  610TMC3    C4 9075   1.052   4.217  13.110
  610TMC3    C5 9076   1.139   4.149  13.028
  610TMC3    C6 9077   1.163   4.183  12.898
  610TMC3     C 9078   0.894   4.399  13.140
  610TMC3     O 9079   0.852   4.344  13.242
  610TMC3     H 9080   0.985   4.475  12.905
  610TMC3    H1 9081   1.026   4.191  13.212
  610TMC3    H2 9082   1.237   4.128  12.840
  610TMC3    C7 9083   1.257   4.085  13.101
  610TMC3    C8 9084   1.142   4.341  12.718
  610TMC3    O1 9085   1.364   4.134  13.085
  610TMC3    O2 9086   1.141   4.460  12.686
  611MPD2     C 9087   0.613   4.472  11.406
  611MPD2    C1 9088   0.603   4.416  11.282
  611MPD2    C2 9089   0.699   4.450  11.182
  611MPD2    C3 9090   0.795   4.545  11.210
  611MPD2    C4 9091   0.822   4.577  11.341
  611MPD2    C5 9092   0.724   4.548  11.438
  611MPD2     H 9093   0.694   4.405  11.084
  611MPD2    H1 9094   0.897   4.650  11.370
  611MPD2    H2 9095   0.534   4.449  11.477
  611MPD2    H3 9096   0.730   4.597  11.535
  611MPD2     N 9097   0.886   4.606  11.114
  611MPD2    H5 9098   0.967   4.657  11.147
  611MPD2    N1 9099   0.487   4.337  11.250
  611MPD2    H7 9100   0.418   4.322  11.323
  612TMC3    C1 9101   0.987   4.644  10.901
  612TMC3    C2 9102   1.111   4.652  10.956
  612TMC3    C3 9103   1.213   4.720  10.884
  612TMC3    C4 9104   0.960   4.697  10.780
  612TMC3    C5 9105   1.060   4.761  10.708
  612TMC3    C6 9106   1.187   4.779  10.765
  612TMC3     C 9107   0.875   4.592  10.976
  612TMC3     O 9108   0.776   4.554  10.914
  612TMC3     H 9109   1.128   4.593  11.045
  612TMC3    H1 9110   0.865   4.683  10.730
  612TMC3    H2 9111   1.261   0.047  10.703
  612TMC3    C7 9112   1.035   4.769  10.566
  612TMC3    C8 9113   1.346   4.735  10.942
  612TMC3    O1 9114   0.975   4.682  10.513
  612TMC3    O2 9115   1.418   0.044  10.905
  613MPD2     C 9116   0.061   1.642  16.685
  613MPD2    C1 9117   4.716   1.690  16.649
  613MPD2    C2 9118   4.608   1.623  16.697
  613MPD2    C3 9119   4.618   1.512  16.777
  613MPD2    C4 9120   4.740   1.466  16.810
  613MPD2    C5 9121   0.076   1.533  16.767
  613MPD2     H 9122   4.512   1.647  16.652
  613MPD2    H1 9123   4.752   1.374  16.866
  613MPD2    H2 9124   0.157   1.680  16.653
  613MPD2    H3 9125   0.173   1.490  16.789
  613MPD2     N 9126   4.508   1.430  16.814
  613MPD2    H5 9127   4.523   1.332  16.834
  613MPD2    N1 9128   4.695   1.789  16.545
  613MPD2    H7 9129   4.779   1.813  16.493
  614TMC3    C1 9130   4.568   1.881  16.371
  614TMC3    C2 9131   4.636   1.802  16.276
  614TMC3    C3 9132   4.580   1.785  16.154
  614TMC3    C4 9133   4.448   1.945  16.339
  614TMC3    C5 9134   4.396   1.932  16.211
  614TMC3    C6 9135   4.462   1.852  16.120
  614TMC3     C 9136   4.578   1.849  16.514
  614TMC3     O 9137   4.481   1.853  16.583
  614TMC3     H 9138   4.734   1.762  16.299
  614TMC3    H1 9139   4.387   1.994  16.414
  614TMC3    H2 9140   4.433   1.837  16.017
  614TMC3    C7 9141   4.265   1.985  16.173
  614TMC3    C8 9142   4.569   1.636  16.132
  614TMC3    O1 9143   4.197   2.040  16.259
  614TMC3    O2 9144   4.626   1.569  16.217
  615MPD2     C 9145   4.063   3.023  15.808
  615MPD2    C1 9146   3.962   3.068  15.876
  615MPD2    C2 9147   3.841   3.064  15.812
  615MPD2    C3 9148   3.819   3.022  15.682
  615MPD2    C4 9149   3.929   2.988  15.615
  615MPD2    C5 9150   4.051   2.985  15.679
  615MPD2     H 9151   3.757   3.096  15.872
  615MPD2    H1 9152   3.928   2.964  15.509
  615MPD2    H2 9153   4.158   3.028  15.859
  615MPD2    H3 9154   4.137   2.962  15.617
  615MPD2     N 9155   3.693   3.017  15.627
  615MPD2    H5 9156   3.686   2.985  15.531
  615MPD2    N1 9157   3.964   3.113  16.012
  615MPD2    H7 9158   3.875   3.143  16.050
  616TMC3    C1 9159   4.058   3.170  16.217
  616TMC3    C2 9160   4.171   3.227  16.283
  616TMC3    C3 9161   4.150   3.296  16.397
  616TMC3    C4 9162   3.934   3.180  16.270
  616TMC3    C5 9163   3.916   3.246  16.391
  616TMC3    C6 9164   4.024   3.303  16.448
  616TMC3     C 9165   4.079   3.109  16.091
  616TMC3     O 9166   4.193   3.077  16.061
  616TMC3     H 9167   4.265   3.246  16.233
  616TMC3    H1 9168   3.852   3.128  16.221
  616TMC3    H2 9169   4.010   3.369  16.532
  616TMC3    C7 9170   3.791   3.260  16.460
  616TMC3    C8 9171   4.202   3.430  16.379
  616TMC3    O1 9172   3.799   3.277  16.580
  616TMC3    O2 9173   4.123   3.524  16.367
  617MPD2     C 9174   1.911   1.178  13.994
  617MPD2    C1 9175   1.938   1.202  14.127
  617MPD2    C2 9176   1.834   1.209  14.213
  617MPD2    C3 9177   1.712   1.189  14.165
  617MPD2    C4 9178   1.680   1.180  14.036
  617MPD2    C5 9179   1.779   1.172  13.943
  617MPD2     H 9180   1.850   1.216  14.320
  617MPD2    H1 9181   1.582   1.151  13.999
  617MPD2    H2 9182   1.990   1.163  13.922
  617MPD2    H3 9183   1.754   1.135  13.844
  617MPD2     N 9184   1.600   1.165  14.255
  617MPD2    H5 9185   1.513   1.188  14.207
  617MPD2    N1 9186   2.072   1.201  14.168
  617MPD2    H7 9187   2.145   1.164  14.107
  618TMC3    C1 9188   2.270   1.247  14.291
  618TMC3    C2 9189   2.310   1.118  14.268
  618TMC3    C3 9190   2.442   1.086  14.312
  618TMC3    C4 9191   2.350   1.342  14.335
  618TMC3    C5 9192   2.479   1.305  14.369
  618TMC3    C6 9193   2.521   1.173  14.372
  618TMC3     C 9194   2.129   1.268  14.279
  618TMC3     O 9195   2.073   1.335  14.369
  618TMC3     H 9196   2.240   1.043  14.234
  618TMC3    H1 9197   2.313   1.439  14.367
  618TMC3    H2 9198   2.619   1.152  14.412
  618TMC3    C7 9199   2.565   1.403  14.435
  618TMC3    C8 9200   2.480   0.955  14.267
  618TMC3    O1 9201   2.507   1.476  14.515
  618TMC3    O2 9202   2.399   0.866  14.247
  619MPD2     C 9203   3.436   2.464  14.103
  619MPD2    C1 9204   3.387   2.559  14.023
  619MPD2    C2 9205   3.267   2.531  13.966
  619MPD2    C3 9206   3.197   2.415  13.977
  619MPD2    C4 9207   3.240   2.318  14.067
  619MPD2    C5 9208   3.364   2.346  14.124
  619MPD2     H 9209   3.223   2.616  13.916
  619MPD2    H1 9210   3.183   2.230  14.094
  619MPD2    H2 9211   3.536   2.469  14.145
  619MPD2    H3 9212   3.412   2.263  14.174
  619MPD2     N 9213   3.077   2.393  13.920
  619MPD2    H5 9214   3.022   2.318  13.960
  619MPD2    N1 9215   3.461   2.671  13.980
  619MPD2    H7 9216   3.413   2.723  13.907
  620TMC3    C1 9217   3.620   2.841  13.965
  620TMC3    C2 9218   3.534   2.887  13.864
  620TMC3    C3 9219   3.515   3.021  13.853
  620TMC3    C4 9220   3.665   2.926  14.058
  620TMC3    C5 9221   3.647   3.060  14.041
  620TMC3    C6 9222   3.579   3.113  13.937
  620TMC3     C 9223   3.589   2.714  14.011
  620TMC3     O 9224   3.672   2.663  14.087
  620TMC3     H 9225   3.479   2.827  13.793
  620TMC3    H1 9226   3.715   2.890  14.147
  620TMC3    H2 9227   3.568   3.219  13.920
  620TMC3    C7 9228   3.732   3.130  14.137
  620TMC3    C8 9229   3.382   3.063  13.816
  620TMC3    O1 9230   3.832   3.060  14.163
  620TMC3    O2 9231   3.327   3.140  13.892
  621MPD2     C 9232   3.828   2.566  10.592
  621MPD2    C1 9233   3.763   2.562  10.469
  621MPD2    C2 9234   3.773   2.671  10.381
  621MPD2    C3 9235   3.819   2.799  10.426
  621MPD2    C4 9236   3.881   2.798  10.547
  621MPD2    C5 9237   3.880   2.686  10.630
  621MPD2     H 9238   3.725   2.665  10.284
  621MPD2    H1 9239   3.927   2.881  10.600
  621MPD2    H2 9240   3.834   2.494  10.672
  621MPD2    H3 9241   3.918   2.700  10.731
  621MPD2     N 9242   3.819   2.907  10.337
  621MPD2    H5 9243   3.765   2.893  10.252
  621MPD2    N1 9244   3.692   2.445  10.432
  621MPD2    H7 9245   3.662   2.436  10.335
  622TMC3    C1 9246   3.599   2.228  10.436
  622TMC3    C2 9247   3.488   2.177  10.501
  622TMC3    C3 9248   3.410   2.081  10.446
  622TMC3    C4 9249   3.623   2.204  10.304
  622TMC3    C5 9250   3.551   2.100  10.248
  622TMC3    C6 9251   3.444   2.033  10.317
  622TMC3     C 9252   3.665   2.337  10.509
  622TMC3     O 9253   3.683   2.330  10.629
  622TMC3     H 9254   3.467   2.206  10.603
  622TMC3    H1 9255   3.712   2.248  10.261
  622TMC3    H2 9256   3.381   1.962  10.265
  622TMC3    C7 9257   3.567   2.063  10.104
  622TMC3    C8 9258   3.264   2.090  10.464
  622TMC3    O1 9259   3.536   1.948  10.069
  622TMC3    O2 9260   3.204   2.009  10.394
  623MPD2     C 9261   2.356   2.851  15.783
  623MPD2    C1 9262   2.269   2.852  15.888
  623MPD2    C2 9263   2.322   2.870  16.015
  623MPD2    C3 9264   2.453   2.907  16.036
  623MPD2    C4 9265   2.542   2.895  15.926
  623MPD2    C5 9266   2.489   2.873  15.800
  623MPD2     H 9267   2.251   2.873  16.097
  623MPD2    H1 9268   2.648   2.916  15.932
  623MPD2    H2 9269   2.318   2.840  15.682
  623MPD2    H3 9270   2.556   2.871  15.714
  623MPD2     N 9271   2.490   2.965  16.157
  623MPD2    H5 9272   2.428   2.941  16.233
  623MPD2    N1 9273   2.128   2.853  15.866
  623MPD2    H7 9274   2.087   2.880  15.777
  624TMC3    C1 9275   2.733   3.119  16.518
  624TMC3    C2 9276   2.622   3.130  16.598
  624TMC3    C3 9277   2.505   3.129  16.526
  624TMC3    C4 9278   2.736   3.109  16.385
  624TMC3    C5 9279   2.616   3.084  16.325
  624TMC3    C6 9280   2.502   3.088  16.396
  624TMC3     C 9281   2.857   3.101  16.585
  624TMC3     O 9282   2.950   3.139  16.523
  624TMC3     H 9283   2.625   3.128  16.706
  624TMC3    H1 9284   2.826   3.084  16.331
  624TMC3    H2 9285   2.401   3.075  16.358
  624TMC3    C7 9286   2.609   3.029  16.185
  624TMC3    C8 9287   2.376   3.114  16.598
  624TMC3    O1 9288   2.710   3.038  16.121
  624TMC3    O2 9289   2.296   3.036  16.549
  625MPD2     C 9290   3.302   4.277  18.925
  625MPD2    C1 9291   3.361   4.402  18.937
  625MPD2    C2 9292   3.479   4.415  19.004
  625MPD2    C3 9293   3.566   4.310  19.014
  625MPD2    C4 9294   3.517   4.182  18.987
  625MPD2    C5 9295   3.383   4.167  18.957
  625MPD2     H 9296   3.509   4.518  19.018
  625MPD2    H1 9297   3.574   4.094  19.013
  625MPD2    H2 9298   3.203   4.273  18.882
  625MPD2    H3 9299   3.348   4.066  18.940
  625MPD2     N 9300   3.703   4.338  19.023
  625MPD2    H5 9301   3.718   4.438  19.029
  625MPD2    N1 9302   3.306   4.523  18.904
  625MPD2    H7 9303   3.355   4.603  18.943
  626TMC3    C1 9304   3.169   4.686  18.830
  626TMC3    C2 9305   3.053   4.731  18.772
  626TMC3    C3 9306   3.031   0.090  18.761
  626TMC3    C4 9307   3.264   4.776  18.881
  626TMC3    C5 9308   3.234   0.124  18.875
  626TMC3    C6 9309   3.118   0.179  18.821
  626TMC3     C 9310   3.186   4.552  18.835
  626TMC3     O 9311   3.099   4.475  18.789
  626TMC3     H 9312   2.997   4.659  18.714
  626TMC3    H1 9313   3.354   4.744  18.932
  626TMC3    H2 9314   3.106   0.281  18.787
  626TMC3    C7 9315   3.315   0.204  18.964
  626TMC3    C8 9316   2.935   0.143  18.665
  626TMC3    O1 9317   3.423   0.161  19.003
  626TMC3    O2 9318   2.946   0.261  18.627
  627MPD2     C 9319   1.200   0.022  14.634
  627MPD2    C1 9320   1.207   4.750  14.759
  627MPD2    C2 9321   1.139   4.627  14.791
  627MPD2    C3 9322   1.063   4.565  14.697
  627MPD2    C4 9323   1.052   4.623  14.576
  627MPD2    C5 9324   1.117   4.738  14.547
  627MPD2     H 9325   1.138   4.591  14.893
  627MPD2    H1 9326   0.993   4.583  14.495
  627MPD2    H2 9327   1.249   0.110  14.594
  627MPD2    H3 9328   1.110   4.772  14.444
  627MPD2     N 9329   0.973   4.466  14.739
  627MPD2    H5 9330   0.980   4.443  14.838
  627MPD2    N1 9331   1.295   0.017  14.861
  627MPD2    H7 9332   1.310   4.727  14.932
  628TMC3    C1 9333   1.468   0.137  14.956
  628TMC3    C2 9334   1.542   0.022  14.987
  628TMC3    C3 9335   1.665   0.035  15.043
  628TMC3    C4 9336   1.525   0.264  14.965
  628TMC3    C5 9337   1.640   0.271  15.035
  628TMC3    C6 9338   1.699   0.157  15.086
  628TMC3     C 9339   1.376   0.125  14.841
  628TMC3     O 9340   1.368   0.212  14.761
  628TMC3     H 9341   1.509   4.701  14.967
  628TMC3    H1 9342   1.465   0.352  14.944
  628TMC3    H2 9343   1.800   0.165  15.125
  628TMC3    C7 9344   1.702   0.399  15.065
  628TMC3    C8 9345   1.761   4.767  14.941
  628TMC3    O1 9346   1.797   0.393  15.142
  628TMC3    O2 9347   1.721   4.731  14.834
  629MPD2     C 9348   4.604   3.747  16.439
  629MPD2    C1 9349   4.643   3.621  16.452
  629MPD2    C2 9350   4.557   3.511  16.424
  629MPD2    C3 9351   4.427   3.532  16.395
  629MPD2    C4 9352   4.390   3.664  16.379
  629MPD2    C5 9353   4.478   3.772  16.400
  629MPD2     H 9354   4.590   3.408  16.422
  629MPD2    H1 9355   4.284   3.687  16.378
  629MPD2    H2 9356   4.661   3.835  16.465
  629MPD2    H3 9357   4.442   3.874  16.403
  629MPD2     N 9358   4.340   3.424  16.391
  629MPD2    H5 9359   4.383   3.332  16.398
  629MPD2    N1 9360   4.778   3.602  16.501
  629MPD2    H7 9361   0.052   3.687  16.494
  630TMC3    C1 9362   0.187   3.485  16.569
  630TMC3    C2 9363   0.253   3.586  16.503
  630TMC3    C3 9364   0.377   3.615  16.561
  630TMC3    C4 9365   0.234   3.417  16.679
  630TMC3    C5 9366   0.347   3.460  16.737
  630TMC3    C6 9367   0.419   3.563  16.683
  630TMC3     C 9368   0.050   3.482  16.537
  630TMC3     O 9369   4.771   3.378  16.560
  630TMC3     H 9370   0.210   3.643  16.421
  630TMC3    H1 9371   0.168   3.350  16.732
  630TMC3    H2 9372   0.520   3.588  16.714
  630TMC3    C7 9373   0.386   3.414  16.869
  630TMC3    C8 9374   0.460   3.723  16.521
  630TMC3    O1 9375   0.360   3.298  16.894
  630TMC3    O2 9376   0.541   3.764  16.603
  631MPD2     C 9377   2.672   3.331  15.733
  631MPD2    C1 9378   2.753   3.408  15.657
  631MPD2    C2 9379   2.869   3.356  15.609
  631MPD2    C3 9380   2.906   3.220  15.640
  631MPD2    C4 9381   2.815   3.146  15.716
  631MPD2    C5 9382   2.707   3.203  15.773
  631MPD2     H 9383   2.932   3.415  15.543
  631MPD2    H1 9384   2.834   3.044  15.749
  631MPD2    H2 9385   2.587   3.387  15.770
  631MPD2    H3 9386   2.640   3.143  15.834
  631MPD2     N 9387   3.025   3.175  15.584
  631MPD2    H5 9388   3.074   3.235  15.518
  631MPD2    N1 9389   2.722   3.546  15.641
  631MPD2    H7 9390   2.630   3.568  15.677
  632TMC3    C1 9391   2.739   3.771  15.588
  632TMC3    C2 9392   2.606   3.786  15.557
  632TMC3    C3 9393   2.557   3.911  15.524
  632TMC3    C4 9394   2.821   3.874  15.579
  632TMC3    C5 9395   2.775   4.000  15.548
  632TMC3    C6 9396   2.644   4.016  15.521
  632TMC3     C 9397   2.806   3.640  15.588
  632TMC3     O 9398   2.924   3.637  15.543
  632TMC3     H 9399   2.549   3.698  15.530
  632TMC3    H1 9400   2.924   3.854  15.605
  632TMC3    H2 9401   2.607   4.110  15.481
  632TMC3    C7 9402   2.861   4.082  15.468
  632TMC3    C8 9403   2.409   3.917  15.528
  632TMC3    O1 9404   2.816   4.175  15.404
  632TMC3    O2 9405   2.339   3.819  15.501
  633MPD2     C 9406   2.580   1.378  17.608
  633MPD2    C1 9407   2.630   1.304  17.498
  633MPD2    C2 9408   2.640   1.163  17.503
  633MPD2    C3 9409   2.627   1.101  17.626
  633MPD2    C4 9410   2.599   1.183  17.738
  633MPD2    C5 9411   2.570   1.316  17.726
  633MPD2     H 9412   2.674   1.105  17.418
  633MPD2    H1 9413   2.585   1.140  17.837
  633MPD2    H2 9414   2.571   1.486  17.600
  633MPD2    H3 9415   2.551   1.380  17.812
  633MPD2     N 9416   2.671   0.973  17.650
  633MPD2    H5 9417   2.700   0.945  17.743
  633MPD2    N1 9418   2.663   1.360  17.380
  633MPD2    H7 9419   2.685   1.296  17.304
  634TMC3    C1 9420   2.713   1.518  17.212
  634TMC3    C2 9421   2.778   1.415  17.144
  634TMC3    C3 9422   2.823   1.454  17.016
  634TMC3    C4 9423   2.699   1.647  17.170
  634TMC3    C5 9424   2.748   1.679  17.046
  634TMC3    C6 9425   2.810   1.580  16.969
  634TMC3     C 9426   2.693   1.494  17.349
  634TMC3     O 9427   2.688   1.588  17.428
  634TMC3     H 9428   2.792   1.314  17.181
  634TMC3    H1 9429   2.666   1.714  17.248
  634TMC3    H2 9430   2.857   1.612  16.876
  634TMC3    C7 9431   2.721   1.807  16.988
  634TMC3    C8 9432   2.862   1.350  16.925
  634TMC3    O1 9433   2.778   1.840  16.887
  634TMC3    O2 9434   2.860   1.241  16.978
  635TMC3    C1 9435   2.781   2.725  17.884
  635TMC3    C2 9436   2.784   2.586  17.918
  635TMC3    C3 9437   2.686   2.536  17.994
  635TMC3    C4 9438   2.682   2.803  17.943
  635TMC3    C5 9439   2.583   2.743  18.014
  635TMC3    C6 9440   2.585   2.608  18.037
  635TMC3     C 9441   2.896   2.791  17.826
  635TMC3     O 9442   2.893   2.914  17.817
  635TMC3     H 9443   2.859   2.523  17.872
  635TMC3    H1 9444   2.661   2.906  17.917
  635TMC3    H2 9445   2.515   2.570  18.110
  635TMC3    C7 9446   2.481   2.819  18.087
  635TMC3    C8 9447   2.679   2.394  18.014
  635TMC3    O1 9448   2.378   2.760  18.112
  635TMC3    O2 9449   2.737   2.325  17.929
  636MPD2     C 9450   3.672   1.857  16.565
  636MPD2    C1 9451   3.785   1.889  16.636
  636MPD2    C2 9452   3.865   1.784  16.668
  636MPD2    C3 9453   3.846   1.654  16.628
  636MPD2    C4 9454   3.727   1.624  16.555
  636MPD2    C5 9455   3.641   1.726  16.528
  636MPD2     H 9456   3.946   1.797  16.739
  636MPD2    H1 9457   3.702   1.525  16.518
  636MPD2    H2 9458   3.595   1.930  16.542
  636MPD2    H3 9459   3.544   1.709  16.484
  636MPD2     N 9460   3.941   1.556  16.665
  636MPD2    H5 9461   4.018   1.603  16.711
  636MPD2    N1 9462   3.826   2.015  16.682
  636MPD2    H7 9463   3.905   2.021  16.746
  637TMC3    C1 9464   4.077   1.360  16.665
  637TMC3    C2 9465   4.150   1.411  16.766
  637TMC3    C3 9466   4.278   1.369  16.772
  637TMC3    C4 9467   4.124   1.265  16.571
  637TMC3    C5 9468   4.264   1.240  16.578
  637TMC3    C6 9469   4.338   1.283  16.684
  637TMC3     C 9470   3.958   1.433  16.619
  637TMC3     O 9471   3.896   1.379  16.527
  637TMC3     H 9472   4.108   1.464  16.851
  637TMC3    H1 9473   4.065   1.222  16.491
  637TMC3    H2 9474   4.443   1.259  16.676
  637TMC3    C7 9475   4.336   1.281  16.458
  637TMC3    C8 9476   4.373   1.479  16.808
  637TMC3    O1 9477   4.443   1.339  16.470
  637TMC3    O2 9478   4.330   1.591  16.813
  638MPD2     C 9479   3.898   0.573  15.376
  638MPD2    C1 9480   3.814   0.480  15.317
  638MPD2    C2 9481   3.734   0.400  15.394
  638MPD2    C3 9482   3.737   0.404  15.531
  638MPD2    C4 9483   3.823   0.490  15.588
  638MPD2    C5 9484   3.902   0.572  15.511
  638MPD2     H 9485   3.673   0.326  15.344
  638MPD2    H1 9486   3.827   0.505  15.695
  638MPD2    H2 9487   3.966   0.630  15.315
  638MPD2    H3 9488   3.964   0.637  15.572
  638MPD2     N 9489   3.657   0.305  15.598
  638MPD2    H5 9490   3.612   0.236  15.538
  638MPD2    N1 9491   3.828   0.468  15.175
  638MPD2    H7 9492   3.883   0.530  15.117
  639TMC3    C1 9493   3.569   0.177  15.763
  639TMC3    C2 9494   3.505   0.118  15.650
  639TMC3    C3 9495   3.526   4.766  15.636
  639TMC3    C4 9496   3.649   0.101  15.843
  639TMC3    C5 9497   3.672   4.750  15.812
  639TMC3    C6 9498   3.607   4.691  15.712
  639TMC3     C 9499   3.636   0.300  15.730
  639TMC3     O 9500   3.675   0.376  15.815
  639TMC3     H 9501   3.438   0.174  15.586
  639TMC3    H1 9502   3.704   0.160  15.915
  639TMC3    H2 9503   3.606   4.583  15.699
  639TMC3    C7 9504   3.776   4.667  15.874
  639TMC3    C8 9505   3.447   4.698  15.543
  639TMC3    O1 9506   3.782   4.665  15.997
  639TMC3    O2 9507   3.508   4.635  15.464
  640MPD2     C 9508   4.746   4.296  10.515
  640MPD2    C1 9509   4.732   4.355  10.393
  640MPD2    C2 9510   4.617   4.430  10.361
  640MPD2    C3 9511   4.511   4.435  10.452
  640MPD2    C4 9512   4.531   4.359  10.567
  640MPD2    C5 9513   4.638   4.293  10.602
  640MPD2     H 9514   4.600   4.471  10.262
  640MPD2    H1 9515   4.452   4.368  10.640
  640MPD2    H2 9516   0.062   4.254  10.539
  640MPD2    H3 9517   4.653   4.251  10.701
  640MPD2     N 9518   4.386   4.498  10.435
  640MPD2    H5 9519   4.309   4.491  10.501
  640MPD2    N1 9520   0.053   4.325  10.302
  640MPD2    H7 9521   0.119   4.251  10.324
  641TMC3    C1 9522   0.179   4.348  10.107
  641TMC3    C2 9523   0.200   4.215  10.115
  641TMC3    C3 9524   0.289   4.156  10.026
  641TMC3    C4 9525   0.248   4.427  10.017
  641TMC3    C5 9526   0.340   4.369   9.938
  641TMC3    C6 9527   0.357   4.235   9.939
  641TMC3     C 9528   0.070   4.398  10.183
  641TMC3     O 9529   0.011   4.502  10.140
  641TMC3     H 9530   0.132   4.152  10.170
  641TMC3    H1 9531   0.227   4.533  10.012
  641TMC3    H2 9532   0.420   4.192   9.861
  641TMC3    C7 9533   0.430   4.453   9.861
  641TMC3    C8 9534   0.319   4.015  10.040
  641TMC3    O1 9535   0.410   4.574   9.867
  641TMC3    O2 9536   0.386   3.975   9.947
  642TMC3    C1 9537   0.408   0.559  12.694
  642TMC3    C2 9538   0.493   0.581  12.802
  642TMC3    C3 9539   0.533   0.474  12.874
  642TMC3    C4 9540   0.354   0.435  12.669
  642TMC3    C5 9541   0.391   0.330  12.750
  642TMC3    C6 9542   0.473   0.349  12.856
  642TMC3     C 9543   0.330   0.679  12.665
  642TMC3     O 9544   0.355   0.737  12.560
  642TMC3     H 9545   0.524   0.683  12.819
  642TMC3    H1 9546   0.274   0.428  12.597
  642TMC3    H2 9547   0.512   0.259  12.901
  642TMC3    C7 9548   0.333   0.199  12.718
  642TMC3    C8 9549   0.667   0.480  12.929
  642TMC3    O1 9550   0.305   0.178  12.599
  642TMC3    O2 9551   0.722   0.370  12.957
  643TMC3    C1 9552   0.094   4.518  18.397
  643TMC3    C2 9553   4.751   4.522  18.334
  643TMC3    C3 9554   4.707   4.415  18.264
  643TMC3    C4 9555   0.169   4.397  18.386
  643TMC3    C5 9556   0.127   4.294  18.308
  643TMC3    C6 9557   4.778   4.293  18.263
  643TMC3     C 9558   0.139   4.629  18.482
  643TMC3     O 9559   0.084   4.739  18.460
  643TMC3     H 9560   4.691   4.612  18.337
  643TMC3    H1 9561   0.274   4.396  18.414
  643TMC3    H2 9562   4.740   4.204  18.213
  643TMC3    C7 9563   0.214   4.177  18.313
  643TMC3    C8 9564   4.650   4.451  18.134
  643TMC3    O1 9565   0.290   4.166  18.412
  643TMC3    O2 9566   4.627   4.355  18.057
  644MPD2     C 9567   0.343   0.360  10.205
  644MPD2    C1 9568   0.291   0.230  10.184
  644MPD2    C2 9569   0.157   0.217  10.157
  644MPD2    C3 9570   0.082   0.330  10.127
  644MPD2    C4 9571   0.141   0.455  10.139
  644MPD2    C5 9572   0.260   0.467  10.187
  644MPD2     H 9573   0.116   0.118  10.141
  644MPD2    H1 9574   0.095   0.549  10.111
  644MPD2    H2 9575   0.449   0.380  10.214
  644MPD2    H3 9576   0.290   0.569  10.206
  644MPD2     N 9577   4.734   0.302  10.080
  644MPD2    H5 9578   4.711   0.204  10.065
  644MPD2    N1 9579   0.378   0.124  10.202
  644MPD2    H7 9580   0.477   0.140  10.215
  645TMC3    C1 9581   4.521   0.348   9.994
  645TMC3    C2 9582   4.427   0.442   9.958
  645TMC3    C3 9583   4.326   0.400   9.882
  645TMC3    C4 9584   4.512   0.218   9.960
  645TMC3    C5 9585   4.398   0.180   9.887
  645TMC3    C6 9586   4.308   0.270   9.848
  645TMC3     C 9587   4.648   0.402  10.045
  645TMC3     O 9588   4.649   0.522  10.064
  645TMC3     H 9589   4.451   0.548   9.963
  645TMC3    H1 9590   4.598   0.152   9.964
  645TMC3    H2 9591   4.223   0.236   9.790
  645TMC3    C7 9592   4.398   0.050   9.815
  645TMC3    C8 9593   4.253   0.510   9.818
  645TMC3    O1 9594   4.329   0.045   9.716
  645TMC3    O2 9595   4.250   0.622   9.871
  646MPD2     C 9596   3.760   3.837  14.996
  646MPD2    C1 9597   3.722   3.901  15.109
  646MPD2    C2 9598   3.621   3.992  15.108
  646MPD2    C3 9599   3.551   4.026  14.984
  646MPD2    C4 9600   3.595   3.959  14.868
  646MPD2    C5 9601   3.689   3.862  14.879
  646MPD2     H 9602   3.580   4.035  15.198
  646MPD2    H1 9603   3.545   3.987  14.776
  646MPD2    H2 9604   3.845   3.770  14.999
  646MPD2    H3 9605   3.714   3.800  14.793
  646MPD2     N 9606   3.447   4.117  14.985
  646MPD2    H5 9607   3.415   4.148  15.076
  646MPD2    N1 9608   3.793   3.863  15.225
  646MPD2    H7 9609   3.868   3.796  15.209
  647TMC3    C1 9610   3.846   3.813  15.451
  647TMC3    C2 9611   3.771   3.768  15.558
  647TMC3    C3 9612   3.829   3.685  15.655
  647TMC3    C4 9613   3.975   3.784  15.429
  647TMC3    C5 9614   4.033   3.708  15.525
  647TMC3    C6 9615   3.957   3.664  15.634
  647TMC3     C 9616   3.767   3.897  15.357
  647TMC3     O 9617   3.670   3.960  15.400
  647TMC3     H 9618   3.664   3.783  15.572
  647TMC3    H1 9619   4.032   3.825  15.347
  647TMC3    H2 9620   4.007   3.575  15.672
  647TMC3    C7 9621   4.155   3.627  15.497
  647TMC3    C8 9622   3.778   3.550  15.644
  647TMC3    O1 9623   4.211   3.587  15.594
  647TMC3    O2 9624   3.812   3.468  15.729
  648TMC3    C1 9625   3.242   1.523  16.593
  648TMC3    C2 9626   3.329   1.419  16.596
  648TMC3    C3 9627   3.389   1.386  16.479
  648TMC3    C4 9628   3.213   1.599  16.476
  648TMC3    C5 9629   3.277   1.557  16.360
  648TMC3    C6 9630   3.373   1.461  16.362
  648TMC3     C 9631   3.168   1.570  16.713
  648TMC3     O 9632   3.106   1.674  16.715
  648TMC3     H 9633   3.348   1.366  16.688
  648TMC3    H1 9634   3.161   1.694  16.476
  648TMC3    H2 9635   3.419   1.439  16.266
  648TMC3    C7 9636   3.248   1.626  16.238
  648TMC3    C8 9637   3.495   1.281  16.494
  648TMC3    O1 9638   3.341   1.627  16.157
  648TMC3    O2 9639   3.491   1.223  16.605
  649TMC3    C1 9640   2.093   2.986  13.034
  649TMC3    C2 9641   2.227   2.987  13.007
  649TMC3    C3 9642   2.314   2.935  13.098
  649TMC3    C4 9643   2.050   2.936  13.154
  649TMC3    C5 9644   2.141   2.881  13.241
  649TMC3    C6 9645   2.273   2.882  13.215
  649TMC3     C 9646   1.991   3.003  12.931
  649TMC3     O 9647   1.873   3.020  12.971
  649TMC3     H 9648   2.259   3.019  12.908
  649TMC3    H1 9649   1.945   2.937  13.180
  649TMC3    H2 9650   2.347   2.834  13.278
  649TMC3    C7 9651   2.088   2.777  13.331
  649TMC3    C8 9652   2.455   2.925  13.071
  649TMC3    O1 9653   1.970   2.788  13.353
  649TMC3    O2 9654   2.509   2.836  13.134
  650TMC3    C1 9655   0.039   4.491  13.198
  650TMC3    C2 9656   4.746   4.598  13.250
  650TMC3    C3 9657   4.635   4.640  13.176
  650TMC3    C4 9658   0.003   4.434  13.077
  650TMC3    C5 9659   4.673   4.482  13.009
  650TMC3    C6 9660   4.593   4.582  13.064
  650TMC3     C 9661   0.164   4.452  13.260
  650TMC3     O 9662   0.235   4.539  13.310
  650TMC3     H 9663   4.776   4.655  13.337
  650TMC3    H1 9664   0.079   4.370  13.033
  650TMC3    H2 9665   4.497   4.608  13.021
  650TMC3    C7 9666   4.654   4.449  12.873
  650TMC3    C8 9667   4.565   4.750  13.235
  650TMC3    O1 9668   4.656   4.334  12.838
  650TMC3    O2 9669   4.635   0.048  13.300
  651MPD2     C 9670   3.423   1.801  10.685
  651MPD2    C1 9671   3.387   1.880  10.789
  651MPD2    C2 9672   3.487   1.936  10.868
  651MPD2    C3 9673   3.622   1.902  10.854
  651MPD2    C4 9674   3.656   1.808  10.755
  651MPD2    C5 9675   3.555   1.760  10.677
  651MPD2     H 9676   3.441   2.003  10.940
  651MPD2    H1 9677   3.760   1.781  10.740
  651MPD2    H2 9678   3.354   1.758  10.614
  651MPD2    H3 9679   3.579   1.682  10.606
  651MPD2     N 9680   3.709   1.963  10.943
  651MPD2    H5 9681   3.667   2.032  11.004
  651MPD2    N1 9682   3.256   1.916  10.820
  651MPD2    H7 9683   3.237   1.960  10.909
  652TMC3    C1 9684   4.070   2.096  11.200
  652TMC3    C2 9685   4.014   1.998  11.122
  652TMC3    C3 9686   3.905   2.036  11.048
  652TMC3    C4 9687   4.016   2.221  11.197
  652TMC3    C5 9688   3.903   2.250  11.125
  652TMC3    C6 9689   3.848   2.157  11.051
  652TMC3     C 9690   4.206   2.070  11.251
  652TMC3     O 9691   4.229   1.949  11.268
  652TMC3     H 9692   4.038   1.894  11.138
  652TMC3    H1 9693   4.062   2.302  11.253
  652TMC3    H2 9694   3.762   2.179  10.989
  652TMC3    C7 9695   3.862   2.386  11.105
  652TMC3    C8 9696   3.841   1.935  10.965
  652TMC3    O1 9697   3.752   2.399  11.054
  652TMC3    O2 9698   3.906   1.847  10.911
  653MPD2     C 9699   2.156   1.729  18.093
  653MPD2    C1 9700   2.148   1.820  17.986
  653MPD2    C2 9701   2.133   1.766  17.861
  653MPD2    C3 9702   2.120   1.625  17.844
  653MPD2    C4 9703   2.113   1.544  17.955
  653MPD2    C5 9704   2.133   1.594  18.075
  653MPD2     H 9705   2.157   1.832  17.779
  653MPD2    H1 9706   2.098   1.437  17.957
  653MPD2    H2 9707   2.192   1.758  18.191
  653MPD2    H3 9708   2.151   1.520  18.152
  653MPD2     N 9709   2.119   1.574  17.715
  653MPD2    H5 9710   2.084   1.618  17.630
  653MPD2    N1 9711   2.170   1.958  18.004
  653MPD2    H7 9712   2.168   2.018  17.922
  654TMC3    C1 9713   2.166   1.394  17.565
  654TMC3    C2 9714   2.092   1.443  17.465
  654TMC3    C3 9715   2.092   1.376  17.343
  654TMC3    C4 9716   2.251   1.283  17.536
  654TMC3    C5 9717   2.252   1.232  17.415
  654TMC3    C6 9718   2.174   1.270  17.314
  654TMC3     C 9719   2.183   1.451  17.695
  654TMC3     O 9720   2.239   1.381  17.781
  654TMC3     H 9721   2.019   1.520  17.484
  654TMC3    H1 9722   2.319   1.245  17.611
  654TMC3    H2 9723   2.174   1.222  17.217
  654TMC3    C7 9724   2.289   1.100  17.399
  654TMC3    C8 9725   1.986   1.405  17.254
  654TMC3    O1 9726   2.305   1.059  17.286
  654TMC3    O2 9727   1.903   1.494  17.288
  655MPD2     C 9728   3.877   1.751  15.959
  655MPD2    C1 9729   3.753   1.786  15.903
  655MPD2    C2 9730   3.712   1.720  15.790
  655MPD2    C3 9731   3.794   1.621  15.730
  655MPD2    C4 9732   3.916   1.594  15.789
  655MPD2    C5 9733   3.955   1.653  15.900
  655MPD2     H 9734   3.624   1.753  15.737
  655MPD2    H1 9735   3.990   1.527  15.748
  655MPD2    H2 9736   3.925   1.780  16.052
  655MPD2    H3 9737   4.057   1.631  15.930
  655MPD2     N 9738   3.757   1.560  15.603
  655MPD2    H5 9739   3.834   1.510  15.561
  655MPD2    N1 9740   3.672   1.882  15.964
  655MPD2    H7 9741   3.584   1.911  15.923
  656TMC3    C1 9742   3.589   2.022  16.125
  656TMC3    C2 9743   3.506   1.990  16.234
  656TMC3    C3 9744   3.381   2.048  16.241
  656TMC3    C4 9745   3.553   2.108  16.033
  656TMC3    C5 9746   3.427   2.171  16.051
  656TMC3    C6 9747   3.338   2.135  16.147
  656TMC3     C 9748   3.687   1.925  16.094
  656TMC3     O 9749   3.773   1.903  16.177
  656TMC3     H 9750   3.546   1.917  16.303
  656TMC3    H1 9751   3.616   2.130  15.948
  656TMC3    H2 9752   3.237   2.173  16.137
  656TMC3    C7 9753   3.379   2.236  15.929
  656TMC3    C8 9754   3.283   1.996  16.339
  656TMC3    O1 9755   3.447   2.221  15.831
  656TMC3    O2 9756   3.293   1.895  16.404
  657TMC3    C1 9757   2.698   1.124  15.340
  657TMC3    C2 9758   2.740   1.142  15.465
  657TMC3    C3 9759   2.674   1.225  15.547
  657TMC3    C4 9760   2.587   1.191  15.296
  657TMC3    C5 9761   2.524   1.274  15.377
  657TMC3    C6 9762   2.561   1.289  15.509
  657TMC3     C 9763   2.710   0.988  15.292
  657TMC3     O 9764   2.614   0.938  15.242
  657TMC3     H 9765   2.825   1.085  15.501
  657TMC3    H1 9766   2.539   1.164  15.202
  657TMC3    H2 9767   2.510   1.356  15.577
  657TMC3    C7 9768   2.415   1.351  15.324
  657TMC3    C8 9769   2.737   1.284  15.665
  657TMC3    O1 9770   2.320   1.366  15.401
  657TMC3    O2 9771   2.693   1.390  15.708
  658MPD2     C 9772   4.093   1.317  15.173
  658MPD2    C1 9773   3.992   1.380  15.106
  658MPD2    C2 9774   3.993   1.373  14.969
  658MPD2    C3 9775   4.103   1.317  14.900
  658MPD2    C4 9776   4.208   1.259  14.967
  658MPD2    C5 9777   4.199   1.257  15.106
  658MPD2     H 9778   3.910   1.410  14.910
  658MPD2    H1 9779   4.278   1.199  14.910
  658MPD2    H2 9780   4.101   1.311  15.281
  658MPD2    H3 9781   4.273   1.203  15.164
  658MPD2     N 9782   4.087   1.318  14.759
  658MPD2    H5 9783   3.995   1.337  14.722
  658MPD2    N1 9784   3.886   1.443  15.172
  658MPD2    H7 9785   3.865   1.413  15.267
  659TMC3    C1 9786   3.685   1.552  15.204
  659TMC3    C2 9787   3.720   1.536  15.334
  659TMC3    C3 9788   3.614   1.518  15.419
  659TMC3    C4 9789   3.563   1.533  15.154
  659TMC3    C5 9790   3.462   1.510  15.239
  659TMC3    C6 9791   3.489   1.500  15.371
  659TMC3     C 9792   3.791   1.529  15.114
  659TMC3     O 9793   3.782   1.575  14.998
  659TMC3     H 9794   3.811   1.586  15.365
  659TMC3    H1 9795   3.544   1.545  15.048
  659TMC3    H2 9796   3.408   1.482  15.441
  659TMC3    C7 9797   3.331   1.465  15.191
  659TMC3    C8 9798   3.627   1.566  15.553
  659TMC3    O1 9799   3.234   1.459  15.264
  659TMC3    O2 9800   3.523   1.614  15.600
  660MPD2     C 9801   1.774   0.638  12.883
  660MPD2    C1 9802   1.668   0.682  12.959
  660MPD2    C2 9803   1.628   0.602  13.069
  660MPD2    C3 9804   1.697   0.485  13.092
  660MPD2    C4 9805   1.791   0.441  13.004
  660MPD2    C5 9806   1.834   0.521  12.900
  660MPD2     H 9807   1.551   0.641  13.135
  660MPD2    H1 9808   1.835   0.344  13.021
  660MPD2    H2 9809   1.807   0.703  12.803
  660MPD2    H3 9810   1.918   0.493  12.837
  660MPD2     N 9811   1.666   0.403  13.202
  660MPD2    H5 9812   1.715   0.315  13.209
  660MPD2    N1 9813   1.594   0.794  12.921
  660MPD2    H7 9814   1.636   0.859  12.856
  661TMC3    C1 9815   1.415   0.947  12.896
  661TMC3    C2 9816   1.479   1.024  12.806
  661TMC3    C3 9817   1.400   1.096  12.716
  661TMC3    C4 9818   1.275   0.943  12.902
  661TMC3    C5 9819   1.206   1.021  12.816
  661TMC3    C6 9820   1.264   1.101  12.725
  661TMC3     C 9821   1.470   0.830  12.966
  661TMC3     O 9822   1.397   0.768  13.045
  661TMC3     H 9823   1.586   1.028  12.791
  661TMC3    H1 9824   1.217   0.870  12.958
  661TMC3    H2 9825   1.206   1.156  12.652
  661TMC3    C7 9826   1.078   0.973  12.770
  661TMC3    C8 9827   1.468   1.132  12.589
  661TMC3    O1 9828   1.005   1.068  12.740
  661TMC3    O2 9829   1.585   1.096  12.582
  662MPD2     C 9830   1.966   0.323  17.537
  662MPD2    C1 9831   1.940   0.239  17.643
  662MPD2    C2 9832   1.889   0.293  17.760
  662MPD2    C3 9833   1.871   0.431  17.768
  662MPD2    C4 9834   1.907   0.513  17.664
  662MPD2    C5 9835   1.948   0.459  17.549
  662MPD2     H 9836   1.862   0.226  17.841
  662MPD2    H1 9837   1.904   0.621  17.659
  662MPD2    H2 9838   2.006   0.279  17.447
  662MPD2    H3 9839   1.987   0.532  17.479
  662MPD2     N 9840   1.824   0.498  17.887
  662MPD2    H5 9841   1.818   0.599  17.888
  662MPD2    N1 9842   1.945   0.097  17.644
  662MPD2    H7 9843   1.908   0.054  17.728
  663TMC3    C1 9844   1.937   4.658  17.572
  663TMC3    C2 9845   1.852   4.632  17.677
  663TMC3    C3 9846   1.803   4.502  17.675
  663TMC3    C4 9847   1.987   4.565  17.488
  663TMC3    C5 9848   1.940   4.436  17.499
  663TMC3    C6 9849   1.845   4.404  17.587
  663TMC3     C 9850   1.965   0.011  17.541
  663TMC3     O 9851   2.035   0.036  17.443
  663TMC3     H 9852   1.781   4.708  17.705
  663TMC3    H1 9853   2.059   4.598  17.413
  663TMC3    H2 9854   1.784   4.314  17.583
  663TMC3    C7 9855   1.993   4.336  17.412
  663TMC3    C8 9856   1.698   4.462  17.772
  663TMC3    O1 9857   2.045   4.356  17.307
  663TMC3    O2 9858   1.659   4.349  17.772
  664MPD2     C 9859   4.624   2.868  17.648
  664MPD2    C1 9860   4.672   2.989  17.694
  664MPD2    C2 9861   4.636   3.038  17.820
  664MPD2    C3 9862   4.558   2.957  17.904
  664MPD2    C4 9863   4.515   2.840  17.855
  664MPD2    C5 9864   4.545   2.791  17.726
  664MPD2     H 9865   4.679   3.127  17.866
  664MPD2    H1 9866   4.444   2.777  17.908
  664MPD2    H2 9867   4.642   2.817  17.554
  664MPD2    H3 9868   4.506   2.694  17.697
  664MPD2     N 9869   4.530   3.009  18.037
  664MPD2    H5 9870   4.557   3.105  18.057
  664MPD2    N1 9871   4.760   3.066  17.620
  664MPD2    H7 9872   4.773   3.161  17.654
  665TMC3    C1 9873   4.471   3.031  18.267
  665TMC3    C2 9874   4.383   2.988  18.363
  665TMC3    C3 9875   4.404   3.034  18.495
  665TMC3    C4 9876   4.583   3.096  18.306
  665TMC3    C5 9877   4.599   3.143  18.430
  665TMC3    C6 9878   4.509   3.115  18.533
  665TMC3     C 9879   4.466   2.953  18.142
  665TMC3     O 9880   4.422   2.836  18.145
  665TMC3     H 9881   4.292   2.952  18.316
  665TMC3    H1 9882   4.657   3.126  18.233
  665TMC3    H2 9883   4.534   3.143  18.635
  665TMC3    C7 9884   4.733   3.190  18.461
  665TMC3    C8 9885   4.312   3.009  18.593
  665TMC3    O1 9886   0.032   3.157  18.382
  665TMC3    O2 9887   4.309   3.084  18.684
  666TMC3    C1 9888   3.868   3.118  10.258
  666TMC3    C2 9889   3.935   3.050  10.159
  666TMC3    C3 9890   4.015   3.121  10.072
  666TMC3    C4 9891   3.902   3.248  10.290
  666TMC3    C5 9892   3.980   3.316  10.201
  666TMC3    C6 9893   4.033   3.255  10.090
  666TMC3     C 9894   3.843   3.033  10.376
  666TMC3     O 9895   3.859   3.080  10.486
  666TMC3     H 9896   3.927   2.943  10.144
  666TMC3    H1 9897   3.868   3.299  10.379
  666TMC3    H2 9898   4.096   3.305  10.018
  666TMC3    C7 9899   4.031   3.446  10.241
  666TMC3    C8 9900   4.089   3.045   9.970
  666TMC3    O1 9901   3.972   3.501  10.332
  666TMC3    O2 9902   4.012   2.980   9.904
  667MPD2     C 9903   0.691   2.949  14.867
  667MPD2    C1 9904   0.627   2.948  14.991
  667MPD2    C2 9905   0.530   2.853  15.019
  667MPD2    C3 9906   0.496   2.761  14.913
  667MPD2    C4 9907   0.558   2.764  14.785
  667MPD2    C5 9908   0.661   2.849  14.772
  667MPD2     H 9909   0.482   2.866  15.116
  667MPD2    H1 9910   0.528   2.706  14.699
  667MPD2    H2 9911   0.764   3.012  14.818
  667MPD2    H3 9912   0.706   2.847  14.674
  667MPD2     N 9913   0.383   2.678  14.923
  667MPD2    H5 9914   0.376   2.610  14.848
  667MPD2    N1 9915   0.662   3.043  15.092
  667MPD2    H7 9916   0.606   3.029  15.175
  668TMC3    C1 9917   0.754   3.222  15.209
  668TMC3    C2 9918   0.824   3.342  15.186
  668TMC3    C3 9919   0.923   3.370  15.273
  668TMC3    C4 9920   0.771   3.151  15.323
  668TMC3    C5 9921   0.870   3.190  15.406
  668TMC3    C6 9922   0.947   3.295  15.380
  668TMC3     C 9923   0.756   3.143  15.084
  668TMC3     O 9924   0.830   3.174  14.995
  668TMC3     H 9925   0.802   3.397  15.095
  668TMC3    H1 9926   0.738   3.049  15.335
  668TMC3    H2 9927   1.014   3.324  15.460
  668TMC3    C7 9928   0.876   3.143  15.546
  668TMC3    C8 9929   0.980   3.505  15.267
  668TMC3    O1 9930   0.987   3.131  15.594
  668TMC3    O2 9931   1.063   3.526  15.358
  669TMC3    C1 9932   3.576   2.917  14.985
  669TMC3    C2 9933   3.486   2.871  14.891
  669TMC3    C3 9934   3.501   2.932  14.770
  669TMC3    C4 9935   3.675   3.003  14.951
  669TMC3    C5 9936   3.687   3.054  14.827
  669TMC3    C6 9937   3.602   3.019  14.727
  669TMC3     C 9938   3.570   2.862  15.120
  669TMC3     O 9939   3.464   2.812  15.155
  669TMC3     H 9940   3.402   2.805  14.909
  669TMC3    H1 9941   3.751   3.030  15.024
  669TMC3    H2 9942   3.597   3.054  14.625
  669TMC3    C7 9943   3.792   3.151  14.807
  669TMC3    C8 9944   3.381   2.967  14.698
  669TMC3    O1 9945   3.847   3.205  14.902
  669TMC3    O2 9946   3.299   2.874  14.684
  670MPD2     C 9947   2.044   0.946  13.596
  670MPD2    C1 9948   2.122   0.908  13.708
  670MPD2    C2 9949   2.061   0.868  13.823
  670MPD2    C3 9950   1.921   0.871  13.834
  670MPD2    C4 9951   1.854   0.907  13.727
  670MPD2    C5 9952   1.912   0.948  13.607
  670MPD2     H 9953   2.120   0.847  13.912
  670MPD2    H1 9954   1.747   0.917  13.713
  670MPD2    H2 9955   2.086   0.995  13.509
  670MPD2    H3 9956   1.855   0.995  13.528
  670MPD2     N 9957   1.858   0.836  13.955
  670MPD2    H5 9958   1.924   0.833  14.032
  670MPD2    N1 9959   2.263   0.909  13.711
  670MPD2    H7 9960   2.314   0.900  13.798
  671TMC3    C1 9961   1.688   0.812  14.121
  671TMC3    C2 9962   1.774   0.804  14.228
  671TMC3    C3 9963   1.734   0.754  14.354
  671TMC3    C4 9964   1.561   0.758  14.133
  671TMC3    C5 9965   1.530   0.684  14.243
  671TMC3    C6 9966   1.618   0.682  14.349
  671TMC3     C 9967   1.725   0.833  13.982
  671TMC3     O 9968   1.636   0.841  13.898
  671TMC3     H 9969   1.868   0.857  14.226
  671TMC3    H1 9970   1.495   0.753  14.047
  671TMC3    H2 9971   1.615   0.607  14.427
  671TMC3    C7 9972   1.478   0.555  14.209
  671TMC3    C8 9973   1.839   0.658  14.398
  671TMC3    O1 9974   1.505   0.532  14.090
  671TMC3    O2 9975   1.899   0.605  14.303
  672MPD2     C 9976   2.257   1.054  19.536
  672MPD2    C1 9977   2.293   1.145  19.442
  672MPD2    C2 9978   2.360   1.260  19.483
  672MPD2    C3 9979   2.401   1.282  19.613
  672MPD2    C4 9980   2.370   1.186  19.706
  672MPD2    C5 9981   2.296   1.076  19.665
  672MPD2     H 9982   2.398   1.334  19.413
  672MPD2    H1 9983   2.395   1.188  19.812
  672MPD2    H2 9984   2.212   0.957  19.518
  672MPD2    H3 9985   2.264   1.001  19.737
  672MPD2     N 9986   2.472   1.393  19.665
  672MPD2    H5 9987   2.510   1.376  19.758
  672MPD2    N1 9988   2.267   1.136  19.303
  672MPD2    H7 9989   2.338   1.169  19.238
  673TMC3    C1 9990   2.180   1.051  19.105
  673TMC3    C2 9991   2.301   1.070  19.048
  673TMC3    C3 9992   2.307   1.139  18.923
  673TMC3    C4 9993   2.065   1.107  19.062
  673TMC3    C5 9994   2.073   1.183  18.945
  673TMC3    C6 9995   2.187   1.185  18.865
  673TMC3     C 9996   2.181   1.046  19.250
  673TMC3     O 9997   2.101   0.979  19.304
  673TMC3     H 9998   2.391   1.028  19.090
  673TMC3    H1 9999   1.974   1.101  19.120
  673TMC3    H210000   2.196   1.230  18.767
  673TMC3    C710001   1.943   1.203  18.884
  673TMC3    C810002   2.434   1.117  18.847
  673TMC3    O110003   1.857   1.133  18.937
  673TMC3    O210004   2.423   1.118  18.727
  674MPD2     C10005   2.154   0.495  18.091
  674MPD2    C110006   2.149   0.453  18.223
  674MPD2    C210007   2.146   0.548  18.319
  674MPD2    C310008   2.147   0.681  18.284
  674MPD2    C410009   2.150   0.730  18.153
  674MPD2    C510010   2.151   0.629  18.057
  674MPD2     H10011   2.131   0.527  18.424
  674MPD2    H110012   2.144   0.832  18.116
  674MPD2    H210013   2.155   0.420  18.012
  674MPD2    H310014   2.127   0.654  17.954
  674MPD2     N10015   2.163   0.764  18.397
  674MPD2    H510016   2.151   0.719  18.487
  674MPD2    N110017   2.170   0.320  18.244
  674MPD2    H710018   2.158   0.269  18.157
  675TMC3    C110019   2.256   0.312  18.473
  675TMC3    C210020   2.226   0.262  18.594
  675TMC3    C310021   2.303   0.300  18.701
  675TMC3    C410022   2.367   0.388  18.447
  675TMC3    C510023   2.428   0.432  18.559
  675TMC3    C610024   2.407   0.386  18.684
  675TMC3     C10025   2.191   0.248  18.362
  675TMC3     O10026   2.174   0.130  18.372
  675TMC3     H10027   2.130   0.214  18.611
  675TMC3    H110028   2.392   0.426  18.348
  675TMC3    H210029   2.453   0.444  18.763
  675TMC3    C710030   2.511   0.555  18.557
  675TMC3    C810031   2.241   0.286  18.831
  675TMC3    O110032   2.521   0.621  18.660
  675TMC3    O210033   2.148   0.209  18.850
  676MPD2     C10034   0.515   4.111  11.494
  676MPD2    C110035   0.408   4.052  11.550
  676MPD2    C210036   0.394   3.912  11.529
  676MPD2    C310037   0.482   3.832  11.458
  676MPD2    C410038   0.597   3.897  11.413
  676MPD2    C510039   0.611   4.034  11.429
  676MPD2     H10040   0.298   3.876  11.565
  676MPD2    H110041   0.674   3.844  11.357
  676MPD2    H210042   0.535   4.217  11.504
  676MPD2    H310043   0.692   4.084  11.376
  676MPD2     N10044   0.457   3.697  11.429
  676MPD2    H510045   0.519   3.636  11.377
  676MPD2    N110046   0.303   4.120  11.612
  676MPD2    H710047   0.242   4.057  11.664
  677TMC3    C110048   0.184   4.276  11.721
  677TMC3    C210049   0.093   4.178  11.753
  677TMC3    C310050   4.754   4.219  11.790
  677TMC3    C410051   0.163   4.410  11.751
  677TMC3    C510052   0.047   4.442  11.807
  677TMC3    C610053   4.727   4.349  11.817
  677TMC3     C10054   0.281   4.253  11.621
  677TMC3     O10055   0.330   4.345  11.554
  677TMC3     H10056   0.106   4.070  11.750
  677TMC3    H110057   0.234   4.489  11.733
  677TMC3    H210058   4.630   4.384  11.850
  677TMC3    C710059   0.040   4.558  11.888
  677TMC3    C810060   4.703   4.129  11.894
  677TMC3    O110061   4.718   4.571  11.951
  677TMC3    O210062   4.765   4.026  11.918
  678MPD2     C10063   1.450   4.155  19.554
  678MPD2    C110064   1.494   4.099  19.435
  678MPD2    C210065   1.400   4.037  19.346
  678MPD2    C310066   1.268   4.023  19.381
  678MPD2    C410067   1.226   4.080  19.501
  678MPD2    C510068   1.320   4.139  19.591
  678MPD2     H10069   1.440   3.986  19.259
  678MPD2    H110070   1.129   4.067  19.547
  678MPD2    H210071   1.518   4.206  19.621
  678MPD2    H310072   1.277   4.176  19.683
  678MPD2     N10073   1.171   3.950  19.302
  678MPD2    H510074   1.199   3.918  19.210
  678MPD2    N110075   1.621   4.132  19.385
  678MPD2    H710076   1.636   4.116  19.286
  679TMC3    C110077   2.062   4.154  19.334
  679TMC3    C210078   1.956   4.125  19.416
  679TMC3    C310079   1.841   4.194  19.392
  679TMC3    C410080   2.052   4.241  19.223
  679TMC3    C510081   1.937   4.308  19.209
  679TMC3    C610082   1.826   4.286  19.294
  679TMC3     C10083   2.160   4.055  19.321
  679TMC3     O10084   2.186   4.034  19.200
  679TMC3     H10085   1.952   4.031  19.470
  679TMC3    H110086   2.137   4.253  19.156
  679TMC3    H210087   1.732   4.337  19.273
  679TMC3    C710088   1.918   4.389  19.089
  679TMC3    C810089   1.730   4.158  19.469
  679TMC3    O110090   1.800   4.400  19.060
  679TMC3    O210091   1.747   4.151  19.592
  680MPD2     C10092   1.202   2.565  13.609
  680MPD2    C110093   1.328   2.547  13.661
  680MPD2    C210094   1.383   2.645  13.741
  680MPD2    C310095   1.309   2.759  13.767
  680MPD2    C410096   1.182   2.772  13.717
  680MPD2    C510097   1.127   2.670  13.643
  680MPD2     H10098   1.484   2.632  13.777
  680MPD2    H110099   1.124   2.856  13.752
  680MPD2    H210100   1.153   2.489  13.550
  680MPD2    H310101   1.026   2.688  13.607
  680MPD2     N10102   1.370   2.874  13.826
  680MPD2    H510103   1.307   2.942  13.867
  680MPD2    N110104   1.417   2.439  13.624
  680MPD2    H710105   1.514   2.446  13.652
  681TMC3    C110106   1.487   2.233  13.555
  681TMC3    C210107   1.451   2.118  13.609
  681TMC3    C310108   1.542   2.063  13.688
  681TMC3    C410109   1.608   2.298  13.561
  681TMC3    C510110   1.695   2.222  13.632
  681TMC3    C610111   1.662   2.116  13.706
  681TMC3     C10112   1.378   2.324  13.563
  681TMC3     O10113   1.265   2.280  13.535
  681TMC3     H10114   1.351   2.075  13.608
  681TMC3    H110115   1.638   2.372  13.487
  681TMC3    H210116   1.742   2.077  13.768
  681TMC3    C710117   1.830   2.212  13.580
  681TMC3    C810118   1.479   2.011  13.806
  681TMC3    O110119   1.882   2.101  13.592
  681TMC3    O210120   1.404   1.915  13.800
  682MPD2     C10121   4.060   4.677  10.870
  682MPD2    C110122   4.008   4.562  10.905
  682MPD2    C210123   3.914   4.562  11.006
  682MPD2    C310124   3.870   4.680  11.068
  682MPD2    C410125   3.927   0.016  11.025
  682MPD2    C510126   4.020   0.014  10.931
  682MPD2     H10127   3.869   4.470  11.042
  682MPD2    H110128   3.896   0.114  11.060
  682MPD2    H210129   4.133   4.684  10.790
  682MPD2    H310130   4.078   0.104  10.915
  682MPD2     N10131   3.757   4.681  11.151
  682MPD2    H510132   3.704   4.764  11.175
  682MPD2    N110133   4.042   4.440  10.849
  682MPD2    H710134   4.003   4.356  10.891
  683TMC3    C110135   3.533   4.775  11.481
  683TMC3    C210136   3.438   4.681  11.524
  683TMC3    C310137   3.445   4.560  11.463
  683TMC3    C410138   3.615   4.745  11.372
  683TMC3    C510139   3.605   4.618  11.314
  683TMC3    C610140   3.523   4.522  11.365
  683TMC3     C10141   3.579   0.096  11.575
  683TMC3     O10142   3.677   0.164  11.548
  683TMC3     H10143   3.367   4.695  11.605
  683TMC3    H110144   3.691   0.037  11.348
  683TMC3    H210145   3.533   4.419  11.333
  683TMC3    C710146   3.709   4.574  11.228
  683TMC3    C810147   3.349   4.463  11.521
  683TMC3    O110148   3.753   4.464  11.249
  683TMC3    O210149   3.236   4.502  11.535
  684MPD2     C10150   1.929   3.240  16.572
  684MPD2    C110151   1.891   3.298  16.452
  684MPD2    C210152   1.890   3.441  16.450
  684MPD2    C310153   1.915   3.519  16.568
  684MPD2    C410154   1.941   3.456  16.686
  684MPD2    C510155   1.949   3.317  16.688
  684MPD2     H10156   1.852   3.487  16.360
  684MPD2    H110157   1.966   3.516  16.772
  684MPD2    H210158   1.962   3.137  16.577
  684MPD2    H310159   1.997   3.276  16.776
  684MPD2     N10160   1.928   3.652  16.566
  684MPD2    H510161   1.937   3.705  16.652
  684MPD2    N110162   1.881   3.229  16.330
  684MPD2    H710163   1.864   3.293  16.253
  685TMC3    C110164   1.892   3.052  16.170
  685TMC3    C210165   1.809   3.124  16.092
  685TMC3    C310166   1.798   3.077  15.961
  685TMC3    C410167   1.955   2.939  16.133
  685TMC3    C510168   1.944   2.903  16.001
  685TMC3    C610169   1.875   2.979  15.912
  685TMC3     C10170   1.904   3.096  16.310
  685TMC3     O10171   1.950   3.008  16.388
  685TMC3     H10172   1.745   3.200  16.135
  685TMC3    H110173   2.020   2.879  16.195
  685TMC3    H210174   1.866   2.948  15.809
  685TMC3    C710175   2.042   2.807  15.961
  685TMC3    C810176   1.684   3.125  15.882
  685TMC3    O110177   2.073   2.718  16.042
  685TMC3    O210178   1.663   3.054  15.782
  686MPD2     C10179   3.211   3.617  15.514
  686MPD2    C110180   3.260   3.503  15.567
  686MPD2    C210181   3.320   3.408  15.481
  686MPD2    C310182   3.305   3.414  15.347
  686MPD2    C410183   3.238   3.524  15.298
  686MPD2    C510184   3.202   3.627  15.379
  686MPD2     H10185   3.382   3.338  15.535
  686MPD2    H110186   3.230   3.536  15.191
  686MPD2    H210187   3.165   3.696  15.572
  686MPD2    H310188   3.161   3.718  15.337
  686MPD2     N10189   3.341   3.310  15.255
  686MPD2    H510190   3.316   3.339  15.161
  686MPD2    N110191   3.235   3.472  15.703
  686MPD2    H710192   3.189   3.539  15.764
  687TMC3    C110193   3.367   3.113  15.404
  687TMC3    C210194   3.239   3.088  15.447
  687TMC3    C310195   3.219   3.027  15.568
  687TMC3    C410196   3.471   3.082  15.478
  687TMC3    C510197   3.452   3.021  15.602
  687TMC3    C610198   3.324   3.000  15.648
  687TMC3     C10199   3.397   3.184  15.277
  687TMC3     O10200   3.447   3.113  15.192
  687TMC3     H10201   3.154   3.114  15.384
  687TMC3    H110202   3.571   3.099  15.439
  687TMC3    H210203   3.314   2.962  15.749
  687TMC3    C710204   3.568   3.026  15.690
  687TMC3    C810205   3.091   3.058  15.633
  687TMC3    O110206   3.546   3.023  15.808
  687TMC3    O210207   3.075   2.990  15.732
  688MPD2     C10208   2.501   2.570  17.720
  688MPD2    C110209   2.479   2.433  17.715
  688MPD2    C210210   2.537   2.359  17.613
  688MPD2    C310211   2.609   2.422  17.510
  688MPD2    C410212   2.610   2.559  17.508
  688MPD2    C510213   2.572   2.625  17.618
  688MPD2     H10214   2.522   2.252  17.609
  688MPD2    H110215   2.666   2.609  17.430
  688MPD2    H210216   2.469   2.632  17.803
  688MPD2    H310217   2.585   2.732  17.623
  688MPD2     N10218   2.670   2.352  17.405
  688MPD2    H510219   2.716   2.414  17.339
  688MPD2    N110220   2.405   2.362  17.816
  688MPD2    H710221   2.422   2.262  17.826
  689TMC3    C110222   2.281   2.358  18.026
  689TMC3    C210223   2.241   2.435  18.132
  689TMC3    C310224   2.185   2.370  18.240
  689TMC3    C410225   2.259   2.224  18.012
  689TMC3    C510226   2.197   2.170  18.121
  689TMC3    C610227   2.157   2.235  18.238
  689TMC3     C10228   2.324   2.428  17.907
  689TMC3     O10229   2.277   2.538  17.891
  689TMC3     H10230   2.258   2.542  18.124
  689TMC3    H110231   2.293   2.170  17.924
  689TMC3    H210232   2.107   2.184  18.320
  689TMC3    C710233   2.167   2.021  18.125
  689TMC3    C810234   2.192   2.429  18.366
  689TMC3    O110235   2.145   1.973  18.233
  689TMC3    O210236   2.150   2.358  18.457
  690MPD2     C10237   0.170   4.242  16.221
  690MPD2    C110238   0.119   4.195  16.094
  690MPD2    C210239   0.199   4.206  15.979
  690MPD2    C310240   0.320   4.261  15.984
  690MPD2    C410241   0.371   4.299  16.106
  690MPD2    C510242   0.299   4.294  16.221
  690MPD2     H10243   0.159   4.183  15.881
  690MPD2    H110244   0.471   4.334  16.128
  690MPD2    H210245   0.119   4.234  16.317
  690MPD2    H310246   0.353   4.315  16.313
  690MPD2     N10247   0.399   4.263  15.860
  690MPD2    H510248   0.344   4.232  15.781
  690MPD2    N110249   4.775   4.140  16.088
  690MPD2    H710250   4.748   4.093  16.002
  691TMC3    C110251   4.594   4.026  16.168
  691TMC3    C210252   4.458   4.053  16.173
  691TMC3    C310253   4.370   3.954  16.132
  691TMC3    C410254   4.648   3.912  16.111
  691TMC3    C510255   4.557   3.824  16.050
  691TMC3    C610256   4.421   3.844  16.066
  691TMC3     C10257   4.682   4.136  16.189
  691TMC3     O10258   4.677   4.197  16.297
  691TMC3     H10259   4.419   4.125  16.244
  691TMC3    H110260   4.754   3.891  16.100
  691TMC3    H210261   4.347   3.776  16.024
  691TMC3    C710262   4.607   3.693  16.042
  691TMC3    C810263   4.231   3.964  16.139
  691TMC3    O110264   4.716   3.677  16.088
  691TMC3    O210265   4.171   3.856  16.142
  692TMC3    C110266   1.768   0.287  16.076
  692TMC3    C210267   1.893   0.297  16.124
  692TMC3    C310268   1.975   0.186  16.133
  692TMC3    C410269   1.717   0.167  16.026
  692TMC3    C510270   1.799   0.060  16.042
  692TMC3    C610271   1.929   0.061  16.094
  692TMC3     C10272   1.666   0.369  16.137
  692TMC3     O10273   1.554   0.325  16.141
  692TMC3     H10274   1.933   0.398  16.119
  692TMC3    H110275   1.613   0.161  15.997
  692TMC3    H210276   1.982   4.757  16.135
  692TMC3    C710277   1.749   4.714  15.988
  692TMC3    C810278   2.064   0.183  16.247
  692TMC3    O110279   1.648   4.717  15.922
  692TMC3    O210280   2.124   0.083  16.273
  693MPD2     C10281   1.499   3.047  11.275
  693MPD2    C110282   1.416   2.967  11.195
  693MPD2    C210283   1.468   2.854  11.127
  693MPD2    C310284   1.598   2.819  11.145
  693MPD2    C410285   1.678   2.902  11.218
  693MPD2    C510286   1.634   3.018  11.276
  693MPD2     H10287   1.407   2.779  11.078
  693MPD2    H110288   1.784   2.882  11.228
  693MPD2    H210289   1.462   3.136  11.324
  693MPD2    H310290   1.708   3.086  11.318
  693MPD2     N10291   1.651   2.701  11.093
  693MPD2    H510292   1.742   2.672  11.128
  693MPD2    N110293   1.276   2.995  11.190
  693MPD2    H710294   1.237   3.042  11.271
  694TMC3    C110295   1.053   2.941  11.147
  694TMC3    C210296   0.951   2.903  11.060
  694TMC3    C310297   0.841   2.836  11.108
  694TMC3    C410298   1.033   2.938  11.283
  694TMC3    C510299   0.904   2.898  11.325
  694TMC3    C610300   0.816   2.833  11.244
  694TMC3     C10301   1.190   2.927  11.105
  694TMC3     O10302   1.217   2.882  10.990
  694TMC3     H10303   0.977   2.888  10.956
  694TMC3    H110304   1.098   2.979  11.360
  694TMC3    H210305   0.727   2.784  11.282
  694TMC3    C710306   0.862   2.950  11.456
  694TMC3    C810307   0.729   2.803  11.024
  694TMC3    O110308   0.915   3.049  11.492
  694TMC3    O210309   0.657   2.711  11.061
  695MPD2     C10310   2.226   0.249  13.796
  695MPD2    C110311   2.141   0.199  13.891
  695MPD2    C210312   2.006   0.210  13.870
  695MPD2    C310313   1.952   0.279  13.764
  695MPD2    C410314   2.035   0.318  13.665
  695MPD2    C510315   2.168   0.297  13.678
  695MPD2     H10316   1.933   0.195  13.949
  695MPD2    H110317   1.992   0.380  13.587
  695MPD2    H210318   2.333   0.234  13.799
  695MPD2    H310319   2.231   0.324  13.594
  695MPD2     N10320   1.815   0.294  13.766
  695MPD2    H510321   1.774   0.287  13.859
  695MPD2    N110322   2.174   0.136  14.009
  695MPD2    H710323   2.091   0.123  14.066
  696TMC3    C110324   1.598   0.358  13.729
  696TMC3    C210325   1.558   0.252  13.809
  696TMC3    C310326   1.428   0.258  13.861
  696TMC3    C410327   1.530   0.476  13.716
  696TMC3    C510328   1.406   0.477  13.783
  696TMC3    C610329   1.349   0.371  13.845
  696TMC3     C10330   1.736   0.354  13.673
  696TMC3     O10331   1.765   0.402  13.564
  696TMC3     H10332   1.616   0.161  13.805
  696TMC3    H110333   1.562   0.566  13.664
  696TMC3    H210334   1.251   0.379  13.891
  696TMC3    C710335   1.334   0.603  13.774
  696TMC3    C810336   1.368   0.133  13.896
  696TMC3    O110337   1.321   0.651  13.663
  696TMC3    O210338   1.399   0.045  13.813
  697MPD2     C10339   1.464   1.883  15.985
  697MPD2    C110340   1.418   1.809  15.878
  697MPD2    C210341   1.389   1.887  15.760
  697MPD2    C310342   1.409   2.023  15.754
  697MPD2    C410343   1.466   2.084  15.862
  697MPD2    C510344   1.498   2.014  15.977
  697MPD2     H10345   1.344   1.832  15.679
  697MPD2    H110346   1.465   2.191  15.876
  697MPD2    H210347   1.471   1.835  16.082
  697MPD2    H310348   1.541   2.063  16.063
  697MPD2     N10349   1.387   2.091  15.636
  697MPD2    H510350   1.355   2.042  15.553
  697MPD2    N110351   1.385   1.671  15.879
  697MPD2    H710352   1.382   1.644  15.781
  698TMC3    C110353   1.400   2.273  15.482
  698TMC3    C210354   1.421   2.416  15.474
  698TMC3    C310355   1.509   2.452  15.366
  698TMC3    C410356   1.434   2.189  15.383
  698TMC3    C510357   1.495   2.243  15.273
  698TMC3    C610358   1.538   2.368  15.258
  698TMC3     C10359   1.385   2.224  15.618
  698TMC3     O10360   1.402   2.310  15.708
  698TMC3     H10361   1.402   2.490  15.550
  698TMC3    H110362   1.392   2.089  15.374
  698TMC3    H210363   1.563   2.421  15.167
  698TMC3    C710364   1.490   2.173  15.147
  698TMC3    C810365   1.474   2.579  15.334
  698TMC3    O110366   1.394   2.098  15.130
  698TMC3    O210367   1.364   2.629  15.360
  699TMC3    C110368   1.529   0.335  13.380
  699TMC3    C210369   1.584   0.208  13.389
  699TMC3    C310370   1.498   0.110  13.435
  699TMC3    C410371   1.405   0.366  13.414
  699TMC3    C510372   1.318   0.259  13.445
  699TMC3    C610373   1.365   0.129  13.457
  699TMC3     C10374   1.590   0.444  13.315
  699TMC3     O10375   1.554   0.557  13.342
  699TMC3     H10376   1.692   0.201  13.379
  699TMC3    H110377   1.360   0.464  13.408
  699TMC3    H210378   1.304   0.051  13.501
  699TMC3    C710379   1.183   0.288  13.488
  699TMC3    C810380   1.558   4.775  13.496
  699TMC3    O110381   1.163   0.395  13.547
  699TMC3    O210382   1.479   4.685  13.523
  700TMC3    C110383   0.408   2.314  17.221
  700TMC3    C210384   0.473   2.195  17.231
  700TMC3    C310385   0.547   2.165  17.339
  700TMC3    C410386   0.417   2.402  17.333
  700TMC3    C510387   0.486   2.362  17.444
  700TMC3    C610388   0.555   2.247  17.448
  700TMC3     C10389   0.408   2.376  17.090
  700TMC3     O10390   0.357   2.310  17.002
  700TMC3     H10391   0.468   2.133  17.142
  700TMC3    H110392   0.373   2.501  17.328
  700TMC3    H210393   0.624   2.237  17.531
  700TMC3    C710394   0.480   2.443  17.564
  700TMC3    C810395   0.651   2.071  17.325
  700TMC3    O110396   0.584   2.450  17.622
  700TMC3    O210397   0.767   2.110  17.351
  701TMC3    C110398   0.791   0.917  15.932
  701TMC3    C210399   0.809   0.869  15.809
  701TMC3    C310400   0.893   0.932  15.723
  701TMC3    C410401   0.852   1.033  15.971
  701TMC3    C510402   0.939   1.093  15.887
  701TMC3    C610403   0.961   1.043  15.762
  701TMC3     C10404   0.669   0.874  15.997
  701TMC3     O10405   0.587   0.964  16.025
  701TMC3     H10406   0.735   0.797  15.776
  701TMC3    H110407   0.826   1.085  16.063
  701TMC3    H210408   1.035   1.090  15.698
  701TMC3    C710409   0.992   1.223  15.916
  701TMC3    C810410   0.869   0.921  15.579
  701TMC3    O110411   1.041   1.283  15.822
  701TMC3    O210412   0.950   0.959  15.495
  702MPD2     C10413   0.379   3.637  10.830
  702MPD2    C110414   0.288   3.681  10.923
  702MPD2    C210415   0.220   3.797  10.901
  702MPD2    C310416   0.251   3.883  10.801
  702MPD2    C410417   0.349   3.851  10.711
  702MPD2    C510418   0.410   3.723  10.725
  702MPD2     H10419   0.156   3.834  10.980
  702MPD2    H110420   0.372   3.923  10.633
  702MPD2    H210421   0.424   3.538  10.825
  702MPD2    H310422   0.468   3.686  10.642
  702MPD2     N10423   0.205   4.015  10.806
  702MPD2    H510424   0.259   4.080  10.750
  702MPD2    N110425   0.269   3.616  11.040
  702MPD2    H710426   0.199   3.645  11.107
  703TMC3    C110427   0.134   4.164  10.978
  703TMC3    C210428   0.055   4.176  11.088
  703TMC3    C310429   0.112   4.180  11.209
  703TMC3    C410430   0.267   4.190  10.987
  703TMC3    C510431   0.316   4.221  11.113
  703TMC3    C610432   0.247   4.210  11.226
  703TMC3     C10433   0.093   4.066  10.880
  703TMC3     O10434   4.770   4.007  10.900
  703TMC3     H10435   4.734   4.140  11.083
  703TMC3    H110436   0.331   4.186  10.899
  703TMC3    H210437   0.285   4.198  11.327
  703TMC3    C710438   0.451   4.285  11.121
  703TMC3    C810439   0.049   4.099  11.309
  703TMC3    O110440   0.508   4.280  11.011
  703TMC3    O210441   0.115   4.026  11.378
  704TMC3    C110442   3.106   1.949  13.304
  704TMC3    C210443   3.224   1.967  13.240
  704TMC3    C310444   3.318   1.863  13.232
  704TMC3    C410445   3.085   1.825  13.361
  704TMC3    C510446   3.184   1.728  13.369
  704TMC3    C610447   3.296   1.745  13.301
  704TMC3     C10448   2.987   1.995  13.236
  704TMC3     O10449   2.907   2.056  13.306
  704TMC3     H10450   3.244   2.060  13.188
  704TMC3    H110451   2.980   1.809  13.383
  704TMC3    H210452   3.369   1.665  13.297
  704TMC3    C710453   3.129   1.591  13.371
  704TMC3    C810454   3.352   1.841  13.092
  704TMC3    O110455   3.150   1.527  13.270
  704TMC3    O210456   3.279   1.894  13.009
  705MPD2     C10457   2.112   4.390  16.585
  705MPD2    C110458   2.152   4.523  16.611
  705MPD2    C210459   2.068   4.607  16.684
  705MPD2    C310460   1.950   4.555  16.729
  705MPD2    C410461   1.925   4.420  16.717
  705MPD2    C510462   2.005   4.341  16.640
  705MPD2     H10463   2.097   4.711  16.692
  705MPD2    H110464   1.842   4.373  16.768
  705MPD2    H210465   2.161   4.316  16.523
  705MPD2    H310466   1.982   4.236  16.626
  705MPD2     N10467   1.856   4.635  16.794
  705MPD2    H510468   1.759   4.608  16.804
  705MPD2    N110469   2.265   4.580  16.553
  705MPD2    H710470   2.288   4.674  16.584
  706TMC3    C110471   2.590   4.616  16.230
  706TMC3    C210472   2.587   4.753  16.221
  706TMC3    C310473   2.511   0.023  16.322
  706TMC3    C410474   2.530   4.539  16.327
  706TMC3    C510475   2.455   4.601  16.420
  706TMC3    C610476   2.446   4.738  16.425
  706TMC3     C10477   2.691   4.543  16.151
  706TMC3     O10478   2.744   4.451  16.207
  706TMC3     H10479   2.625   0.034  16.141
  706TMC3    H110480   2.546   4.432  16.321
  706TMC3    H210481   2.374   0.015  16.483
  706TMC3    C710482   2.352   4.519  16.468
  706TMC3    C810483   2.501   0.171  16.313
  706TMC3    O110484   2.321   4.429  16.394
  706TMC3    O210485   2.470   0.219  16.205
  707TMC3    C110486   4.255   4.156  18.305
  707TMC3    C210487   4.222   4.161  18.437
  707TMC3    C310488   4.122   4.082  18.482
  707TMC3    C410489   4.188   4.081  18.216
  707TMC3    C510490   4.088   3.997  18.263
  707TMC3    C610491   4.051   3.999  18.398
  707TMC3     C10492   4.386   4.211  18.280
  707TMC3     O10493   4.408   4.329  18.319
  707TMC3     H10494   4.296   4.205  18.502
  707TMC3    H110495   4.228   4.072  18.116
  707TMC3    H210496   3.977   3.929  18.435
  707TMC3    C710497   4.036   3.904  18.176
  707TMC3    C810498   4.127   4.054  18.625
  707TMC3    O110499   4.000   3.799  18.225
  707TMC3    O210500   4.207   4.121  18.689
  708MPD2     C10501   0.376   3.158  14.373
  708MPD2    C110502   0.287   3.193  14.472
  708MPD2    C210503   0.223   3.089  14.539
  708MPD2    C310504   0.265   2.955  14.514
  708MPD2    C410505   0.352   2.928  14.414
  708MPD2    C510506   0.408   3.029  14.347
  708MPD2     H10507   0.142   3.110  14.608
  708MPD2    H110508   0.382   2.826  14.396
  708MPD2    H210509   0.423   3.236  14.314
  708MPD2    H310510   0.477   3.005  14.267
  708MPD2     N10511   0.206   2.839  14.576
  708MPD2    H510512   0.245   2.752  14.542
  708MPD2    N110513   0.225   3.317  14.457
  708MPD2    H710514   0.266   3.367  14.378
  709TMC3    C110515   0.053   3.480  14.465
  709TMC3    C210516   0.015   3.461  14.334
  709TMC3    C310517   4.667   3.505  14.297
  709TMC3    C410518   4.745   3.550  14.546
  709TMC3    C510519   4.617   3.588  14.508
  709TMC3    C610520   4.571   3.561  14.384
  709TMC3     C10521   0.117   3.366  14.530
  709TMC3     O10522   0.066   3.315  14.627
  709TMC3     H10523   0.081   3.411  14.264
  709TMC3    H110524   0.004   3.569  14.645
  709TMC3    H210525   4.475   3.586  14.340
  709TMC3    C710526   4.525   3.559  14.615
  709TMC3    C810527   4.623   3.480  14.165
  709TMC3    O110528   4.569   3.590  14.727
  709TMC3    O210529   4.504   3.474  14.147
  710TMC3    C110530   1.373   0.017  18.642
  710TMC3    C210531   1.388   0.018  18.506
  710TMC3    C310532   1.512   0.033  18.458
  710TMC3    C410533   1.475   0.018  18.729
  710TMC3    C510534   1.598   0.030  18.676
  710TMC3    C610535   1.622   0.026  18.541
  710TMC3     C10536   1.233   0.025  18.694
  710TMC3     O10537   1.155   4.723  18.650
  710TMC3     H10538   1.303   0.018  18.438
  710TMC3    H110539   1.464   0.024  18.837
  710TMC3    H210540   1.721   0.016  18.498
  710TMC3    C710541   1.693   4.728  18.749
  710TMC3    C810542   1.537   0.003  18.319
  710TMC3    O110543   1.653   4.645  18.830
  710TMC3    O210544   1.650   0.031  18.278
  711TMC3    C110545   1.268   0.905  15.257
  711TMC3    C210546   1.264   0.942  15.388
  711TMC3    C310547   1.380   0.968  15.452
  711TMC3    C410548   1.391   0.882  15.191
  711TMC3    C510549   1.502   0.889  15.271
  711TMC3    C610550   1.503   0.952  15.390
  711TMC3     C10551   1.167   0.821  15.200
  711TMC3     O10552   1.194   0.778  15.090
  711TMC3     H10553   1.168   0.950  15.438
  711TMC3    H110554   1.400   0.835  15.094
  711TMC3    H210555   1.597   0.966  15.443
  711TMC3    C710556   1.559   0.758  15.299
  711TMC3    C810557   1.366   0.901  15.581
  711TMC3    O110558   1.658   0.748  15.372
  711TMC3    O210559   1.258   0.844  15.615
  712MPD2     C10560   2.290   1.797  13.886
  712MPD2    C110561   2.429   1.789  13.912
  712MPD2    C210562   2.506   1.900  13.879
  712MPD2    C310563   2.449   2.022  13.845
  712MPD2    C410564   2.309   2.028  13.836
  712MPD2    C510565   2.235   1.919  13.854
  712MPD2     H10566   2.607   1.899  13.918
  712MPD2    H110567   2.266   2.122  13.804
  712MPD2    H210568   2.225   1.712  13.900
  712MPD2    H310569   2.132   1.931  13.821
  712MPD2     N10570   2.519   2.146  13.835
  712MPD2    H510571   2.467   2.225  13.799
  712MPD2    N110572   2.494   1.666  13.942
  712MPD2    H710573   2.594   1.669  13.927
  713TMC3    C110574   2.702   2.303  13.825
  713TMC3    C210575   2.838   2.315  13.818
  713TMC3    C310576   2.880   2.441  13.793
  713TMC3    C410577   2.610   2.409  13.801
  713TMC3    C510578   2.661   2.535  13.771
  713TMC3    C610579   2.800   2.545  13.754
  713TMC3     C10580   2.652   2.165  13.845
  713TMC3     O10581   2.743   2.086  13.871
  713TMC3     H10582   2.911   2.237  13.837
  713TMC3    H110583   2.503   2.393  13.811
  713TMC3    H210584   2.844   2.638  13.721
  713TMC3    C710585   2.587   2.658  13.750
  713TMC3    C810586   3.018   2.482  13.827
  713TMC3    O110587   2.653   2.754  13.730
  713TMC3    O210588   3.062   2.572  13.762
  714MPD2     C10589   4.755   1.012  19.887
  714MPD2    C110590   0.033   0.972  19.769
  714MPD2    C210591   4.763   1.020  19.648
  714MPD2    C310592   4.655   1.106  19.649
  714MPD2    C410593   4.598   1.149  19.765
  714MPD2    C510594   4.653   1.106  19.883
  714MPD2     H10595   0.026   0.983  19.556
  714MPD2    H110596   4.514   1.216  19.779
  714MPD2    H210597   0.014   0.963  19.975
  714MPD2    H310598   4.613   1.135  19.980
  714MPD2     N10599   4.614   1.147  19.516
  714MPD2    H510600   4.673   1.129  19.435
  714MPD2    N110601   0.148   0.891  19.774
  714MPD2    H710602   0.187   0.869  19.865
  715TMC3    C110603   0.341   0.764  19.694
  715TMC3    C210604   0.382   0.649  19.625
  715TMC3    C310605   0.513   0.609  19.642
  715TMC3    C410606   0.433   0.835  19.769
  715TMC3    C510607   0.564   0.790  19.783
  715TMC3    C610608   0.602   0.674  19.724
  715TMC3     C10609   0.211   0.823  19.669
  715TMC3     O10610   0.159   0.789  19.563
  715TMC3     H10611   0.322   0.592  19.554
  715TMC3    H110612   0.398   0.927  19.814
  715TMC3    H210613   0.706   0.647  19.735
  715TMC3    C710614   0.668   0.880  19.818
  715TMC3    C810615   0.556   0.480  19.593
  715TMC3    O110616   0.783   0.846  19.806
  715TMC3    O210617   0.469   0.411  19.530
  716MPD2     C10618   0.312   3.781  10.321
  716MPD2    C110619   0.316   3.818  10.189
  716MPD2    C210620   0.315   3.722  10.091
  716MPD2    C310621   0.318   3.597  10.134
  716MPD2    C410622   0.318   3.555  10.267
  716MPD2    C510623   0.308   3.653  10.358
  716MPD2     H10624   0.307   3.746   9.986
  716MPD2    H110625   0.297   3.453  10.298
  716MPD2    H210626   0.299   3.865  10.388
  716MPD2    H310627   0.295   3.633  10.464
  716MPD2     N10628   0.312   3.504  10.031
  716MPD2    H510629   0.291   3.540   9.939
  716MPD2    N110630   0.298   3.953  10.162
  716MPD2    H710631   0.276   4.004  10.247
  717TMC3    C110632   0.302   3.299   9.913
  717TMC3    C210633   0.224   3.357   9.819
  717TMC3    C310634   0.217   3.295   9.696
  717TMC3    C410635   0.371   3.178   9.891
  717TMC3    C510636   0.353   3.113   9.775
  717TMC3    C610637   0.278   3.170   9.675
  717TMC3     C10638   0.348   3.373  10.034
  717TMC3     O10639   0.398   3.307  10.128
  717TMC3     H10640   0.163   3.446   9.831
  717TMC3    H110641   0.423   3.126   9.971
  717TMC3    H210642   0.239   3.116   9.590
  717TMC3    C710643   0.370   2.967   9.780
  717TMC3    C810644   0.146   3.367   9.590
  717TMC3    O110645   0.418   2.922   9.882
  717TMC3    O210646   0.085   3.466   9.627
  718MPD2     C10647   4.317   2.657  13.250
  718MPD2    C110648   4.224   2.612  13.154
  718MPD2    C210649   4.177   2.480  13.172
  718MPD2    C310650   4.236   2.398  13.274
  718MPD2    C410651   4.335   2.444  13.359
  718MPD2    C510652   4.372   2.572  13.345
  718MPD2     H10653   4.104   2.432  13.108
  718MPD2    H110654   4.381   2.380  13.433
  718MPD2    H210655   4.354   2.759  13.257
  718MPD2    H310656   4.436   2.609  13.424
  718MPD2     N10657   4.185   2.269  13.276
  718MPD2    H510658   4.113   2.247  13.207
  718MPD2    N110659   4.177   2.699  13.051
  718MPD2    H710660   4.226   2.788  13.052
  719TMC3    C110661   4.101   2.716  12.836
  719TMC3    C210662   4.077   2.619  12.742
  719TMC3    C310663   4.185   2.572  12.675
  719TMC3    C410664   4.213   2.783  12.843
  719TMC3    C510665   4.309   2.743  12.748
  719TMC3    C610666   4.308   2.624  12.686
  719TMC3     C10667   4.072   2.669  12.971
  719TMC3     O10668   3.990   2.581  12.974
  719TMC3     H10669   3.983   2.566  12.757
  719TMC3    H110670   4.207   2.876  12.898
  719TMC3    H210671   4.392   2.594  12.625
  719TMC3    C710672   4.422   2.827  12.711
  719TMC3    C810673   4.189   2.428  12.693
  719TMC3    O110674   4.500   2.787  12.626
  719TMC3    O210675   4.298   2.393  12.740
  720MPD2     C10676   2.396   4.091  14.360
  720MPD2    C110677   2.503   4.081  14.270
  720MPD2    C210678   2.625   4.027  14.308
  720MPD2    C310679   2.642   3.976  14.436
  720MPD2    C410680   2.526   3.954  14.508
  720MPD2    C510681   2.416   4.024  14.477
  720MPD2     H10682   2.699   4.036  14.230
  720MPD2    H110683   2.526   3.912  14.608
  720MPD2    H210684   2.301   4.137  14.335
  720MPD2    H310685   2.336   4.025  14.550
  720MPD2     N10686   2.768   3.934  14.481
  720MPD2    H510687   2.842   3.928  14.412
  720MPD2    N110688   2.487   4.136  14.141
  720MPD2    H710689   2.557   4.101  14.076
  721TMC3    C110690   2.940   3.902  14.648
  721TMC3    C210691   2.976   3.893  14.783
  721TMC3    C310692   3.110   3.886  14.815
  721TMC3    C410693   3.038   3.936  14.557
  721TMC3    C510694   3.167   3.935  14.600
  721TMC3    C610695   3.205   3.905  14.722
  721TMC3     C10696   2.799   3.905  14.613
  721TMC3     O10697   2.726   3.914  14.711
  721TMC3     H10698   2.893   3.880  14.852
  721TMC3    H110699   3.021   3.947  14.451
  721TMC3    H210700   3.305   3.909  14.764
  721TMC3    C710701   3.268   3.915  14.499
  721TMC3    C810702   3.154   3.889  14.951
  721TMC3    O110703   3.293   4.008  14.422
  721TMC3    O210704   3.255   3.819  14.969
  722MPD2     C10705   1.401   2.637  13.337
  722MPD2    C110706   1.370   2.765  13.381
  722MPD2    C210707   1.238   2.811  13.361
  722MPD2    C310708   1.138   2.730  13.306
  722MPD2    C410709   1.171   2.600  13.266
  722MPD2    C510710   1.301   2.556  13.290
  722MPD2     H10711   1.206   2.913  13.379
  722MPD2    H110712   1.105   2.530  13.217
  722MPD2    H210713   1.502   2.598  13.341
  722MPD2    H310714   1.325   2.459  13.248
  722MPD2     N10715   1.009   2.778  13.278
  722MPD2    H510716   0.980   2.866  13.319
  722MPD2    N110717   1.462   2.858  13.433
  722MPD2    H710718   1.422   2.934  13.487
  723TMC3    C110719   0.778   2.745  13.230
  723TMC3    C210720   0.688   2.643  13.235
  723TMC3    C310721   0.558   2.679  13.234
  723TMC3    C410722   0.748   2.880  13.233
  723TMC3    C510723   0.617   2.906  13.244
  723TMC3    C610724   0.514   2.810  13.236
  723TMC3     C10725   0.912   2.710  13.207
  723TMC3     O10726   0.919   2.612  13.137
  723TMC3     H10727   0.720   2.540  13.237
  723TMC3    H110728   0.819   2.960  13.213
  723TMC3    H210729   0.408   2.831  13.241
  723TMC3    C710730   0.572   3.042  13.235
  723TMC3    C810731   0.453   2.576  13.248
  723TMC3    O110732   0.471   3.059  13.170
  723TMC3    O210733   0.349   2.617  13.295
  724TMC3    C110734   1.617   0.700  10.605
  724TMC3    C210735   1.545   0.717  10.487
  724TMC3    C310736   1.612   0.731  10.371
  724TMC3    C410737   1.752   0.700  10.604
  724TMC3    C510738   1.820   0.722  10.486
  724TMC3    C610739   1.748   0.732  10.366
  724TMC3     C10740   1.556   0.646  10.725
  724TMC3     O10741   1.621   0.653  10.832
  724TMC3     H10742   1.446   0.762  10.490
  724TMC3    H110743   1.808   0.701  10.697
  724TMC3    H210744   1.796   0.744  10.269
  724TMC3    C710745   1.930   0.813  10.493
  724TMC3    C810746   1.564   0.836  10.287
  724TMC3    O110747   1.923   0.899  10.406
  724TMC3    O210748   1.450   0.845  10.263
  725TMC3    C110749   3.371   4.270  13.238
  725TMC3    C210750   3.365   4.228  13.112
  725TMC3    C310751   3.290   4.112  13.087
  725TMC3    C410752   3.321   4.202  13.346
  725TMC3    C510753   3.258   4.085  13.317
  725TMC3    C610754   3.229   4.042  13.186
  725TMC3     C10755   3.489   4.340  13.272
  725TMC3     O10756   3.480   4.458  13.308
  725TMC3     H10757   3.422   4.285  13.040
  725TMC3    H110758   3.336   4.236  13.448
  725TMC3    H210759   3.169   3.954  13.166
  725TMC3    C710760   3.194   4.020  13.434
  725TMC3    C810761   3.243   4.081  12.951
  725TMC3    O110762   3.139   4.090  13.517
  725TMC3    O210763   3.200   3.965  12.933
  726MPD2     C10764   0.887   0.944  10.618
  726MPD2    C110765   0.898   1.041  10.712
  726MPD2    C210766   0.791   1.061  10.800
  726MPD2    C310767   0.668   0.998  10.785
  726MPD2    C410768   0.661   0.912  10.680
  726MPD2    C510769   0.769   0.877  10.603
  726MPD2     H10770   0.808   1.136  10.877
  726MPD2    H110771   0.563   0.869  10.662
  726MPD2    H210772   0.963   0.917  10.546
  726MPD2    H310773   0.759   0.801  10.526
  726MPD2     N10774   0.560   1.018  10.866
  726MPD2    H510775   0.474   0.973  10.835
  726MPD2    N110776   1.009   1.123  10.725
  726MPD2    H710777   1.004   1.192  10.800
  727TMC3    C110778   1.199   1.242  10.656
  727TMC3    C210779   1.224   1.295  10.777
  727TMC3    C310780   1.230   1.434  10.786
  727TMC3    C410781   1.196   1.319  10.546
  727TMC3    C510782   1.214   1.462  10.552
  727TMC3    C610783   1.227   1.515  10.679
  727TMC3     C10784   1.119   1.126  10.639
  727TMC3     O10785   1.140   1.063  10.536
  727TMC3     H10786   1.220   1.233  10.866
  727TMC3    H110787   1.175   1.284  10.446
  727TMC3    H210788   1.235   1.621  10.698
  727TMC3    C710789   1.128   1.543  10.471
  727TMC3    C810790   1.314   1.476  10.893
  727TMC3    O110791   1.039   1.478  10.416
  727TMC3    O210792   1.408   1.403  10.922
  728TMC3    C110793   0.591   4.291  15.724
  728TMC3    C210794   0.727   4.300  15.723
  728TMC3    C310795   0.794   4.304  15.600
  728TMC3    C410796   0.516   4.283  15.612
  728TMC3    C510797   0.583   4.299  15.498
  728TMC3    C610798   0.724   4.310  15.484
  728TMC3     C10799   0.528   4.314  15.853
  728TMC3     O10800   0.605   4.360  15.937
  728TMC3     H10801   0.784   4.308  15.815
  728TMC3    H110802   0.408   4.279  15.618
  728TMC3    H210803   0.765   4.325  15.385
  728TMC3    C710804   0.502   4.300  15.372
  728TMC3    C810805   0.927   4.365  15.610
  728TMC3    O110806   0.394   4.242  15.379
  728TMC3    O210807   0.969   4.416  15.714
  729MPD2     C10808   2.850   0.530  16.879
  729MPD2    C110809   2.961   0.557  16.951
  729MPD2    C210810   2.955   0.542  17.085
  729MPD2    C310811   2.840   0.518  17.149
  729MPD2    C410812   2.725   0.490  17.078
  729MPD2    C510813   2.731   0.493  16.939
  729MPD2     H10814   3.043   0.555  17.146
  729MPD2    H110815   2.631   0.458  17.122
  729MPD2    H210816   2.853   0.528  16.771
  729MPD2    H310817   2.642   0.476  16.879
  729MPD2     N10818   2.828   0.507  17.291
  729MPD2    H510819   2.735   0.489  17.326
  729MPD2    N110820   3.076   0.606  16.883
  729MPD2    H710821   3.059   0.642  16.790
  730TMC3    C110822   2.879   0.585  17.515
  730TMC3    C210823   2.981   0.608  17.599
  730TMC3    C310824   2.974   0.709  17.688
  730TMC3    C410825   2.772   0.664  17.504
  730TMC3    C510826   2.762   0.758  17.600
  730TMC3    C610827   2.861   0.784  17.695
  730TMC3     C10828   2.925   0.527  17.382
  730TMC3     O10829   3.049   0.511  17.368
  730TMC3     H10830   3.073   0.550  17.596
  730TMC3    H110831   2.694   0.652  17.430
  730TMC3    H210832   2.842   0.860  17.771
  730TMC3    C710833   2.681   0.872  17.557
  730TMC3    C810834   3.089   0.794  17.681
  730TMC3    O110835   2.650   0.874  17.439
  730TMC3    O210836   3.194   0.735  17.678
  731MPD2     C10837   2.919   3.768  12.849
  731MPD2    C110838   2.978   3.662  12.794
  731MPD2    C210839   2.998   3.547  12.869
  731MPD2    C310840   2.945   3.540  12.999
  731MPD2    C410841   2.889   3.652  13.053
  731MPD2    C510842   2.879   3.765  12.981
  731MPD2     H10843   3.055   3.466  12.824
  731MPD2    H110844   2.865   3.657  13.159
  731MPD2    H210845   2.895   3.856  12.791
  731MPD2    H310846   2.838   3.847  13.040
  731MPD2     N10847   2.969   3.419  13.063
  731MPD2    H510848   3.040   3.358  13.024
  731MPD2    N110849   3.011   3.665  12.648
  731MPD2    H710850   2.992   3.750  12.596
  732TMC3    C110851   3.071   3.606  12.445
  732TMC3    C210852   3.026   3.526  12.342
  732TMC3    C310853   3.033   3.561  12.207
  732TMC3    C410854   3.140   3.719  12.414
  732TMC3    C510855   3.144   3.752  12.277
  732TMC3    C610856   3.094   3.675  12.179
  732TMC3     C10857   3.052   3.561  12.571
  732TMC3     O10858   3.072   3.446  12.600
  732TMC3     H10859   2.973   3.435  12.368
  732TMC3    H110860   3.172   3.781  12.497
  732TMC3    H210861   3.102   3.702  12.074
  732TMC3    C710862   3.237   3.857  12.238
  732TMC3    C810863   2.915   3.530  12.132
  732TMC3    O110864   3.237   3.886  12.119
  732TMC3    O210865   2.919   3.525  12.010
  733TMC3    C110866   4.027   1.843  13.373
  733TMC3    C210867   4.083   1.962  13.421
  733TMC3    C310868   4.149   2.046  13.332
  733TMC3    C410869   4.024   1.817  13.241
  733TMC3    C510870   4.094   1.898  13.159
  733TMC3    C610871   4.157   2.012  13.199
  733TMC3     C10872   3.895   1.806  13.432
  733TMC3     O10873   3.805   1.848  13.360
  733TMC3     H10874   4.078   1.991  13.525
  733TMC3    H110875   3.956   1.741  13.204
  733TMC3    H210876   4.227   2.059  13.131
  733TMC3    C710877   4.062   1.881  13.015
  733TMC3    C810878   4.217   2.170  13.363
  733TMC3    O110879   3.973   1.799  12.984
  733TMC3    O210880   4.287   2.174  13.461
  734MPD2     C10881   0.698   4.767  12.767
  734MPD2    C110882   0.762   4.649  12.757
  734MPD2    C210883   0.871   4.639  12.669
  734MPD2    C310884   0.927   4.754  12.615
  734MPD2    C410885   0.859   0.088  12.626
  734MPD2    C510886   0.749   0.097  12.705
  734MPD2     H10887   0.931   4.549  12.674
  734MPD2    H110888   0.896   0.178  12.578
  734MPD2    H210889   0.607   4.780  12.825
  734MPD2    H310890   0.693   0.190  12.707
  734MPD2     N10891   1.039   4.738  12.529
  734MPD2    H510892   1.076   4.645  12.547
  734MPD2    N110893   0.684   4.544  12.814
  734MPD2    H710894   0.605   4.571  12.871
  735TMC3    C110895   0.593   4.326  12.844
  735TMC3    C210896   0.526   4.313  12.730
  735TMC3    C310897   0.493   4.182  12.689
  735TMC3    C410898   0.627   4.225  12.927
  735TMC3    C510899   0.580   4.098  12.895
  735TMC3    C610900   0.513   4.073  12.772
  735TMC3     C10901   0.713   4.406  12.813
  735TMC3     O10902   0.786   4.350  12.739
  735TMC3     H10903   0.489   4.388  12.662
  735TMC3    H110904   0.699   4.239  13.007
  735TMC3    H210905   0.490   3.972  12.739
  735TMC3    C710906   0.691   4.008  12.927
  735TMC3    C810907   0.524   4.159  12.555
  735TMC3    O110908   0.799   4.054  12.967
  735TMC3    O210909   0.483   4.060  12.496
  736MPD2     C10910   0.718   3.650  12.860
  736MPD2    C110911   0.762   3.779  12.861
  736MPD2    C210912   0.894   3.810  12.826
  736MPD2    C310913   0.979   3.706  12.797
  736MPD2    C410914   0.934   3.574  12.806
  736MPD2    C510915   0.802   3.548  12.825
  736MPD2     H10916   0.933   3.911  12.828
  736MPD2    H110917   0.990   3.486  12.776
  736MPD2    H210918   0.613   3.629  12.880
  736MPD2    H310919   0.768   3.445  12.832
  736MPD2     N10920   1.111   3.719  12.750
  736MPD2    H510921   1.167   3.634  12.751
  736MPD2    N110922   0.663   3.880  12.893
  736MPD2    H710923   0.579   3.835  12.927
  737TMC3    C110924   1.304   3.820  12.652
  737TMC3    C210925   1.347   3.936  12.589
  737TMC3    C310926   1.442   3.917  12.489
  737TMC3    C410927   1.346   3.693  12.615
  737TMC3    C510928   1.447   3.693  12.525
  737TMC3    C610929   1.493   3.799  12.457
  737TMC3     C10930   1.171   3.838  12.714
  737TMC3     O10931   1.116   3.949  12.707
  737TMC3     H10932   1.315   4.035  12.620
  737TMC3    H110933   1.315   3.604  12.669
  737TMC3    H210934   1.570   3.790  12.381
  737TMC3    C710935   1.507   3.563  12.498
  737TMC3    C810936   1.512   4.031  12.447
  737TMC3    O110937   1.444   3.470  12.540
  737TMC3    O210938   1.535   4.118  12.528
  738MPD2     C10939   1.470   2.795  15.131
  738MPD2    C110940   1.584   2.739  15.177
  738MPD2    C210941   1.705   2.782  15.125
  738MPD2    C310942   1.713   2.877  15.025
  738MPD2    C410943   1.591   2.927  14.977
  738MPD2    C510944   1.476   2.884  15.029
  738MPD2     H10945   1.795   2.733  15.161
  738MPD2    H110946   1.587   3.003  14.900
  738MPD2    H210947   1.375   2.760  15.169
  738MPD2    H310948   1.383   2.917  14.985
  738MPD2     N10949   1.832   2.929  14.970
  738MPD2    H510950   1.824   2.997  14.895
  738MPD2    N110951   1.585   2.633  15.270
  738MPD2    H710952   1.678   2.592  15.264
  739TMC3    C110953   2.064   2.950  14.923
  739TMC3    C210954   2.020   2.997  14.802
  739TMC3    C310955   2.114   3.063  14.733
  739TMC3    C410956   2.181   2.983  14.977
  739TMC3    C510957   2.277   3.049  14.907
  739TMC3    C610958   2.238   3.101  14.782
  739TMC3     C10959   1.961   2.898  15.011
  739TMC3     O10960   2.010   2.843  15.112
  739TMC3     H10961   1.928   2.961  14.756
  739TMC3    H110962   2.204   2.945  15.076
  739TMC3    H210963   2.301   3.167  14.724
  739TMC3    C710964   2.380   3.116  14.984
  739TMC3    C810965   2.065   3.123  14.610
  739TMC3    O110966   2.392   3.067  15.097
  739TMC3    O210967   1.946   3.095  14.586
  740TMC3    C110968   2.491   4.309  14.673
  740TMC3    C210969   2.535   4.256  14.795
  740TMC3    C310970   2.668   4.223  14.807
  740TMC3    C410971   2.585   4.330  14.570
  740TMC3    C510972   2.718   4.296  14.583
  740TMC3    C610973   2.761   4.242  14.698
  740TMC3     C10974   2.348   4.348  14.650
  740TMC3     O10975   2.322   4.424  14.557
  740TMC3     H10976   2.471   4.258  14.883
  740TMC3    H110977   2.541   4.350  14.473
  740TMC3    H210978   2.863   4.204  14.702
  740TMC3    C710979   2.798   4.287  14.464
  740TMC3    C810980   2.715   4.151  14.926
  740TMC3    O110981   2.908   4.232  14.482
  740TMC3    O210982   2.839   4.141  14.936
  741TMC3    C110983   1.875   3.839  14.343
  741TMC3    C210984   1.777   3.754  14.313
  741TMC3    C310985   1.780   3.629  14.367
  741TMC3    C410986   1.984   3.803  14.421
  741TMC3    C510987   1.991   3.678  14.466
  741TMC3    C610988   1.891   3.592  14.442
  741TMC3     C10989   1.932   3.932  14.243
  741TMC3     O10990   2.052   3.958  14.249
  741TMC3     H10991   1.700   3.785  14.243
  741TMC3    H110992   2.051   3.882  14.454
  741TMC3    H210993   1.907   3.487  14.465
  741TMC3    C710994   2.080   3.653  14.579
  741TMC3    C810995   1.682   3.525  14.328
  741TMC3    O110996   2.177   3.726  14.588
  741TMC3    O210997   1.603   3.555  14.238
  742TMC3    C110998   2.083   2.049  15.765
  742TMC3    C210999   1.977   2.043  15.682
  742TMC3    C311000   1.997   2.054  15.549
  742TMC3    C411001   2.212   2.074  15.727
  742TMC3    C511002   2.226   2.087  15.590
  742TMC3    C611003   2.121   2.075  15.505
  742TMC3     C11004   2.059   2.056  15.905
  742TMC3     O11005   2.155   2.102  15.968
  742TMC3     H11006   1.878   2.048  15.726
  742TMC3    H111007   2.295   2.063  15.796
  742TMC3    H211008   2.139   2.072  15.398
  742TMC3    C711009   2.356   2.056  15.535
  742TMC3    C811010   1.903   2.011  15.450
  742TMC3    O111011   2.361   2.013  15.423
  742TMC3    O211012   1.934   2.050  15.338
  743MPD2     C11013   3.996   2.921  19.453
  743MPD2    C111014   4.025   3.049  19.397
  743MPD2    C211015   4.149   3.112  19.421
  743MPD2    C311016   4.240   3.054  19.507
  743MPD2    C411017   4.195   2.948  19.587
  743MPD2    C511018   4.082   2.879  19.553
  743MPD2     H11019   4.175   3.198  19.361
  743MPD2    H111020   4.259   2.904  19.662
  743MPD2    H211021   3.908   2.861  19.432
  743MPD2    H311022   4.042   2.800  19.616
  743MPD2     N11023   4.370   3.106  19.527
  743MPD2    H511024   4.392   3.177  19.458
  743MPD2    N111025   3.935   3.110  19.301
  743MPD2    H711026   3.862   3.050  19.265
  744TMC3    C111027   3.848   3.257  19.142
  744TMC3    C211028   3.817   3.384  19.114
  744TMC3    C311029   3.766   3.408  18.984
  744TMC3    C411030   3.835   3.146  19.057
  744TMC3    C511031   3.781   3.178  18.935
  744TMC3    C611032   3.757   3.308  18.898
  744TMC3     C11033   3.930   3.244  19.260
  744TMC3     O11034   3.994   3.341  19.300
  744TMC3     H11035   3.801   3.456  19.194
  744TMC3    H111036   3.871   3.046  19.077
  744TMC3    H211037   3.732   3.335  18.796
  744TMC3    C711038   3.852   3.104  18.826
  744TMC3    C811039   3.827   3.519  18.913
  744TMC3    O111040   3.908   3.172  18.740
  744TMC3    O211041   3.829   3.519  18.789
  745TMC3    C111042   2.406   1.452  13.911
  745TMC3    C211043   2.286   1.389  13.919
  745TMC3    C311044   2.215   1.362  13.810
  745TMC3    C411045   2.460   1.466  13.785
  745TMC3    C511046   2.383   1.439  13.673
  745TMC3    C611047   2.254   1.383  13.684
  745TMC3     C11048   2.428   1.562  14.002
  745TMC3     O11049   2.330   1.578  14.075
  745TMC3     H11050   2.254   1.366  14.020
  745TMC3    H111051   2.559   1.509  13.776
  745TMC3    H211052   2.190   1.375  13.597
  745TMC3    C711053   2.387   1.551  13.583
  745TMC3    C811054   2.078   1.416  13.825
  745TMC3    O111055   2.287   1.586  13.520
  745TMC3    O211056   2.000   1.390  13.735
  746TMC3    C111057   0.319   3.499  11.432
  746TMC3    C211058   0.372   3.480  11.310
  746TMC3    C311059   0.291   3.463  11.203
  746TMC3    C411060   0.184   3.487  11.445
  746TMC3    C511061   0.103   3.484  11.338
  746TMC3    C611062   0.159   3.477  11.216
  746TMC3     C11063   0.354   3.630  11.493
  746TMC3     O11064   0.295   3.656  11.597
  746TMC3     H11065   0.480   3.483  11.298
  746TMC3    H111066   0.142   3.482  11.545
  746TMC3    H211067   0.104   3.443  11.129
  746TMC3    C711068   4.739   3.504  11.353
  746TMC3    C811069   0.347   3.516  11.081
  746TMC3    O111070   4.677   3.477  11.252
  746TMC3    O211071   0.465   3.484  11.058
  747TMC3    C111072   2.259   3.481  11.766
  747TMC3    C211073   2.153   3.419  11.830
  747TMC3    C311074   2.136   3.453  11.965
  747TMC3    C411075   2.318   3.583  11.837
  747TMC3    C511076   2.298   3.614  11.963
  747TMC3    C611077   2.202   3.545  12.034
  747TMC3     C11078   2.215   3.514  11.627
  747TMC3     O11079   2.118   3.590  11.622
  747TMC3     H11080   2.096   3.345  11.775
  747TMC3    H111081   2.372   3.652  11.774
  747TMC3    H211082   2.192   3.565  12.140
  747TMC3    C711083   2.382   3.701  12.042
  747TMC3    C811084   2.022   3.385  12.023
  747TMC3    O111085   2.344   3.743  12.148
  747TMC3    O211086   1.957   3.308  11.951
  748MPD2     C11087   3.351   4.556  19.457
  748MPD2    C111088   3.416   4.439  19.411
  748MPD2    C211089   3.552   4.441  19.388
  748MPD2    C311090   3.633   4.544  19.421
  748MPD2    C411091   3.568   4.665  19.454
  748MPD2    C511092   3.432   4.668  19.480
  748MPD2     H11093   3.601   4.351  19.353
  748MPD2    H111094   3.619   4.760  19.464
  748MPD2    H211095   3.245   4.574  19.469
  748MPD2    H311096   3.378   4.757  19.512
  748MPD2     N11097   3.770   4.525  19.412
  748MPD2    H511098   3.797   4.427  19.409
  748MPD2    N111099   3.329   4.335  19.371
  748MPD2    H711100   3.229   4.349  19.381
  749TMC3    C111101   3.994   4.569  19.422
  749TMC3    C211102   4.029   4.450  19.474
  749TMC3    C311103   4.153   4.402  19.448
  749TMC3    C411104   4.073   4.636  19.332
  749TMC3    C511105   4.184   4.575  19.288
  749TMC3    C611106   4.232   4.460  19.351
  749TMC3     C11107   3.858   4.621  19.435
  749TMC3     O11108   3.850   4.740  19.475
  749TMC3     H11109   3.960   4.385  19.527
  749TMC3    H111110   4.039   4.728  19.287
  749TMC3    H211111   4.332   4.426  19.325
  749TMC3    C711112   4.246   4.626  19.166
  749TMC3    C811113   4.197   4.282  19.519
  749TMC3    O111114   4.226   4.736  19.112
  749TMC3    O211115   4.125   4.256  19.610
  750MPD2     C11116   0.155   1.033  11.769
  750MPD2    C111117   0.030   0.986  11.758
  750MPD2    C211118   0.013   0.854  11.723
  750MPD2    C311119   0.118   0.772  11.680
  750MPD2    C411120   0.244   0.831  11.677
  750MPD2    C511121   0.254   0.964  11.716
  750MPD2     H11122   4.692   0.818  11.727
  750MPD2    H111123   0.327   0.778  11.632
  750MPD2    H211124   0.179   1.133  11.802
  750MPD2    H311125   0.355   1.004  11.711
  750MPD2     N11126   0.103   0.641  11.649
  750MPD2    H511127   0.185   0.596  11.610
  750MPD2    N111128   4.701   1.070  11.791
  750MPD2    H711129   4.729   1.156  11.837
  751TMC3    C111130   4.779   0.437  11.630
  751TMC3    C211131   4.718   0.358  11.722
  751TMC3    C311132   4.733   0.223  11.710
  751TMC3    C411133   0.092   0.389  11.547
  751TMC3    C511134   0.110   0.254  11.541
  751TMC3    C611135   0.039   0.170  11.623
  751TMC3     C11136   4.761   0.578  11.648
  751TMC3     O11137   4.645   0.610  11.658
  751TMC3     H11138   4.637   0.401  11.780
  751TMC3    H111139   0.130   0.447  11.464
  751TMC3    H211140   0.055   0.063  11.627
  751TMC3    C711141   0.151   0.206  11.412
  751TMC3    C811142   4.626   0.141  11.773
  751TMC3    O111143   0.193   0.288  11.334
  751TMC3    O211144   4.616   0.026  11.735
  752TMC3    C111145   3.563   0.799  17.759
  752TMC3    C211146   3.555   0.668  17.733
  752TMC3    C311147   3.525   0.578  17.835
  752TMC3    C411148   3.534   0.850  17.876
  752TMC3    C511149   3.500   0.765  17.973
  752TMC3    C611150   3.507   0.626  17.959
  752TMC3     C11151   3.602   0.899  17.658
  752TMC3     O11152   3.632   1.008  17.693
  752TMC3     H11153   3.597   0.630  17.641
  752TMC3    H111154   3.526   0.957  17.889
  752TMC3    H211155   3.497   0.557  18.042
  752TMC3    C711156   3.452   0.828  18.095
  752TMC3    C811157   3.531   0.438  17.810
  752TMC3    O111158   3.460   0.951  18.103
  752TMC3    O211159   3.584   0.407  17.705
  753TMC3    C111160   0.429   1.668  13.803
  753TMC3    C211161   0.497   1.637  13.920
  753TMC3    C311162   0.482   1.505  13.962
  753TMC3    C411163   0.353   1.580  13.726
  753TMC3    C511164   0.337   1.456  13.782
  753TMC3    C611165   0.398   1.413  13.899
  753TMC3     C11166   0.452   1.797  13.749
  753TMC3     O11167   0.366   1.883  13.761
  753TMC3     H11168   0.558   1.713  13.968
  753TMC3    H111169   0.305   1.610  13.633
  753TMC3    H211170   0.374   1.319  13.948
  753TMC3    C711171   0.298   1.345  13.693
  753TMC3    C811172   0.539   1.476  14.090
  753TMC3    O111173   0.230   1.374  13.595
  753TMC3    O211174   0.503   1.365  14.139
  754MPD2     C11175   4.709   0.352  13.673
  754MPD2    C111176   4.670   0.225  13.643
  754MPD2    C211177   4.542   0.197  13.607
  754MPD2    C311178   4.448   0.296  13.603
  754MPD2    C411179   4.490   0.427  13.624
  754MPD2    C511180   4.619   0.452  13.657
  754MPD2     H11181   4.523   0.094  13.581
  754MPD2    H111182   4.411   0.501  13.632
  754MPD2    H211183   0.034   0.371  13.690
  754MPD2    H311184   4.661   0.551  13.668
  754MPD2     N11185   4.312   0.267  13.578
  754MPD2    H511186   4.251   0.347  13.569
  754MPD2    N111187   4.767   0.123  13.656
  754MPD2    H711188   0.074   0.168  13.680
  755MPD2     C11189   3.693   0.880  13.581
  755MPD2    C111190   3.655   0.769  13.646
  755MPD2    C211191   3.709   0.645  13.615
  755MPD2    C311192   3.817   0.633  13.524
  755MPD2    C411193   3.859   0.743  13.460
  755MPD2    C511194   3.792   0.862  13.479
  755MPD2     H11195   3.685   0.555  13.670
  755MPD2    H111196   3.939   0.743  13.386
  755MPD2    H211197   3.644   0.977  13.580
  755MPD2    H311198   3.811   0.951  13.420
  755MPD2     N11199   3.880   0.507  13.494
  755MPD2    H511200   3.971   0.511  13.449
  755MPD2    N111201   3.561   0.776  13.750
  755MPD2    H711202   3.543   0.685  13.792
  756MPD2     C11203   4.273   1.487  10.165
  756MPD2    C111204   4.207   1.367  10.134
  756MPD2    C211205   4.148   1.349  10.011
  756MPD2    C311206   4.173   1.441   9.911
  756MPD2    C411207   4.241   1.556   9.942
  756MPD2    C511208   4.294   1.575  10.063
  756MPD2     H11209   4.095   1.255  10.007
  756MPD2    H111210   4.255   1.631   9.865
  756MPD2    H211211   4.291   1.525  10.265
  756MPD2    H311212   4.336   1.671  10.092
  756MPD2     N11213   4.113   1.418   9.785
  756MPD2    H511214   4.056   1.336   9.769
  756MPD2    N111215   4.194   1.272  10.233
  756MPD2    H711216   4.111   1.213  10.240
  757MPD2     C11217   3.469   0.903   9.753
  757MPD2    C111218   3.603   0.893   9.768
  757MPD2    C211219   3.682   0.997   9.718
  757MPD2    C311220   3.624   1.102   9.646
  757MPD2    C411221   3.492   1.100   9.625
  757MPD2    C511222   3.411   1.000   9.678
  757MPD2     H11223   3.790   1.004   9.725
  757MPD2    H111224   3.437   1.179   9.575
  757MPD2    H211225   3.407   0.827   9.798
  757MPD2    H311226   3.305   1.001   9.658
  757MPD2     N11227   3.718   1.204   9.607
  757MPD2    H511228   3.814   1.188   9.637
  757MPD2    N111229   3.652   0.777   9.833
  757MPD2    H711230   3.576   0.714   9.855
  758MPD2     C11231   4.290   0.158  16.166
  758MPD2    C111232   4.358   0.085  16.259
  758MPD2    C211233   4.331   0.107  16.389
  758MPD2    C311234   4.242   0.206  16.432
  758MPD2    C411235   4.174   0.275  16.333
  758MPD2    C511236   4.193   0.250  16.205
  758MPD2     H11237   4.397   0.063  16.463
  758MPD2    H111238   4.097   0.346  16.358
  758MPD2    H211239   4.284   0.122  16.064
  758MPD2    H311240   4.162   0.326  16.134
  758MPD2     N11241   4.219   0.222  16.562
  758MPD2    H511242   4.156   0.296  16.592
  758MPD2    N111243   4.458   4.778  16.218
  758MPD2    H711244   4.472   4.762  16.119
  759MPD2     C11245   3.229   3.105  10.203
  759MPD2    C111246   3.268   3.143  10.332
  759MPD2    C211247   3.370   3.227  10.352
  759MPD2    C311248   3.439   3.286  10.246
  759MPD2    C411249   3.405   3.248  10.120
  759MPD2    C511250   3.303   3.157  10.099
  759MPD2     H11251   3.401   3.254  10.452
  759MPD2    H111252   3.463   3.264  10.030
  759MPD2    H211253   3.151   3.034  10.177
  759MPD2    H311254   3.276   3.128   9.998
  759MPD2     N11255   3.534   3.386  10.271
  759MPD2    H511256   3.555   3.399  10.370
  759MPD2    N111257   3.203   3.099  10.448
  759MPD2    H711258   3.238   3.142  10.533
  760MPD2     C11259   2.689   0.299  11.869
  760MPD2    C111260   2.774   0.363  11.965
  760MPD2    C211261   2.813   0.301  12.078
  760MPD2    C311262   2.786   0.160  12.089
  760MPD2    C411263   2.704   0.093  11.997
  760MPD2    C511264   2.654   0.166  11.888
  760MPD2     H11265   2.868   0.358  12.152
  760MPD2    H111266   2.684   4.769  12.013
  760MPD2    H211267   2.651   0.341  11.776
  760MPD2    H311268   2.585   0.136  11.810
  760MPD2     N11269   2.846   0.089  12.194
  760MPD2    H511270   2.821   4.772  12.199
  760MPD2    N111271   2.807   0.503  11.961
  760MPD2    H711272   2.863   0.543  12.036
  761MPD2     C11273   4.180   0.150  11.998
  761MPD2    C111274   4.221   0.079  11.886
  761MPD2    C211275   4.350   0.099  11.843
  761MPD2    C311276   4.430   0.195  11.906
  761MPD2    C411277   4.375   0.279  11.998
  761MPD2    C511278   4.253   0.253  12.047
  761MPD2     H11279   4.390   0.051  11.754
  761MPD2    H111280   4.435   0.364  12.029
  761MPD2    H211281   4.085   0.140  12.050
  761MPD2    H311282   4.213   0.308  12.132
  761MPD2     N11283   4.561   0.216  11.870
  761MPD2    H511284   4.604   0.298  11.912
  761MPD2    N111285   4.135   4.759  11.833
  761MPD2    H711286   4.043   4.745  11.874
  762MPD2     C11287   4.439   4.033  11.648
  762MPD2    C111288   4.396   4.125  11.549
  762MPD2    C211289   4.473   4.153  11.439
  762MPD2    C311290   4.601   4.103  11.428
  762MPD2    C411291   4.644   4.017  11.530
  762MPD2    C511292   4.565   3.979  11.633
  762MPD2     H11293   4.431   4.212  11.358
  762MPD2    H111294   4.731   3.952  11.530
  762MPD2    H211295   4.378   4.013  11.736
  762MPD2    H311296   4.590   3.917  11.718
  762MPD2     N11297   4.693   4.138  11.325
  762MPD2    H511298   4.649   4.183  11.245
  762MPD2    N111299   4.274   4.198  11.584
  762MPD2    H711300   4.217   4.162  11.660
  763MPD2     C11301   1.780   0.032  16.415
  763MPD2    C111302   1.650   0.077  16.426
  763MPD2    C211303   1.620   0.182  16.510
  763MPD2    C311304   1.719   0.244  16.584
  763MPD2    C411305   1.843   0.183  16.580
  763MPD2    C511306   1.871   0.075  16.501
  763MPD2     H11307   1.520   0.224  16.514
  763MPD2    H111308   1.922   0.231  16.637
  763MPD2    H211309   1.814   4.727  16.358
  763MPD2    H311310   1.973   0.042  16.482
  763MPD2     N11311   1.712   0.370  16.653
  763MPD2    H511312   1.798   0.420  16.672
  763MPD2    N111313   1.553   0.009  16.347
  763MPD2    H711314   1.463   0.052  16.328
  764MPD2     C11315   4.222   2.035  17.737
  764MPD2    C111316   4.115   1.957  17.715
  764MPD2    C211317   4.046   1.900  17.825
  764MPD2    C311318   4.099   1.913  17.955
  764MPD2    C411319   4.219   1.990  17.970
  764MPD2    C511320   4.271   2.044  17.862
  764MPD2     H11321   3.958   1.838  17.813
  764MPD2    H111322   4.271   2.012  18.062
  764MPD2    H211323   4.283   2.078  17.658
  764MPD2    H311324   4.359   2.101  17.889
  764MPD2     N11325   4.026   1.853  18.065
  764MPD2    H511326   3.939   1.813  18.033
  764MPD2    N111327   4.050   1.947  17.596
  764MPD2    H711328   4.000   1.860  17.581
  765MPD2     C11329   3.789   4.225  16.165
  765MPD2    C111330   3.891   4.309  16.205
  765MPD2    C211331   4.022   4.260  16.205
  765MPD2    C311332   4.052   4.136  16.170
  765MPD2    C411333   3.953   4.051  16.140
  765MPD2    C511334   3.818   4.092  16.133
  765MPD2     H11335   4.098   4.331  16.234
  765MPD2    H111336   3.962   3.952  16.096
  765MPD2    H211337   3.691   4.271  16.158
  765MPD2    H311338   3.743   4.019  16.104
  765MPD2     N11339   4.189   4.094  16.157
  765MPD2    H511340   4.260   4.166  16.156
  765MPD2    N111341   3.858   4.443  16.244
  765MPD2    H711342   3.761   4.470  16.228
  766MPD2     C11343   3.252   4.659  16.019
  766MPD2    C111344   3.375   4.613  16.051
  766MPD2    C211345   3.436   4.515  15.964
  766MPD2    C311346   3.367   4.464  15.854
  766MPD2    C411347   3.242   4.512  15.825
  766MPD2    C511348   3.190   4.614  15.909
  766MPD2     H11349   3.529   4.473  15.999
  766MPD2    H111350   3.204   4.507  15.724
  766MPD2    H211351   3.195   4.723  16.085
  766MPD2    H311352   3.089   4.649  15.891
  766MPD2     N11353   3.429   4.388  15.758
  766MPD2    H511354   3.370   4.354  15.683
  766MPD2    N111355   3.448   4.678  16.153
  766MPD2    H711356   3.418   4.756  16.211
  767MPD2     C11357   3.087   4.674  15.542
  767MPD2    C111358   3.210   4.653  15.497
  767MPD2    C211359   3.230   4.583  15.380
  767MPD2    C311360   3.119   4.527  15.316
  767MPD2    C411361   2.993   4.549  15.369
  767MPD2    C511362   2.978   4.625  15.479
  767MPD2     H11363   3.330   4.553  15.352
  767MPD2    H111364   2.907   4.506  15.319
  767MPD2    H211365   3.073   4.739  15.628
  767MPD2    H311366   2.875   4.644  15.508
  767MPD2     N11367   3.139   4.449  15.202
  767MPD2    H511368   3.231   4.409  15.189
  767MPD2    N111369   3.311   4.713  15.575
  767MPD2    H711370   3.285   0.001  15.645
  768MPD2     C11371   4.460   3.353  10.866
  768MPD2    C111372   4.394   3.307  10.981
  768MPD2    C211373   4.466   3.232  11.075
  768MPD2    C311374   4.600   3.205  11.051
  768MPD2    C411375   4.668   3.267  10.949
  768MPD2    C511376   4.596   3.337  10.854
  768MPD2     H11377   4.420   3.212  11.171
  768MPD2    H111378   4.774   3.253  10.934
  768MPD2    H211379   4.409   3.403  10.784
  768MPD2    H311380   4.646   3.379  10.768
  768MPD2     N11381   4.679   3.141  11.141
  768MPD2    H511382   4.780   3.140  11.140
  768MPD2    N111383   4.255   3.333  11.000
  768MPD2    H711384   4.215   3.299  11.087
  769MPD2     C11385   0.542   0.817  15.201
  769MPD2    C111386   0.475   0.824  15.319
  769MPD2    C211387   0.540   0.856  15.438
  769MPD2    C311388   0.676   0.869  15.438
  769MPD2    C411389   0.745   0.859  15.319
  769MPD2    C511390   0.679   0.840  15.198
  769MPD2     H11391   0.478   0.889  15.520
  769MPD2    H111392   0.851   0.882  15.312
  769MPD2    H211393   0.494   0.784  15.109
  769MPD2    H311394   0.743   0.831  15.111
  769MPD2     N11395   0.740   0.895  15.563
  769MPD2    H511396   0.679   0.899  15.644
  769MPD2    N111397   0.335   0.806  15.307
  769MPD2    H711398   0.301   0.779  15.215
  770MPD2     C11399   4.395   0.074  15.564
  770MPD2    C111400   4.452   0.069  15.442
  770MPD2    C211401   4.538   0.168  15.404
  770MPD2    C311402   4.558   0.273  15.494
  770MPD2    C411403   4.491   0.276  15.623
  770MPD2    C511404   4.417   0.170  15.658
  770MPD2     H11405   4.596   0.171  15.312
  770MPD2    H111406   4.504   0.357  15.694
  770MPD2    H211407   4.328   4.774  15.593
  770MPD2    H311408   4.373   0.163  15.757
  770MPD2     N11409   4.648   0.372  15.447
  770MPD2    H511410   4.670   0.356  15.349
  770MPD2    N111411   4.422   4.734  15.366
  770MPD2    H711412   4.356   4.667  15.403
  771MPD2     C11413   1.365   3.803  14.138
  771MPD2    C111414   1.295   3.921  14.110
  771MPD2    C211415   1.170   3.911  14.056
  771MPD2    C311416   1.112   3.794  14.032
  771MPD2    C411417   1.185   3.675  14.052
  771MPD2    C511418   1.307   3.682  14.107
  771MPD2     H11419   1.114   4.000  14.032
  771MPD2    H111420   1.153   3.573  14.034
  771MPD2    H211421   1.464   3.796  14.183
  771MPD2    H311422   1.356   3.587  14.122
  771MPD2     N11423   0.980   3.789  13.977
  771MPD2    H511424   0.924   3.870  14.001
  771MPD2    N111425   1.348   4.049  14.122
  771MPD2    H711426   1.300   4.128  14.080
  772MPD2     C11427   0.987   4.634  14.018
  772MPD2    C111428   1.002   4.514  14.095
  772MPD2    C211429   0.896   4.435  14.129
  772MPD2    C311430   0.769   4.473  14.100
  772MPD2    C411431   0.751   4.592  14.022
  772MPD2    C511432   0.853   4.660  13.983
  772MPD2     H11433   0.915   4.339  14.177
  772MPD2    H111434   0.660   4.645  13.996
  772MPD2    H211435   1.057   4.717  14.018
  772MPD2    H311436   0.842   4.739  13.909
  772MPD2     N11437   0.654   4.421  14.146
  772MPD2    H511438   0.564   4.453  14.111
  772MPD2    N111439   1.127   4.472  14.147
  772MPD2    H711440   1.123   4.398  14.216
  773MPD2     C11441   0.311   0.457  18.307
  773MPD2    C111442   0.275   0.391  18.189
  773MPD2    C211443   0.325   0.259  18.173
  773MPD2    C311444   0.400   0.198  18.272
  773MPD2    C411445   0.432   0.264  18.383
  773MPD2    C511446   0.389   0.396  18.402
  773MPD2     H11447   0.281   0.195  18.097
  773MPD2    H111448   0.494   0.215  18.457
  773MPD2    H211449   0.294   0.563  18.324
  773MPD2    H311450   0.416   0.433  18.500
  773MPD2     N11451   0.439   0.064  18.256
  773MPD2    H511452   0.404   0.014  18.175
  773MPD2    N111453   0.187   0.436  18.098
  773MPD2    H711454   0.180   0.369  18.022
  774MPD2     C11455   4.040   4.132  13.778
  774MPD2    C111456   4.059   4.226  13.872
  774MPD2    C211457   4.169   4.311  13.855
  774MPD2    C311458   4.271   4.290  13.764
  774MPD2    C411459   4.248   4.192  13.673
  774MPD2    C511460   4.131   4.116  13.679
  774MPD2     H11461   4.180   4.402  13.913
  774MPD2    H111462   4.319   4.166  13.595
  774MPD2    H211463   3.955   4.065  13.781
  774MPD2    H311464   4.118   4.036  13.607
  774MPD2     N11465   4.379   4.374  13.783
  774MPD2    H511466   4.369   4.453  13.846
  774MPD2    N111467   3.970   4.226  13.982
  774MPD2    H711468   3.907   4.147  13.994
  775MPD2     C11469   1.129   0.679  16.196
  775MPD2    C111470   1.078   0.805  16.224
  775MPD2    C211471   1.157   0.912  16.179
  775MPD2    C311472   1.275   0.889  16.103
  775MPD2    C411473   1.318   0.766  16.076
  775MPD2    C511474   1.246   0.656  16.123
  775MPD2     H11475   1.126   1.015  16.192
  775MPD2    H111476   1.414   0.751  16.028
  775MPD2    H211477   1.070   0.592  16.221
  775MPD2    H311478   1.275   0.551  16.121
  775MPD2     N11479   1.356   0.993  16.051
  775MPD2    H511480   1.426   0.961  15.985
  775MPD2    N111481   0.953   0.817  16.286
  775MPD2    H711482   0.891   0.737  16.280
  776MPD2     C11483   4.699   1.422  12.237
  776MPD2    C111484   4.601   1.472  12.157
  776MPD2    C211485   4.593   1.612  12.163
  776MPD2    C311486   4.670   1.691  12.241
  776MPD2    C411487   4.776   1.628  12.313
  776MPD2    C511488   0.006   1.490  12.319
  776MPD2     H11489   4.518   1.662  12.103
  776MPD2    H111490   0.053   1.682  12.387
  776MPD2    H211491   4.713   1.315  12.237
  776MPD2    H311492   0.087   1.443  12.373
  776MPD2     N11493   4.681   1.835  12.253
  776MPD2    H511494   4.742   1.881  12.319
  776MPD2    N111495   4.528   1.384  12.083
  776MPD2    H711496   4.550   1.285  12.092
  777MPD2     C11497   0.295   3.448  18.747
  777MPD2    C111498   0.172   3.478  18.792
  777MPD2    C211499   0.056   3.422  18.736
  777MPD2    C311500   0.064   3.337  18.624
  777MPD2    C411501   0.193   3.314  18.574
  777MPD2    C511502   0.303   3.376  18.632
  777MPD2     H11503   4.746   3.438  18.793
  777MPD2    H111504   0.220   3.245  18.495
  777MPD2    H211505   0.382   3.492  18.795
  777MPD2    H311506   0.391   3.364  18.569
  777MPD2     N11507   4.731   3.278  18.574
  777MPD2    H511508   4.640   3.295  18.616
  777MPD2    N111509   0.173   3.569  18.901
  777MPD2    H711510   0.264   3.602  18.930
  778MPD2     C11511   1.023   3.792  15.233
  778MPD2    C111512   1.001   3.706  15.125
  778MPD2    C211513   1.033   3.753  15.003
  778MPD2    C311514   1.093   3.882  14.985
  778MPD2    C411515   1.124   3.957  15.097
  778MPD2    C511516   1.083   3.913  15.217
  778MPD2     H11517   1.003   3.687  14.923
  778MPD2    H111518   1.188   4.045  15.094
  778MPD2    H211519   0.999   3.780  15.338
  778MPD2    H311520   1.090   3.979  15.303
  778MPD2     N11521   1.133   3.922  14.859
  778MPD2    H511522   1.114   3.864  14.778
  778MPD2    N111523   0.967   3.577  15.148
  778MPD2    H711524   0.916   3.540  15.069
  779MPD2     C11525   0.729   2.528  14.488
  779MPD2    C111526   0.864   2.546  14.476
  779MPD2    C211527   0.912   2.661  14.428
  779MPD2    C311528   0.831   2.770  14.401
  779MPD2    C411529   0.698   2.753  14.427
  779MPD2    C511530   0.645   2.633  14.464
  779MPD2     H11531   1.019   2.672  14.412
  779MPD2    H111532   0.620   2.821  14.394
  779MPD2    H211533   0.687   2.431  14.512
  779MPD2    H311534   0.538   2.629  14.478
  779MPD2     N11535   0.879   2.887  14.348
  779MPD2    H511536   0.977   2.911  14.363
  779MPD2    N111537   0.958   2.437  14.502
  779MPD2    H711538   1.054   2.451  14.471
  780MPD2     C11539   0.675   2.191  18.935
  780MPD2    C111540   0.566   2.178  18.861
  780MPD2    C211541   0.557   2.262  18.748
  780MPD2    C311542   0.649   2.359  18.714
  780MPD2    C411543   0.757   2.370  18.796
  780MPD2    C511544   0.768   2.290  18.908
  780MPD2     H11545   0.479   2.235  18.678
  780MPD2    H111546   0.843   2.434  18.781
  780MPD2    H211547   0.688   2.132  19.025
  780MPD2    H311548   0.845   2.300  18.984
  780MPD2     N11549   0.623   2.439  18.597
  780MPD2    H511550   0.552   2.403  18.533
  780MPD2    N111551   0.481   2.069  18.887
  780MPD2    H711552   0.513   2.005  18.959
  781MPD2     C11553   2.143   4.323  12.306
  781MPD2    C111554   2.230   4.372  12.402
  781MPD2    C211555   2.344   4.437  12.366
  781MPD2    C311556   2.373   4.455  12.230
  781MPD2    C411557   2.287   4.413  12.133
  781MPD2    C511558   2.167   4.351  12.175
  781MPD2     H11559   2.402   4.491  12.440
  781MPD2    H111560   2.305   4.436  12.029
  781MPD2    H211561   2.048   4.273  12.320
  781MPD2    H311562   2.103   4.314  12.096
  781MPD2     N11563   2.495   4.516  12.188
  781MPD2    H511564   2.490   4.550  12.092
  781MPD2    N111565   2.211   4.362  12.541
  781MPD2    H711566   2.290   4.394  12.597
  782MPD2     C11567   4.751   0.552  10.723
  782MPD2    C111568   0.102   0.533  10.722
  782MPD2    C211569   0.178   0.617  10.806
  782MPD2    C311570   0.117   0.711  10.880
  782MPD2    C411571   4.760   0.723  10.876
  782MPD2    C511572   4.686   0.642  10.796
  782MPD2     H11573   0.283   0.592  10.820
  782MPD2    H111574   4.708   0.805  10.924
  782MPD2    H211575   4.698   0.492  10.650
  782MPD2    H311576   4.579   0.654  10.787
  782MPD2     N11577   0.196   0.799  10.955
  782MPD2    H511578   0.296   0.781  10.948
  782MPD2    N111579   0.162   0.432  10.642
  782MPD2    H711580   0.103   0.368  10.589
  783MPD2     C11581   0.124   4.645  11.272
  783MPD2    C111582   0.131   0.003  11.266
  783MPD2    C211583   0.183   0.055  11.150
  783MPD2    C311584   0.185   4.766  11.030
  783MPD2    C411585   0.146   4.632  11.033
  783MPD2    C511586   0.118   4.572  11.156
  783MPD2     H11587   0.212   0.159  11.155
  783MPD2    H111588   0.134   4.574  10.942
  783MPD2    H211589   0.088   4.583  11.354
  783MPD2    H311590   0.093   4.467  11.161
  783MPD2     N11591   0.226   0.043  10.909
  783MPD2    H511592   0.250   0.142  10.911
  783MPD2    N111593   0.118   0.073  11.388
  783MPD2    H711594   0.087   0.015  11.465
  784MPD2     C11595   2.926   0.946  18.811
  784MPD2    C111596   2.893   0.963  18.940
  784MPD2    C211597   2.766   1.011  18.978
  784MPD2    C311598   2.673   1.045  18.882
  784MPD2    C411599   2.717   1.037  18.749
  784MPD2    C511600   2.841   0.986  18.715
  784MPD2     H11601   2.742   1.029  19.082
  784MPD2    H111602   2.648   1.049  18.666
  784MPD2    H211603   3.017   0.892  18.785
  784MPD2    H311604   2.867   0.963  18.612
  784MPD2     N11605   2.540   1.083  18.930
  784MPD2    H511606   2.526   1.115  19.025
  784MPD2    N111607   2.986   0.933  19.047
  784MPD2    H711608   2.952   0.951  19.141
  785MPD2     C11609   3.232   3.698  11.509
  785MPD2    C111610   3.228   3.783  11.404
  785MPD2    C211611   3.229   3.734  11.275
  785MPD2    C311612   3.252   3.596  11.256
  785MPD2    C411613   3.264   3.517  11.367
  785MPD2    C511614   3.249   3.563  11.494
  785MPD2     H11615   3.216   3.793  11.185
  785MPD2    H111616   3.278   3.410  11.372
  785MPD2    H211617   3.204   3.736  11.606
  785MPD2    H311618   3.235   3.494  11.576
  785MPD2     N11619   3.238   3.545  11.125
  785MPD2    H511620   3.189   3.602  11.057
  785MPD2    N111621   3.196   3.921  11.431
  785MPD2    H711622   3.141   3.951  11.511
  786MPD2     C11623   1.503   1.718  15.294
  786MPD2    C111624   1.614   1.761  15.223
  786MPD2    C211625   1.713   1.843  15.289
  786MPD2    C311626   1.702   1.868  15.423
  786MPD2    C411627   1.587   1.833  15.487
  786MPD2    C511628   1.495   1.750  15.426
  786MPD2     H11629   1.792   1.882  15.225
  786MPD2    H111630   1.575   1.852  15.593
  786MPD2    H211631   1.417   1.660  15.261
  786MPD2    H311632   1.412   1.716  15.488
  786MPD2     N11633   1.798   1.942  15.499
  786MPD2    H511634   1.783   1.937  15.599
  786MPD2    N111635   1.645   1.721  15.090
  786MPD2    H711636   1.740   1.725  15.056
  787MPD2     C11637   2.064   1.181  15.137
  787MPD2    C111638   2.001   1.178  15.014
  787MPD2    C211639   2.035   1.070  14.938
  787MPD2    C311640   2.113   0.963  14.981
  787MPD2    C411641   2.163   0.966  15.111
  787MPD2    C511642   2.143   1.078  15.185
  787MPD2     H11643   2.006   1.072  14.834
  787MPD2    H111644   2.216   0.884  15.159
  787MPD2    H211645   2.055   1.268  15.202
  787MPD2    H311646   2.189   1.092  15.282
  787MPD2     N11647   2.127   0.852  14.901
  787MPD2    H511648   2.068   0.872  14.821
  787MPD2    N111649   1.914   1.284  14.971
  787MPD2    H711650   1.909   1.361  15.037
  788MPD2     C11651   3.802   0.151  19.153
  788MPD2    C111652   3.891   0.140  19.052
  788MPD2    C211653   3.942   0.259  18.991
  788MPD2    C311654   3.882   0.378  19.025
  788MPD2    C411655   3.801   0.385  19.138
  788MPD2    C511656   3.765   0.270  19.205
  788MPD2     H11657   4.024   0.248  18.922
  788MPD2    H111658   3.760   0.476  19.179
  788MPD2    H211659   3.763   0.060  19.197
  788MPD2    H311660   3.693   0.259  19.286
  788MPD2     N11661   3.904   0.494  18.957
  788MPD2    H511662   3.887   0.575  19.015
  788MPD2    N111663   3.931   0.017  19.006
  788MPD2    H711664   4.004   0.007  18.937
  789MPD2     C11665   3.960   4.656  16.682
  789MPD2    C111666   3.890   4.550  16.721
  789MPD2    C211667   3.794   4.570  16.822
  789MPD2    C311668   3.758   4.703  16.866
  789MPD2    C411669   3.828   0.030  16.816
  789MPD2    C511670   3.935   0.001  16.732
  789MPD2     H11671   3.740   4.484  16.859
  789MPD2    H111672   3.811   0.133  16.846
  789MPD2    H211673   4.043   4.653  16.612
  789MPD2    H311674   3.994   0.082  16.692
  789MPD2     N11675   3.650   4.733  16.951
  789MPD2    H511676   3.622   0.049  16.965
  789MPD2    N111677   3.912   4.420  16.669
  789MPD2    H711678   3.847   4.348  16.698
  790MPD2     C11679   0.025   1.767  13.978
  790MPD2    C111680   0.042   1.628  14.006
  790MPD2    C211681   4.770   1.538  13.912
  790MPD2    C311682   4.703   1.588  13.799
  790MPD2    C411683   4.697   1.724  13.776
  790MPD2    C511684   4.755   1.810  13.864
  790MPD2     H11685   4.778   1.430  13.916
  790MPD2    H111686   4.648   1.768  13.690
  790MPD2    H211687   0.065   1.832  14.055
  790MPD2    H311688   4.752   1.916  13.843
  790MPD2     N11689   4.646   1.491  13.720
  790MPD2    H511690   4.671   1.395  13.741
  790MPD2    N111691   0.093   1.591  14.134
  790MPD2    H711692   0.107   1.665  14.203
  791MPD2     C11693   4.037   1.457  13.185
  791MPD2    C111694   4.070   1.343  13.255
  791MPD2    C211695   3.987   1.232  13.229
  791MPD2    C311696   3.877   1.235  13.145
  791MPD2    C411697   3.840   1.354  13.091
  791MPD2    C511698   3.925   1.461  13.109
  791MPD2     H11699   4.002   1.142  13.288
  791MPD2    H111700   3.749   1.363  13.032
  791MPD2    H211701   4.087   1.552  13.200
  791MPD2    H311702   3.900   1.555  13.060
  791MPD2     N11703   3.808   1.120  13.131
  791MPD2    H511704   3.856   1.041  13.173
  791MPD2    N111705   4.191   1.341  13.323
  791MPD2    H711706   4.226   1.430  13.358
  792MPD2     C11707   0.031   1.313  11.551
  792MPD2    C111708   4.708   1.388  11.591
  792MPD2    C211709   4.580   1.348  11.559
  792MPD2    C311710   4.548   1.232  11.488
  792MPD2    C411711   4.656   1.156  11.451
  792MPD2    C511712   0.001   1.192  11.485
  792MPD2     H11713   4.499   1.405  11.604
  792MPD2    H111714   4.647   1.064  11.394
  792MPD2    H211715   0.128   1.349  11.582
  792MPD2    H311716   0.084   1.130  11.453
  792MPD2     N11717   4.423   1.181  11.474
  792MPD2    H511718   4.409   1.090  11.430
  792MPD2    N111719   4.736   1.504  11.664
  792MPD2    H711720   0.052   1.517  11.690
  793MPD2     C11721   3.784   1.055  10.874
  793MPD2    C111722   3.911   1.103  10.892
  793MPD2    C211723   3.950   1.141  11.020
  793MPD2    C311724   3.861   1.130  11.132
  793MPD2    C411725   3.732   1.082  11.108
  793MPD2    C511726   3.694   1.046  10.979
  793MPD2     H11727   4.049   1.180  11.039
  793MPD2    H111728   3.655   1.082  11.184
  793MPD2    H211729   3.765   0.997  10.784
  793MPD2    H311730   3.596   1.004  10.960
  793MPD2     N11731   3.917   1.146  11.256
  793MPD2    H511732   3.993   1.213  11.250
  793MPD2    N111733   4.008   1.132  10.794
  793MPD2    H711734   4.079   1.199  10.821
  794MPD2     C11735   4.591   1.019  17.567
  794MPD2    C111736   4.554   0.888  17.555
  794MPD2    C211737   4.465   0.859  17.455
  794MPD2    C311738   4.415   0.967  17.377
  794MPD2    C411739   4.459   1.094  17.387
  794MPD2    C511740   4.539   1.120  17.490
  794MPD2     H11741   4.429   0.757  17.448
  794MPD2    H111742   4.433   1.183  17.331
  794MPD2    H211743   4.643   1.050  17.657
  794MPD2    H311744   4.575   1.219  17.513
  794MPD2     N11745   4.316   0.953  17.281
  794MPD2    H511746   4.294   1.047  17.250
  794MPD2    N111747   4.578   0.785  17.645
  794MPD2    H711748   4.531   0.699  17.620
  795MPD2     C11749   2.224   2.997  13.781
  795MPD2    C111750   2.177   2.901  13.700
  795MPD2    C211751   2.246   2.777  13.698
  795MPD2    C311752   2.370   2.765  13.766
  795MPD2    C411753   2.413   2.871  13.842
  795MPD2    C511754   2.331   2.985  13.867
  795MPD2     H11755   2.199   2.700  13.639
  795MPD2    H111756   2.510   2.858  13.889
  795MPD2    H211757   2.182   3.097  13.790
  795MPD2    H311758   2.364   3.069  13.927
  795MPD2     N11759   2.452   2.649  13.743
  795MPD2    H511760   2.396   2.566  13.726
  795MPD2    N111761   2.056   2.920  13.618
  795MPD2    H711762   2.021   2.841  13.565
  796MPD2     C11763   1.786   4.203  15.951
  796MPD2    C111764   1.827   4.249  16.075
  796MPD2    C211765   1.821   4.380  16.108
  796MPD2    C311766   1.781   4.470  16.019
  796MPD2    C411767   1.746   4.437  15.889
  796MPD2    C511768   1.751   4.300  15.858
  796MPD2     H11769   1.838   4.412  16.210
  796MPD2    H111770   1.714   4.503  15.809
  796MPD2    H211771   1.791   4.097  15.930
  796MPD2    H311772   1.713   4.260  15.764
  796MPD2     N11773   1.807   4.608  16.059
  796MPD2    H511774   1.833   4.616  16.157
  796MPD2    N111775   1.877   4.145  16.159
  796MPD2    H711776   1.871   4.052  16.119
  797MPD2     C11777   2.496   3.960  17.640
  797MPD2    C111778   2.529   4.088  17.663
  797MPD2    C211779   2.474   4.186  17.577
  797MPD2    C311780   2.392   4.165  17.467
  797MPD2    C411781   2.367   4.028  17.437
  797MPD2    C511782   2.425   3.935  17.521
  797MPD2     H11783   2.500   4.286  17.610
  797MPD2    H111784   2.301   3.993  17.358
  797MPD2    H211785   2.545   3.882  17.697
  797MPD2    H311786   2.421   3.828  17.502
  797MPD2     N11787   2.342   4.264  17.387
  797MPD2    H511788   2.325   4.243  17.289
  797MPD2    N111789   2.618   4.136  17.767
  797MPD2    H711790   2.654   4.229  17.751
  798MPD2     C11791   2.497   0.097  17.724
  798MPD2    C111792   2.548   0.018  17.631
  798MPD2    C211793   2.628   4.693  17.675
  798MPD2    C311794   2.653   4.675  17.810
  798MPD2    C411795   2.605   4.762  17.901
  798MPD2    C511796   2.528   0.088  17.858
  798MPD2     H11797   2.676   4.629  17.602
  798MPD2    H111798   2.626   4.760  18.007
  798MPD2    H211799   2.452   0.185  17.681
  798MPD2    H311800   2.462   0.141  17.925
  798MPD2     N11801   2.717   4.546  17.845
  798MPD2    H511802   2.746   4.483  17.771
  798MPD2    N111803   2.505   0.021  17.495
  798MPD2    H711804   2.407   0.043  17.481
  799MPD2     C11805   1.784   0.690  15.071
  799MPD2    C111806   1.686   0.631  14.988
  799MPD2    C211807   1.615   0.715  14.901
  799MPD2    C311808   1.640   0.851  14.892
  799MPD2    C411809   1.734   0.905  14.979
  799MPD2    C511810   1.814   0.826  15.060
  799MPD2     H11811   1.555   0.664  14.826
  799MPD2    H111812   1.756   1.011  14.985
  799MPD2    H211813   1.842   0.639  15.146
  799MPD2    H311814   1.884   0.876  15.125
  799MPD2     N11815   1.564   0.936  14.808
  799MPD2    H511816   1.601   1.029  14.789
  799MPD2    N111817   1.655   0.495  14.978
  799MPD2    H711818   1.572   0.468  14.927
  800MPD2     C11819   1.816   1.824  13.959
  800MPD2    C111820   1.924   1.824  14.041
  800MPD2    C211821   1.996   1.710  14.046
  800MPD2    C311822   1.972   1.606  13.952
  800MPD2    C411823   1.858   1.609  13.879
  800MPD2    C511824   1.773   1.716  13.887
  800MPD2     H11825   2.092   1.704  14.096
  800MPD2    H111826   1.829   1.520  13.825
  800MPD2    H211827   1.750   1.910  13.956
  800MPD2    H311828   1.683   1.720  13.826
  800MPD2     N11829   2.070   1.507  13.929
  800MPD2    H511830   2.159   1.526  13.975
  800MPD2    N111831   1.974   1.950  14.091
  800MPD2    H711832   1.933   2.033  14.050
  801MPD2     C11833   2.174   2.686  14.052
  801MPD2    C111834   2.085   2.576  14.083
  801MPD2    C211835   1.948   2.608  14.103
  801MPD2    C311836   1.911   2.740  14.120
  801MPD2    C411837   2.004   2.835  14.119
  801MPD2    C511838   2.135   2.812  14.077
  801MPD2     H11839   1.883   2.525  14.129
  801MPD2    H111840   1.973   2.937  14.138
  801MPD2    H211841   2.277   2.667  14.024
  801MPD2    H311842   2.208   2.892  14.069
  801MPD2     N11843   1.788   2.780  14.168
  801MPD2    H511844   1.779   2.875  14.203
  801MPD2    N111845   2.120   2.435  14.086
  801MPD2    H711846   2.043   2.380  14.121
  802MPD2     C11847   1.185   3.467  17.716
  802MPD2    C111848   1.216   3.388  17.821
  802MPD2    C211849   1.256   3.261  17.803
  802MPD2    C311850   1.248   3.202  17.682
  802MPD2    C411851   1.191   3.275  17.580
  802MPD2    C511852   1.160   3.410  17.594
  802MPD2     H11853   1.270   3.198  17.890
  802MPD2    H111854   1.172   3.238  17.480
  802MPD2    H211855   1.151   3.569  17.732
  802MPD2    H311856   1.113   3.472  17.519
  802MPD2     N11857   1.291   3.065  17.666
  802MPD2    H511858   1.356   3.028  17.735
  802MPD2    N111859   1.208   3.435  17.956
  802MPD2    H711860   1.220   3.370  18.033
  803MPD2     C11861   2.884   1.326  12.255
  803MPD2    C111862   2.951   1.380  12.359
  803MPD2    C211863   2.890   1.357  12.483
  803MPD2    C311864   2.777   1.274  12.503
  803MPD2    C411865   2.712   1.222  12.392
  803MPD2    C511866   2.766   1.249  12.266
  803MPD2     H11867   2.954   1.380  12.568
  803MPD2    H111868   2.635   1.145  12.391
  803MPD2    H211869   2.926   1.331  12.155
  803MPD2    H311870   2.730   1.204  12.174
  803MPD2     N11871   2.734   1.214  12.618
  803MPD2    H511872   2.658   1.147  12.613
  803MPD2    N111873   3.059   1.475  12.346
  803MPD2    H711874   3.114   1.476  12.431
  804MPD2     C11875   2.249   2.567  17.108
  804MPD2    C111876   2.257   2.550  17.244
  804MPD2    C211877   2.329   2.642  17.318
  804MPD2    C311878   2.414   2.730  17.249
  804MPD2    C411879   2.410   2.737  17.107
  804MPD2    C511880   2.330   2.652  17.043
  804MPD2     H11881   2.333   2.645  17.426
  804MPD2    H111882   2.474   2.807  17.055
  804MPD2    H211883   2.184   2.513  17.041
  804MPD2    H311884   2.320   2.659  16.935
  804MPD2     N11885   2.506   2.803  17.326
  804MPD2    H511886   2.500   2.799  17.427
  804MPD2    N111887   2.200   2.443  17.320
  804MPD2    H711888   2.185   2.460  17.419
  805MPD2     C11889   1.481   0.680  15.749
  805MPD2    C111890   1.539   0.801  15.719
  805MPD2    C211891   1.660   0.825  15.780
  805MPD2    C311892   1.733   0.732  15.850
  805MPD2    C411893   1.675   0.611  15.874
  805MPD2    C511894   1.548   0.590  15.824
  805MPD2     H11895   1.712   0.920  15.774
  805MPD2    H111896   1.722   0.527  15.923
  805MPD2    H211897   1.380   0.656  15.717
  805MPD2    H311898   1.502   0.494  15.845
  805MPD2     N11899   1.860   0.774  15.902
  805MPD2    H511900   1.894   0.862  15.865
  805MPD2    N111901   1.489   0.904  15.639
  805MPD2    H711902   1.544   0.989  15.626
  806MPD2     C11903   2.203   0.442  19.319
  806MPD2    C111904   2.330   0.471  19.274
  806MPD2    C211905   2.361   0.454  19.143
  806MPD2    C311906   2.274   0.385  19.057
  806MPD2    C411907   2.150   0.371  19.095
  806MPD2    C511908   2.111   0.406  19.222
  806MPD2     H11909   2.458   0.482  19.102
  806MPD2    H111910   2.080   0.322  19.029
  806MPD2    H211911   2.161   0.483  19.410
  806MPD2    H311912   2.007   0.395  19.252
  806MPD2     N11913   2.308   0.363  18.924
  806MPD2    H511914   2.390   0.415  18.894
  806MPD2    N111915   2.421   0.521  19.369
  806MPD2    H711916   2.383   0.536  19.462
  807MPD2     C11917   2.465   0.283  20.038
  807MPD2    C111918   2.422   0.281  19.906
  807MPD2    C211919   2.316   0.204  19.865
  807MPD2    C311920   2.240   0.123  19.951
  807MPD2    C411921   2.276   0.137  20.081
  807MPD2    C511922   2.385   0.209  20.130
  807MPD2     H11923   2.278   0.213  19.764
  807MPD2    H111924   2.222   0.087  20.161
  807MPD2    H211925   2.541   0.346  20.082
  807MPD2    H311926   2.407   0.203  20.236
  807MPD2     N11927   2.133   0.040  19.905
  807MPD2    H511928   2.111   0.052  19.807
  807MPD2    N111929   2.493   0.352  19.802
  807MPD2    H711930   2.454   0.330  19.711
  808MPD2     C11931   2.289   1.855   9.714
  808MPD2    C111932   2.321   1.889   9.845
  808MPD2    C211933   2.391   2.006   9.869
  808MPD2    C311934   2.421   2.085   9.759
  808MPD2    C411935   2.386   2.048   9.635
  808MPD2    C511936   2.325   1.928   9.609
  808MPD2     H11937   2.419   2.033   9.970
  808MPD2    H111938   2.393   2.115   9.550
  808MPD2    H211939   2.234   1.766   9.685
  808MPD2    H311940   2.305   1.895   9.508
  808MPD2     N11941   2.487   2.209   9.772
  808MPD2    H511942   2.502   2.264   9.688
  808MPD2    N111943   2.279   1.818   9.962
  808MPD2    H711944   2.311   1.854  10.051
  809MPD2     C11945   3.062   2.910   9.355
  809MPD2    C111946   3.101   2.828   9.459
  809MPD2    C211947   3.000   2.764   9.535
  809MPD2    C311948   2.865   2.783   9.502
  809MPD2    C411949   2.829   2.863   9.400
  809MPD2    C511950   2.928   2.921   9.328
  809MPD2     H11951   3.035   2.697   9.612
  809MPD2    H111952   2.726   2.880   9.370
  809MPD2    H211953   3.134   2.958   9.290
  809MPD2    H311954   2.909   3.000   9.257
  809MPD2     N11955   2.761   2.724   9.579
  809MPD2    H511956   2.672   2.773   9.577
  809MPD2    N111957   3.237   2.809   9.499
  809MPD2    H711958   3.250   2.722   9.550
  810MPD2     C11959   2.172   1.444  10.570
  810MPD2    C111960   2.094   1.374  10.657
  810MPD2    C211961   2.108   1.402  10.793
  810MPD2    C311962   2.199   1.490  10.842
  810MPD2    C411963   2.274   1.562  10.755
  810MPD2    C511964   2.269   1.532  10.620
  810MPD2     H11965   2.040   1.351  10.861
  810MPD2    H111966   2.349   1.637  10.780
  810MPD2    H211967   2.168   1.430  10.463
  810MPD2    H311968   2.338   1.588  10.558
  810MPD2     N11969   2.198   1.537  10.977
  810MPD2    H511970   2.263   1.613  10.994
  810MPD2    N111971   1.990   1.294  10.605
  810MPD2    H711972   1.980   1.293  10.504
  811MPD2     C11973   1.293   1.323  10.135
  811MPD2    C111974   1.365   1.384  10.232
  811MPD2    C211975   1.373   1.523  10.238
  811MPD2    C311976   1.310   1.598  10.141
  811MPD2    C411977   1.239   1.532  10.038
  811MPD2    C511978   1.229   1.399  10.040
  811MPD2     H11979   1.425   1.574  10.318
  811MPD2    H111980   1.191   1.588   9.959
  811MPD2    H211981   1.288   1.215  10.127
  811MPD2    H311982   1.163   1.356   9.966
  811MPD2     N11983   1.324   1.738  10.145
  811MPD2    H511984   1.370   1.776  10.227
  811MPD2    N111985   1.442   1.302  10.313
  811MPD2    H711986   1.427   1.202  10.307
  812MPD2     C11987   0.508   1.276  12.485
  812MPD2    C111988   0.503   1.365  12.592
  812MPD2    C211989   0.513   1.311  12.718
  812MPD2    C311990   0.526   1.178  12.744
  812MPD2    C411991   0.521   1.088  12.638
  812MPD2    C511992   0.514   1.139  12.513
  812MPD2     H11993   0.504   1.384  12.798
  812MPD2    H111994   0.526   0.982  12.659
  812MPD2    H211995   0.492   1.305  12.382
  812MPD2    H311996   0.516   1.059  12.440
  812MPD2     N11997   0.537   1.135  12.883
  812MPD2    H511998   0.530   1.205  12.957
  812MPD2    N111999   0.480   1.500  12.561
  812MPD2    H712000   0.493   1.522  12.463
  813MPD2     C12001   4.471   3.441  13.136
  813MPD2    C112002   4.575   3.420  13.225
  813MPD2    C212003   4.529   3.396  13.365
  813MPD2    C312004   4.399   3.409  13.406
  813MPD2    C412005   4.304   3.426  13.311
  813MPD2    C512006   4.341   3.431  13.177
  813MPD2     H12007   4.606   3.393  13.441
  813MPD2    H112008   4.207   3.444  13.355
  813MPD2    H212009   4.495   3.457  13.032
  813MPD2    H312010   4.259   3.454  13.110
  813MPD2     N12011   4.385   3.411  13.546
  813MPD2    H512012   4.469   3.414  13.602
  813MPD2    N112013   4.710   3.424  13.184
  813MPD2    H712014   4.732   3.461  13.092
  814MPD2     C12015   0.284   4.495  12.853
  814MPD2    C112016   0.248   4.557  12.731
  814MPD2    C212017   0.263   4.695  12.724
  814MPD2    C312018   0.313   4.765  12.835
  814MPD2    C412019   0.343   4.701  12.953
  814MPD2    C512020   0.321   4.567  12.961
  814MPD2     H12021   0.226   4.743  12.634
  814MPD2    H112022   0.383   4.750  13.041
  814MPD2    H212023   0.287   4.388  12.871
  814MPD2    H312024   0.320   4.523  13.060
  814MPD2     N12025   0.341   0.115  12.828
  814MPD2    H512026   0.347   0.171  12.913
  814MPD2    N112027   0.218   4.473  12.619
  814MPD2    H712028   0.194   4.520  12.532
  815MPD2     C12029   0.973   3.195  12.098
  815MPD2    C112030   0.929   3.063  12.101
  815MPD2    C212031   0.811   3.035  12.162
  815MPD2    C312032   0.731   3.135  12.212
  815MPD2    C412033   0.781   3.267  12.202
  815MPD2    C512034   0.898   3.300  12.146
  815MPD2     H12035   0.770   2.935  12.166
  815MPD2    H112036   0.724   3.351  12.241
  815MPD2    H212037   1.073   3.214  12.060
  815MPD2    H312038   0.934   3.402  12.142
  815MPD2     N12039   0.610   3.095  12.262
  815MPD2    H512040   0.588   2.997  12.248
  815MPD2    N112041   1.008   2.968  12.029
  815MPD2    H712042   1.093   2.998  11.983
  816MPD2     C12043   0.605   1.726  17.256
  816MPD2    C112044   0.683   1.836  17.268
  816MPD2    C212045   0.816   1.830  17.258
  816MPD2    C312046   0.879   1.712  17.252
  816MPD2    C412047   0.803   1.596  17.257
  816MPD2    C512048   0.669   1.608  17.253
  816MPD2     H12049   0.876   1.920  17.260
  816MPD2    H112050   0.850   1.498  17.257
  816MPD2    H212051   0.498   1.719  17.270
  816MPD2    H312052   0.607   1.521  17.237
  816MPD2     N12053   1.020   1.711  17.213
  816MPD2    H512054   1.072   1.798  17.208
  816MPD2    N112055   0.607   1.953  17.286
  816MPD2    H712056   0.508   1.939  17.302
  817MPD2     C12057   0.650   3.905  10.512
  817MPD2    C112058   0.651   3.893  10.374
  817MPD2    C212059   0.636   4.012  10.306
  817MPD2    C312060   0.604   4.131  10.372
  817MPD2    C412061   0.608   4.142  10.506
  817MPD2    C512062   0.636   4.024  10.573
  817MPD2     H12063   0.624   3.999  10.199
  817MPD2    H112064   0.606   4.233  10.565
  817MPD2    H212065   0.665   3.819  10.577
  817MPD2    H312066   0.627   4.012  10.680
  817MPD2     N12067   0.583   4.243  10.289
  817MPD2    H512068   0.600   4.230  10.190
  817MPD2    N112069   0.668   3.769  10.306
  817MPD2    H712070   0.700   3.781  10.210
  818MPD2     C12071   4.306   3.876  10.203
  818MPD2    C112072   4.199   3.852  10.282
  818MPD2    C212073   4.149   3.720  10.270
  818MPD2    C312074   4.195   3.621  10.183
  818MPD2    C412075   4.295   3.654  10.099
  818MPD2    C512076   4.359   3.777  10.120
  818MPD2     H12077   4.056   3.696  10.320
  818MPD2    H112078   4.337   3.590  10.022
  818MPD2    H212079   4.368   3.965  10.193
  818MPD2    H312080   4.447   3.792  10.058
  818MPD2     N12081   4.145   3.487  10.175
  818MPD2    H512082   4.194   3.413  10.126
  818MPD2    N112083   4.153   3.933  10.386
  818MPD2    H712084   4.095   3.882  10.451
  819MPD2     C12085   2.283   0.624  15.869
  819MPD2    C112086   2.270   0.487  15.908
  819MPD2    C212087   2.365   0.435  15.992
  819MPD2    C312088   2.470   0.516  16.036
  819MPD2    C412089   2.478   0.644  15.994
  819MPD2    C512090   2.380   0.703  15.925
  819MPD2     H12091   2.360   0.330  16.019
  819MPD2    H112092   2.561   0.711  16.015
  819MPD2    H212093   2.216   0.681  15.806
  819MPD2    H312094   2.394   0.803  15.884
  819MPD2     N12095   2.573   0.461  16.112
  819MPD2    H512096   2.559   0.367  16.147
  819MPD2    N112097   2.172   0.414  15.838
  819MPD2    H712098   2.123   0.457  15.760
  820MPD2     C12099   1.387   0.435  15.245
  820MPD2    C112100   1.481   0.521  15.297
  820MPD2    C212101   1.571   0.471  15.389
  820MPD2    C312102   1.556   0.339  15.430
  820MPD2    C412103   1.459   0.255  15.377
  820MPD2    C512104   1.377   0.302  15.281
  820MPD2     H12105   1.638   0.533  15.447
  820MPD2    H112106   1.434   0.157  15.416
  820MPD2    H212107   1.324   0.470  15.164
  820MPD2    H312108   1.295   0.243  15.242
  820MPD2     N12109   1.637   0.285  15.533
  820MPD2    H512110   1.601   0.202  15.580
  820MPD2    N112111   1.467   0.657  15.263
  820MPD2    H712112   1.394   0.686  15.199
  821MPD2     C12113   2.459   1.825  13.492
  821MPD2    C112114   2.550   1.735  13.536
  821MPD2    C212115   2.678   1.780  13.558
  821MPD2    C312116   2.713   1.906  13.533
  821MPD2    C412117   2.627   1.995  13.470
  821MPD2    C512118   2.500   1.951  13.449
  821MPD2     H12119   2.749   1.710  13.600
  821MPD2    H112120   2.648   2.099  13.446
  821MPD2    H212121   2.356   1.795  13.479
  821MPD2    H312122   2.428   2.017  13.403
  821MPD2     N12123   2.838   1.961  13.575
  821MPD2    H512124   2.846   2.055  13.537
  821MPD2    N112125   2.509   1.610  13.581
  821MPD2    H712126   2.589   1.547  13.579
  822MPD2     C12127   3.142   1.831  16.048
  822MPD2    C112128   3.076   1.787  16.164
  822MPD2    C212129   2.960   1.853  16.198
  822MPD2    C312130   2.915   1.964  16.140
  822MPD2    C412131   2.982   2.010  16.022
  822MPD2    C512132   3.090   1.936  15.973
  822MPD2     H12133   2.913   1.831  16.293
  822MPD2    H112134   2.940   2.079  15.950
  822MPD2    H212135   3.221   1.767  16.010
  822MPD2    H312136   3.137   1.980  15.886
  822MPD2     N12137   2.807   2.039  16.201
  822MPD2    H512138   2.766   2.005  16.287
  822MPD2    N112139   3.126   1.688  16.250
  822MPD2    H712140   3.069   1.666  16.331
  823MPD2     C12141   2.462   2.235  16.923
  823MPD2    C112142   2.500   2.147  16.826
  823MPD2    C212143   2.561   2.028  16.872
  823MPD2    C312144   2.560   1.994  17.004
  823MPD2    C412145   2.502   2.076  17.100
  823MPD2    C512146   2.449   2.195  17.056
  823MPD2     H12147   2.607   1.961  16.800
  823MPD2    H112148   2.501   2.053  17.206
  823MPD2    H212149   2.409   2.326  16.898
  823MPD2    H312150   2.405   2.268  17.123
  823MPD2     N12151   2.621   1.872  17.050
  823MPD2    H512152   2.599   1.846  17.146
  823MPD2    N112153   2.499   2.192  16.692
  823MPD2    H712154   2.468   2.289  16.692
  824MPD2     C12155   3.725   1.100  16.504
  824MPD2    C112156   3.689   1.172  16.391
  824MPD2    C212157   3.773   1.157  16.280
  824MPD2    C312158   3.874   1.061  16.281
  824MPD2    C412159   3.911   1.004  16.403
  824MPD2    C512160   3.838   1.031  16.510
  824MPD2     H12161   3.754   1.211  16.188
  824MPD2    H112162   3.997   0.939  16.409
  824MPD2    H212163   3.671   1.111  16.598
  824MPD2    H312164   3.863   0.988  16.607
  824MPD2     N12165   3.944   1.038  16.160
  824MPD2    H512166   3.898   1.073  16.077
  824MPD2    N112167   3.579   1.263  16.392
  824MPD2    H712168   3.559   1.304  16.301
  825MPD2     C12169   4.456   1.223  15.512
  825MPD2    C112170   4.321   1.223  15.544
  825MPD2    C212171   4.240   1.325  15.500
  825MPD2    C312172   4.295   1.433  15.435
  825MPD2    C412173   4.427   1.429  15.396
  825MPD2    C512174   4.501   1.324  15.429
  825MPD2     H12175   4.139   1.329  15.538
  825MPD2    H112176   4.466   1.504  15.327
  825MPD2    H212177   4.521   1.141  15.538
  825MPD2    H312178   4.605   1.319  15.399
  825MPD2     N12179   4.222   1.551  15.397
  825MPD2    H512180   4.262   1.611  15.326
  825MPD2    N112181   4.275   1.128  15.637
  825MPD2    H712182   4.331   1.045  15.656
  826MPD2     C12183   3.692   0.742  14.231
  826MPD2    C112184   3.718   0.844  14.136
  826MPD2    C212185   3.645   0.964  14.144
  826MPD2    C312186   3.551   0.978  14.252
  826MPD2    C412187   3.545   0.884  14.353
  826MPD2    C512188   3.615   0.766  14.339
  826MPD2     H12189   3.640   1.035  14.062
  826MPD2    H112190   3.478   0.881  14.438
  826MPD2    H212191   3.736   0.644  14.219
  826MPD2    H312192   3.608   0.689  14.415
  826MPD2     N12193   3.468   1.087  14.267
  826MPD2    H512194   3.406   1.090  14.348
  826MPD2    N112195   3.812   0.809  14.032
  826MPD2    H712196   3.846   0.714  14.041
  827MPD2     C12197   4.639   2.850  10.304
  827MPD2    C112198   4.590   2.738  10.365
  827MPD2    C212199   4.487   2.665  10.304
  827MPD2    C312200   4.445   2.695  10.177
  827MPD2    C412201   4.502   2.802  10.107
  827MPD2    C512202   4.589   2.887  10.181
  827MPD2     H12203   4.429   2.585  10.348
  827MPD2    H112204   4.471   2.843  10.011
  827MPD2    H212205   4.719   2.905  10.351
  827MPD2    H312206   4.627   2.965  10.116
  827MPD2     N12207   4.347   2.611  10.116
  827MPD2    H512208   4.299   2.548  10.180
  827MPD2    N112209   4.650   2.707  10.489
  827MPD2    H712210   4.730   2.763  10.517
  828MPD2     C12211   3.160   2.355  12.659
  828MPD2    C112212   3.052   2.369  12.572
  828MPD2    C212213   3.075   2.411  12.447
  828MPD2    C312214   3.196   2.450  12.406
  828MPD2    C412215   3.310   2.442  12.494
  828MPD2    C512216   3.286   2.392  12.618
  828MPD2     H12217   2.989   2.408  12.381
  828MPD2    H112218   3.413   2.468  12.472
  828MPD2    H212219   3.144   2.307  12.755
  828MPD2    H312220   3.359   2.383  12.698
  828MPD2     N12221   3.221   2.506  12.279
  828MPD2    H512222   3.312   2.509  12.234
  828MPD2    N112223   2.919   2.324  12.604
  828MPD2    H712224   2.836   2.350  12.552
  829MPD2     C12225   2.484   2.184  11.990
  829MPD2    C112226   2.397   2.192  12.102
  829MPD2    C212227   2.440   2.153  12.226
  829MPD2    C312228   2.570   2.104  12.239
  829MPD2    C412229   2.653   2.101  12.125
  829MPD2    C512230   2.608   2.136  12.001
  829MPD2     H12231   2.379   2.160  12.315
  829MPD2    H112232   2.756   2.068  12.128
  829MPD2    H212233   2.448   2.199  11.889
  829MPD2    H312234   2.671   2.136  11.913
  829MPD2     N12235   2.627   2.061  12.370
  829MPD2    H512236   2.721   2.025  12.380
  829MPD2    N112237   2.268   2.251  12.079
  829MPD2    H712238   2.232   2.259  11.985
  830MPD2     C12239   3.284   0.187  16.316
  830MPD2    C112240   3.187   0.190  16.217
  830MPD2    C212241   3.220   0.245  16.093
  830MPD2    C312242   3.346   0.310  16.074
  830MPD2    C412243   3.432   0.316  16.181
  830MPD2    C512244   3.406   0.247  16.301
  830MPD2     H12245   3.139   0.246  16.021
  830MPD2    H112246   3.522   0.375  16.173
  830MPD2    H212247   3.273   0.130  16.407
  830MPD2    H312248   3.478   0.244  16.382
  830MPD2     N12249   3.377   0.393  15.961
  830MPD2    H512250   3.469   0.435  15.956
  830MPD2    N112251   3.059   0.143  16.260
  830MPD2    H712252   3.053   0.108  16.355
  831MPD2     C12253   3.036   2.210  16.512
  831MPD2    C112254   3.091   2.095  16.464
  831MPD2    C212255   3.028   1.971  16.503
  831MPD2    C312256   2.914   1.977  16.581
  831MPD2    C412257   2.875   2.098  16.630
  831MPD2    C512258   2.937   2.211  16.600
  831MPD2     H12259   3.066   1.873  16.477
  831MPD2    H112260   2.806   2.106  16.714
  831MPD2    H212261   3.081   2.303  16.478
  831MPD2    H312262   2.902   2.305  16.641
  831MPD2     N12263   2.825   1.868  16.590
  831MPD2    H512264   2.736   1.897  16.630
  831MPD2    N112265   3.199   2.100  16.373
  831MPD2    H712266   3.217   2.190  16.330
  832MPD2     C12267   1.447   3.024  17.234
  832MPD2    C112268   1.411   3.158  17.263
  832MPD2    C212269   1.285   3.201  17.229
  832MPD2    C312270   1.205   3.119  17.157
  832MPD2    C412271   1.246   2.988  17.121
  832MPD2    C512272   1.364   2.937  17.164
  832MPD2     H12273   1.244   3.296  17.262
  832MPD2    H112274   1.186   2.921  17.060
  832MPD2    H212275   1.547   2.992  17.262
  832MPD2    H312276   1.396   2.836  17.140
  832MPD2     N12277   1.076   3.143  17.120
  832MPD2    H512278   1.022   3.059  17.099
  832MPD2    N112279   1.509   3.231  17.342
  832MPD2    H712280   1.596   3.195  17.380
  833MPD2     C12281   3.627   4.776  12.734
  833MPD2    C112282   3.649   0.132  12.742
  833MPD2    C212283   3.763   0.182  12.675
  833MPD2    C312284   3.859   0.100  12.620
  833MPD2    C412285   3.830   4.748  12.622
  833MPD2    C512286   3.720   4.695  12.674
  833MPD2     H12287   3.767   0.289  12.658
  833MPD2    H112288   3.901   4.684  12.571
  833MPD2    H212289   3.535   4.728  12.764
  833MPD2    H312290   3.705   4.589  12.660
  833MPD2     N12291   3.965   0.137  12.534
  833MPD2    H512292   4.007   0.070  12.471
  833MPD2    N112293   3.557   0.212  12.801
  833MPD2    H712294   3.468   0.167  12.822
  834MPD2     C12295   3.409   0.154  11.890
  834MPD2    C112296   3.515   0.164  11.808
  834MPD2    C212297   3.635   0.216  11.850
  834MPD2    C312298   3.646   0.245  11.983
  834MPD2    C412299   3.538   0.234  12.068
  834MPD2    C512300   3.419   0.194  12.018
  834MPD2     H12301   3.718   0.212  11.780
  834MPD2    H112302   3.558   0.267  12.169
  834MPD2    H212303   3.315   0.105  11.869
  834MPD2    H312304   3.338   0.193  12.090
  834MPD2     N12305   3.768   0.292  12.031
  834MPD2    H512306   3.840   0.330  11.970
  834MPD2    N112307   3.498   0.093  11.684
  834MPD2    H712308   3.410   0.043  11.675
  835MPD2     C12309   3.718   2.572  11.446
  835MPD2    C112310   3.671   2.670  11.528
  835MPD2    C212311   3.727   2.680  11.650
  835MPD2    C312312   3.819   2.591  11.704
  835MPD2    C412313   3.858   2.480  11.630
  835MPD2    C512314   3.809   2.481  11.495
  835MPD2     H12315   3.689   2.756  11.717
  835MPD2    H112316   3.925   2.408  11.675
  835MPD2    H212317   3.676   2.553  11.348
  835MPD2    H312318   3.837   2.401  11.428
  835MPD2     N12319   3.863   2.605  11.832
  835MPD2    H512320   3.916   2.529  11.874
  835MPD2    N112321   3.570   2.765  11.494
  835MPD2    H712322   3.526   2.820  11.567
  836MPD2     C12323   3.306   2.921  12.184
  836MPD2    C112324   3.380   2.849  12.272
  836MPD2    C212325   3.318   2.797  12.383
  836MPD2    C312326   3.177   2.826  12.409
  836MPD2    C412327   3.109   2.904  12.312
  836MPD2    C512328   3.169   2.943  12.198
  836MPD2     H12329   3.372   2.730  12.450
  836MPD2    H112330   3.004   2.923  12.329
  836MPD2    H212331   3.359   2.969  12.103
  836MPD2    H312332   3.116   3.005  12.127
  836MPD2     N12333   3.106   2.780  12.525
  836MPD2    H512334   3.005   2.794  12.528
  836MPD2    N112335   3.513   2.815  12.247
  836MPD2    H712336   3.540   2.854  12.157
  837MPD2     C12337   1.830   2.286  10.266
  837MPD2    C112338   1.782   2.321  10.144
  837MPD2    C212339   1.809   2.445  10.094
  837MPD2    C312340   1.868   2.539  10.180
  837MPD2    C412341   1.920   2.501  10.307
  837MPD2    C512342   1.908   2.369  10.339
  837MPD2     H12343   1.767   2.477   9.999
  837MPD2    H112344   1.987   2.557  10.372
  837MPD2    H212345   1.807   2.189  10.309
  837MPD2    H312346   1.947   2.335  10.434
  837MPD2     N12347   1.869   2.669  10.129
  837MPD2    H512348   1.854   2.680  10.029
  837MPD2    N112349   1.681   2.246  10.081
  837MPD2    H712350   1.652   2.283   9.991
  838MPD2     C12351   0.371   0.651  12.042
  838MPD2    C112352   0.370   0.614  12.172
  838MPD2    C212353   0.262   0.560  12.232
  838MPD2    C312354   0.163   0.522  12.154
  838MPD2    C412355   0.166   0.549  12.015
  838MPD2    C512356   0.272   0.612  11.962
  838MPD2     H12357   0.258   0.545  12.339
  838MPD2    H112358   0.084   0.541  11.944
  838MPD2    H212359   0.454   0.691  11.986
  838MPD2    H312360   0.276   0.626  11.855
  838MPD2     N12361   0.051   0.449  12.213
  838MPD2    H512362   0.066   0.434  12.312
  838MPD2    N112363   0.484   0.635  12.248
  838MPD2    H712364   0.483   0.621  12.348
  839MPD2     C12365   0.108   4.725  12.125
  839MPD2    C112366   0.173   4.730  12.003
  839MPD2    C212367   0.267   0.050  11.980
  839MPD2    C312368   0.291   0.151  12.076
  839MPD2    C412369   0.224   0.149  12.197
  839MPD2    C512370   0.136   0.039  12.218
  839MPD2     H12371   0.323   0.046  11.887
  839MPD2    H112372   0.241   0.229  12.268
  839MPD2    H212373   0.035   4.651  12.155
  839MPD2    H312374   0.083   0.041  12.312
  839MPD2     N12375   0.381   0.253  12.061
  839MPD2    H512376   0.383   0.331  12.126
  839MPD2    N112377   0.155   4.631  11.903
  839MPD2    H712378   0.235   4.614  11.843
  840MPD2     C12379   0.448   2.897  10.617
  840MPD2    C112380   0.421   2.813  10.718
  840MPD2    C212381   0.512   2.804  10.828
  840MPD2    C312382   0.628   2.884  10.819
  840MPD2    C412383   0.644   2.976  10.721
  840MPD2    C512384   0.554   2.977  10.619
  840MPD2     H12385   0.499   2.735  10.910
  840MPD2    H112386   0.726   3.047  10.719
  840MPD2    H212387   0.375   2.909  10.538
  840MPD2    H312388   0.556   3.047  10.536
  840MPD2     N12389   0.728   2.885  10.919
  840MPD2    H512390   0.808   2.938  10.886
  840MPD2    N112391   0.291   2.751  10.719
  840MPD2    H712392   0.240   2.770  10.633
  841MPD2     C12393   4.382   1.999  15.239
  841MPD2    C112394   4.413   1.999  15.104
  841MPD2    C212395   4.467   2.104  15.040
  841MPD2    C312396   4.503   2.214  15.112
  841MPD2    C412397   4.483   2.220  15.244
  841MPD2    C512398   4.411   2.114  15.303
  841MPD2     H12399   4.497   2.079  14.939
  841MPD2    H112400   4.516   2.302  15.307
  841MPD2    H212401   4.346   1.914  15.296
  841MPD2    H312402   4.402   2.108  15.411
  841MPD2     N12403   4.580   2.319  15.042
  841MPD2    H512404   4.587   2.304  14.942
  841MPD2    N112405   4.394   1.873  15.028
  841MPD2    H712406   4.382   1.876  14.927
  842MPD2     C12407   0.645   3.578  17.078
  842MPD2    C112408   0.548   3.484  17.042
  842MPD2    C212409   0.526   3.379  17.130
  842MPD2    C312410   0.594   3.360  17.252
  842MPD2    C412411   0.685   3.464  17.280
  842MPD2    C512412   0.716   3.564  17.195
  842MPD2     H12413   0.437   3.320  17.111
  842MPD2    H112414   0.752   3.462  17.365
  842MPD2    H212415   0.644   3.667  17.015
  842MPD2    H312416   0.771   3.637  17.253
  842MPD2     N12417   0.540   3.288  17.355
  842MPD2    H512418   0.574   3.309  17.448
  842MPD2    N112419   0.475   3.506  16.923
  842MPD2    H712420   0.509   3.583  16.867
  843MPD2     C12421   2.343   4.467  18.037
  843MPD2    C112422   2.401   4.339  18.064
  843MPD2    C212423   2.503   4.327  18.151
  843MPD2    C312424   2.546   4.441  18.224
  843MPD2    C412425   2.478   4.562  18.207
  843MPD2    C512426   2.378   4.569  18.112
  843MPD2     H12427   2.547   4.229  18.167
  843MPD2    H112428   2.516   4.655  18.249
  843MPD2    H212429   2.258   4.468  17.969
  843MPD2    H312430   2.328   4.661  18.083
  843MPD2     N12431   2.647   4.438  18.327
  843MPD2    H512432   2.677   4.525  18.369
  843MPD2    N112433   2.330   4.234  18.009
  843MPD2    H712434   2.250   4.263  17.953
  844MPD2     C12435   1.037   2.935  16.694
  844MPD2    C112436   1.159   2.880  16.675
  844MPD2    C212437   1.267   2.956  16.719
  844MPD2    C312438   1.257   3.082  16.767
  844MPD2    C412439   1.134   3.143  16.764
  844MPD2    C512440   1.024   3.071  16.727
  844MPD2     H12441   1.366   2.913  16.722
  844MPD2    H112442   1.119   3.247  16.790
  844MPD2    H212443   0.943   2.884  16.673
  844MPD2    H312444   0.927   3.119  16.731
  844MPD2     N12445   1.375   3.152  16.814
  844MPD2    H512446   1.453   3.087  16.825
  844MPD2    N112447   1.185   2.750  16.617
  844MPD2    H712448   1.281   2.728  16.594
  845MPD2     C12449   1.623   4.040  17.261
  845MPD2    C112450   1.534   3.947  17.318
  845MPD2    C212451   1.520   3.824  17.255
  845MPD2    C312452   1.594   3.792  17.147
  845MPD2    C412453   1.682   3.883  17.092
  845MPD2    C512454   1.693   4.007  17.147
  845MPD2     H12455   1.447   3.752  17.291
  845MPD2    H112456   1.737   3.857  17.002
  845MPD2    H212457   1.635   4.134  17.314
  845MPD2    H312458   1.762   4.081  17.107
  845MPD2     N12459   1.588   3.654  17.105
  845MPD2    H512460   1.495   3.613  17.113
  845MPD2    N112461   1.462   3.985  17.435
  845MPD2    H712462   1.488   4.076  17.471
  846MPD2     C12463   2.920   4.324  13.973
  846MPD2    C112464   2.821   4.414  13.995
  846MPD2    C212465   2.770   4.428  14.123
  846MPD2    C312466   2.814   4.345  14.223
  846MPD2    C412467   2.905   4.249  14.195
  846MPD2    C512468   2.960   4.240  14.074
  846MPD2     H12469   2.700   4.505  14.151
  846MPD2    H112470   2.947   4.178  14.265
  846MPD2    H212471   2.980   4.325  13.883
  846MPD2    H312472   3.040   4.174  14.041
  846MPD2     N12473   2.744   4.348  14.350
  846MPD2    H512474   2.680   4.426  14.356
  846MPD2    N112475   2.785   4.508  13.899
  846MPD2    H712476   2.739   4.591  13.934
  847MPD2     C12477   2.756   0.361  14.696
  847MPD2    C112478   2.788   0.359  14.830
  847MPD2    C212479   2.870   0.255  14.878
  847MPD2    C312480   2.940   0.172  14.788
  847MPD2    C412481   2.916   0.185  14.657
  847MPD2    C512482   2.830   0.286  14.608
  847MPD2     H12483   2.906   0.268  14.980
  847MPD2    H112484   2.978   0.140  14.581
  847MPD2    H212485   2.698   0.441  14.651
  847MPD2    H312486   2.835   0.304  14.501
  847MPD2     N12487   3.048   0.090  14.829
  847MPD2    H512488   3.112   0.060  14.756
  847MPD2    N112489   2.760   0.463  14.922
  847MPD2    H712490   2.824   0.457  15.001
  848MPD2     C12491   0.737   3.513  16.489
  848MPD2    C112492   0.809   3.558  16.605
  848MPD2    C212493   0.886   3.673  16.600
  848MPD2    C312494   0.916   3.734  16.482
  848MPD2    C412495   0.851   3.682  16.370
  848MPD2    C512496   0.756   3.583  16.378
  848MPD2     H12497   0.942   3.699  16.689
  848MPD2    H112498   0.876   3.725  16.274
  848MPD2    H212499   0.664   3.434  16.482
  848MPD2    H312500   0.697   3.550  16.294
  848MPD2     N12501   0.991   3.849  16.461
  848MPD2    H512502   1.005   3.886  16.368
  848MPD2    N112503   0.798   3.491  16.730
  848MPD2    H712504   0.851   3.534  16.805
  849MPD2     C12505   4.290   3.287  14.632
  849MPD2    C112506   4.399   3.360  14.666
  849MPD2    C212507   4.488   3.312  14.755
  849MPD2    C312508   4.466   3.193  14.816
  849MPD2    C412509   4.346   3.120  14.794
  849MPD2    C512510   4.253   3.168  14.703
  849MPD2     H12511   4.580   3.363  14.779
  849MPD2    H112512   4.319   3.043  14.866
  849MPD2    H212513   4.232   3.308  14.543
  849MPD2    H312514   4.162   3.120  14.670
  849MPD2     N12515   4.562   3.127  14.890
  849MPD2    H512516   4.549   3.029  14.913
  849MPD2    N112517   4.437   3.463  14.579
  849MPD2    H712518   4.388   3.471  14.491
  850MPD2     C12519   3.040   1.219  14.866
  850MPD2    C112520   3.000   1.309  14.966
  850MPD2    C212521   3.110   1.380  15.021
  850MPD2    C312522   3.245   1.356  14.995
  850MPD2    C412523   3.277   1.255  14.910
  850MPD2    C512524   3.172   1.189  14.847
  850MPD2     H12525   3.090   1.474  15.072
  850MPD2    H112526   3.379   1.225  14.891
  850MPD2    H212527   2.974   1.168  14.796
  850MPD2    H312528   3.194   1.118  14.768
  850MPD2     N12529   3.348   1.406  15.070
  850MPD2    H512530   3.441   1.414  15.030
  850MPD2    N112531   2.862   1.335  14.986
  850MPD2    H712532   2.801   1.280  14.927
  851MPD2     C12533   3.386   1.299  15.647
  851MPD2    C112534   3.284   1.219  15.588
  851MPD2    C212535   3.300   1.077  15.594
  851MPD2    C312536   3.409   1.028  15.663
  851MPD2    C412537   3.500   1.104  15.724
  851MPD2    C512538   3.490   1.243  15.713
  851MPD2     H12539   3.224   1.021  15.541
  851MPD2    H112540   3.584   1.069  15.784
  851MPD2    H212541   3.371   1.405  15.630
  851MPD2    H312542   3.577   1.304  15.734
  851MPD2     N12543   3.424   0.889  15.668
  851MPD2    H512544   3.358   0.837  15.610
  851MPD2    N112545   3.182   1.282  15.524
  851MPD2    H712546   3.186   1.382  15.543
  852MPD2     C12547   3.220   3.508  10.363
  852MPD2    C112548   3.261   3.566  10.477
  852MPD2    C212549   3.322   3.690  10.474
  852MPD2    C312550   3.340   3.753  10.352
  852MPD2    C412551   3.280   3.701  10.241
  852MPD2    C512552   3.226   3.580  10.250
  852MPD2     H12553   3.375   3.732  10.559
  852MPD2    H112554   3.290   3.745  10.142
  852MPD2    H212555   3.174   3.410  10.364
  852MPD2    H312556   3.188   3.535  10.159
  852MPD2     N12557   3.415   3.876  10.359
  852MPD2    H512558   3.450   3.903  10.451
  852MPD2    N112559   3.237   3.507  10.602
  852MPD2    H712560   3.290   3.545  10.680
  853MPD2     C12561   4.300   3.437  12.824
  853MPD2    C112562   4.355   3.560  12.795
  853MPD2    C212563   4.430   3.582  12.685
  853MPD2    C312564   4.441   3.473  12.592
  853MPD2    C412565   4.382   3.355  12.616
  853MPD2    C512566   4.312   3.337  12.728
  853MPD2     H12567   4.475   3.679  12.669
  853MPD2    H112568   4.392   3.268  12.553
  853MPD2    H212569   4.245   3.419  12.916
  853MPD2    H312570   4.273   3.238  12.747
  853MPD2     N12571   4.508   3.485  12.470
  853MPD2    H512572   4.473   3.423  12.398
  853MPD2    N112573   4.323   3.657  12.893
  853MPD2    H712574   4.269   3.625  12.973
  854MPD2     C12575   1.214   3.807  13.328
  854MPD2    C112576   1.292   3.899  13.261
  854MPD2    C212577   1.427   3.899  13.276
  854MPD2    C312578   1.494   3.818  13.360
  854MPD2    C412579   1.418   3.724  13.430
  854MPD2    C512580   1.281   3.717  13.401
  854MPD2     H12581   1.484   3.963  13.210
  854MPD2    H112582   1.459   3.642  13.488
  854MPD2    H212583   1.107   3.815  13.317
  854MPD2    H312584   1.233   3.634  13.453
  854MPD2     N12585   1.631   3.834  13.385
  854MPD2    H512586   1.668   3.774  13.458
  854MPD2    N112587   1.217   3.983  13.178
  854MPD2    H712588   1.118   3.963  13.182
  855MPD2     C12589   1.369   3.631  13.780
  855MPD2    C112590   1.492   3.584  13.822
  855MPD2    C212591   1.598   3.669  13.811
  855MPD2    C312592   1.583   3.796  13.759
  855MPD2    C412593   1.458   3.846  13.732
  855MPD2    C512594   1.350   3.765  13.742
  855MPD2     H12595   1.698   3.642  13.842
  855MPD2    H112596   1.454   3.948  13.697
  855MPD2    H212597   1.276   3.576  13.787
  855MPD2    H312598   1.260   3.811  13.704
  855MPD2     N12599   1.695   3.876  13.722
  855MPD2    H512600   1.676   3.969  13.686
  855MPD2    N112601   1.518   3.460  13.877
  855MPD2    H712602   1.614   3.443  13.904
  856MPD2     C12603   4.032   4.224  14.733
  856MPD2    C112604   4.063   4.314  14.634
  856MPD2    C212605   3.966   4.374  14.558
  856MPD2    C312606   3.832   4.335  14.573
  856MPD2    C412607   3.802   4.243  14.674
  856MPD2    C512608   3.900   4.185  14.743
  856MPD2     H12609   3.995   4.458  14.495
  856MPD2    H112610   3.703   4.204  14.693
  856MPD2    H212611   4.112   4.171  14.784
  856MPD2    H312612   3.880   4.105  14.813
  856MPD2     N12613   3.728   4.399  14.499
  856MPD2    H512614   3.632   4.374  14.521
  856MPD2    N112615   4.194   4.362  14.614
  856MPD2    H712616   4.201   4.440  14.549
  857MPD2     C12617   0.328   2.084  13.331
  857MPD2    C112618   0.456   2.083  13.273
  857MPD2    C212619   0.504   2.207  13.229
  857MPD2    C312620   0.436   2.328  13.264
  857MPD2    C412621   0.311   2.325  13.331
  857MPD2    C512622   0.265   2.201  13.360
  857MPD2     H12623   0.596   2.223  13.175
  857MPD2    H112624   0.264   2.420  13.353
  857MPD2    H212625   0.289   1.992  13.374
  857MPD2    H312626   0.177   2.192  13.423
  857MPD2     N12627   0.495   2.452  13.222
  857MPD2    H512628   0.582   2.441  13.171
  857MPD2    N112629   0.524   1.956  13.259
  857MPD2    H712630   0.470   1.873  13.284
  858MPD2     C12631   1.363   0.909  17.123
  858MPD2    C112632   1.496   0.889  17.137
  858MPD2    C212633   1.575   0.968  17.223
  858MPD2    C312634   1.512   1.072  17.292
  858MPD2    C412635   1.382   1.085  17.276
  858MPD2    C512636   1.305   1.009  17.197
  858MPD2     H12637   1.683   0.961  17.215
  858MPD2    H112638   1.342   1.169  17.332
  858MPD2    H212639   1.307   0.843  17.058
  858MPD2    H312640   1.197   1.019  17.193
  858MPD2     N12641   1.582   1.173  17.374
  858MPD2    H512642   1.537   1.257  17.408
  858MPD2    N112643   1.556   0.798  17.048
  858MPD2    H712644   1.498   0.754  16.977
  859MPD2     C12645   0.377   2.766  15.864
  859MPD2    C112646   0.269   2.765  15.778
  859MPD2    C212647   0.212   2.644  15.748
  859MPD2    C312648   0.264   2.524  15.800
  859MPD2    C412649   0.372   2.532  15.884
  859MPD2    C512650   0.432   2.650  15.913
  859MPD2     H12651   0.120   2.646  15.691
  859MPD2    H112652   0.423   2.447  15.929
  859MPD2    H212653   0.434   2.853  15.893
  859MPD2    H312654   0.521   2.640  15.974
  859MPD2     N12655   0.213   2.396  15.758
  859MPD2    H512656   0.233   2.318  15.819
  859MPD2    N112657   0.224   2.895  15.735
  859MPD2    H712658   0.294   2.965  15.759
  860MPD2     C12659   2.651   3.385  12.053
  860MPD2    C112660   2.683   3.436  12.174
  860MPD2    C212661   2.593   3.418  12.279
  860MPD2    C312662   2.466   3.360  12.264
  860MPD2    C412663   2.439   3.309  12.139
  860MPD2    C512664   2.532   3.315  12.037
  860MPD2     H12665   2.622   3.443  12.381
  860MPD2    H112666   2.343   3.259  12.133
  860MPD2    H212667   2.712   3.393  11.963
  860MPD2    H312668   2.504   3.282  11.937
  860MPD2     N12669   2.382   3.350  12.377
  860MPD2    H512670   2.424   3.387  12.462
  860MPD2    N112671   2.809   3.490  12.214
  860MPD2    H712672   2.805   3.534  12.305
  861MPD2     C12673   1.132   1.651  11.402
  861MPD2    C112674   1.063   1.718  11.506
  861MPD2    C212675   0.947   1.787  11.474
  861MPD2    C312676   0.887   1.780  11.351
  861MPD2    C412677   0.942   1.694  11.256
  861MPD2    C512678   1.062   1.635  11.284
  861MPD2     H12679   0.909   1.861  11.544
  861MPD2    H112680   0.895   1.679  11.159
  861MPD2    H212681   1.231   1.609  11.419
  861MPD2    H312682   1.120   1.584  11.208
  861MPD2     N12683   0.769   1.851  11.317
  861MPD2    H512684   0.751   1.836  11.218
  861MPD2    N112685   1.112   1.717  11.641
  861MPD2    H712686   1.081   1.788  11.706
  862MPD2     C12687   0.708   1.917  10.727
  862MPD2    C112688   0.605   1.864  10.805
  862MPD2    C212689   0.559   1.739  10.782
  862MPD2    C312690   0.622   1.658  10.690
  862MPD2    C412691   0.714   1.716  10.603
  862MPD2    C512692   0.748   1.847  10.619
  862MPD2     H12693   0.474   1.707  10.841
  862MPD2    H112694   0.762   1.663  10.522
  862MPD2    H212695   0.735   2.022  10.726
  862MPD2    H312696   0.811   1.891  10.542
  862MPD2     N12697   0.593   1.522  10.661
  862MPD2    H512698   0.653   1.468  10.600
  862MPD2    N112699   0.564   1.936  10.921
  862MPD2    H712700   0.490   1.896  10.978
  863MPD2     C12701   4.501   4.465  17.056
  863MPD2    C112702   4.511   4.594  17.106
  863MPD2    C212703   4.598   4.617  17.214
  863MPD2    C312704   4.668   4.519  17.281
  863MPD2    C412705   4.649   4.390  17.230
  863MPD2    C512706   4.577   4.364  17.115
  863MPD2     H12707   4.614   4.718  17.249
  863MPD2    H112708   4.695   4.302  17.274
  863MPD2    H212709   4.441   4.437  16.970
  863MPD2    H312710   4.562   4.263  17.079
  863MPD2     N12711   4.746   4.537  17.397
  863MPD2    H512712   0.018   4.458  17.434
  863MPD2    N112713   4.440   4.695  17.042
  863MPD2    H712714   4.383   4.687  16.958
  864MPD2     C12715   0.036   1.481  17.358
  864MPD2    C112716   0.075   1.369  17.279
  864MPD2    C212717   0.159   1.391  17.178
  864MPD2    C312718   0.218   1.515  17.158
  864MPD2    C412719   0.167   1.625  17.224
  864MPD2    C512720   0.075   1.605  17.323
  864MPD2     H12721   0.209   1.303  17.139
  864MPD2    H112722   0.209   1.721  17.197
  864MPD2    H212723   4.755   1.462  17.445
  864MPD2    H312724   0.057   1.688  17.390
  864MPD2     N12725   0.316   1.542  17.056
  864MPD2    H512726   0.345   1.637  17.035
  864MPD2    N112727   0.048   1.242  17.328
  864MPD2    H712728   0.012   1.245  17.423
  865MPD2     C12729   0.310   1.427  16.271
  865MPD2    C112730   0.409   1.376  16.362
  865MPD2    C212731   0.454   1.450  16.462
  865MPD2    C312732   0.398   1.566  16.483
  865MPD2    C412733   0.293   1.617  16.405
  865MPD2    C512734   0.250   1.545  16.300
  865MPD2     H12735   0.544   1.422  16.515
  865MPD2    H112736   0.240   1.710  16.422
  865MPD2    H212737   0.248   1.374  16.199
  865MPD2    H312738   0.170   1.584  16.238
  865MPD2     N12739   0.449   1.648  16.597
  865MPD2    H512740   0.390   1.712  16.649
  865MPD2    N112741   0.460   1.246  16.329
  865MPD2    H712742   0.425   1.213  16.240
  866MPD2     C12743   1.754   1.922  11.955
  866MPD2    C112744   1.753   1.876  11.827
  866MPD2    C212745   1.648   1.918  11.746
  866MPD2    C312746   1.538   1.981  11.798
  866MPD2    C412747   1.537   2.004  11.935
  866MPD2    C512748   1.644   1.971  12.011
  866MPD2     H12749   1.648   1.891  11.641
  866MPD2    H112750   1.450   2.050  11.979
  866MPD2    H212751   1.833   1.885  12.019
  866MPD2    H312752   1.654   1.996  12.116
  866MPD2     N12753   1.423   2.023  11.733
  866MPD2    H512754   1.357   2.071  11.793
  866MPD2    N112755   1.879   1.835  11.783
  866MPD2    H712756   1.960   1.845  11.843
  867MPD2     C12757   3.722   1.359  16.822
  867MPD2    C112758   3.813   1.342  16.920
  867MPD2    C212759   3.833   1.445  17.009
  867MPD2    C312760   3.767   1.566  17.002
  867MPD2    C412761   3.672   1.578  16.900
  867MPD2    C512762   3.651   1.473  16.812
  867MPD2     H12763   3.912   1.440  17.083
  867MPD2    H112764   3.613   1.665  16.874
  867MPD2    H212765   3.695   1.273  16.762
  867MPD2    H312766   3.570   1.485  16.742
  867MPD2     N12767   3.794   1.684  17.078
  867MPD2    H512768   3.739   1.766  17.052
  867MPD2    N112769   3.880   1.216  16.935
  867MPD2    H712770   3.869   1.153  16.856
  868MPD2     C12771   0.908   0.041  13.491
  868MPD2    C112772   0.967   0.168  13.505
  868MPD2    C212773   0.889   0.272  13.556
  868MPD2    C312774   0.769   0.245  13.619
  868MPD2    C412775   0.711   0.120  13.602
  868MPD2    C512776   0.778   0.025  13.541
  868MPD2     H12777   0.944   0.365  13.560
  868MPD2    H112778   0.614   0.092  13.642
  868MPD2    H212779   0.956   4.739  13.440
  868MPD2    H312780   0.726   4.712  13.525
  868MPD2     N12781   0.718   0.354  13.691
  868MPD2    H512782   0.770   0.441  13.699
  868MPD2    N112783   1.101   0.179  13.467
  868MPD2    H712784   1.135   0.104  13.408
  869MPD2     C12785   1.410   3.052  18.996
  869MPD2    C112786   1.522   3.031  19.080
  869MPD2    C212787   1.625   3.124  19.085
  869MPD2    C312788   1.634   3.218  18.987
  869MPD2    C412789   1.524   3.252  18.910
  869MPD2    C512790   1.418   3.158  18.905
  869MPD2     H12791   1.714   3.110  19.146
  869MPD2    H112792   1.525   3.333  18.838
  869MPD2    H212793   1.327   2.983  19.010
  869MPD2    H312794   1.331   3.179  18.843
  869MPD2     N12795   1.759   3.283  18.957
  869MPD2    H512796   1.774   3.334  18.871
  869MPD2    N112797   1.495   2.931  19.187
  869MPD2    H712798   1.402   2.891  19.182
  870MPD2     C12799   1.920   1.421  19.289
  870MPD2    C112800   1.955   1.527  19.366
  870MPD2    C212801   1.913   1.647  19.330
  870MPD2    C312802   1.854   1.667  19.204
  870MPD2    C412803   1.839   1.559  19.117
  870MPD2    C512804   1.852   1.431  19.163
  870MPD2     H12805   1.934   1.739  19.384
  870MPD2    H112806   1.812   1.568  19.012
  870MPD2    H212807   1.957   1.325  19.322
  870MPD2    H312808   1.836   1.352  19.091
  870MPD2     N12809   1.847   1.805  19.163
  870MPD2    H512810   1.846   1.874  19.238
  870MPD2    N112811   2.018   1.490  19.494
  870MPD2    H712812   2.027   1.392  19.519
  871MPD2     C12813   2.944   1.359  16.576
  871MPD2    C112814   2.945   1.310  16.700
  871MPD2    C212815   3.015   1.196  16.730
  871MPD2    C312816   3.103   1.137  16.641
  871MPD2    C412817   3.093   1.187  16.511
  871MPD2    C512818   3.022   1.296  16.483
  871MPD2     H12819   3.019   1.159  16.832
  871MPD2    H112820   3.133   1.141  16.421
  871MPD2    H212821   2.883   1.441  16.541
  871MPD2    H312822   3.022   1.339  16.384
  871MPD2     N12823   3.183   1.028  16.680
  871MPD2    H512824   3.170   0.985  16.771
  871MPD2    N112825   2.879   1.388  16.796
  871MPD2    H712826   2.857   1.483  16.768
  872MPD2     C12827   3.758   3.733  14.502
  872MPD2    C112828   3.698   3.847  14.448
  872MPD2    C212829   3.561   3.869  14.445
  872MPD2    C312830   3.476   3.791  14.508
  872MPD2    C412831   3.534   3.669  14.551
  872MPD2    C512832   3.664   3.640  14.552
  872MPD2     H12833   3.517   3.961  14.408
  872MPD2    H112834   3.471   3.591  14.593
  872MPD2    H212835   3.864   3.713  14.515
  872MPD2    H312836   3.689   3.545  14.597
  872MPD2     N12837   3.338   3.808  14.536
  872MPD2    H512838   3.299   3.732  14.591
  872MPD2    N112839   3.780   3.941  14.382
  872MPD2    H712840   3.732   4.029  14.365
  873MPD2     C12841   1.174   3.470  18.690
  873MPD2    C112842   1.090   3.462  18.792
  873MPD2    C212843   1.044   3.336  18.838
  873MPD2    C312844   1.078   3.223  18.769
  873MPD2    C412845   1.151   3.235  18.650
  873MPD2    C512846   1.204   3.353  18.623
  873MPD2     H12847   0.963   3.338  18.910
  873MPD2    H112848   1.181   3.150  18.590
  873MPD2    H212849   1.228   3.562  18.669
  873MPD2    H312850   1.268   3.362  18.536
  873MPD2     N12851   1.028   3.094  18.806
  873MPD2    H512852   1.028   3.025  18.731
  873MPD2    N112853   1.084   3.587  18.869
  873MPD2    H712854   1.074   3.674  18.818
  874MPD2     C12855   0.470   3.912  16.193
  874MPD2    C112856   0.509   3.876  16.323
  874MPD2    C212857   0.617   3.945  16.377
  874MPD2    C312858   0.670   4.056  16.310
  874MPD2    C412859   0.624   4.092  16.184
  874MPD2    C512860   0.525   4.019  16.128
  874MPD2     H12861   0.665   3.912  16.469
  874MPD2    H112862   0.664   4.177  16.130
  874MPD2    H212863   0.390   3.856  16.146
  874MPD2    H312864   0.497   4.051  16.028
  874MPD2     N12865   0.768   4.130  16.374
  874MPD2    H512866   0.780   4.113  16.473
  874MPD2    N112867   0.433   3.770  16.389
  874MPD2    H712868   0.353   3.728  16.343
  875MPD2     C12869   1.614   2.218  14.647
  875MPD2    C112870   1.490   2.196  14.708
  875MPD2    C212871   1.485   2.186  14.846
  875MPD2    C312872   1.599   2.204  14.922
  875MPD2    C412873   1.722   2.228  14.865
  875MPD2    C512874   1.728   2.248  14.728
  875MPD2     H12875   1.390   2.176  14.897
  875MPD2    H112876   1.810   2.263  14.918
  875MPD2    H212877   1.637   2.220  14.541
  875MPD2    H312878   1.822   2.275  14.681
  875MPD2     N12879   1.597   2.211  15.065
  875MPD2    H512880   1.684   2.235  15.112
  875MPD2    N112881   1.373   2.186  14.639
  875MPD2    H712882   1.289   2.174  14.695
  876MPD2     C12883   0.159   3.273  16.253
  876MPD2    C112884   0.294   3.245  16.256
  876MPD2    C212885   0.331   3.120  16.305
  876MPD2    C312886   0.235   3.033  16.354
  876MPD2    C412887   0.105   3.065  16.354
  876MPD2    C512888   0.067   3.188  16.309
  876MPD2     H12889   0.438   3.102  16.309
  876MPD2    H112890   0.024   2.997  16.378
  876MPD2    H212891   0.122   3.372  16.228
  876MPD2    H312892   4.741   3.208  16.306
  876MPD2     N12893   0.286   2.906  16.404
  876MPD2    H512894   0.384   2.892  16.380
  876MPD2    N112895   0.380   3.342  16.194
  876MPD2    H712896   0.333   3.421  16.151
  877MPD2     C12897   0.222   3.790  15.712
  877MPD2    C112898   0.357   3.776  15.688
  877MPD2    C212899   0.395   3.787  15.554
  877MPD2    C312900   0.306   3.809  15.453
  877MPD2    C412901   0.171   3.811  15.479
  877MPD2    C512902   0.130   3.806  15.611
  877MPD2     H12903   0.500   3.778  15.529
  877MPD2    H112904   0.094   3.816  15.402
  877MPD2    H212905   0.177   3.789  15.811
  877MPD2    H312906   0.024   3.810  15.633
  877MPD2     N12907   0.344   3.814  15.324
  877MPD2    H512908   0.274   3.818  15.251
  877MPD2    N112909   0.450   3.744  15.785
  877MPD2    H712910   0.545   3.735  15.751
  878MPD2     C12911   4.679   3.295  13.694
  878MPD2    C112912   0.008   3.378  13.715
  878MPD2    C212913   0.024   3.428  13.844
  878MPD2    C312914   4.712   3.408  13.938
  878MPD2    C412915   4.590   3.342  13.904
  878MPD2    C512916   4.587   3.274  13.786
  878MPD2     H12917   0.113   3.481  13.875
  878MPD2    H112918   4.522   3.323  13.986
  878MPD2    H212919   4.670   3.258  13.592
  878MPD2    H312920   4.496   3.217  13.772
  878MPD2     N12921   4.727   3.459  14.072
  878MPD2    H512922   0.039   3.473  14.110
  878MPD2    N112923   0.094   3.398  13.609
  878MPD2    H712924   0.050   3.395  13.518
  879MPD2     C12925   0.565   4.693  17.437
  879MPD2    C112926   0.607   4.560  17.456
  879MPD2    C212927   0.558   4.463  17.370
  879MPD2    C312928   0.458   4.492  17.280
  879MPD2    C412929   0.412   4.623  17.266
  879MPD2    C512930   0.476   4.723  17.342
  879MPD2     H12931   0.597   4.362  17.363
  879MPD2    H112932   0.347   4.659  17.187
  879MPD2    H212933   0.605   4.778  17.491
  879MPD2    H312934   0.442   0.045  17.333
  879MPD2     N12935   0.407   4.401  17.175
  879MPD2    H512936   0.351   4.444  17.102
  879MPD2    N112937   0.706   4.538  17.551
  879MPD2    H712938   0.742   4.624  17.591
  880MPD2     C12939   1.592   1.385  18.564
  880MPD2    C112940   1.706   1.469  18.556
  880MPD2    C212941   1.818   1.440  18.629
  880MPD2    C312942   1.817   1.331  18.720
  880MPD2    C412943   1.710   1.246  18.715
  880MPD2    C512944   1.596   1.272  18.641
  880MPD2     H12945   1.915   1.487  18.622
  880MPD2    H112946   1.703   1.167  18.789
  880MPD2    H212947   1.500   1.422  18.520
  880MPD2    H312948   1.506   1.212  18.641
  880MPD2     N12949   1.935   1.299  18.794
  880MPD2    H512950   2.010   1.367  18.785
  880MPD2    N112951   1.685   1.580  18.475
  880MPD2    H712952   1.595   1.599  18.433
  881MPD2     C12953   1.925   2.461  17.880
  881MPD2    C112954   1.956   2.328  17.867
  881MPD2    C212955   1.907   2.238  17.966
  881MPD2    C312956   1.841   2.290  18.070
  881MPD2    C412957   1.824   2.426  18.092
  881MPD2    C512958   1.870   2.510  17.994
  881MPD2     H12959   1.926   2.131  17.968
  881MPD2    H112960   1.781   2.467  18.183
  881MPD2    H212961   1.973   2.538  17.820
  881MPD2    H312962   1.869   2.617  18.014
  881MPD2     N12963   1.821   2.210  18.186
  881MPD2    H512964   1.784   2.254  18.270
  881MPD2    N112965   2.025   2.293  17.749
  881MPD2    H712966   2.038   2.369  17.683
  882MPD2     C12967   0.236   3.843  14.480
  882MPD2    C112968   0.200   3.857  14.611
  882MPD2    C212969   0.062   3.879  14.642
  882MPD2    C312970   4.751   3.903  14.534
  882MPD2    C412971   0.015   3.908  14.405
  882MPD2    C512972   0.148   3.870  14.383
  882MPD2     H12973   0.026   3.860  14.743
  882MPD2    H112974   4.741   3.949  14.321
  882MPD2    H212975   0.336   3.815  14.447
  882MPD2    H312976   0.184   3.871  14.281
  882MPD2     N12977   4.611   3.922  14.559
  882MPD2    H512978   4.560   3.953  14.477
  882MPD2    N112979   0.299   3.842  14.713
  882MPD2    H712980   0.396   3.845  14.683
  883MPD2     C12981   2.279   3.569  16.559
  883MPD2    C112982   2.318   3.641  16.448
  883MPD2    C212983   2.407   3.749  16.473
  883MPD2    C312984   2.463   3.776  16.595
  883MPD2    C412985   2.423   3.699  16.703
  883MPD2    C512986   2.331   3.602  16.682
  883MPD2     H12987   2.424   3.812  16.386
  883MPD2    H112988   2.433   3.722  16.808
  883MPD2    H212989   2.223   3.477  16.553
  883MPD2    H312990   2.293   3.541  16.764
  883MPD2     N12991   2.569   3.872  16.600
  883MPD2    H512992   2.598   3.913  16.512
  883MPD2    N112993   2.261   3.611  16.322
  883MPD2    H712994   2.271   3.683  16.251
  884MPD2     C12995   4.187   4.384  15.781
  884MPD2    C112996   4.149   4.446  15.666
  884MPD2    C212997   4.044   4.535  15.667
  884MPD2    C312998   3.979   4.558  15.791
  884MPD2    C412999   4.019   4.495  15.905
  884MPD2    C513000   4.122   4.408  15.902
  884MPD2     H13001   4.016   4.583  15.574
  884MPD2    H113002   3.966   4.512  15.998
  884MPD2    H213003   4.262   4.307  15.796
  884MPD2    H313004   4.144   4.358  15.996
  884MPD2     N13005   3.861   4.630  15.778
  884MPD2    H513006   3.843   4.674  15.689
  884MPD2    N113007   4.217   4.432  15.537
  884MPD2    H713008   4.199   4.495  15.460
  885MPD2     C13009   2.607   0.030  18.566
  885MPD2    C113010   2.734   0.083  18.550
  885MPD2    C213011   2.753   0.168  18.436
  885MPD2    C313012   2.655   0.192  18.346
  885MPD2    C413013   2.524   0.135  18.366
  885MPD2    C513014   2.506   0.058  18.480
  885MPD2     H13015   2.841   0.227  18.413
  885MPD2    H113016   2.441   0.149  18.298
  885MPD2    H213017   2.576   4.748  18.649
  885MPD2    H313018   2.410   0.012  18.499
  885MPD2     N13019   2.687   0.258  18.228
  885MPD2    H513020   2.785   0.284  18.228
  885MPD2    N113021   2.827   0.061  18.649
  885MPD2    H713022   2.810   4.770  18.719
  886MPD2     C13023   3.853   3.225  15.259
  886MPD2    C113024   3.928   3.251  15.376
  886MPD2    C213025   3.886   3.342  15.464
  886MPD2    C313026   3.767   3.408  15.444
  886MPD2    C413027   3.679   3.376  15.342
  886MPD2    C513028   3.720   3.278  15.252
  886MPD2     H13029   3.942   3.362  15.554
  886MPD2    H113030   3.593   3.439  15.324
  886MPD2    H213031   3.871   3.143  15.191
  886MPD2    H313032   3.665   3.250  15.163
  886MPD2     N13033   3.730   3.521  15.520
  886MPD2    H513034   3.658   3.576  15.473
  886MPD2    N113035   4.068   3.215  15.386
  886MPD2    H713036   4.111   3.251  15.471
  887MPD2     C13037   4.620   3.234  15.839
  887MPD2    C113038   4.501   3.289  15.792
  887MPD2    C213039   4.463   3.413  15.846
  887MPD2    C313040   4.549   3.478  15.935
  887MPD2    C413041   4.667   3.419  15.984
  887MPD2    C513042   4.697   3.299  15.927
  887MPD2     H13043   4.376   3.468  15.814
  887MPD2    H113044   4.742   3.461  16.051
  887MPD2    H213045   4.662   3.137  15.813
  887MPD2    H313046   0.014   3.254  15.941
  887MPD2     N13047   4.519   3.613  15.971
  887MPD2    H513048   4.428   3.648  15.944
  887MPD2    N113049   4.428   3.222  15.683
  887MPD2    H713050   4.353   3.277  15.643
  888MPD2     C13051   1.274   3.455  14.954
  888MPD2    C113052   1.315   3.449  15.083
  888MPD2    C213053   1.367   3.564  15.136
  888MPD2    C313054   1.397   3.673  15.064
  888MPD2    C413055   1.365   3.675  14.935
  888MPD2    C513056   1.299   3.568  14.879
  888MPD2     H13057   1.406   3.549  15.236
  888MPD2    H113058   1.391   3.752  14.864
  888MPD2    H213059   1.214   3.380  14.905
  888MPD2    H313060   1.263   3.576  14.777
  888MPD2     N13061   1.471   3.772  15.123
  888MPD2    H513062   1.516   3.763  15.214
  888MPD2    N113063   1.298   3.339  15.170
  888MPD2    H713064   1.325   3.351  15.267
  889MPD2     C13065   0.555   3.336  13.181
  889MPD2    C113066   0.618   3.276  13.292
  889MPD2    C213067   0.644   3.351  13.406
  889MPD2    C313068   0.602   3.480  13.419
  889MPD2    C413069   0.563   3.540  13.301
  889MPD2    C513070   0.532   3.470  13.189
  889MPD2     H13071   0.666   3.303  13.500
  889MPD2    H113072   0.535   3.645  13.298
  889MPD2    H213073   0.540   3.275  13.092
  889MPD2    H313074   0.490   3.529  13.108
  889MPD2     N13075   0.622   3.552  13.538
  889MPD2    H513076   0.660   3.495  13.613
  889MPD2    N113077   0.642   3.138  13.304
  889MPD2    H713078   0.711   3.107  13.371
  890MPD2     C13079   0.432   4.463  14.887
  890MPD2    C113080   0.546   4.519  14.935
  890MPD2    C213081   0.593   4.486  15.061
  890MPD2    C313082   0.512   4.403  15.139
  890MPD2    C413083   0.401   4.343  15.092
  890MPD2    C513084   0.359   4.375  14.966
  890MPD2     H13085   0.682   4.523  15.111
  890MPD2    H113086   0.338   4.278  15.152
  890MPD2    H213087   0.393   4.483  14.788
  890MPD2    H313088   0.267   4.334  14.927
  890MPD2     N13089   0.558   4.375  15.272
  890MPD2    H513090   0.640   4.429  15.295
  890MPD2    N113091   0.615   4.612  14.859
  890MPD2    H713092   0.558   4.664  14.793
  891MPD2     C13093   2.914   2.883  16.862
  891MPD2    C113094   2.946   2.975  16.769
  891MPD2    C213095   3.079   3.008  16.747
  891MPD2    C313096   3.174   2.948  16.829
  891MPD2    C413097   3.149   2.856  16.925
  891MPD2    C513098   3.014   2.823  16.935
  891MPD2     H13099   3.117   3.070  16.666
  891MPD2    H113100   3.221   2.806  16.988
  891MPD2    H213101   2.813   2.852  16.886
  891MPD2    H313102   2.983   2.748  17.008
  891MPD2     N13103   3.302   3.010  16.819
  891MPD2    H513104   3.301   3.102  16.776
  891MPD2    N113105   2.837   3.029  16.697
  891MPD2    H713106   2.747   2.993  16.727
  892MPD2     C13107   4.190   4.066  15.452
  892MPD2    C113108   4.101   4.101  15.355
  892MPD2    C213109   4.129   4.061  15.230
  892MPD2    C313110   4.238   3.986  15.198
  892MPD2    C413111   4.324   3.939  15.298
  892MPD2    C513112   4.303   3.986  15.423
  892MPD2     H13113   4.060   4.097  15.154
  892MPD2    H113114   4.409   3.874  15.279
  892MPD2    H213115   4.165   4.086  15.556
  892MPD2    H313116   4.362   3.956  15.509
  892MPD2     N13117   4.259   3.933  15.072
  892MPD2    H513118   4.326   3.857  15.060
  892MPD2    N113119   3.980   4.160  15.381
  892MPD2    H713120   3.929   4.196  15.301
  893MPD2     C13121   1.154   2.664  18.116
  893MPD2    C113122   1.221   2.606  18.224
  893MPD2    C213123   1.157   2.499  18.294
  893MPD2    C313124   1.045   2.441  18.248
  893MPD2    C413125   0.986   2.487  18.135
  893MPD2    C513126   1.044   2.595  18.074
  893MPD2     H13127   1.206   2.449  18.377
  893MPD2    H113128   0.899   2.436  18.097
  893MPD2    H213129   1.185   2.756  18.068
  893MPD2    H313130   0.982   2.642  17.999
  893MPD2     N13131   0.995   2.321  18.308
  893MPD2    H513132   0.933   2.261  18.255
  893MPD2    N113133   1.339   2.670  18.272
  893MPD2    H713134   1.361   2.763  18.238
  894MPD2     C13135   4.292   0.549  18.983
  894MPD2    C113136   4.285   0.571  19.117
  894MPD2    C213137   4.317   0.703  19.172
  894MPD2    C313138   4.351   0.801  19.082
  894MPD2    C413139   4.353   0.776  18.947
  894MPD2    C513140   4.328   0.644  18.900
  894MPD2     H13141   4.335   0.707  19.279
  894MPD2    H113142   4.386   0.848  18.874
  894MPD2    H213143   4.263   0.453  18.941
  894MPD2    H313144   4.337   0.627  18.793
  894MPD2     N13145   4.390   0.927  19.133
  894MPD2    H513146   4.387   0.926  19.234
  894MPD2    N113147   4.229   0.470  19.201
  894MPD2    H713148   4.202   0.500  19.294
  895MPD2     C13149   3.377   3.522  14.194
  895MPD2    C113150   3.361   3.398  14.138
  895MPD2    C213151   3.459   3.302  14.150
  895MPD2    C313152   3.590   3.341  14.188
  895MPD2    C413153   3.614   3.473  14.223
  895MPD2    C513154   3.503   3.554  14.232
  895MPD2     H13155   3.434   3.202  14.116
  895MPD2    H113156   3.708   3.516  14.256
  895MPD2    H213157   3.317   3.611  14.179
  895MPD2    H313158   3.523   3.655  14.265
  895MPD2     N13159   3.707   3.261  14.174
  895MPD2    H513160   3.793   3.307  14.203
  895MPD2    N113161   3.250   3.366  14.059
  895MPD2    H713162   3.256   3.279  14.006
  896MPD2     C13163   0.941   1.209  19.573
  896MPD2    C113164   0.957   1.084  19.506
  896MPD2    C213165   0.834   1.021  19.463
  896MPD2    C313166   0.710   1.080  19.490
  896MPD2    C413167   0.705   1.202  19.559
  896MPD2    C513168   0.819   1.254  19.601
  896MPD2     H13169   0.830   0.919  19.428
  896MPD2    H113170   0.614   1.257  19.580
  896MPD2    H213171   1.032   1.253  19.612
  896MPD2    H313172   0.817   1.344  19.661
  896MPD2     N13173   0.605   1.011  19.435
  896MPD2    H513174   0.632   0.921  19.396
  896MPD2    N113175   1.093   1.042  19.483
  896MPD2    H713176   1.166   1.105  19.517
  897MPD2     C13177   2.358   2.493  10.798
  897MPD2    C113178   2.296   2.596  10.865
  897MPD2    C213179   2.195   2.563  10.947
  897MPD2    C313180   2.150   2.436  10.968
  897MPD2    C413181   2.205   2.330  10.900
  897MPD2    C513182   2.313   2.360  10.814
  897MPD2     H13183   2.147   2.646  10.998
  897MPD2    H113184   2.176   2.226  10.911
  897MPD2    H213185   2.439   2.514  10.730
  897MPD2    H313186   2.349   2.279  10.752
  897MPD2     N13187   2.032   2.433  11.042
  897MPD2    H513188   1.996   2.523  11.072
  897MPD2    N113189   2.325   2.726  10.826
  897MPD2    H713190   2.373   2.745  10.739
  898MPD2     C13191   3.634   3.214  17.578
  898MPD2    C113192   3.749   3.273  17.531
  898MPD2    C213193   3.754   3.412  17.527
  898MPD2    C313194   3.641   3.492  17.548
  898MPD2    C413195   3.528   3.426  17.591
  898MPD2    C513196   3.528   3.294  17.608
  898MPD2     H13197   3.836   3.453  17.469
  898MPD2    H113198   3.441   3.485  17.618
  898MPD2    H213199   3.624   3.108  17.596
  898MPD2    H313200   3.441   3.241  17.645
  898MPD2     N13201   3.651   3.628  17.535
  898MPD2    H513202   3.728   3.657  17.475
  898MPD2    N113203   3.874   3.198  17.536
  898MPD2    H713204   3.962   3.247  17.529
  899MPD2     C13205   0.062   4.089  17.822
  899MPD2    C113206   0.101   4.203  17.889
  899MPD2    C213207   0.147   4.197  18.016
  899MPD2    C313208   0.143   4.080  18.086
  899MPD2    C413209   0.099   3.964  18.024
  899MPD2    C513210   0.059   3.973  17.888
  899MPD2     H13211   0.169   4.290  18.066
  899MPD2    H113212   0.099   3.864  18.067
  899MPD2    H213213   0.029   4.104  17.720
  899MPD2    H313214   0.030   3.879  17.842
  899MPD2     N13215   0.198   4.075  18.221
  899MPD2    H513216   0.228   3.981  18.244
  899MPD2    N113217   0.100   4.324  17.818
  899MPD2    H713218   0.072   4.315  17.721
  900MPD2     C13219   4.207   1.295  12.950
  900MPD2    C113220   4.141   1.172  12.954
  900MPD2    C213221   4.024   1.151  12.876
  900MPD2    C313222   3.970   1.254  12.804
  900MPD2    C413223   4.035   1.376  12.813
  900MPD2    C513224   4.147   1.401  12.884
  900MPD2     H13225   3.980   1.052  12.883
  900MPD2    H113226   3.992   1.460  12.761
  900MPD2    H213227   4.304   1.317  12.993
  900MPD2    H313228   4.185   1.500  12.907
  900MPD2     N13229   3.848   1.235  12.728
  900MPD2    H513230   3.798   1.147  12.734
  900MPD2    N113231   4.207   1.073  13.031
  900MPD2    H713232   4.300   1.094  13.067
  901MPD2     C13233   4.216   0.072  13.186
  901MPD2    C113234   4.347   0.091  13.219
  901MPD2    C213235   4.389   0.225  13.239
  901MPD2    C313236   4.299   0.326  13.236
  901MPD2    C413237   4.165   0.304  13.208
  901MPD2    C513238   4.126   0.176  13.177
  901MPD2     H13239   4.496   0.238  13.251
  901MPD2    H113240   4.090   0.382  13.205
  901MPD2    H213241   4.181   4.756  13.152
  901MPD2    H313242   4.023   0.148  13.157
  901MPD2     N13243   4.350   0.451  13.253
  901MPD2    H513244   4.451   0.461  13.245
  901MPD2    N113245   4.435   4.760  13.201
  901MPD2    H713246   4.391   4.673  13.174
  902MPD2     C13247   3.194   3.656  13.338
  902MPD2    C113248   3.256   3.783  13.358
  902MPD2    C213249   3.376   3.808  13.305
  902MPD2    C313250   3.438   3.728  13.211
  902MPD2    C413251   3.380   3.604  13.188
  902MPD2    C513252   3.260   3.577  13.252
  902MPD2     H13253   3.430   3.899  13.330
  902MPD2    H113254   3.414   3.526  13.121
  902MPD2    H213255   3.092   3.646  13.373
  902MPD2    H313256   3.213   3.481  13.235
  902MPD2     N13257   3.561   3.757  13.147
  902MPD2    H513258   3.610   3.687  13.092
  902MPD2    N113259   3.175   3.883  13.430
  902MPD2    H713260   3.101   3.843  13.487
  903MPD2     C13261   3.656   4.143  12.367
  903MPD2    C113262   3.599   4.093  12.478
  903MPD2    C213263   3.483   4.017  12.465
  903MPD2    C313264   3.427   3.990  12.343
  903MPD2    C413265   3.478   4.048  12.232
  903MPD2    C513266   3.591   4.126  12.245
  903MPD2     H13267   3.438   3.964  12.548
  903MPD2    H113268   3.434   4.040  12.133
  903MPD2    H213269   3.757   4.183  12.371
  903MPD2    H313270   3.642   4.172  12.162
  903MPD2     N13271   3.317   3.901  12.344
  903MPD2    H513272   3.292   3.854  12.430
  903MPD2    N113273   3.677   4.089  12.597
  903MPD2    H713274   3.777   4.108  12.596
  904MPD2     C13275   3.130   2.898  14.163
  904MPD2    C113276   3.126   2.777  14.227
  904MPD2    C213277   3.244   2.740  14.294
  904MPD2    C313278   3.352   2.826  14.302
  904MPD2    C413279   3.358   2.947  14.230
  904MPD2    C513280   3.245   2.984  14.162
  904MPD2     H13281   3.251   2.641  14.339
  904MPD2    H113282   3.453   2.998  14.224
  904MPD2    H213283   3.050   2.929  14.096
  904MPD2    H313284   3.238   3.062  14.087
  904MPD2     N13285   3.462   2.773  14.368
  904MPD2    H513286   3.454   2.678  14.402
  904MPD2    N113287   3.032   2.669  14.199
  904MPD2    H713288   3.063   2.580  14.236
  905MPD2     C13289   2.963   2.873  13.583
  905MPD2    C113290   2.979   2.952  13.701
  905MPD2    C213291   3.107   2.990  13.734
  905MPD2    C313292   3.217   2.965  13.656
  905MPD2    C413293   3.200   2.885  13.546
  905MPD2    C513294   3.075   2.834  13.518
  905MPD2     H13295   3.112   3.055  13.820
  905MPD2    H113296   3.285   2.852  13.488
  905MPD2    H213297   2.860   2.849  13.560
  905MPD2    H313298   3.066   2.782  13.424
  905MPD2     N13299   3.351   2.988  13.704
  905MPD2    H513300   3.432   2.971  13.645
  905MPD2    N113301   2.865   2.960  13.790
  905MPD2    H713302   2.776   2.918  13.766
  906MPD2     C13303   0.747   3.011  11.724
  906MPD2    C113304   0.728   2.895  11.658
  906MPD2    C213305   0.635   2.799  11.704
  906MPD2    C313306   0.567   2.825  11.822
  906MPD2    C413307   0.589   2.946  11.887
  906MPD2    C513308   0.679   3.039  11.837
  906MPD2     H13309   0.611   2.712  11.643
  906MPD2    H113310   0.545   2.970  11.983
  906MPD2    H213311   0.820   3.087  11.698
  906MPD2    H313312   0.704   3.129  11.892
  906MPD2     N13313   0.476   2.731  11.875
  906MPD2    H513314   0.416   2.762  11.951
  906MPD2    N113315   0.781   2.866  11.528
  906MPD2    H713316   0.770   2.778  11.479
  907MPD2     C13317   3.928   2.107  15.796
  907MPD2    C113318   4.029   2.032  15.747
  907MPD2    C213319   4.127   1.993  15.828
  907MPD2    C313320   4.133   2.030  15.962
  907MPD2    C413321   4.041   2.116  16.013
  907MPD2    C513322   3.941   2.156  15.922
  907MPD2     H13323   4.191   1.910  15.800
  907MPD2    H113324   4.031   2.143  16.117
  907MPD2    H213325   3.835   2.137  15.748
  907MPD2    H313326   3.858   2.218  15.954
  907MPD2     N13327   4.243   1.980  16.038
  907MPD2    H513328   4.306   1.916  15.991
  907MPD2    N113329   4.030   1.977  15.615
  907MPD2    H713330   4.104   1.912  15.590
  908MPD2     C13331   2.203   3.032   9.999
  908MPD2    C113332   2.200   2.916  10.072
  908MPD2    C213333   2.205   2.915  10.211
  908MPD2    C313334   2.225   3.036  10.281
  908MPD2    C413335   2.220   3.151  10.208
  908MPD2    C513336   2.210   3.148  10.071
  908MPD2     H13337   2.211   2.826  10.272
  908MPD2    H113338   2.224   3.247  10.257
  908MPD2    H213339   2.210   3.035   9.891
  908MPD2    H313340   2.217   3.242  10.017
  908MPD2     N13341   2.263   3.030  10.419
  908MPD2    H513342   2.276   2.934  10.448
  908MPD2    N113343   2.199   2.802   9.991
  908MPD2    H713344   2.202   2.818   9.891
  909MPD2     C13345   2.486   0.766  11.760
  909MPD2    C113346   2.455   0.900  11.748
  909MPD2    C213347   2.403   0.972  11.856
  909MPD2    C313348   2.380   0.903  11.976
  909MPD2    C413349   2.405   0.765  11.986
  909MPD2    C513350   2.458   0.700  11.879
  909MPD2     H13351   2.399   1.080  11.858
  909MPD2    H113352   2.394   0.710  12.079
  909MPD2    H213353   2.526   0.703  11.681
  909MPD2    H313354   2.480   0.594  11.878
  909MPD2     N13355   2.323   0.975  12.083
  909MPD2    H513356   2.281   1.063  12.054
  909MPD2    N113357   2.503   0.969  11.641
  909MPD2    H713358   2.479   1.068  11.644
  910MPD2     C13359   3.569   2.804  16.578
  910MPD2    C113360   3.605   2.690  16.510
  910MPD2    C213361   3.551   2.664  16.388
  910MPD2    C313362   3.480   2.756  16.318
  910MPD2    C413363   3.460   2.879  16.383
  910MPD2    C513364   3.503   2.900  16.509
  910MPD2     H13365   3.576   2.574  16.332
  910MPD2    H113366   3.410   2.965  16.340
  910MPD2    H213367   3.580   2.831  16.682
  910MPD2    H313368   3.482   2.980  16.578
  910MPD2     N13369   3.433   2.753  16.192
  910MPD2    H513370   3.364   2.821  16.164
  910MPD2    N113371   3.679   2.593  16.569
  910MPD2    H713372   3.685   2.504  16.520
  911MPD2     C13373   1.555   2.977  16.265
  911MPD2    C113374   1.559   3.019  16.396
  911MPD2    C213375   1.487   3.132  16.436
  911MPD2    C313376   1.394   3.187  16.347
  911MPD2    C413377   1.385   3.134  16.217
  911MPD2    C513378   1.467   3.030  16.177
  911MPD2     H13379   1.488   3.172  16.537
  911MPD2    H113380   1.314   3.172  16.144
  911MPD2    H213381   1.622   2.897  16.235
  911MPD2    H313382   1.458   2.988  16.078
  911MPD2     N13383   1.301   3.289  16.386
  911MPD2    H513384   1.225   3.298  16.319
  911MPD2    N113385   1.653   2.956  16.481
  911MPD2    H713386   1.722   2.898  16.435
  912MPD2     C13387   1.095   3.130  15.957
  912MPD2    C113388   1.042   3.127  16.084
  912MPD2    C213389   1.052   3.010  16.151
  912MPD2    C313390   1.105   2.895  16.091
  912MPD2    C413391   1.145   2.904  15.956
  912MPD2    C513392   1.144   3.021  15.893
  912MPD2     H13393   1.030   3.003  16.257
  912MPD2    H113394   1.199   2.821  15.911
  912MPD2    H213395   1.091   3.220  15.897
  912MPD2    H313396   1.174   3.024  15.789
  912MPD2     N13397   1.119   2.789  16.174
  912MPD2    H513398   1.097   2.810  16.271
  912MPD2    N113399   1.011   3.249  16.147
  912MPD2    H713400   1.022   3.329  16.086
  913MPD2     C13401   1.993   4.010  11.263
  913MPD2    C113402   2.039   4.129  11.318
  913MPD2    C213403   2.016   4.239  11.239
  913MPD2    C313404   1.959   4.225  11.112
  913MPD2    C413405   1.914   4.109  11.063
  913MPD2    C513406   1.937   3.997  11.138
  913MPD2     H13407   2.029   4.341  11.274
  913MPD2    H113408   1.876   4.090  10.963
  913MPD2    H213409   2.010   3.919  11.320
  913MPD2    H313410   1.906   3.899  11.103
  913MPD2     N13411   1.929   4.335  11.029
  913MPD2    H513412   1.895   4.316  10.935
  913MPD2    N113413   2.085   4.122  11.449
  913MPD2    H713414   2.066   4.039  11.504
  914MPD2     C13415   4.611   4.543  12.369
  914MPD2    C113416   4.583   4.656  12.440
  914MPD2    C213417   4.596   4.653  12.581
  914MPD2    C313418   4.626   4.541  12.646
  914MPD2    C413419   4.642   4.426  12.573
  914MPD2    C513420   4.640   4.429  12.438
  914MPD2     H13421   4.578   4.749  12.629
  914MPD2    H113422   4.638   4.325  12.612
  914MPD2    H213423   4.612   4.528  12.262
  914MPD2    H313424   4.635   4.332  12.389
  914MPD2     N13425   4.631   4.554  12.789
  914MPD2    H513426   4.626   4.651  12.819
  914MPD2    N113427   4.529   4.771  12.367
  914MPD2    H713428   4.551   0.002  12.269
  915MPD2     C13429   2.868   4.343  15.717
  915MPD2    C113430   2.768   4.431  15.679
  915MPD2    C213431   2.715   4.508  15.779
  915MPD2    C313432   2.751   4.493  15.912
  915MPD2    C413433   2.849   4.402  15.946
  915MPD2    C513434   2.908   4.325  15.848
  915MPD2     H13435   2.625   4.568  15.775
  915MPD2    H113436   2.877   4.381  16.048
  915MPD2    H213437   2.916   4.287  15.637
  915MPD2    H313438   2.980   4.245  15.864
  915MPD2     N13439   2.681   4.566  16.016
  915MPD2    H513440   2.628   4.642  15.975
  915MPD2    N113441   2.729   4.434  15.546
  915MPD2    H713442   2.763   4.351  15.499
  916MPD2     C13443   0.759   2.693  16.107
  916MPD2    C113444   0.706   2.571  16.144
  916MPD2    C213445   0.759   2.455  16.098
  916MPD2    C313446   0.855   2.461  15.997
  916MPD2    C413447   0.900   2.585  15.954
  916MPD2    C513448   0.854   2.696  16.015
  916MPD2     H13449   0.718   2.360  16.129
  916MPD2    H113450   0.981   2.603  15.885
  916MPD2    H213451   0.713   2.787  16.137
  916MPD2    H313452   0.898   2.789  15.980
  916MPD2     N13453   0.907   2.338  15.957
  916MPD2    H513454   0.884   2.252  16.007
  916MPD2    N113455   0.597   2.578  16.237
  916MPD2    H713456   0.580   2.670  16.277
  917MPD2     C13457   0.859   0.419  11.586
  917MPD2    C113458   0.933   0.458  11.703
  917MPD2    C213459   1.022   0.561  11.688
  917MPD2    C313460   1.011   0.646  11.580
  917MPD2    C413461   0.923   0.622  11.481
  917MPD2    C513462   0.859   0.499  11.477
  917MPD2     H13463   1.100   0.583  11.759
  917MPD2    H113464   0.917   0.701  11.406
  917MPD2    H213465   0.797   0.331  11.573
  917MPD2    H313466   0.808   0.474  11.385
  917MPD2     N13467   1.090   0.771  11.559
  917MPD2    H513468   1.093   0.809  11.465
  917MPD2    N113469   0.920   0.381  11.822
  917MPD2    H713470   0.854   0.305  11.810
  918MPD2     C13471   0.840   0.829  12.678
  918MPD2    C113472   0.972   0.783  12.669
  918MPD2    C213473   1.004   0.658  12.606
  918MPD2    C313474   0.903   0.594  12.535
  918MPD2    C413475   0.774   0.633  12.549
  918MPD2    C513476   0.742   0.751  12.614
  918MPD2     H13477   1.106   0.634  12.580
  918MPD2    H113478   0.697   0.579  12.496
  918MPD2    H213479   0.799   0.917  12.727
  918MPD2    H313480   0.639   0.785  12.608
  918MPD2     N13481   0.936   0.484  12.452
  918MPD2    H513482   1.033   0.481  12.423
  918MPD2    N113483   1.078   0.840  12.734
  918MPD2    H713484   1.163   0.785  12.722
  919MPD2     C13485   1.706   4.206  12.309
  919MPD2    C113486   1.633   4.108  12.245
  919MPD2    C213487   1.651   4.091  12.103
  919MPD2    C313488   1.744   4.160  12.029
  919MPD2    C413489   1.823   4.249  12.097
  919MPD2    C513490   1.790   4.284  12.230
  919MPD2     H13491   1.583   4.028  12.047
  919MPD2    H113492   1.891   4.317  12.047
  919MPD2    H213493   1.692   4.235  12.413
  919MPD2    H313494   1.853   4.355  12.282
  919MPD2     N13495   1.760   4.157  11.888
  919MPD2    H513496   1.820   4.232  11.855
  919MPD2    N113497   1.537   4.035  12.307
  919MPD2    H713498   1.504   3.956  12.252
  920MPD2     C13499   1.597   4.726  11.103
  920MPD2    C113500   1.507   4.622  11.096
  920MPD2    C213501   1.528   4.506  11.168
  920MPD2    C313502   1.644   4.488  11.249
  920MPD2    C413503   1.741   4.587  11.246
  920MPD2    C513504   1.711   4.707  11.181
  920MPD2     H13505   1.460   4.421  11.173
  920MPD2    H113506   1.834   4.591  11.301
  920MPD2    H213507   1.588   0.041  11.053
  920MPD2    H313508   1.774   0.014  11.176
  920MPD2     N13509   1.660   4.371  11.323
  920MPD2    H513510   1.605   4.288  11.302
  920MPD2    N113511   1.379   4.639  11.033
  920MPD2    H713512   1.310   4.571  11.063
  921MPD2     C13513   2.293   3.276  16.920
  921MPD2    C113514   2.291   3.179  16.818
  921MPD2    C213515   2.202   3.081  16.831
  921MPD2    C313516   2.118   3.072  16.932
  921MPD2    C413517   2.125   3.159  17.040
  921MPD2    C513518   2.212   3.261  17.031
  921MPD2     H13519   2.191   3.017  16.744
  921MPD2    H113520   2.060   3.154  17.127
  921MPD2    H213521   2.376   3.346  16.918
  921MPD2    H313522   2.227   3.320  17.120
  921MPD2     N13523   2.018   2.972  16.927
  921MPD2    H513524   1.934   2.992  16.980
  921MPD2    N113525   2.382   3.183  16.714
  921MPD2    H713526   2.435   3.269  16.714
  922MPD2     C13527   3.319   1.248  17.604
  922MPD2    C113528   3.191   1.273  17.654
  922MPD2    C213529   3.113   1.165  17.689
  922MPD2    C313530   3.152   1.034  17.659
  922MPD2    C413531   3.271   1.011  17.591
  922MPD2    C513532   3.360   1.119  17.573
  922MPD2     H13533   3.011   1.183  17.720
  922MPD2    H113534   3.313   0.915  17.565
  922MPD2    H213535   3.385   1.327  17.569
  922MPD2    H313536   3.462   1.109  17.536
  922MPD2     N13537   3.065   0.929  17.686
  922MPD2    H513538   2.971   0.964  17.700
  922MPD2    N113539   3.139   1.403  17.678
  922MPD2    H713540   3.041   1.402  17.704
  923MPD2     C13541   4.716   3.383   9.118
  923MPD2    C113542   4.683   3.453   9.237
  923MPD2    C213543   4.759   3.435   9.344
  923MPD2    C313544   0.081   3.340   9.347
  923MPD2    C413545   0.106   3.262   9.234
  923MPD2    C513546   0.037   3.291   9.122
  923MPD2     H13547   4.717   3.478   9.434
  923MPD2    H113548   0.194   3.202   9.217
  923MPD2    H213549   4.660   3.389   9.025
  923MPD2    H313550   0.057   3.224   9.039
  923MPD2     N13551   0.158   3.305   9.462
  923MPD2    H513552   0.240   3.247   9.450
  923MPD2    N113553   4.569   3.534   9.236
  923MPD2    H713554   4.529   3.542   9.143
  924MPD2     C13555   4.193   1.295  16.122
  924MPD2    C113556   4.279   1.327  16.220
  924MPD2    C213557   4.368   1.425  16.198
  924MPD2    C313558   4.378   1.496  16.076
  924MPD2    C413559   4.289   1.462  15.980
  924MPD2    C513560   4.200   1.363  16.005
  924MPD2     H13561   4.432   1.455  16.281
  924MPD2    H113562   4.297   1.512  15.884
  924MPD2    H213563   4.113   1.223  16.138
  924MPD2    H313564   4.115   1.358  15.939
  924MPD2     N13565   4.468   1.603  16.050
  924MPD2    H513566   4.441   1.649  15.964
  924MPD2    N113567   4.260   1.269  16.347
  924MPD2    H713568   4.175   1.215  16.360
  925MPD2     C13569   3.261   3.966  15.208
  925MPD2    C113570   3.134   3.997  15.170
  925MPD2    C213571   3.053   4.056  15.266
  925MPD2    C313572   3.092   4.054  15.395
  925MPD2    C413573   3.212   4.016  15.431
  925MPD2    C513574   3.298   3.977  15.335
  925MPD2     H13575   2.955   4.070  15.221
  925MPD2    H113576   3.240   4.015  15.536
  925MPD2    H213577   3.341   3.925  15.147
  925MPD2    H313578   3.398   3.956  15.371
  925MPD2     N13579   2.992   4.052  15.497
  925MPD2    H513580   3.024   4.020  15.588
  925MPD2    N113581   3.090   3.968  15.041
  925MPD2    H713582   3.008   4.021  15.011
  926MPD2     C13583   2.095   2.279  13.462
  926MPD2    C113584   2.000   2.372  13.491
  926MPD2    C213585   2.029   2.504  13.451
  926MPD2    C313586   2.149   2.543  13.386
  926MPD2    C413587   2.240   2.441  13.355
  926MPD2    C513588   2.208   2.307  13.389
  926MPD2     H13589   1.950   2.578  13.460
  926MPD2    H113590   2.333   2.458  13.302
  926MPD2    H213591   2.073   2.177  13.492
  926MPD2    H313592   2.276   2.225  13.369
  926MPD2     N13593   2.177   2.674  13.343
  926MPD2    H513594   2.276   2.694  13.339
  926MPD2    N113595   1.874   2.336  13.544
  926MPD2    H713596   1.820   2.412  13.584
  927MPD2     C13597   1.342   4.545  18.129
  927MPD2    C113598   1.449   4.627  18.155
  927MPD2    C213599   1.562   4.624  18.074
  927MPD2    C313600   1.572   4.542  17.961
  927MPD2    C413601   1.457   4.464  17.936
  927MPD2    C513602   1.349   4.470  18.017
  927MPD2     H13603   1.646   4.690  18.096
  927MPD2    H113604   1.442   4.396  17.853
  927MPD2    H213605   1.249   4.550  18.184
  927MPD2    H313606   1.264   4.409  17.989
  927MPD2     N13607   1.680   4.545  17.875
  927MPD2    H513608   1.753   4.613  17.895
  927MPD2    N113609   1.444   4.697  18.274
  927MPD2    H713610   1.361   4.674  18.328
  928MPD2     C13611   3.915   2.747  18.757
  928MPD2    C113612   3.941   2.883  18.763
  928MPD2    C213613   4.059   2.931  18.702
  928MPD2    C313614   4.133   2.850  18.623
  928MPD2    C413615   4.094   2.714  18.609
  928MPD2    C513616   3.988   2.668  18.676
  928MPD2     H13617   4.087   3.036  18.709
  928MPD2    H113618   4.168   2.650  18.562
  928MPD2    H213619   3.833   2.698  18.808
  928MPD2    H313620   3.951   2.567  18.666
  928MPD2     N13621   4.242   2.896  18.555
  928MPD2    H513622   4.272   2.848  18.471
  928MPD2    N113623   3.863   2.960  18.839
  928MPD2    H713624   3.792   2.920  18.900
  929MPD2     C13625   4.479   3.288  10.184
  929MPD2    C113626   4.379   3.207  10.242
  929MPD2    C213627   4.302   3.126  10.162
  929MPD2    C313628   4.305   3.149  10.019
  929MPD2    C413629   4.406   3.224   9.961
  929MPD2    C513630   4.490   3.291  10.046
  929MPD2     H13631   4.227   3.059  10.201
  929MPD2    H113632   4.410   3.234   9.853
  929MPD2    H213633   4.550   3.335  10.250
  929MPD2    H313634   4.565   3.353   9.998
  929MPD2     N13635   4.215   3.086   9.941
  929MPD2    H513636   4.246   3.071   9.845
  929MPD2    N113637   4.370   3.215  10.381
  929MPD2    H713638   4.440   3.274  10.425
  930MPD2     C13639   1.240   0.327  14.358
  930MPD2    C113640   1.334   0.376  14.274
  930MPD2    C213641   1.361   0.299  14.154
  930MPD2    C313642   1.274   0.196  14.122
  930MPD2    C413643   1.173   0.159  14.204
  930MPD2    C513644   1.156   0.226  14.324
  930MPD2     H13645   1.447   0.323  14.092
  930MPD2    H113646   1.103   0.078  14.186
  930MPD2    H213647   1.216   0.382  14.448
  930MPD2    H313648   1.084   0.198  14.401
  930MPD2     N13649   1.292   0.113  14.009
  930MPD2    H513650   1.235   0.030  13.998
  930MPD2    N113651   1.391   0.492  14.300
  930MPD2    H713652   1.382   0.532  14.393
  931MPD2     C13653   2.070   4.719  18.716
  931MPD2    C113654   1.945   4.681  18.765
  931MPD2    C213655   1.937   4.582  18.861
  931MPD2    C313656   2.047   4.542  18.928
  931MPD2    C413657   2.170   4.586  18.891
  931MPD2    C513658   2.180   4.671  18.783
  931MPD2     H13659   1.837   4.555  18.892
  931MPD2    H113660   2.258   4.540  18.935
  931MPD2    H213661   2.083   0.008  18.635
  931MPD2    H313662   2.274   4.698  18.736
  931MPD2     N13663   2.037   4.448  19.043
  931MPD2    H513664   2.120   4.391  19.059
  931MPD2    N113665   1.826   4.746  18.714
  931MPD2    H713666   1.840   0.028  18.636
  932MPD2     C13667   3.258   4.341  11.762
  932MPD2    C113668   3.348   4.277  11.678
  932MPD2    C213669   3.397   4.156  11.714
  932MPD2    C313670   3.344   4.087  11.824
  932MPD2    C413671   3.261   4.159  11.907
  932MPD2    C513672   3.211   4.281  11.872
  932MPD2     H13673   3.461   4.110  11.639
  932MPD2    H113674   3.223   4.108  11.994
  932MPD2    H213675   3.234   4.446  11.752
  932MPD2    H313676   3.140   4.333  11.936
  932MPD2     N13677   3.373   3.954  11.862
  932MPD2    H513678   3.356   3.934  11.960
  932MPD2    N113679   3.401   4.345  11.562
  932MPD2    H713680   3.475   4.302  11.508
  933MPD2     C13681   4.030   3.786  19.058
  933MPD2    C113682   3.959   3.726  18.960
  933MPD2    C213683   3.960   3.787  18.831
  933MPD2    C313684   4.034   3.899  18.806
  933MPD2    C413685   4.102   3.956  18.913
  933MPD2    C513686   4.100   3.900  19.033
  933MPD2     H13687   3.909   3.740  18.747
  933MPD2    H113688   4.167   4.042  18.906
  933MPD2    H213689   4.026   3.751  19.160
  933MPD2    H313690   4.152   3.941  19.119
  933MPD2     N13691   4.034   3.955  18.673
  933MPD2    H513692   3.972   3.916  18.603
  933MPD2    N113693   3.895   3.605  18.997
  933MPD2    H713694   3.901   3.580  19.095
  934MPD2     C13695   0.783   1.344  19.991
  934MPD2    C113696   0.862   1.227  20.000
  934MPD2    C213697   0.814   1.120  19.934
  934MPD2    C313698   0.681   1.120  19.883
  934MPD2    C413699   0.605   1.234  19.900
  934MPD2    C513700   0.664   1.342  19.954
  934MPD2     H13701   0.876   1.033  19.917
  934MPD2    H113702   0.499   1.240  19.880
  934MPD2    H213703   0.829   1.434  20.029
  934MPD2    H313704   0.609   1.429  19.987
  934MPD2     N13705   0.613   1.004  19.835
  934MPD2    H513706   0.515   1.019  19.812
  934MPD2    N113707   0.999   1.220  20.042
  934MPD2    H713708   1.042   1.128  20.036
  935MPD2     C13709   0.896   0.091  19.573
  935MPD2    C113710   0.789   0.109  19.488
  935MPD2    C213711   0.708   0.220  19.506
  935MPD2    C313712   0.742   0.312  19.615
  935MPD2    C413713   0.851   0.288  19.700
  935MPD2    C513714   0.930   0.182  19.661
  935MPD2     H13715   0.612   0.239  19.460
  935MPD2    H113716   0.893   0.352  19.777
  935MPD2    H213717   0.968   0.011  19.566
  935MPD2    H313718   1.015   0.154  19.722
  935MPD2     N13719   0.673   0.433  19.643
  935MPD2    H513720   0.712   0.489  19.718
  935MPD2    N113721   0.753   0.005  19.400
  935MPD2    H713722   0.662   0.010  19.355
  936MPD2     C13723   3.975   1.969  12.735
  936MPD2    C113724   4.061   2.037  12.815
  936MPD2    C213725   4.107   2.162  12.782
  936MPD2    C313726   4.063   2.219  12.662
  936MPD2    C413727   3.963   2.156  12.589
  936MPD2    C513728   3.924   2.033  12.622
  936MPD2     H13729   4.175   2.212  12.850
  936MPD2    H113730   3.915   2.207  12.507
  936MPD2    H213731   3.930   1.872  12.754
  936MPD2    H313732   3.855   1.976  12.560
  936MPD2     N13733   4.079   2.359  12.641
  936MPD2    H513734   4.019   2.404  12.573
  936MPD2    N113735   4.103   1.993  12.943
  936MPD2    H713736   4.181   2.054  12.965
  937MPD2     C13737   1.628   3.332  12.341
  937MPD2    C113738   1.688   3.453  12.362
  937MPD2    C213739   1.804   3.481  12.297
  937MPD2    C313740   1.867   3.394  12.209
  937MPD2    C413741   1.807   3.268  12.194
  937MPD2    C513742   1.691   3.237  12.262
  937MPD2     H13743   1.840   3.583  12.306
  937MPD2    H113744   1.842   3.192  12.125
  937MPD2    H213745   1.531   3.306  12.382
  937MPD2    H313746   1.645   3.139  12.258
  937MPD2     N13747   1.980   3.439  12.141
  937MPD2    H513748   2.026   3.525  12.169
  937MPD2    N113749   1.620   3.567  12.422
  937MPD2    H713750   1.670   3.654  12.403
  938MPD2     C13751   4.419   4.513  18.708
  938MPD2    C113752   4.453   4.621  18.789
  938MPD2    C213753   4.416   4.620  18.922
  938MPD2    C313754   4.356   4.513  18.976
  938MPD2    C413755   4.329   4.402  18.896
  938MPD2    C513756   4.369   4.400  18.765
  938MPD2     H13757   4.446   4.707  18.980
  938MPD2    H113758   4.272   4.317  18.932
  938MPD2    H213759   4.442   4.506  18.602
  938MPD2    H313760   4.342   4.316  18.701
  938MPD2     N13761   4.294   4.509  19.098
  938MPD2    H513762   4.264   4.417  19.128
  938MPD2    N113763   4.510   4.739  18.742
  938MPD2    H713764   4.530   0.030  18.810
  939MPD2     C13765   1.043   0.658  19.042
  939MPD2    C113766   1.066   0.787  18.985
  939MPD2    C213767   1.083   0.801  18.850
  939MPD2    C313768   1.078   0.690  18.771
  939MPD2    C413769   1.069   0.566  18.827
  939MPD2    C513770   1.055   0.555  18.961
  939MPD2     H13771   1.078   0.895  18.796
  939MPD2    H113772   1.079   0.476  18.768
  939MPD2    H213773   1.014   0.638  19.144
  939MPD2    H313774   1.050   0.451  18.991
  939MPD2     N13775   1.094   0.719  18.637
  939MPD2    H513776   1.097   0.813  18.600
  939MPD2    N113777   1.059   0.902  19.068
  939MPD2    H713778   1.018   0.891  19.160
  940MPD2     C13779   4.667   2.611  13.602
  940MPD2    C113780   4.627   2.479  13.592
  940MPD2    C213781   4.662   2.402  13.479
  940MPD2    C313782   4.727   2.460  13.366
  940MPD2    C413783   4.766   2.590  13.387
  940MPD2    C513784   4.744   2.667  13.501
  940MPD2     H13785   4.637   2.297  13.473
  940MPD2    H113786   0.045   2.640  13.311
  940MPD2    H213787   4.665   2.664  13.697
  940MPD2    H313788   0.006   2.764  13.522
  940MPD2     N13789   4.769   2.392  13.247
  940MPD2    H513790   0.053   2.439  13.184
  940MPD2    N113791   4.563   2.417  13.697
  940MPD2    H713792   4.516   2.329  13.681
  941MPD2     C13793   3.717   1.527   9.907
  941MPD2    C113794   3.809   1.492  10.000
  941MPD2    C213795   3.827   1.360  10.048
  941MPD2    C313796   3.741   1.266  10.002
  941MPD2    C413797   3.643   1.292   9.911
  941MPD2    C513798   3.637   1.428   9.861
  941MPD2     H13799   3.896   1.336  10.128
  941MPD2    H113800   3.574   1.215   9.879
  941MPD2    H213801   3.698   1.628   9.873
  941MPD2    H313802   3.547   1.443   9.803
  941MPD2     N13803   3.742   1.133  10.061
  941MPD2    H513804   3.669   1.068  10.033
  941MPD2    N113805   3.893   1.585  10.054
  941MPD2    H713806   3.936   1.564  10.144
  942MPD2     C13807   3.465   3.117   9.136
  942MPD2    C113808   3.534   2.996   9.131
  942MPD2    C213809   3.674   2.996   9.117
  942MPD2    C313810   3.743   3.116   9.138
  942MPD2    C413811   3.675   3.230   9.165
  942MPD2    C513812   3.541   3.228   9.158
  942MPD2     H13813   3.723   2.899   9.113
  942MPD2    H113814   3.723   3.325   9.188
  942MPD2    H213815   3.358   3.124   9.124
  942MPD2    H313816   3.487   3.322   9.162
  942MPD2     N13817   3.884   3.128   9.123
  942MPD2    H513818   3.921   3.218   9.153
  942MPD2    N113819   3.461   2.871   9.101
  942MPD2    H713820   3.513   2.786   9.081
  943MPD2     C13821   2.111   0.837  10.165
  943MPD2    C113822   2.244   0.882  10.184
  943MPD2    C213823   2.277   1.003  10.129
  943MPD2    C313824   2.189   1.079  10.052
  943MPD2    C413825   2.064   1.024  10.025
  943MPD2    C513826   2.026   0.910  10.086
  943MPD2     H13827   2.378   1.038  10.146
  943MPD2    H113828   1.979   1.075   9.982
  943MPD2    H213829   2.078   0.744  10.210
  943MPD2    H313830   1.923   0.875  10.084
  943MPD2     N13831   2.210   1.207   9.996
  943MPD2    H513832   2.132   1.232   9.935
  943MPD2    N113833   2.320   0.808  10.273
  943MPD2    H713834   2.280   0.722  10.309
  944MPD2     C13835   2.337   0.293  11.997
  944MPD2    C113836   2.287   0.330  11.874
  944MPD2    C213837   2.210   0.446  11.862
  944MPD2    C313838   2.185   0.514  11.982
  944MPD2    C413839   2.241   0.484  12.106
  944MPD2    C513840   2.316   0.370  12.111
  944MPD2     H13841   2.172   0.484  11.768
  944MPD2    H113842   2.230   0.540  12.198
  944MPD2    H213843   2.402   0.206  12.005
  944MPD2    H313844   2.360   0.341  12.206
  944MPD2     N13845   2.110   0.634  11.968
  944MPD2    H513846   2.076   0.659  11.876
  944MPD2    N113847   2.318   0.242  11.771
  944MPD2    H713848   2.363   0.155  11.796
    1TCq1    O113849   0.138   0.832  14.655
    1TCq1    C113850   0.218   0.940  14.639
    1TCq1    O213851   0.176   1.047  14.595
    1TCq1    C213852   0.353   0.915  14.700
    1TCq1    C313853   0.395   0.787  14.720
    1TCq1    C413854   0.508   0.771  14.799
    1TCq1    C513855   0.586   0.874  14.841
    1TCq1    C613856   0.539   1.001  14.823
    1TCq1    C713857   0.418   1.022  14.758
    1TCq1    C813858   0.619   1.106  14.894
    1TCq1    O413859   0.720   1.067  14.953
    1TCq1    C913860   0.545   0.636  14.830
    1TCq1    O513861   0.654   0.619  14.891
    1TCq1    O613862   0.447   0.560  14.839
    1TCq1    H113863   0.169   0.761  14.716
    1TCq1    H213864   0.359   0.698  14.669
    1TCq1    H313865   0.677   0.849  14.895
    1TCq1    H413866   0.357   1.112  14.757
    2MPD2     C13867   0.745   1.597  15.020
    2MPD2    C113868   0.639   1.600  14.932
    2MPD2    C213869   0.580   1.483  14.879
    2MPD2    C313870   0.635   1.363  14.925
    2MPD2    C413871   0.744   1.355  15.012
    2MPD2    C513872   0.794   1.472  15.060
    2MPD2     H13873   0.497   1.489  14.809
    2MPD2    H113874   0.773   1.260  15.055
    2MPD2    H213875   0.802   1.682  15.054
    2MPD2    H313876   0.888   1.485  15.112
    2MPD2     N13877   0.582   1.242  14.872
    2MPD2    H513878   0.500   1.253  14.814
    2MPD2    N113879   0.600   1.728  14.882
    2MPD2    H713880   0.649   1.807  14.923
    3TMC2    C113881   0.510   1.887  14.732
    3TMC2    C213882   0.574   1.983  14.810
    3TMC2    C313883   0.592   2.104  14.760
    3TMC2    C413884   0.495   1.906  14.599
    3TMC2    C513885   0.515   2.034  14.551
    3TMC2    C613886   0.562   2.134  14.630
    3TMC2     C13887   0.503   1.758  14.788
    3TMC2     O13888   0.423   1.683  14.735
    3TMC2     H13889   0.573   1.970  14.918
    3TMC2    H113890   0.457   1.823  14.541
    3TMC2    H213891   0.552   2.235  14.592
    3TMC2    C713892   0.423   2.072  14.456
    3TMC2    C813893   0.572   2.215  14.855
    3TMC2    O113894   0.340   1.991  14.421
    3TMC2    O213895   0.495   2.202  14.948
    3TMC2    O513896   0.637   2.330  14.814
    3TMC2    H513897   0.708   2.311  14.749
    4TMC2    C113898   0.450   2.936  13.975
    4TMC2    C213899   0.577   2.981  13.958
    4TMC2    C313900   0.672   2.888  13.936
    4TMC2    C413901   0.423   2.800  13.983
    4TMC2    C513902   0.525   2.707  13.972
    4TMC2    C613903   0.655   2.748  13.949
    4TMC2     C13904   0.340   3.021  14.014
    4TMC2     O13905   0.372   3.133  14.056
    4TMC2     H13906   0.595   3.085  13.981
    4TMC2    H113907   0.323   2.769  14.012
    4TMC2    H213908   0.735   2.675  13.945
    4TMC2    C713909   0.508   2.574  14.028
    4TMC2    C813910   0.812   2.926  13.893
    4TMC2    O113911   0.609   2.514  14.069
    4TMC2    O213912   0.917   2.868  13.920
    4TMC2    O513913   0.805   3.049  13.837
    4TMC2    H513914   0.720   3.080  13.800
    5MPD2     C13915   4.618   3.075  14.096
    5MPD2    C113916   4.643   2.995  13.982
    5MPD2    C213917   4.768   2.966  13.942
    5MPD2    C313918   0.098   3.011  14.015
    5MPD2    C413919   0.078   3.066  14.137
    5MPD2    C513920   4.729   3.099  14.181
    5MPD2     H13921   0.009   2.914  13.849
    5MPD2    H113922   0.160   3.093  14.202
    5MPD2    H213923   4.517   3.097  14.127
    5MPD2    H313924   4.721   3.170  14.262
    5MPD2     N13925   0.224   2.982  13.959
    5MPD2    H513926   0.213   2.909  13.889
    5MPD2    N113927   4.533   2.959  13.897
    5MPD2    H713928   4.436   2.959  13.926
    6MPD1     C13929   3.390   4.217  13.737
    6MPD1    C113930   3.495   4.222  13.645
    6MPD1    C213931   3.557   4.097  13.618
    6MPD1    C313932   3.499   3.979  13.656
    6MPD1    C413933   3.388   3.983  13.744
    6MPD1    C513934   3.334   4.107  13.781
    6MPD1     H13935   3.646   4.108  13.558
    6MPD1    H113936   3.348   3.896  13.794
    6MPD1    H213937   3.347   4.313  13.763
    6MPD1    H313938   3.251   4.113  13.850
    6MPD1     N13939   3.550   3.859  13.617
    6MPD1    H513940   3.490   3.782  13.646
    6MPD1    N113941   3.557   4.344  13.603
    6MPD1    H613942   3.489   4.414  13.632
    6MPD1    H713943   3.585   4.342  13.505
    7MPD2     C13944   3.717   3.238  13.659
    7MPD2    C113945   3.828   3.246  13.744
    7MPD2    C213946   3.898   3.135  13.784
    7MPD2    C313947   3.884   3.023  13.699
    7MPD2    C413948   3.789   3.024  13.609
    7MPD2    C513949   3.703   3.127  13.585
    7MPD2     H13950   3.981   3.144  13.854
    7MPD2    H113951   3.770   2.941  13.541
    7MPD2    H213952   3.645   3.319  13.667
    7MPD2    H313953   3.613   3.115  13.525
    7MPD2     N13954   3.973   2.909  13.703
    7MPD2    H513955   3.963   2.843  13.627
    7MPD2    N113956   3.854   3.361  13.825
    7MPD2    H713957   3.912   3.350  13.908
    8TMC3    C113958   4.184   2.806  13.738
    8TMC3    C213959   4.305   2.834  13.800
    8TMC3    C313960   4.416   2.846  13.720
    8TMC3    C413961   4.177   2.796  13.599
    8TMC3    C513962   4.291   2.832  13.530
    8TMC3    C613963   4.408   2.843  13.590
    8TMC3     C13964   4.073   2.884  13.796
    8TMC3     O13965   4.095   2.958  13.892
    8TMC3     H13966   4.307   2.854  13.907
    8TMC3    H113967   4.082   2.770  13.555
    8TMC3    H213968   4.485   2.878  13.523
    8TMC3    C713969   4.263   2.938  13.434
    8TMC3    C813970   4.540   2.909  13.767
    8TMC3    O113971   4.345   3.031  13.423
    8TMC3    O213972   4.636   2.918  13.690
    9TMC3    C113973   3.684   3.689  13.525
    9TMC3    C213974   3.753   3.638  13.418
    9TMC3    C313975   3.853   3.547  13.440
    9TMC3    C413976   3.695   3.641  13.652
    9TMC3    C513977   3.780   3.534  13.667
    9TMC3    C613978   3.871   3.498  13.571
    9TMC3     C13979   3.651   3.826  13.527
    9TMC3     O13980   3.732   3.898  13.463
    9TMC3     H13981   3.738   3.685  13.321
    9TMC3    H113982   3.626   3.668  13.731
    9TMC3    H213983   3.938   3.415  13.593
    9TMC3    C713984   3.802   3.490  13.806
    9TMC3    C813985   3.887   3.464  13.319
    9TMC3    O113986   3.796   3.589  13.880
    9TMC3    O213987   3.835   3.490  13.215
   10MPD2     C13988   3.964   2.971  13.208
   10MPD2    C113989   4.068   3.004  13.293
   10MPD2    C213990   4.074   3.139  13.335
   10MPD2    C313991   3.989   3.234  13.279
   10MPD2    C413992   3.888   3.195  13.187
   10MPD2    C513993   3.880   3.062  13.155
   10MPD2     H13994   4.138   3.175  13.415
   10MPD2    H113995   3.834   3.268  13.129
   10MPD2    H213996   3.940   2.868  13.184
   10MPD2    H313997   3.797   3.030  13.094
   10MPD2     N13998   3.966   3.358  13.358
   10MPD2    H513999   4.017   3.360  13.446
   10MPD2    N114000   4.155   2.909  13.354
   10MPD2    H714001   4.131   2.812  13.335
   11MPD2     C14002   0.230   2.244  14.320
   11MPD2    C114003   0.369   2.267  14.307
   11MPD2    C214004   0.419   2.358  14.217
   11MPD2    C314005   0.336   2.431  14.131
   11MPD2    C414006   0.203   2.395  14.130
   11MPD2    C514007   0.151   2.302  14.226
   11MPD2     H14008   0.527   2.368  14.215
   11MPD2    H114009   0.136   2.444  14.060
   11MPD2    H214010   0.186   2.176  14.391
   11MPD2    H314011   0.046   2.276  14.216
   11MPD2     N14012   0.378   2.528  14.035
   11MPD2    H514013   0.302   2.573  13.986
   11MPD2    N114014   0.451   2.189  14.388
   11MPD2    H714015   0.549   2.215  14.394
    1MPD1     C14016   2.238   3.146  17.439
    1MPD1    C114017   2.319   3.236  17.500
    1MPD1    C214018   2.429   3.280  17.430
    1MPD1    C314019   2.462   3.219  17.303
    1MPD1    C414020   2.382   3.124  17.250
    1MPD1    C514021   2.274   3.083  17.320
    1MPD1     H14022   2.484   3.360  17.478
    1MPD1    H114023   2.416   3.076  17.159
    1MPD1    H214024   2.144   3.113  17.482
    1MPD1    H314025   2.207   3.006  17.282
    1MPD1     N14026   2.568   3.263  17.221
    1MPD1    H514027   2.578   3.217  17.131
    1MPD1    N114028   2.281   3.289  17.622
    1MPD1    H614029   2.223   3.223  17.674
    1MPD1    H714030   2.357   3.326  17.679
    2MPD1     C14031   3.209   4.136  17.031
    2MPD1    C114032   3.219   4.052  16.927
    2MPD1    C214033   3.149   3.931  16.924
    2MPD1    C314034   3.071   3.899  17.029
    2MPD1    C414035   3.044   3.991  17.126
    2MPD1    C514036   3.113   4.107  17.130
    2MPD1     H14037   3.166   3.865  16.840
    2MPD1    H114038   2.976   3.968  17.207
    2MPD1    H214039   3.261   4.231  17.037
    2MPD1    H314040   3.102   4.171  17.217
    2MPD1     N14041   2.999   3.777  17.028
    2MPD1    H514042   3.014   3.713  16.951
    2MPD1    N114043   3.306   4.083  16.821
    2MPD1    H614044   3.353   4.171  16.843
    2MPD1    H714045   3.372   4.006  16.809
    3TMC3    C114046   2.856   3.609  17.083
    3TMC3    C214047   2.814   3.593  16.955
    3TMC3    C314048   2.725   3.490  16.934
    3TMC3    C414049   2.828   3.514  17.178
    3TMC3    C514050   2.742   3.410  17.149
    3TMC3    C614051   2.699   3.391  17.018
    3TMC3     C14052   2.918   3.735  17.127
    3TMC3     O14053   2.910   3.758  17.249
    3TMC3     H14054   2.813   3.678  16.888
    3TMC3    H114055   2.855   3.533  17.281
    3TMC3    H214056   2.631   3.310  16.997
    3TMC3    C714057   2.649   3.370  17.252
    3TMC3    C814058   2.663   3.474  16.796
    3TMC3    O114059   2.666   3.431  17.358
    3TMC3    O214060   2.569   3.396  16.781
    4MPD1     C14061   2.691   3.573  16.287
    4MPD1    C114062   2.790   3.640  16.353
    4MPD1    C214063   2.811   3.614  16.486
    4MPD1    C314064   2.728   3.539  16.564
    4MPD1    C414065   2.617   3.483  16.497
    4MPD1    C514066   2.607   3.492  16.358
    4MPD1     H14067   2.894   3.669  16.530
    4MPD1    H114068   2.540   3.423  16.543
    4MPD1    H214069   2.666   3.588  16.183
    4MPD1    H314070   2.521   3.457  16.303
    4MPD1     N14071   2.743   3.534  16.703
    4MPD1    H514072   2.819   3.591  16.739
    4MPD1    N114073   2.875   3.715  16.272
    4MPD1    H614074   2.923   3.782  16.332
    4MPD1    H714075   2.815   3.758  16.202
    1TCq1    O114076   4.350   3.067  12.255
    1TCq1    C114077   4.396   3.192  12.233
    1TCq1    O214078   4.457   3.265  12.312
    1TCq1    C214079   4.326   3.243  12.122
    1TCq1    C314080   4.315   3.165  12.009
    1TCq1    C414081   4.266   3.231  11.900
    1TCq1    C514082   4.214   3.357  11.907
    1TCq1    C614083   4.214   3.426  12.020
    1TCq1    C714084   4.274   3.370  12.132
    1TCq1    C814085   4.121   3.535  12.042
    1TCq1    O414086   4.119   3.592  12.149
    1TCq1    C914087   4.211   3.144  11.796
    1TCq1    O514088   4.153   3.200  11.701
    1TCq1    O614089   4.179   3.032  11.838
    1TCq1    H114090   4.291   3.034  12.184
    1TCq1    H214091   4.356   3.065  12.012
    1TCq1    H314092   4.164   3.396  11.819
    1TCq1    H414093   4.271   3.418  12.229
    2MPD1     C14094   3.769   3.885  11.885
    2MPD1    C114095   3.803   3.801  11.779
    2MPD1    C214096   3.897   3.701  11.801
    2MPD1    C314097   3.950   3.676  11.925
    2MPD1    C414098   3.909   3.757  12.027
    2MPD1    C514099   3.822   3.864  12.009
    2MPD1     H14100   3.933   3.637  11.721
    2MPD1    H114101   3.949   3.753  12.128
    2MPD1    H214102   3.719   3.981  11.877
    2MPD1    H314103   3.808   3.930  12.094
    2MPD1     N14104   4.042   3.568  11.932
    2MPD1    H514105   4.062   3.507  11.854
    2MPD1    N114106   3.757   3.828  11.653
    2MPD1    H614107   3.663   3.865  11.662
    2MPD1    H714108   3.760   3.751  11.587
    1TCq1    O114109   2.637   0.881  20.147
    1TCq1    C114110   2.555   0.777  20.113
    1TCq1    O214111   2.515   0.697  20.196
    1TCq1    C214112   2.528   0.783  19.973
    1TCq1    C314113   2.602   0.858  19.892
    1TCq1    C414114   2.571   0.852  19.760
    1TCq1    C514115   2.465   0.776  19.708
    1TCq1    C614116   2.386   0.710  19.798
    1TCq1    C714117   2.420   0.709  19.930
    1TCq1    C814118   2.272   0.631  19.753
    1TCq1    O414119   2.246   0.632  19.632
    1TCq1    C914120   2.679   0.882  19.666
    1TCq1    O514121   2.794   0.900  19.715
    1TCq1    O614122   2.650   0.888  19.540
    1TCq1    H114123   2.633   0.946  20.074
    1TCq1    H214124   2.705   0.878  19.919
    1TCq1    H314125   2.457   0.768  19.600
    1TCq1    H414126   2.368   0.659  20.011
    2MPD1     C14127   1.858   0.333  19.853
    2MPD1    C114128   1.926   0.357  19.969
    2MPD1    C214129   2.040   0.426  19.967
    2MPD1    C314130   2.100   0.476  19.845
    2MPD1    C414131   2.029   0.454  19.725
    2MPD1    C514132   1.909   0.389  19.737
    2MPD1     H14133   2.087   0.450  20.061
    2MPD1    H114134   2.066   0.484  19.628
    2MPD1    H214135   1.765   0.278  19.849
    2MPD1    H314136   1.851   0.373  19.647
    2MPD1     N14137   2.221   0.556  19.850
    2MPD1    H514138   2.266   0.559  19.941
    2MPD1    N114139   1.859   0.331  20.093
    2MPD1    H614140   1.796   0.252  20.082
    2MPD1    H714141   1.928   0.327  20.168
    1MPD1     C14142   0.302   3.294  12.894
    1MPD1    C114143   0.408   3.236  12.827
    1MPD1    C214144   0.479   3.299  12.733
    1MPD1    C314145   0.451   3.435  12.705
    1MPD1    C414146   0.332   3.483  12.761
    1MPD1    C514147   0.261   3.416  12.854
    1MPD1     H14148   0.551   3.249  12.670
    1MPD1    H114149   0.295   3.584  12.747
    1MPD1    H214150   0.242   3.233  12.961
    1MPD1    H314151   0.168   3.456  12.893
    1MPD1     N14152   0.518   3.494  12.597
    1MPD1    H514153   0.596   3.443  12.557
    1MPD1    N114154   0.426   3.102  12.856
    1MPD1    H614155   0.416   3.086  12.956
    1MPD1    H714156   0.515   3.063  12.824
    2MPD1     C14157   0.545   3.553  12.025
    2MPD1    C114158   0.463   3.543  11.913
    2MPD1    C214159   0.521   3.481  11.807
    2MPD1    C314160   0.653   3.440  11.799
    2MPD1    C414161   0.737   3.462  11.913
    2MPD1    C514162   0.677   3.518  12.026
    2MPD1     H14163   0.466   3.463  11.715
    2MPD1    H114164   0.839   3.427  11.925
    2MPD1    H214165   0.506   3.607  12.110
    2MPD1    H314166   0.736   3.539  12.114
    2MPD1     N14167   0.713   3.377  11.683
    2MPD1    H514168   0.812   3.354  11.682
    2MPD1    N114169   0.341   3.610  11.908
    2MPD1    H614170   0.276   3.565  11.844
    2MPD1    H714171   0.292   3.618  11.997
    3MPD1     C14172   0.187   3.069  10.899
    3MPD1    C114173   0.210   2.986  11.003
    3MPD1    C214174   0.329   2.997  11.072
    3MPD1    C314175   0.426   3.090  11.033
    3MPD1    C414176   0.398   3.178  10.935
    3MPD1    C514177   0.287   3.151  10.858
    3MPD1     H14178   0.350   2.934  11.158
    3MPD1    H114179   0.467   3.258  10.913
    3MPD1    H214180   0.092   3.062  10.847
    3MPD1    H314181   0.267   3.228  10.785
    3MPD1     N14182   0.523   3.124  11.127
    3MPD1    H514183   0.517   3.067  11.211
    3MPD1    N114184   0.112   2.917  11.058
    3MPD1    H614185   0.062   2.878  10.978
    3MPD1    H714186   0.136   2.839  11.119
    4MPD2     C14187   0.660   3.861  11.916
    4MPD2    C114188   0.754   3.903  12.004
    4MPD2    C214189   0.882   3.937  11.959
    4MPD2    C314190   0.917   3.910  11.830
    4MPD2    C414191   0.822   3.854  11.741
    4MPD2    C514192   0.697   3.834  11.787
    4MPD2     H14193   0.949   3.976  12.034
    4MPD2    H114194   0.854   3.829  11.640
    4MPD2    H214195   0.564   3.818  11.943
    4MPD2    H314196   0.627   3.782  11.722
    4MPD2     N14197   1.047   3.917  11.787
    4MPD2    H514198   1.077   3.884  11.696
    4MPD2    N114199   0.721   3.918  12.139
    4MPD2    H714200   0.801   3.938  12.199
    5TMC3    C114201   0.626   3.860  12.335
    5TMC3    C214202   0.536   3.770  12.387
    5TMC3    C314203   0.591   3.673  12.463
    5TMC3    C414204   0.752   3.875  12.371
    5TMC3    C514205   0.805   3.771  12.446
    5TMC3    C614206   0.726   3.666  12.487
    5TMC3     C14207   0.603   3.893  12.195
    5TMC3     O14208   0.489   3.877  12.149
    5TMC3     H14209   0.430   3.776  12.364
    5TMC3    H114210   0.814   3.961  12.350
    5TMC3    H214211   0.764   3.606  12.569
    5TMC3    C714212   0.934   3.740  12.381
    5TMC3    C814213   0.503   3.627  12.566
    5TMC3    O114214   0.963   3.809  12.283
    5TMC3    O214215   0.427   3.713  12.615
    6TMC3    C114216   0.709   3.303  11.453
    6TMC3    C214217   0.647   3.237  11.350
    6TMC3    C314218   0.711   3.237  11.226
    6TMC3    C414219   0.841   3.337  11.442
    6TMC3    C514220   0.903   3.320  11.319
    6TMC3    C614221   0.840   3.277  11.212
    6TMC3     C14222   0.632   3.336  11.569
    6TMC3     O14223   0.515   3.303  11.567
    6TMC3     H14224   0.542   3.212  11.355
    6TMC3    H114225   0.890   3.388  11.525
    6TMC3    H214226   0.897   3.270  11.120
    6TMC3    C714227   1.046   3.330  11.321
    6TMC3    C814228   0.627   3.213  11.109
    6TMC3    O114229   1.092   3.402  11.231
    6TMC3    O214230   0.663   3.263  11.001
    7MPD2     C14231   1.302   3.422  12.230
    7MPD2    C114232   1.294   3.559  12.214
    7MPD2    C214233   1.195   3.628  12.282
    7MPD2    C314234   1.103   3.551  12.364
    7MPD2    C414235   1.119   3.413  12.383
    7MPD2    C514236   1.215   3.351  12.305
    7MPD2     H14237   1.183   3.735  12.272
    7MPD2    H114238   1.039   3.357  12.431
    7MPD2    H214239   1.380   3.368  12.178
    7MPD2    H314240   1.216   3.243  12.297
    7MPD2     N14241   0.990   3.615  12.417
    7MPD2    H514242   0.947   3.578  12.501
    7MPD2    N114243   1.374   3.618  12.112
    7MPD2    H714244   1.409   3.550  12.046
    8TMC3    C114245   1.395   3.787  11.957
    8TMC3    C214246   1.400   3.698  11.851
    8TMC3    C314247   1.363   3.746  11.732
    8TMC3    C414248   1.334   3.909  11.941
    8TMC3    C514249   1.279   3.946  11.825
    8TMC3    C614250   1.301   3.866  11.716
    8TMC3     C14251   1.393   3.748  12.091
    8TMC3     O14252   1.394   3.825  12.185
    8TMC3     H14253   1.461   3.610  11.869
    8TMC3    H114254   1.316   3.970  12.029
    8TMC3    H214255   1.273   3.901  11.617
    8TMC3    C714256   1.144   3.992  11.851
    8TMC3    C814257   1.355   3.652  11.621
    8TMC3    O114258   1.131   4.068  11.947
    8TMC3    O214259   1.277   3.683  11.530
    9MPD2     C14260   1.449   3.297  11.621
    9MPD2    C114261   1.383   3.409  11.579
    9MPD2    C214262   1.280   3.391  11.486
    9MPD2    C314263   1.224   3.263  11.471
    9MPD2    C414264   1.287   3.155  11.522
    9MPD2    C514265   1.405   3.174  11.586
    9MPD2     H14266   1.233   3.475  11.436
    9MPD2    H114267   1.227   3.065  11.527
    9MPD2    H214268   1.537   3.302  11.684
    9MPD2    H314269   1.450   3.085  11.628
    9MPD2     N14270   1.100   3.246  11.409
    9MPD2    H514271   1.039   3.172  11.442
    9MPD2    N114272   1.422   3.536  11.641
    9MPD2    H714273   1.479   3.515  11.722
    1MPD1     C14274   0.924   2.493  17.071
    1MPD1    C114275   0.925   2.540  16.942
    1MPD1    C214276   0.840   2.479  16.850
    1MPD1    C314277   0.760   2.367  16.884
    1MPD1    C414278   0.771   2.321  17.014
    1MPD1    C514279   0.853   2.383  17.105
    1MPD1     H14280   0.841   2.525  16.752
    1MPD1    H114281   0.720   2.231  17.048
    1MPD1    H214282   0.991   2.543  17.141
    1MPD1    H314283   0.850   2.361  17.211
    1MPD1     N14284   0.693   2.283  16.789
    1MPD1    H514285   0.661   2.198  16.834
    1MPD1    N114286   0.983   2.669  16.922
    1MPD1    H614287   1.068   2.673  16.979
    1MPD1    H714288   1.005   2.690  16.825
    2TMC2    C114289   0.528   2.071  16.416
    2TMC2    C214290   0.440   2.005  16.499
    2TMC2    C314291   0.425   2.061  16.627
    2TMC2    C414292   0.611   2.171  16.459
    2TMC2    C514293   0.598   2.213  16.594
    2TMC2    C614294   0.496   2.160  16.674
    2TMC2     C14295   0.545   2.012  16.288
    2TMC2     O14296   0.528   1.890  16.273
    2TMC2     H14297   0.383   1.919  16.468
    2TMC2    H114298   0.684   2.221  16.396
    2TMC2    H214299   0.477   2.199  16.773
    2TMC2    C714300   0.676   2.313  16.658
    2TMC2    C814301   0.341   1.984  16.717
    2TMC2    O114302   0.715   2.405  16.592
    2TMC2    O214303   0.323   1.865  16.710
    2TMC2    O514304   0.272   2.069  16.794
    2TMC2    H514305   0.258   2.153  16.745
    3MPD1     C14306   0.702   2.016  15.791
    3MPD1    C114307   0.661   2.141  15.825
    3MPD1    C214308   0.617   2.170  15.950
    3MPD1    C314309   0.602   2.065  16.051
    3MPD1    C414310   0.647   1.939  16.013
    3MPD1    C514311   0.696   1.919  15.890
    3MPD1     H14312   0.590   2.271  15.980
    3MPD1    H114313   0.654   1.852  16.077
    3MPD1    H214314   0.751   1.981  15.701
    3MPD1    H314315   0.739   1.821  15.871
    3MPD1     N14316   0.565   2.100  16.183
    3MPD1    H514317   0.555   2.200  16.198
    3MPD1    N114318   0.651   2.238  15.727
    3MPD1    H614319   0.672   2.329  15.767
    3MPD1    H714320   0.711   2.224  15.646
    1TCq1    O114321   2.966   1.031  13.202
    1TCq1    C114322   2.976   0.974  13.326
    1TCq1    O214323   2.928   0.866  13.350
    1TCq1    C214324   3.057   1.052  13.409
    1TCq1    C314325   3.019   1.072  13.539
    1TCq1    C414326   3.100   1.144  13.624
    1TCq1    C514327   3.219   1.193  13.581
    1TCq1    C614328   3.256   1.166  13.455
    1TCq1    C714329   3.179   1.097  13.369
    1TCq1    C814330   3.392   1.201  13.410
    1TCq1    O414331   3.397   1.218  13.286
    1TCq1    C914332   3.049   1.177  13.754
    1TCq1    O514333   3.108   1.265  13.820
    1TCq1    O614334   2.958   1.102  13.795
    1TCq1    H114335   3.014   1.117  13.197
    1TCq1    H214336   2.922   1.032  13.566
    1TCq1    H314337   3.281   1.247  13.651
    1TCq1    H414338   3.219   1.072  13.272
    2MPD2     C14339   3.644   1.348  13.417
    2MPD2    C114340   3.606   1.261  13.511
    2MPD2    C214341   3.687   1.239  13.621
    2MPD2    C314342   3.815   1.293  13.624
    2MPD2    C414343   3.852   1.386  13.521
    2MPD2    C514344   3.767   1.413  13.422
    2MPD2     H14345   3.652   1.174  13.700
    2MPD2    H114346   3.950   1.433  13.520
    2MPD2    H214347   3.586   1.369  13.328
    2MPD2    H314348   3.798   1.477  13.340
    2MPD2     N14349   3.905   1.243  13.724
    2MPD2    H514350   3.869   1.181  13.796
    2MPD2    N114351   3.479   1.198  13.513
    2MPD2    H714352   3.452   1.151  13.599
    3TCq1    O114353   4.542   1.032  13.923
    3TCq1    C114354   4.466   1.119  13.859
    3TCq1    O214355   4.505   1.172  13.758
    3TCq1    C214356   4.323   1.109  13.895
    3TCq1    C314357   4.283   1.098  14.024
    3TCq1    C414358   4.151   1.125  14.054
    3TCq1    C514359   4.060   1.179  13.966
    3TCq1    C614360   4.114   1.206  13.840
    3TCq1    C714361   4.242   1.163  13.804
    3TCq1    C814362   4.038   1.274  13.734
    3TCq1    O414363   4.103   1.338  13.650
    3TCq1    C914364   4.106   1.096  14.190
    3TCq1    O514365   3.986   1.122  14.216
    3TCq1    O614366   4.187   1.029  14.262
    3TCq1    H114367   4.502   0.984  13.998
    3TCq1    H214368   4.339   1.045  14.101
    3TCq1    H314369   3.958   1.197  13.996
    3TCq1    H414370   4.285   1.187  13.708
    1MPD2     C14371   3.103   2.502  15.292
    1MPD2    C114372   3.004   2.423  15.235
    1MPD2    C214373   3.053   2.313  15.159
    1MPD2    C314374   3.188   2.284  15.154
    1MPD2    C414375   3.279   2.364  15.218
    1MPD2    C514376   3.236   2.476  15.282
    1MPD2     H14377   2.983   2.243  15.115
    1MPD2    H114378   3.382   2.330  15.222
    1MPD2    H214379   3.076   2.587  15.353
    1MPD2    H314380   3.314   2.526  15.339
    1MPD2     N14381   3.235   2.166  15.092
    1MPD2    H514382   3.331   2.136  15.106
    1MPD2    N114383   2.866   2.444  15.264
    1MPD2    H714384   2.843   2.540  15.288
    2TMC3    C114385   2.641   2.400  15.286
    2TMC3    C214386   2.560   2.284  15.302
    2TMC3    C314387   2.441   2.281  15.233
    2TMC3    C414388   2.592   2.507  15.216
    2TMC3    C514389   2.469   2.499  15.145
    2TMC3    C614390   2.394   2.390  15.159
    2TMC3     C14391   2.768   2.353  15.240
    2TMC3     O14392   2.772   2.228  15.220
    2TMC3     H14393   2.596   2.196  15.354
    2TMC3    H114394   2.658   2.592  15.206
    2TMC3    H214395   2.303   2.372  15.103
    2TMC3    C714396   2.434   2.591  15.044
    2TMC3    C814397   2.424   2.156  15.157
    2TMC3    O114398   2.323   2.590  14.999
    2TMC3    O214399   2.321   2.140  15.091
    3TCq1    O114400   2.890   3.603  14.522
    3TCq1    C114401   3.010   3.557  14.573
    3TCq1    O214402   3.117   3.621  14.576
    3TCq1    C214403   2.995   3.434  14.660
    3TCq1    C314404   3.068   3.413  14.771
    3TCq1    C414405   3.039   3.313  14.859
    3TCq1    C514406   2.937   3.225  14.837
    3TCq1    C614407   2.867   3.232  14.716
    3TCq1    C714408   2.896   3.340  14.632
    3TCq1    C814409   2.746   3.152  14.688
    3TCq1    O414410   2.668   3.194  14.599
    3TCq1    C914411   3.104   3.292  14.988
    3TCq1    O514412   3.216   3.349  15.009
    3TCq1    O614413   3.063   3.191  15.055
    3TCq1    H114414   2.811   3.551  14.548
    3TCq1    H214415   3.144   3.483  14.803
    3TCq1    H314416   2.924   3.139  14.901
    3TCq1    H414417   2.841   3.336  14.539
    4MPD2     C14418   2.531   2.942  14.681
    4MPD2    C114419   2.627   2.955  14.776
    4MPD2    C214420   2.625   2.868  14.883
    4MPD2    C314421   2.536   2.766  14.889
    4MPD2    C414422   2.435   2.761  14.794
    4MPD2    C514423   2.431   2.846  14.687
    4MPD2     H14424   2.699   2.890  14.960
    4MPD2    H114425   2.356   2.686  14.793
    4MPD2    H214426   2.526   3.005  14.593
    4MPD2    H314427   2.342   2.838  14.626
    4MPD2     N14428   2.537   2.681  15.010
    4MPD2    H514429   2.628   2.684  15.055
    4MPD2    N114430   2.734   3.049  14.775
    4MPD2    H714431   2.809   3.028  14.840
    5MPD2     C14432   2.470   1.884  15.027
    5MPD2    C114433   2.560   1.961  15.097
    5MPD2    C214434   2.689   1.915  15.110
    5MPD2    C314435   2.727   1.797  15.049
    5MPD2    C414436   2.637   1.726  14.966
    5MPD2    C514437   2.507   1.776  14.959
    5MPD2     H14438   2.756   1.977  15.168
    5MPD2    H114439   2.669   1.633  14.920
    5MPD2    H214440   2.365   1.910  15.027
    5MPD2    H314441   2.434   1.722  14.900
    5MPD2     N14442   2.860   1.751  15.039
    5MPD2    H514443   2.888   1.677  14.975
    5MPD2    N114444   2.542   2.084  15.152
    5MPD2    H714445   2.620   2.132  15.197
    6TCq2    C114446   2.956   1.781  15.131
    6TCq2    O214447   2.940   1.820  15.248
    6TCq2    C214448   3.092   1.777  15.084
    6TCq2    C314449   3.187   1.756  15.182
    6TCq2    C414450   3.305   1.826  15.180
    6TCq2    C514451   3.318   1.930  15.085
    6TCq2    C614452   3.218   1.951  14.997
    6TCq2    C714453   3.110   1.867  14.982
    6TCq2    C814454   3.159   2.087  15.003
    6TCq2    O414455   3.059   2.115  14.940
    6TCq2    C914456   3.394   1.822  15.292
    6TCq2    O514457   3.482   1.911  15.284
    6TCq2    O614458   3.343   1.783  15.398
    6TCq2    H214459   3.159   1.689  15.263
    6TCq2    H314460   3.409   1.987  15.095
    6TCq2    H414461   3.024   1.892  14.921
  945SOL     OW14462   3.222   3.351  20.772
  945SOL    HW114463   3.193   3.420  20.832
  945SOL    HW214464   3.274   3.397  20.706
  946SOL     OW14465   1.094   2.846   5.646
  946SOL    HW114466   1.009   2.829   5.686
  946SOL    HW214467   1.078   2.920   5.587
  947SOL     OW14468   4.094   4.711  19.890
  947SOL    HW114469   4.166   4.774  19.889
  947SOL    HW214470   4.135   4.627  19.868
  948SOL     OW14471   2.388   0.701  25.296
  948SOL    HW114472   2.335   0.631  25.258
  948SOL    HW214473   2.325   0.755  25.344
  949SOL     OW14474   2.297   4.544   0.536
  949SOL    HW114475   2.275   4.454   0.514
  949SOL    HW214476   2.388   4.540   0.566
  950SOL     OW14477   3.292   4.536  27.158
  950SOL    HW114478   3.219   4.573  27.207
  950SOL    HW214479   3.330   4.471  27.217
  951SOL     OW14480   0.724   2.983   4.642
  951SOL    HW114481   0.789   2.945   4.584
  951SOL    HW214482   0.647   2.927   4.632
  952SOL     OW14483   1.309   3.160   4.429
  952SOL    HW114484   1.321   3.151   4.524
  952SOL    HW214485   1.218   3.135   4.414
  953SOL     OW14486   2.790   1.291  25.690
  953SOL    HW114487   2.753   1.236  25.621
  953SOL    HW214488   2.715   1.338  25.726
  954SOL     OW14489   0.344   3.292   5.341
  954SOL    HW114490   0.275   3.229   5.320
  954SOL    HW214491   0.412   3.240   5.383
  955SOL     OW14492   1.518   4.199  10.133
  955SOL    HW114493   1.471   4.119  10.110
  955SOL    HW214494   1.466   4.238  10.203
  956SOL     OW14495   3.146   2.011   5.705
  956SOL    HW114496   3.210   2.041   5.640
  956SOL    HW214497   3.063   2.050   5.676
  957SOL     OW14498   0.850   2.265  27.685
  957SOL    HW114499   0.799   2.331  27.732
  957SOL    HW214500   0.880   2.205  27.753
  958SOL     OW14501   3.798   2.682  17.660
  958SOL    HW114502   3.854   2.618  17.615
  958SOL    HW214503   3.744   2.720  17.590
  959SOL     OW14504   4.479   1.394  28.237
  959SOL    HW114505   4.409   1.406  28.301
  959SOL    HW214506   4.555   1.367  28.289
  960SOL     OW14507   2.913   0.423  25.305
  960SOL    HW114508   2.867   0.404  25.224
  960SOL    HW214509   3.006   0.415  25.282
  961SOL     OW14510   3.413   0.179  26.130
  961SOL    HW114511   3.380   0.207  26.216
  961SOL    HW214512   3.408   0.083  26.132
  962SOL     OW14513   2.470   2.934   9.792
  962SOL    HW114514   2.537   2.972   9.735
  962SOL    HW214515   2.388   2.953   9.747
  963SOL     OW14516   0.026   4.629   9.645
  963SOL    HW114517   4.719   4.660   9.626
  963SOL    HW214518   0.077   4.709   9.659
  964SOL     OW14519   4.184   4.049   2.661
  964SOL    HW114520   4.190   4.141   2.634
  964SOL    HW214521   4.151   4.053   2.751
  965SOL     OW14522   4.133   1.631   0.164
  965SOL    HW114523   4.174   1.716   0.146
  965SOL    HW214524   4.205   1.576   0.195
  966SOL     OW14525   1.780   0.654   8.921
  966SOL    HW114526   1.771   0.697   9.006
  966SOL    HW214527   1.697   0.608   8.909
  967SOL     OW14528   0.344   0.878  20.507
  967SOL    HW114529   0.342   0.873  20.603
  967SOL    HW214530   0.282   0.812  20.478
  968SOL     OW14531   0.838   3.312   0.070
  968SOL    HW114532   0.931   3.319   0.090
  968SOL    HW214533   0.825   3.220   0.046
  969SOL     OW14534   3.536   3.070   6.669
  969SOL    HW114535   3.452   3.106   6.698
  969SOL    HW214536   3.572   3.137   6.611
  970SOL     OW14537   1.897   3.223   2.455
  970SOL    HW114538   1.879   3.168   2.378
  970SOL    HW214539   1.992   3.223   2.463
  971SOL     OW14540   3.008   2.555   8.775
  971SOL    HW114541   3.026   2.644   8.804
  971SOL    HW214542   2.988   2.564   8.682
  972SOL     OW14543   0.007   0.710   9.923
  972SOL    HW114544   4.721   0.644   9.938
  972SOL    HW214545   4.739   0.788   9.895
  973SOL     OW14546   3.040   0.114  23.140
  973SOL    HW114547   3.122   0.138  23.184
  973SOL    HW214548   3.020   0.026  23.172
  974SOL     OW14549   0.446   2.558  27.111
  974SOL    HW114550   0.383   2.594  27.049
  974SOL    HW214551   0.526   2.545  27.059
  975SOL     OW14552   2.902   4.770   8.262
  975SOL    HW114553   2.839   0.019   8.196
  975SOL    HW214554   2.983   0.035   8.240
  976SOL     OW14555   1.481   4.128  11.237
  976SOL    HW114556   1.514   4.039  11.247
  976SOL    HW214557   1.423   4.141  11.312
  977SOL     OW14558   3.332   4.663  10.095
  977SOL    HW114559   3.360   4.754  10.104
  977SOL    HW214560   3.387   4.628  10.025
  978SOL     OW14561   2.751   3.601  28.381
  978SOL    HW114562   2.803   3.659  28.437
  978SOL    HW214563   2.690   3.659  28.336
  979SOL     OW14564   0.882   4.369  10.559
  979SOL    HW114565   0.875   4.346  10.652
  979SOL    HW214566   0.881   4.465  10.557
  980SOL     OW14567   1.012   2.954   2.925
  980SOL    HW114568   0.938   2.939   2.866
  980SOL    HW214569   1.080   2.991   2.869
  981SOL     OW14570   2.141   0.614  28.123
  981SOL    HW114571   2.230   0.579  28.128
  981SOL    HW214572   2.105   0.602  28.211
  982SOL     OW14573   4.310   4.213   5.234
  982SOL    HW114574   4.263   4.295   5.219
  982SOL    HW214575   4.381   4.237   5.293
  983SOL     OW14576   2.123   3.236  25.300
  983SOL    HW114577   2.038   3.193  25.307
  983SOL    HW214578   2.104   3.318  25.254
  984SOL     OW14579   0.657   4.043   2.810
  984SOL    HW114580   0.729   3.982   2.826
  984SOL    HW214581   0.601   3.998   2.746
  985SOL     OW14582   1.678   1.587   6.093
  985SOL    HW114583   1.736   1.513   6.075
  985SOL    HW214584   1.736   1.657   6.124
  986SOL     OW14585   0.439   3.378   5.725
  986SOL    HW114586   0.377   3.426   5.781
  986SOL    HW214587   0.434   3.423   5.640
  987SOL     OW14588   1.489   0.984   6.491
  987SOL    HW114589   1.437   1.004   6.569
  987SOL    HW214590   1.508   1.069   6.452
  988SOL     OW14591   3.394   2.181  25.167
  988SOL    HW114592   3.396   2.085  25.164
  988SOL    HW214593   3.479   2.206  25.204
  989SOL     OW14594   2.997   1.377  23.737
  989SOL    HW114595   2.980   1.331  23.655
  989SOL    HW214596   3.039   1.459  23.710
  990SOL     OW14597   4.244   4.304  10.164
  990SOL    HW114598   4.338   4.309  10.149
  990SOL    HW214599   4.236   4.265  10.251
  991SOL     OW14600   4.384   0.479  17.238
  991SOL    HW114601   4.335   0.561  17.230
  991SOL    HW214602   4.469   0.498  17.197
  992SOL     OW14603   3.193   4.708  24.850
  992SOL    HW114604   3.259   4.701  24.919
  992SOL    HW214605   3.116   4.743  24.895
  993SOL     OW14606   3.706   2.864  21.680
  993SOL    HW114607   3.634   2.803  21.663
  993SOL    HW214608   3.785   2.812  21.665
  994SOL     OW14609   3.357   4.034   9.257
  994SOL    HW114610   3.327   3.987   9.335
  994SOL    HW214611   3.419   4.099   9.291
  995SOL     OW14612   1.581   1.339  21.722
  995SOL    HW114613   1.561   1.264  21.778
  995SOL    HW214614   1.589   1.412  21.783
  996SOL     OW14615   2.911   0.597   1.812
  996SOL    HW114616   2.821   0.621   1.834
  996SOL    HW214617   2.910   0.584   1.717
  997SOL     OW14618   4.396   4.682  10.723
  997SOL    HW114619   4.464   4.706  10.787
  997SOL    HW214620   4.353   4.606  10.761
  998SOL     OW14621   4.578   3.418   7.633
  998SOL    HW114622   4.557   3.502   7.593
  998SOL    HW214623   4.504   3.401   7.692
  999SOL     OW14624   4.440   2.708  26.976
  999SOL    HW114625   4.480   2.750  27.052
  999SOL    HW214626   4.500   2.726  26.904
 1000SOL     OW14627   3.693   2.309   5.427
 1000SOL    HW114628   3.640   2.353   5.360
 1000SOL    HW214629   3.650   2.224   5.439
 1001SOL     OW14630   4.323   2.082   8.750
 1001SOL    HW114631   4.408   2.078   8.706
 1001SOL    HW214632   4.290   1.992   8.746
 1002SOL     OW14633   4.452   1.152  21.302
 1002SOL    HW114634   4.509   1.091  21.349
 1002SOL    HW214635   4.384   1.176  21.365
 1003SOL     OW14636   2.129   0.589  27.709
 1003SOL    HW114637   2.133   0.629  27.796
 1003SOL    HW214638   2.040   0.554  27.703
 1004SOL     OW14639   3.058   0.893  18.348
 1004SOL    HW114640   3.148   0.881  18.378
 1004SOL    HW214641   3.034   0.980  18.379
 1005SOL     OW14642   3.748   4.656  26.231
 1005SOL    HW114643   3.835   4.617  26.244
 1005SOL    HW214644   3.699   4.589  26.184
 1006SOL     OW14645   0.876   3.667  24.928
 1006SOL    HW114646   0.908   3.705  24.846
 1006SOL    HW214647   0.830   3.739  24.971
 1007SOL     OW14648   4.329   1.121   6.537
 1007SOL    HW114649   4.423   1.131   6.554
 1007SOL    HW214650   4.305   1.041   6.583
 1008SOL     OW14651   3.514   2.748  27.193
 1008SOL    HW114652   3.460   2.783  27.264
 1008SOL    HW214653   3.500   2.653  27.198
 1009SOL     OW14654   0.091   0.047   2.999
 1009SOL    HW114655   0.070   0.030   3.091
 1009SOL    HW214656   0.115   4.742   2.963
 1010SOL     OW14657   0.830   0.624  10.904
 1010SOL    HW114658   0.858   0.548  10.955
 1010SOL    HW214659   0.798   0.686  10.970
 1011SOL     OW14660   2.582   3.953  24.248
 1011SOL    HW114661   2.622   3.947  24.335
 1011SOL    HW214662   2.653   3.982  24.190
 1012SOL     OW14663   1.586   4.630  10.120
 1012SOL    HW114664   1.531   4.701  10.153
 1012SOL    HW214665   1.641   4.607  10.195
 1013SOL     OW14666   1.747   4.631  21.394
 1013SOL    HW114667   1.696   4.585  21.327
 1013SOL    HW214668   1.740   4.723  21.370
 1014SOL     OW14669   3.197   1.556  28.282
 1014SOL    HW114670   3.251   1.499  28.227
 1014SOL    HW214671   3.127   1.499  28.313
 1015SOL     OW14672   4.053   2.796  17.372
 1015SOL    HW114673   3.977   2.747  17.403
 1015SOL    HW214674   4.105   2.731  17.324
 1016SOL     OW14675   1.888   4.707  22.546
 1016SOL    HW114676   1.951   4.774  22.573
 1016SOL    HW214677   1.819   4.711  22.612
 1017SOL     OW14678   3.128   2.347  27.967
 1017SOL    HW114679   3.214   2.305  27.976
 1017SOL    HW214680   3.066   2.282  28.000
 1018SOL     OW14681   3.499   3.359  27.990
 1018SOL    HW114682   3.517   3.265  27.985
 1018SOL    HW214683   3.540   3.387  28.072
 1019SOL     OW14684   0.446   2.927  24.037
 1019SOL    HW114685   0.367   2.879  24.012
 1019SOL    HW214686   0.414   3.011  24.070
 1020SOL     OW14687   1.710   3.301  27.373
 1020SOL    HW114688   1.716   3.371  27.308
 1020SOL    HW214689   1.658   3.338  27.444
 1021SOL     OW14690   2.697   1.805   5.680
 1021SOL    HW114691   2.754   1.866   5.633
 1021SOL    HW214692   2.740   1.720   5.672
 1022SOL     OW14693   1.169   1.312  27.917
 1022SOL    HW114694   1.136   1.351  27.998
 1022SOL    HW214695   1.247   1.363  27.896
 1023SOL     OW14696   0.244   1.110   4.885
 1023SOL    HW114697   0.339   1.117   4.890
 1023SOL    HW214698   0.223   1.031   4.934
 1024SOL     OW14699   3.886   2.790   0.957
 1024SOL    HW114700   3.875   2.871   0.906
 1024SOL    HW214701   3.882   2.818   1.048
 1025SOL     OW14702   0.124   0.559   8.468
 1025SOL    HW114703   0.035   0.590   8.485
 1025SOL    HW214704   0.173   0.583   8.546
 1026SOL     OW14705   4.638   3.794  21.702
 1026SOL    HW114706   4.652   3.824  21.612
 1026SOL    HW214707   4.628   3.874  21.753
 1027SOL     OW14708   1.004   2.954  19.468
 1027SOL    HW114709   0.915   2.920  19.457
 1027SOL    HW214710   0.993   3.037  19.515
 1028SOL     OW14711   0.099   2.024  25.866
 1028SOL    HW114712   0.151   2.074  25.929
 1028SOL    HW214713   0.076   2.088  25.798
 1029SOL     OW14714   2.903   1.435  17.990
 1029SOL    HW114715   2.899   1.424  17.895
 1029SOL    HW214716   2.837   1.375  18.024
 1030SOL     OW14717   2.257   0.971   1.937
 1030SOL    HW114718   2.227   1.052   1.979
 1030SOL    HW214719   2.234   0.902   1.999
 1031SOL     OW14720   3.505   4.100   4.087
 1031SOL    HW114721   3.470   4.099   3.998
 1031SOL    HW214722   3.430   4.078   4.142
 1032SOL     OW14723   0.983   2.988  20.894
 1032SOL    HW114724   1.019   2.968  20.808
 1032SOL    HW214725   0.891   2.964  20.888
 1033SOL     OW14726   1.062   3.393   3.714
 1033SOL    HW114727   1.116   3.362   3.787
 1033SOL    HW214728   1.090   3.484   3.701
 1034SOL     OW14729   2.968   4.116   3.167
 1034SOL    HW114730   2.893   4.061   3.144
 1034SOL    HW214731   2.960   4.129   3.262
 1035SOL     OW14732   1.781   3.811  27.762
 1035SOL    HW114733   1.787   3.726  27.718
 1035SOL    HW214734   1.815   3.874  27.699
 1036SOL     OW14735   2.350   1.146  24.610
 1036SOL    HW114736   2.353   1.214  24.678
 1036SOL    HW214737   2.428   1.093  24.626
 1037SOL     OW14738   3.929   1.581  19.693
 1037SOL    HW114739   3.898   1.504  19.646
 1037SOL    HW214740   3.906   1.565  19.784
 1038SOL     OW14741   0.196   1.305   1.451
 1038SOL    HW114742   0.162   1.241   1.513
 1038SOL    HW214743   0.250   1.254   1.391
 1039SOL     OW14744   2.722   0.974   7.666
 1039SOL    HW114745   2.711   0.882   7.643
 1039SOL    HW214746   2.814   0.981   7.690
 1040SOL     OW14747   1.658   1.011   3.897
 1040SOL    HW114748   1.609   1.008   3.979
 1040SOL    HW214749   1.610   1.073   3.842
 1041SOL     OW14750   3.196   0.538   6.939
 1041SOL    HW114751   3.291   0.541   6.949
 1041SOL    HW214752   3.169   0.630   6.934
 1042SOL     OW14753   0.834   1.675  21.754
 1042SOL    HW114754   0.860   1.647  21.842
 1042SOL    HW214755   0.829   1.594  21.703
 1043SOL     OW14756   4.354   4.597  20.727
 1043SOL    HW114757   4.445   4.603  20.755
 1043SOL    HW214758   4.359   4.577  20.633
 1044SOL     OW14759   1.907   3.451   2.133
 1044SOL    HW114760   1.914   3.498   2.050
 1044SOL    HW214761   1.824   3.481   2.171
 1045SOL     OW14762   0.551   4.082   0.752
 1045SOL    HW114763   0.487   4.150   0.773
 1045SOL    HW214764   0.545   4.020   0.825
 1046SOL     OW14765   1.159   0.853   5.154
 1046SOL    HW114766   1.148   0.786   5.221
 1046SOL    HW214767   1.213   0.920   5.196
 1047SOL     OW14768   1.189   2.323   4.038
 1047SOL    HW114769   1.156   2.270   4.111
 1047SOL    HW214770   1.191   2.263   3.964
 1048SOL     OW14771   1.013   2.631  18.597
 1048SOL    HW114772   0.923   2.624  18.629
 1048SOL    HW214773   1.035   2.543  18.568
 1049SOL     OW14774   1.278   0.105   8.924
 1049SOL    HW114775   1.318   0.022   8.951
 1049SOL    HW214776   1.187   0.098   8.952
 1050SOL     OW14777   1.760   2.449  22.126
 1050SOL    HW114778   1.824   2.473  22.194
 1050SOL    HW214779   1.729   2.362  22.152
 1051SOL     OW14780   2.294   0.700  23.501
 1051SOL    HW114781   2.238   0.772  23.472
 1051SOL    HW214782   2.260   0.676  23.587
 1052SOL     OW14783   1.197   2.238   8.020
 1052SOL    HW114784   1.258   2.311   8.011
 1052SOL    HW214785   1.190   2.225   8.115
 1053SOL     OW14786   1.760   1.468   9.439
 1053SOL    HW114787   1.782   1.382   9.476
 1053SOL    HW214788   1.815   1.475   9.361
 1054SOL     OW14789   0.969   0.582   9.856
 1054SOL    HW114790   0.959   0.674   9.833
 1054SOL    HW214791   0.906   0.536   9.800
 1055SOL     OW14792   2.576   0.111   6.474
 1055SOL    HW114793   2.633   0.188   6.476
 1055SOL    HW214794   2.539   0.111   6.386
 1056SOL     OW14795   1.122   3.153   2.145
 1056SOL    HW114796   1.138   3.080   2.205
 1056SOL    HW214797   1.187   3.142   2.075
 1057SOL     OW14798   3.347   0.986   8.267
 1057SOL    HW114799   3.349   0.937   8.185
 1057SOL    HW214800   3.439   0.991   8.294
 1058SOL     OW14801   0.714   0.581  23.344
 1058SOL    HW114802   0.685   0.502  23.390
 1058SOL    HW214803   0.785   0.615  23.399
 1059SOL     OW14804   0.811   2.435   7.722
 1059SOL    HW114805   0.755   2.468   7.651
 1059SOL    HW214806   0.819   2.509   7.782
 1060SOL     OW14807   0.223   3.581  19.693
 1060SOL    HW114808   0.131   3.603  19.710
 1060SOL    HW214809   0.244   3.627  19.612
 1061SOL     OW14810   0.981   2.778  22.541
 1061SOL    HW114811   1.033   2.807  22.466
 1061SOL    HW214812   1.004   2.839  22.611
 1062SOL     OW14813   4.242   4.114  22.278
 1062SOL    HW114814   4.273   4.180  22.340
 1062SOL    HW214815   4.166   4.075  22.321
 1063SOL     OW14816   3.014   2.827  20.344
 1063SOL    HW114817   3.108   2.816  20.329
 1063SOL    HW214818   2.997   2.920  20.327
 1064SOL     OW14819   0.857   4.141   8.319
 1064SOL    HW114820   0.831   4.162   8.409
 1064SOL    HW214821   0.782   4.094   8.283
 1065SOL     OW14822   2.303   1.982  18.970
 1065SOL    HW114823   2.288   1.892  18.999
 1065SOL    HW214824   2.344   1.974  18.884
 1066SOL     OW14825   0.099   1.969   7.342
 1066SOL    HW114826   0.072   2.046   7.292
 1066SOL    HW214827   0.142   2.005   7.419
 1067SOL     OW14828   0.137   1.586  19.751
 1067SOL    HW114829   0.109   1.676  19.732
 1067SOL    HW214830   0.072   1.531  19.707
 1068SOL     OW14831   3.888   3.560  26.210
 1068SOL    HW114832   3.793   3.571  26.203
 1068SOL    HW214833   3.925   3.630  26.156
 1069SOL     OW14834   1.586   4.746   1.755
 1069SOL    HW114835   1.624   0.052   1.767
 1069SOL    HW214836   1.590   4.732   1.660
 1070SOL     OW14837   3.834   0.779  20.990
 1070SOL    HW114838   3.892   0.839  21.037
 1070SOL    HW214839   3.893   0.713  20.953
 1071SOL     OW14840   4.029   1.406   3.761
 1071SOL    HW114841   3.989   1.431   3.844
 1071SOL    HW214842   4.071   1.486   3.730
 1072SOL     OW14843   4.473   1.745  24.815
 1072SOL    HW114844   4.520   1.696  24.883
 1072SOL    HW214845   4.515   1.831  24.814
 1073SOL     OW14846   3.782   3.617   3.188
 1073SOL    HW114847   3.851   3.673   3.153
 1073SOL    HW214848   3.774   3.643   3.280
 1074SOL     OW14849   0.916   3.076   1.244
 1074SOL    HW114850   0.879   3.003   1.294
 1074SOL    HW214851   0.843   3.108   1.191
 1075SOL     OW14852   0.404   4.236   2.453
 1075SOL    HW114853   0.426   4.270   2.366
 1075SOL    HW214854   0.426   4.143   2.449
 1076SOL     OW14855   4.577   3.235  22.151
 1076SOL    HW114856   4.575   3.145  22.183
 1076SOL    HW214857   4.518   3.235  22.075
 1077SOL     OW14858   1.593   4.587   2.642
 1077SOL    HW114859   1.567   4.562   2.553
 1077SOL    HW214860   1.621   4.505   2.683
 1078SOL     OW14861   2.581   4.740  26.866
 1078SOL    HW114862   2.578   4.647  26.890
 1078SOL    HW214863   2.496   4.758  26.826
 1079SOL     OW14864   0.492   0.066  22.226
 1079SOL    HW114865   0.511   0.118  22.148
 1079SOL    HW214866   0.501   4.756  22.198
 1080SOL     OW14867   2.206   3.004  21.673
 1080SOL    HW114868   2.223   3.098  21.669
 1080SOL    HW214869   2.185   2.987  21.765
 1081SOL     OW14870   0.940   2.626   4.659
 1081SOL    HW114871   0.980   2.665   4.736
 1081SOL    HW214872   0.846   2.643   4.669
 1082SOL     OW14873   4.661   3.409   0.019
 1082SOL    HW114874   4.580   3.452   0.045
 1082SOL    HW214875   4.717   3.414   0.096
 1083SOL     OW14876   2.917   1.620   8.970
 1083SOL    HW114877   2.829   1.652   8.991
 1083SOL    HW214878   2.929   1.640   8.877
 1084SOL     OW14879   1.052   4.116  25.570
 1084SOL    HW114880   1.113   4.042  25.570
 1084SOL    HW214881   1.107   4.192  25.551
 1085SOL     OW14882   0.152   3.131   8.455
 1085SOL    HW114883   0.132   3.196   8.523
 1085SOL    HW214884   0.131   3.175   8.373
 1086SOL     OW14885   3.814   2.380   0.833
 1086SOL    HW114886   3.841   2.340   0.751
 1086SOL    HW214887   3.840   2.317   0.900
 1087SOL     OW14888   2.577   4.032   8.564
 1087SOL    HW114889   2.585   4.089   8.488
 1087SOL    HW214890   2.492   4.055   8.602
 1088SOL     OW14891   3.572   0.484   4.323
 1088SOL    HW114892   3.623   0.406   4.303
 1088SOL    HW214893   3.503   0.453   4.382
 1089SOL     OW14894   2.666   3.579  26.499
 1089SOL    HW114895   2.572   3.588  26.513
 1089SOL    HW214896   2.674   3.507  26.436
 1090SOL     OW14897   2.771   2.283   5.797
 1090SOL    HW114898   2.727   2.287   5.882
 1090SOL    HW214899   2.713   2.330   5.738
 1091SOL     OW14900   4.013   1.132  17.860
 1091SOL    HW114901   4.063   1.161  17.937
 1091SOL    HW214902   4.045   1.187  17.789
 1092SOL     OW14903   0.793   2.542  26.642
 1092SOL    HW114904   0.806   2.573  26.552
 1092SOL    HW214905   0.801   2.621  26.696
 1093SOL     OW14906   2.798   3.309   7.108
 1093SOL    HW114907   2.796   3.321   7.203
 1093SOL    HW214908   2.711   3.275   7.086
 1094SOL     OW14909   1.586   3.415  28.263
 1094SOL    HW114910   1.610   3.388  28.352
 1094SOL    HW214911   1.664   3.460  28.230
 1095SOL     OW14912   3.907   1.717   2.000
 1095SOL    HW114913   3.859   1.781   1.947
 1095SOL    HW214914   3.976   1.768   2.043
 1096SOL     OW14915   1.912   1.450   9.219
 1096SOL    HW114916   2.005   1.435   9.238
 1096SOL    HW214917   1.882   1.369   9.177
 1097SOL     OW14918   2.016   1.451   8.346
 1097SOL    HW114919   1.950   1.446   8.415
 1097SOL    HW214920   2.094   1.412   8.385
 1098SOL     OW14921   0.248   3.723  20.875
 1098SOL    HW114922   0.167   3.672  20.880
 1098SOL    HW214923   0.230   3.790  20.810
 1099SOL     OW14924   0.737   1.091   5.069
 1099SOL    HW114925   0.819   1.137   5.051
 1099SOL    HW214926   0.678   1.159   5.101
 1100SOL     OW14927   2.812   3.214   3.616
 1100SOL    HW114928   2.882   3.175   3.668
 1100SOL    HW214929   2.856   3.247   3.537
 1101SOL     OW14930   0.506   3.985   9.423
 1101SOL    HW114931   0.596   4.000   9.395
 1101SOL    HW214932   0.488   4.056   9.484
 1102SOL     OW14933   1.465   2.141   1.847
 1102SOL    HW114934   1.436   2.216   1.899
 1102SOL    HW214935   1.466   2.173   1.757
 1103SOL     OW14936   2.864   2.164  11.615
 1103SOL    HW114937   2.798   2.106  11.654
 1103SOL    HW214938   2.944   2.144  11.663
 1104SOL     OW14939   0.405   1.711   8.993
 1104SOL    HW114940   0.393   1.631   8.943
 1104SOL    HW214941   0.317   1.738   9.018
 1105SOL     OW14942   3.917   0.950   5.721
 1105SOL    HW114943   3.939   0.899   5.643
 1105SOL    HW214944   3.833   0.913   5.750
 1106SOL     OW14945   2.254   4.737   4.193
 1106SOL    HW114946   2.318   0.008   4.241
 1106SOL    HW214947   2.250   4.777   4.106
 1107SOL     OW14948   1.750   1.928  27.124
 1107SOL    HW114949   1.672   1.976  27.094
 1107SOL    HW214950   1.803   1.917  27.045
 1108SOL     OW14951   1.093   1.150   7.995
 1108SOL    HW114952   1.114   1.149   7.902
 1108SOL    HW214953   1.143   1.224   8.030
 1109SOL     OW14954   1.876   3.163  27.204
 1109SOL    HW114955   1.840   3.154  27.116
 1109SOL    HW214956   1.805   3.203  27.255
 1110SOL     OW14957   0.269   3.965   7.185
 1110SOL    HW114958   0.348   3.930   7.144
 1110SOL    HW214959   0.206   3.971   7.113
 1111SOL     OW14960   0.650   2.597  22.655
 1111SOL    HW114961   0.672   2.649  22.732
 1111SOL    HW214962   0.732   2.589  22.607
 1112SOL     OW14963   1.226   3.501   8.688
 1112SOL    HW114964   1.293   3.433   8.682
 1112SOL    HW214965   1.268   3.579   8.653
 1113SOL     OW14966   1.783   1.070  24.418
 1113SOL    HW114967   1.771   0.988  24.465
 1113SOL    HW214968   1.712   1.071  24.353
 1114SOL     OW14969   1.090   4.515   0.872
 1114SOL    HW114970   1.123   4.559   0.950
 1114SOL    HW214971   1.057   4.586   0.817
 1115SOL     OW14972   0.323   0.850   7.844
 1115SOL    HW114973   0.229   0.862   7.855
 1115SOL    HW214974   0.338   0.758   7.865
 1116SOL     OW14975   3.921   2.308  25.839
 1116SOL    HW114976   3.978   2.381  25.815
 1116SOL    HW214977   3.973   2.256  25.900
 1117SOL     OW14978   3.311   2.141  25.960
 1117SOL    HW114979   3.392   2.097  25.933
 1117SOL    HW214980   3.243   2.075  25.949
 1118SOL     OW14981   1.826   1.871  21.100
 1118SOL    HW114982   1.871   1.848  21.181
 1118SOL    HW214983   1.746   1.915  21.128
 1119SOL     OW14984   2.408   3.518  23.221
 1119SOL    HW114985   2.387   3.513  23.314
 1119SOL    HW214986   2.438   3.430  23.199
 1120SOL     OW14987   0.999   3.568  11.036
 1120SOL    HW114988   1.032   3.538  11.121
 1120SOL    HW214989   0.959   3.653  11.055
 1121SOL     OW14990   1.704   1.245   6.547
 1121SOL    HW114991   1.665   1.232   6.634
 1121SOL    HW214992   1.770   1.176   6.540
 1122SOL     OW14993   1.644   3.478   8.101
 1122SOL    HW114994   1.684   3.400   8.062
 1122SOL    HW214995   1.690   3.552   8.060
 1123SOL     OW14996   2.370   0.695  21.930
 1123SOL    HW114997   2.429   0.665  21.999
 1123SOL    HW214998   2.427   0.710  21.855
 1124SOL     OW14999   0.964   1.765   9.143
 1124SOL    HW115000   0.886   1.801   9.101
 1124SOL    HW215001   0.936   1.679   9.174
 1125SOL     OW15002   2.657   0.825   6.890
 1125SOL    HW115003   2.590   0.778   6.840
 1125SOL    HW215004   2.629   0.917   6.886
 1126SOL     OW15005   1.387   2.821   3.188
 1126SOL    HW115006   1.435   2.819   3.271
 1126SOL    HW215007   1.310   2.766   3.204
 1127SOL     OW15008   1.423   4.488   1.251
 1127SOL    HW115009   1.368   4.444   1.187
 1127SOL    HW215010   1.372   4.565   1.278
 1128SOL     OW15011   1.956   2.664   9.610
 1128SOL    HW115012   1.994   2.628   9.530
 1128SOL    HW215013   1.962   2.759   9.600
 1129SOL     OW15014   1.616   3.977  22.287
 1129SOL    HW115015   1.549   3.909  22.291
 1129SOL    HW215016   1.698   3.931  22.304
 1130SOL     OW15017   2.904   0.320   1.907
 1130SOL    HW115018   2.963   0.395   1.903
 1130SOL    HW215019   2.840   0.336   1.838
 1131SOL     OW15020   3.231   0.630   9.289
 1131SOL    HW115021   3.294   0.592   9.228
 1131SOL    HW215022   3.211   0.716   9.253
 1132SOL     OW15023   1.321   1.862   5.008
 1132SOL    HW115024   1.376   1.820   4.942
 1132SOL    HW215025   1.273   1.929   4.960
 1133SOL     OW15026   2.109   3.795  27.614
 1133SOL    HW115027   2.093   3.760  27.702
 1133SOL    HW215028   2.074   3.884  27.617
 1134SOL     OW15029   3.104   0.028  13.092
 1134SOL    HW115030   3.036   0.013  13.157
 1134SOL    HW215031   3.057   0.057  13.014
 1135SOL     OW15032   4.334   4.336  23.832
 1135SOL    HW115033   4.329   4.244  23.807
 1135SOL    HW215034   4.380   4.335  23.916
 1136SOL     OW15035   3.637   1.965   2.036
 1136SOL    HW115036   3.695   1.955   1.961
 1136SOL    HW215037   3.613   2.058   2.036
 1137SOL     OW15038   2.703   1.612  17.800
 1137SOL    HW115039   2.748   1.679  17.749
 1137SOL    HW215040   2.612   1.640  17.802
 1138SOL     OW15041   0.498   3.974   1.764
 1138SOL    HW115042   0.565   3.967   1.696
 1138SOL    HW215043   0.477   3.883   1.786
 1139SOL     OW15044   1.460   2.273  12.233
 1139SOL    HW115045   1.435   2.181  12.236
 1139SOL    HW215046   1.444   2.305  12.322
 1140SOL     OW15047   0.178   2.819  27.999
 1140SOL    HW115048   0.207   2.774  28.079
 1140SOL    HW215049   0.088   2.790  27.986
 1141SOL     OW15050   3.761   4.472   7.305
 1141SOL    HW115051   3.680   4.423   7.316
 1141SOL    HW215052   3.743   4.534   7.234
 1142SOL     OW15053   3.955   1.849  20.321
 1142SOL    HW115054   3.991   1.761  20.311
 1142SOL    HW215055   3.928   1.853  20.413
 1143SOL     OW15056   0.354   0.355  21.725
 1143SOL    HW115057   0.286   0.418  21.749
 1143SOL    HW215058   0.309   0.271  21.724
 1144SOL     OW15059   2.023   1.035  26.337
 1144SOL    HW115060   2.073   1.023  26.256
 1144SOL    HW215061   1.936   1.001  26.317
 1145SOL     OW15062   1.894   4.268   0.078
 1145SOL    HW115063   1.989   4.278   0.077
 1145SOL    HW215064   1.879   4.177   0.105
 1146SOL     OW15065   0.794   3.212   3.078
 1146SOL    HW115066   0.702   3.228   3.057
 1146SOL    HW215067   0.842   3.262   3.012
 1147SOL     OW15068   0.213   1.185   7.839
 1147SOL    HW115069   0.290   1.210   7.788
 1147SOL    HW215070   0.157   1.139   7.776
 1148SOL     OW15071   1.574   1.209  18.259
 1148SOL    HW115072   1.603   1.182  18.346
 1148SOL    HW215073   1.480   1.193  18.258
 1149SOL     OW15074   3.394   0.670   0.191
 1149SOL    HW115075   3.453   0.727   0.241
 1149SOL    HW215076   3.388   0.590   0.243
 1150SOL     OW15077   4.322   0.371  28.073
 1150SOL    HW115078   4.245   0.332  28.033
 1150SOL    HW215079   4.322   0.462  28.042
 1151SOL     OW15080   1.006   2.277  26.380
 1151SOL    HW115081   0.912   2.281  26.398
 1151SOL    HW215082   1.029   2.185  26.392
 1152SOL     OW15083   0.160   1.598  22.142
 1152SOL    HW115084   0.076   1.637  22.120
 1152SOL    HW215085   0.160   1.514  22.097
 1153SOL     OW15086   1.234   1.487  24.977
 1153SOL    HW115087   1.151   1.447  25.002
 1153SOL    HW215088   1.222   1.512  24.885
 1154SOL     OW15089   1.961   1.612   2.222
 1154SOL    HW115090   2.053   1.615   2.195
 1154SOL    HW215091   1.914   1.581   2.145
 1155SOL     OW15092   1.433   0.299  22.112
 1155SOL    HW115093   1.394   0.225  22.066
 1155SOL    HW215094   1.360   0.360  22.127
 1156SOL     OW15095   0.353   3.620  26.756
 1156SOL    HW115096   0.385   3.554  26.694
 1156SOL    HW215097   0.269   3.585  26.787
 1157SOL     OW15098   4.292   2.321   6.155
 1157SOL    HW115099   4.247   2.338   6.072
 1157SOL    HW215100   4.225   2.282   6.211
 1158SOL     OW15101   3.589   0.380  24.905
 1158SOL    HW115102   3.606   0.313  24.838
 1158SOL    HW215103   3.648   0.452  24.882
 1159SOL     OW15104   4.777   0.014  27.413
 1159SOL    HW115105   0.030   0.007  27.502
 1159SOL    HW215106   4.683   0.029  27.424
 1160SOL     OW15107   3.682   3.427  25.061
 1160SOL    HW115108   3.639   3.506  25.093
 1160SOL    HW215109   3.633   3.403  24.982
 1161SOL     OW15110   3.031   4.075  20.612
 1161SOL    HW115111   3.019   4.032  20.696
 1161SOL    HW215112   3.125   4.092  20.607
 1162SOL     OW15113   2.062   2.641  28.144
 1162SOL    HW115114   2.108   2.676  28.068
 1162SOL    HW215115   1.984   2.599  28.108
 1163SOL     OW15116   0.726   0.200   8.906
 1163SOL    HW115117   0.727   0.296   8.907
 1163SOL    HW215118   0.727   0.175   8.998
 1164SOL     OW15119   0.645   1.231  24.875
 1164SOL    HW115120   0.632   1.322  24.901
 1164SOL    HW215121   0.684   1.189  24.952
 1165SOL     OW15122   1.454   0.732  27.374
 1165SOL    HW115123   1.498   0.777  27.446
 1165SOL    HW215124   1.361   0.743  27.393
 1166SOL     OW15125   3.055   0.007  25.538
 1166SOL    HW115126   3.037   4.763  25.447
 1166SOL    HW215127   3.131   4.736  25.563
 1167SOL     OW15128   0.877   0.454   0.062
 1167SOL    HW115129   0.935   0.524   0.094
 1167SOL    HW215130   0.794   0.469   0.107
 1168SOL     OW15131   1.962   4.673  25.791
 1168SOL    HW115132   1.947   4.632  25.876
 1168SOL    HW215133   2.013   4.609  25.742
 1169SOL     OW15134   2.364   1.435   8.053
 1169SOL    HW115135   2.448   1.435   8.100
 1169SOL    HW215136   2.351   1.526   8.026
 1170SOL     OW15137   2.901   3.109  19.450
 1170SOL    HW115138   2.976   3.052  19.434
 1170SOL    HW215139   2.861   3.074  19.529
 1171SOL     OW15140   2.456   4.668   3.321
 1171SOL    HW115141   2.388   4.604   3.344
 1171SOL    HW215142   2.475   4.651   3.229
 1172SOL     OW15143   4.079   1.964  28.360
 1172SOL    HW115144   4.101   1.922  28.277
 1172SOL    HW215145   4.056   2.054  28.336
 1173SOL     OW15146   1.246   0.913  21.846
 1173SOL    HW115147   1.228   0.918  21.940
 1173SOL    HW215148   1.330   0.867  21.840
 1174SOL     OW15149   0.374   3.059  20.066
 1174SOL    HW115150   0.426   3.010  20.002
 1174SOL    HW215151   0.334   3.129  20.015
 1175SOL     OW15152   4.468   0.923   8.977
 1175SOL    HW115153   4.408   0.995   8.958
 1175SOL    HW215154   4.551   0.950   8.937
 1176SOL     OW15155   4.446   4.634   5.003
 1176SOL    HW115156   4.502   4.562   5.032
 1176SOL    HW215157   4.411   4.605   4.919
 1177SOL     OW15158   3.221   4.556  25.512
 1177SOL    HW115159   3.200   4.478  25.563
 1177SOL    HW215160   3.228   4.525  25.422
 1178SOL     OW15161   1.560   1.332  26.596
 1178SOL    HW115162   1.547   1.352  26.503
 1178SOL    HW215163   1.628   1.265  26.597
 1179SOL     OW15164   1.711   1.373   8.077
 1179SOL    HW115165   1.687   1.332   7.994
 1179SOL    HW215166   1.646   1.339   8.139
 1180SOL     OW15167   2.240   1.077  17.815
 1180SOL    HW115168   2.278   1.041  17.895
 1180SOL    HW215169   2.182   1.146  17.845
 1181SOL     OW15170   4.683   1.334  24.414
 1181SOL    HW115171   4.682   1.373  24.327
 1181SOL    HW215172   4.726   1.249  24.402
 1182SOL     OW15173   2.115   3.674  26.098
 1182SOL    HW115174   2.136   3.583  26.121
 1182SOL    HW215175   2.180   3.698  26.032
 1183SOL     OW15176   3.361   1.213  18.088
 1183SOL    HW115177   3.397   1.134  18.047
 1183SOL    HW215178   3.435   1.254  18.133
 1184SOL     OW15179   3.800   2.449   4.323
 1184SOL    HW115180   3.751   2.530   4.308
 1184SOL    HW215181   3.845   2.432   4.240
 1185SOL     OW15182   2.594   0.366  24.442
 1185SOL    HW115183   2.600   0.390  24.534
 1185SOL    HW215184   2.685   0.361  24.412
 1186SOL     OW15185   2.216   4.714   2.177
 1186SOL    HW115186   2.179   4.757   2.254
 1186SOL    HW215187   2.278   4.778   2.141
 1187SOL     OW15188   3.405   1.835   0.262
 1187SOL    HW115189   3.471   1.812   0.196
 1187SOL    HW215190   3.343   1.891   0.215
 1188SOL     OW15191   2.384   1.367   3.061
 1188SOL    HW115192   2.339   1.317   2.993
 1188SOL    HW215193   2.362   1.458   3.043
 1189SOL     OW15194   3.891   0.591  22.373
 1189SOL    HW115195   3.863   0.649  22.444
 1189SOL    HW215196   3.927   0.514  22.418
 1190SOL     OW15197   4.585   2.431   8.604
 1190SOL    HW115198   4.500   2.387   8.598
 1190SOL    HW215199   4.568   2.510   8.656
 1191SOL     OW15200   0.329   2.566   2.171
 1191SOL    HW115201   0.237   2.577   2.195
 1191SOL    HW215202   0.373   2.551   2.255
 1192SOL     OW15203   4.209   0.085   1.262
 1192SOL    HW115204   4.210   0.138   1.342
 1192SOL    HW215205   4.223   4.776   1.293
 1193SOL     OW15206   3.562   3.994   6.676
 1193SOL    HW115207   3.495   4.062   6.672
 1193SOL    HW215208   3.635   4.035   6.723
 1194SOL     OW15209   1.240   3.636   4.472
 1194SOL    HW115210   1.301   3.691   4.422
 1194SOL    HW215211   1.233   3.556   4.421
 1195SOL     OW15212   0.407   4.637  21.431
 1195SOL    HW115213   0.420   4.609  21.340
 1195SOL    HW215214   0.479   4.697  21.449
 1196SOL     OW15215   1.888   2.829   6.338
 1196SOL    HW115216   1.942   2.842   6.416
 1196SOL    HW215217   1.899   2.910   6.288
 1197SOL     OW15218   4.452   4.668   8.932
 1197SOL    HW115219   4.499   4.751   8.926
 1197SOL    HW215220   4.477   4.621   8.852
 1198SOL     OW15221   1.848   3.873   2.834
 1198SOL    HW115222   1.921   3.814   2.814
 1198SOL    HW215223   1.842   3.931   2.758
 1199SOL     OW15224   0.964   0.241   2.876
 1199SOL    HW115225   1.049   0.247   2.920
 1199SOL    HW215226   0.913   0.180   2.930
 1200SOL     OW15227   0.444   2.361  21.321
 1200SOL    HW115228   0.405   2.275  21.338
 1200SOL    HW215229   0.482   2.353  21.234
 1201SOL     OW15230   0.949   0.087   6.184
 1201SOL    HW115231   0.860   0.119   6.168
 1201SOL    HW215232   0.990   0.155   6.238
 1202SOL     OW15233   1.310   1.721   1.996
 1202SOL    HW115234   1.295   1.664   2.072
 1202SOL    HW215235   1.399   1.700   1.968
 1203SOL     OW15236   2.243   2.315  27.732
 1203SOL    HW115237   2.312   2.330  27.797
 1203SOL    HW215238   2.211   2.227  27.750
 1204SOL     OW15239   4.464   3.769  24.537
 1204SOL    HW115240   4.489   3.855  24.571
 1204SOL    HW215241   4.535   3.745  24.477
 1205SOL     OW15242   0.522   4.478  28.511
 1205SOL    HW115243   0.583   4.420  28.465
 1205SOL    HW215244   0.458   4.504  28.445
 1206SOL     OW15245   4.730   1.950  10.847
 1206SOL    HW115246   4.658   1.911  10.897
 1206SOL    HW215247   4.701   1.947  10.756
 1207SOL     OW15248   2.773   4.083   7.220
 1207SOL    HW115249   2.835   4.152   7.243
 1207SOL    HW215250   2.698   4.130   7.183
 1208SOL     OW15251   1.431   2.106   6.174
 1208SOL    HW115252   1.517   2.123   6.213
 1208SOL    HW215253   1.375   2.177   6.207
 1209SOL     OW15254   4.298   3.311  27.197
 1209SOL    HW115255   4.280   3.306  27.103
 1209SOL    HW215256   4.222   3.270  27.239
 1210SOL     OW15257   3.540   2.007  23.088
 1210SOL    HW115258   3.498   2.079  23.135
 1210SOL    HW215259   3.480   1.988  23.015
 1211SOL     OW15260   4.227   1.121  21.512
 1211SOL    HW115261   4.182   1.151  21.591
 1211SOL    HW215262   4.320   1.136  21.530
 1212SOL     OW15263   1.325   3.929  22.343
 1212SOL    HW115264   1.290   4.010  22.306
 1212SOL    HW215265   1.269   3.911  22.418
 1213SOL     OW15266   3.237   2.599   3.682
 1213SOL    HW115267   3.168   2.561   3.627
 1213SOL    HW215268   3.309   2.616   3.622
 1214SOL     OW15269   1.152   0.312  26.434
 1214SOL    HW115270   1.065   0.281  26.409
 1214SOL    HW215271   1.199   0.320  26.351
 1215SOL     OW15272   3.911   3.285   9.391
 1215SOL    HW115273   3.884   3.369   9.429
 1215SOL    HW215274   3.863   3.219   9.441
 1216SOL     OW15275   4.205   2.119   5.094
 1216SOL    HW115276   4.282   2.175   5.103
 1216SOL    HW215277   4.226   2.041   5.145
 1217SOL     OW15278   4.556   3.719   6.764
 1217SOL    HW115279   4.622   3.788   6.753
 1217SOL    HW215280   4.525   3.701   6.675
 1218SOL     OW15281   3.954   0.560  24.190
 1218SOL    HW115282   3.899   0.581  24.265
 1218SOL    HW215283   4.044   0.567  24.223
 1219SOL     OW15284   2.502   3.556   9.303
 1219SOL    HW115285   2.580   3.526   9.350
 1219SOL    HW215286   2.470   3.478   9.256
 1220SOL     OW15287   4.638   1.449  19.977
 1220SOL    HW115288   4.635   1.522  20.039
 1220SOL    HW215289   4.697   1.386  20.018
 1221SOL     OW15290   4.653   3.642   5.587
 1221SOL    HW115291   4.691   3.579   5.648
 1221SOL    HW215292   4.665   3.727   5.629
 1222SOL     OW15293   0.639   4.244  27.685
 1222SOL    HW115294   0.610   4.192  27.760
 1222SOL    HW215295   0.612   4.333  27.706
 1223SOL     OW15296   2.117   4.656  20.541
 1223SOL    HW115297   2.080   4.624  20.623
 1223SOL    HW215298   2.056   4.625  20.474
 1224SOL     OW15299   4.065   4.702  24.310
 1224SOL    HW115300   4.066   4.708  24.214
 1224SOL    HW215301   3.991   4.756  24.337
 1225SOL     OW15302   0.565   2.231   4.183
 1225SOL    HW115303   0.552   2.137   4.169
 1225SOL    HW215304   0.481   2.263   4.215
 1226SOL     OW15305   0.768   0.571   5.261
 1226SOL    HW115306   0.773   0.656   5.217
 1226SOL    HW215307   0.725   0.514   5.198
 1227SOL     OW15308   1.420   2.761  25.053
 1227SOL    HW115309   1.455   2.842  25.016
 1227SOL    HW215310   1.384   2.786  25.138
 1228SOL     OW15311   3.018   0.463  18.921
 1228SOL    HW115312   2.958   0.474  18.847
 1228SOL    HW215313   2.966   0.487  18.998
 1229SOL     OW15314   2.453   1.614   5.647
 1229SOL    HW115315   2.509   1.691   5.637
 1229SOL    HW215316   2.487   1.551   5.584
 1230SOL     OW15317   3.406   0.299   2.752
 1230SOL    HW115318   3.372   0.213   2.777
 1230SOL    HW215319   3.389   0.305   2.658
 1231SOL     OW15320   0.125   4.488  19.110
 1231SOL    HW115321   0.201   4.467  19.056
 1231SOL    HW215322   0.162   4.524  19.191
 1232SOL     OW15323   2.226   3.151   7.857
 1232SOL    HW115324   2.265   3.235   7.832
 1232SOL    HW215325   2.187   3.167   7.943
 1233SOL     OW15326   2.958   2.007   2.605
 1233SOL    HW115327   2.995   1.987   2.691
 1233SOL    HW215328   2.878   1.955   2.600
 1234SOL     OW15329   0.150   2.937   0.424
 1234SOL    HW115330   0.123   2.901   0.339
 1234SOL    HW215331   0.204   3.013   0.402
 1235SOL     OW15332   0.105   0.699   3.921
 1235SOL    HW115333   0.140   0.643   3.852
 1235SOL    HW215334   0.141   0.662   4.002
 1236SOL     OW15335   0.257   3.509  25.369
 1236SOL    HW115336   0.189   3.442  25.372
 1236SOL    HW215337   0.259   3.546  25.457
 1237SOL     OW15338   0.122   3.348  27.645
 1237SOL    HW115339   0.136   3.361  27.739
 1237SOL    HW215340   0.187   3.282  27.620
 1238SOL     OW15341   0.926   2.479  24.806
 1238SOL    HW115342   0.974   2.400  24.830
 1238SOL    HW215343   0.904   2.520  24.890
 1239SOL     OW15344   4.055   3.086   3.271
 1239SOL    HW115345   4.099   3.163   3.308
 1239SOL    HW215346   4.089   3.080   3.182
 1240SOL     OW15347   2.363   3.737   9.678
 1240SOL    HW115348   2.277   3.705   9.652
 1240SOL    HW215349   2.391   3.676   9.747
 1241SOL     OW15350   3.231   0.906  26.992
 1241SOL    HW115351   3.166   0.852  26.947
 1241SOL    HW215352   3.182   0.951  27.061
 1242SOL     OW15353   3.976   1.684   7.035
 1242SOL    HW115354   3.916   1.610   7.041
 1242SOL    HW215355   3.980   1.720   7.124
 1243SOL     OW15356   0.353   0.888   3.514
 1243SOL    HW115357   0.354   0.860   3.606
 1243SOL    HW215358   0.384   0.978   3.516
 1244SOL     OW15359   0.946   4.395  22.027
 1244SOL    HW115360   0.906   4.309  22.012
 1244SOL    HW215361   0.936   4.441  21.944
 1245SOL     OW15362   3.872   1.873   8.095
 1245SOL    HW115363   3.898   1.792   8.140
 1245SOL    HW215364   3.949   1.897   8.043
 1246SOL     OW15365   1.070   4.723  23.741
 1246SOL    HW115366   1.087   4.630  23.724
 1246SOL    HW215367   1.029   4.755  23.660
 1247SOL     OW15368   1.403   3.972  24.965
 1247SOL    HW115369   1.444   3.890  24.991
 1247SOL    HW215370   1.312   3.949  24.947
 1248SOL     OW15371   3.175   3.509   8.324
 1248SOL    HW115372   3.252   3.516   8.381
 1248SOL    HW215373   3.127   3.433   8.358
 1249SOL     OW15374   4.179   0.605  24.356
 1249SOL    HW115375   4.236   0.541  24.399
 1249SOL    HW215376   4.236   0.680  24.339
 1250SOL     OW15377   1.384   3.032   2.975
 1250SOL    HW115378   1.474   3.060   2.989
 1250SOL    HW215379   1.366   2.972   3.047
 1251SOL     OW15380   1.954   1.418   0.202
 1251SOL    HW115381   1.889   1.398   0.135
 1251SOL    HW215382   1.955   1.341   0.259
 1252SOL     OW15383   0.275   3.813   9.005
 1252SOL    HW115384   0.294   3.803   9.098
 1252SOL    HW215385   0.342   3.762   8.960
 1253SOL     OW15386   0.770   1.644   2.004
 1253SOL    HW115387   0.751   1.554   2.031
 1253SOL    HW215388   0.732   1.652   1.916
 1254SOL     OW15389   0.134   2.796  23.392
 1254SOL    HW115390   0.185   2.874  23.371
 1254SOL    HW215391   0.053   2.805  23.342
 1255SOL     OW15392   1.088   2.104   2.529
 1255SOL    HW115393   1.179   2.113   2.556
 1255SOL    HW215394   1.076   2.171   2.462
 1256SOL     OW15395   1.953   0.107  25.263
 1256SOL    HW115396   1.962   0.181  25.203
 1256SOL    HW215397   1.959   0.030  25.207
 1257SOL     OW15398   1.296   4.266   5.043
 1257SOL    HW115399   1.241   4.309   5.108
 1257SOL    HW215400   1.245   4.190   5.015
 1258SOL     OW15401   2.720   3.990   1.127
 1258SOL    HW115402   2.813   3.978   1.148
 1258SOL    HW215403   2.701   4.080   1.152
 1259SOL     OW15404   1.187   3.710   4.789
 1259SOL    HW115405   1.233   3.684   4.709
 1259SOL    HW215406   1.207   3.803   4.800
 1260SOL     OW15407   2.401   2.802  21.682
 1260SOL    HW115408   2.388   2.881  21.735
 1260SOL    HW215409   2.322   2.750  21.696
 1261SOL     OW15410   3.108   2.955  25.259
 1261SOL    HW115411   3.018   2.923  25.257
 1261SOL    HW215412   3.118   3.005  25.178
 1262SOL     OW15413   2.460   0.734  20.477
 1262SOL    HW115414   2.517   0.693  20.412
 1262SOL    HW215415   2.377   0.745  20.432
 1263SOL     OW15416   2.618   3.074   6.315
 1263SOL    HW115417   2.679   3.076   6.389
 1263SOL    HW215418   2.674   3.064   6.238
 1264SOL     OW15419   0.831   2.263  25.317
 1264SOL    HW115420   0.743   2.270  25.354
 1264SOL    HW215421   0.821   2.289  25.226
 1265SOL     OW15422   2.269   3.648  24.352
 1265SOL    HW115423   2.214   3.580  24.312
 1265SOL    HW215424   2.209   3.720  24.369
 1266SOL     OW15425   1.784   3.311  24.470
 1266SOL    HW115426   1.859   3.320  24.529
 1266SOL    HW215427   1.809   3.361  24.392
 1267SOL     OW15428   2.797   1.710   4.108
 1267SOL    HW115429   2.787   1.615   4.098
 1267SOL    HW215430   2.762   1.746   4.026
 1268SOL     OW15431   1.853   4.751  26.778
 1268SOL    HW115432   1.780   4.760  26.717
 1268SOL    HW215433   1.812   4.752  26.865
 1269SOL     OW15434   3.126   2.846   1.760
 1269SOL    HW115435   3.209   2.847   1.807
 1269SOL    HW215436   3.108   2.938   1.742
 1270SOL     OW15437   1.654   1.351   2.394
 1270SOL    HW115438   1.633   1.291   2.322
 1270SOL    HW215439   1.714   1.302   2.449
 1271SOL     OW15440   0.671   2.695  20.073
 1271SOL    HW115441   0.678   2.609  20.114
 1271SOL    HW215442   0.752   2.740  20.096
 1272SOL     OW15443   2.956   3.608   0.285
 1272SOL    HW115444   3.046   3.616   0.316
 1272SOL    HW215445   2.927   3.524   0.319
 1273SOL     OW15446   1.622   1.699  19.502
 1273SOL    HW115447   1.667   1.753  19.567
 1273SOL    HW215448   1.647   1.609  19.524
 1274SOL     OW15449   3.927   1.828  22.057
 1274SOL    HW115450   3.923   1.774  22.136
 1274SOL    HW215451   3.880   1.908  22.080
 1275SOL     OW15452   0.648   4.376   3.638
 1275SOL    HW115453   0.668   4.342   3.551
 1275SOL    HW215454   0.605   4.460   3.622
 1276SOL     OW15455   2.294   4.493   8.329
 1276SOL    HW115456   2.247   4.525   8.406
 1276SOL    HW215457   2.387   4.501   8.352
 1277SOL     OW15458   0.646   4.001  27.555
 1277SOL    HW115459   0.626   3.999  27.461
 1277SOL    HW215460   0.653   4.094  27.576
 1278SOL     OW15461   3.501   3.648   9.855
 1278SOL    HW115462   3.512   3.596   9.776
 1278SOL    HW215463   3.528   3.590   9.926
 1279SOL     OW15464   2.342   2.023  10.787
 1279SOL    HW115465   2.364   2.041  10.878
 1279SOL    HW215466   2.410   1.962  10.758
 1280SOL     OW15467   2.242   4.263  23.218
 1280SOL    HW115468   2.163   4.213  23.200
 1280SOL    HW215469   2.258   4.312  23.138
 1281SOL     OW15470   0.746   2.309   2.245
 1281SOL    HW115471   0.781   2.344   2.327
 1281SOL    HW215472   0.823   2.287   2.193
 1282SOL     OW15473   1.459   3.783   2.597
 1282SOL    HW115474   1.483   3.748   2.683
 1282SOL    HW215475   1.396   3.720   2.563
 1283SOL     OW15476   1.071   0.691   5.330
 1283SOL    HW115477   1.136   0.633   5.370
 1283SOL    HW215478   0.997   0.634   5.311
 1284SOL     OW15479   2.613   2.345  26.380
 1284SOL    HW115480   2.565   2.280  26.432
 1284SOL    HW215481   2.546   2.404  26.347
 1285SOL     OW15482   3.976   0.544   4.959
 1285SOL    HW115483   4.039   0.616   4.967
 1285SOL    HW215484   3.903   0.582   4.909
 1286SOL     OW15485   1.412   1.150   2.396
 1286SOL    HW115486   1.474   1.133   2.467
 1286SOL    HW215487   1.399   1.064   2.355
 1287SOL     OW15488   1.112   3.745   8.929
 1287SOL    HW115489   1.083   3.785   9.011
 1287SOL    HW215490   1.076   3.656   8.932
 1288SOL     OW15491   1.588   0.641  22.535
 1288SOL    HW115492   1.584   0.572  22.602
 1288SOL    HW215493   1.682   0.659  22.526
 1289SOL     OW15494   0.918   2.304  25.636
 1289SOL    HW115495   0.878   2.298  25.549
 1289SOL    HW215496   0.997   2.250  25.630
 1290SOL     OW15497   4.475   2.272   3.668
 1290SOL    HW115498   4.418   2.344   3.642
 1290SOL    HW215499   4.436   2.237   3.748
 1291SOL     OW15500   3.860   2.310  16.409
 1291SOL    HW115501   3.803   2.336  16.337
 1291SOL    HW215502   3.881   2.219  16.390
 1292SOL     OW15503   4.419   3.349   8.924
 1292SOL    HW115504   4.457   3.427   8.884
 1292SOL    HW215505   4.340   3.380   8.967
 1293SOL     OW15506   3.408   2.759  20.914
 1293SOL    HW115507   3.373   2.812  20.986
 1293SOL    HW215508   3.494   2.732  20.945
 1294SOL     OW15509   1.790   0.362   8.138
 1294SOL    HW115510   1.856   0.387   8.203
 1294SOL    HW215511   1.718   0.423   8.152
 1295SOL     OW15512   3.629   4.074  24.599
 1295SOL    HW115513   3.646   3.980  24.606
 1295SOL    HW215514   3.577   4.083  24.519
 1296SOL     OW15515   4.242   4.345  27.705
 1296SOL    HW115516   4.258   4.405  27.633
 1296SOL    HW215517   4.328   4.310  27.727
 1297SOL     OW15518   2.958   3.955   7.031
 1297SOL    HW115519   2.936   3.915   6.947
 1297SOL    HW215520   2.874   3.984   7.066
 1298SOL     OW15521   2.108   3.192  27.338
 1298SOL    HW115522   2.146   3.107  27.315
 1298SOL    HW215523   2.021   3.191  27.299
 1299SOL     OW15524   2.824   2.544   6.392
 1299SOL    HW115525   2.771   2.482   6.342
 1299SOL    HW215526   2.777   2.554   6.475
 1300SOL     OW15527   4.134   4.306   9.246
 1300SOL    HW115528   4.172   4.377   9.194
 1300SOL    HW215529   4.102   4.349   9.325
 1301SOL     OW15530   2.167   2.808  11.814
 1301SOL    HW115531   2.115   2.873  11.766
 1301SOL    HW215532   2.166   2.731  11.758
 1302SOL     OW15533   2.352   1.776   8.266
 1302SOL    HW115534   2.426   1.832   8.289
 1302SOL    HW215535   2.275   1.831   8.280
 1303SOL     OW15536   3.406   3.273  25.255
 1303SOL    HW115537   3.499   3.252  25.266
 1303SOL    HW215538   3.369   3.267  25.343
 1304SOL     OW15539   3.057   3.256   6.477
 1304SOL    HW115540   2.992   3.324   6.457
 1304SOL    HW215541   3.042   3.188   6.411
 1305SOL     OW15542   4.083   3.378  25.350
 1305SOL    HW115543   4.015   3.370  25.283
 1305SOL    HW215544   4.159   3.413  25.303
 1306SOL     OW15545   3.178   2.995  24.789
 1306SOL    HW115546   3.106   2.963  24.843
 1306SOL    HW215547   3.248   3.013  24.851
 1307SOL     OW15548   0.958   2.528   6.312
 1307SOL    HW115549   1.024   2.595   6.331
 1307SOL    HW215550   0.900   2.529   6.388
 1308SOL     OW15551   2.522   2.846   2.587
 1308SOL    HW115552   2.561   2.815   2.669
 1308SOL    HW215553   2.451   2.904   2.614
 1309SOL     OW15554   4.679   1.728  23.014
 1309SOL    HW115555   4.712   1.639  23.022
 1309SOL    HW215556   4.680   1.763  23.103
 1310SOL     OW15557   3.357   3.678  27.482
 1310SOL    HW115558   3.276   3.728  27.489
 1310SOL    HW215559   3.426   3.739  27.508
 1311SOL     OW15560   4.196   2.272  22.691
 1311SOL    HW115561   4.112   2.308  22.663
 1311SOL    HW215562   4.241   2.252  22.609
 1312SOL     OW15563   0.794   4.679   6.664
 1312SOL    HW115564   0.815   4.698   6.572
 1312SOL    HW215565   0.737   4.751   6.691
 1313SOL     OW15566   3.625   2.901   0.578
 1313SOL    HW115567   3.647   2.821   0.530
 1313SOL    HW215568   3.688   2.966   0.546
 1314SOL     OW15569   3.175   2.005  21.647
 1314SOL    HW115570   3.172   2.079  21.586
 1314SOL    HW215571   3.171   2.045  21.734
 1315SOL     OW15572   4.315   0.036  18.277
 1315SOL    HW115573   4.297   0.014  18.186
 1315SOL    HW215574   4.312   4.733  18.323
 1316SOL     OW15575   1.722   3.321   5.869
 1316SOL    HW115576   1.754   3.336   5.780
 1316SOL    HW215577   1.799   3.290   5.918
 1317SOL     OW15578   2.089   1.154  23.463
 1317SOL    HW115579   2.097   1.245  23.435
 1317SOL    HW215580   1.996   1.133  23.452
 1318SOL     OW15581   1.044   4.212   4.851
 1318SOL    HW115582   1.110   4.156   4.809
 1318SOL    HW215583   1.053   4.297   4.808
 1319SOL     OW15584   2.098   1.988  22.542
 1319SOL    HW115585   2.175   1.992  22.485
 1319SOL    HW215586   2.061   1.901  22.527
 1320SOL     OW15587   2.188   0.001  19.630
 1320SOL    HW115588   2.127   0.040  19.567
 1320SOL    HW215589   2.211   4.697  19.592
 1321SOL     OW15590   1.645   4.622  20.554
 1321SOL    HW115591   1.687   4.652  20.474
 1321SOL    HW215592   1.570   4.570  20.524
 1322SOL     OW15593   4.131   4.029   9.290
 1322SOL    HW115594   4.121   4.124   9.283
 1322SOL    HW215595   4.211   4.017   9.341
 1323SOL     OW15596   3.521   3.993  15.629
 1323SOL    HW115597   3.583   3.951  15.688
 1323SOL    HW215598   3.559   3.982  15.542
 1324SOL     OW15599   1.098   2.632   7.977
 1324SOL    HW115600   1.039   2.694   7.934
 1324SOL    HW215601   1.053   2.608   8.058
 1325SOL     OW15602   2.300   0.895  20.273
 1325SOL    HW115603   2.367   0.927  20.213
 1325SOL    HW215604   2.227   0.956  20.263
 1326SOL     OW15605   3.368   4.129   3.848
 1326SOL    HW115606   3.308   4.064   3.810
 1326SOL    HW215607   3.404   4.175   3.772
 1327SOL     OW15608   4.395   1.404  17.613
 1327SOL    HW115609   4.437   1.377  17.531
 1327SOL    HW215610   4.398   1.500  17.611
 1328SOL     OW15611   0.581   1.746  24.210
 1328SOL    HW115612   0.591   1.784  24.297
 1328SOL    HW215613   0.519   1.804  24.166
 1329SOL     OW15614   0.694   1.449  23.525
 1329SOL    HW115615   0.629   1.519  23.535
 1329SOL    HW215616   0.738   1.468  23.442
 1330SOL     OW15617   4.397   0.845   9.500
 1330SOL    HW115618   4.394   0.771   9.439
 1330SOL    HW215619   4.417   0.805   9.585
 1331SOL     OW15620   1.318   3.014   6.517
 1331SOL    HW115621   1.371   3.070   6.573
 1331SOL    HW215622   1.324   2.927   6.557
 1332SOL     OW15623   1.919   0.255   3.951
 1332SOL    HW115624   1.953   0.205   4.025
 1332SOL    HW215625   1.826   0.265   3.970
 1333SOL     OW15626   4.054   1.641  22.660
 1333SOL    HW115627   4.089   1.577  22.721
 1333SOL    HW215628   4.125   1.704  22.647
 1334SOL     OW15629   0.430   0.224   3.391
 1334SOL    HW115630   0.400   0.167   3.320
 1334SOL    HW215631   0.382   0.306   3.377
 1335SOL     OW15632   0.723   2.397   5.883
 1335SOL    HW115633   0.640   2.402   5.930
 1335SOL    HW215634   0.776   2.467   5.920
 1336SOL     OW15635   2.725   4.061  11.494
 1336SOL    HW115636   2.732   4.154  11.516
 1336SOL    HW215637   2.708   4.018  11.578
 1337SOL     OW15638   2.582   3.757  27.273
 1337SOL    HW115639   2.491   3.758  27.302
 1337SOL    HW215640   2.617   3.841  27.304
 1338SOL     OW15641   3.596   2.371  21.145
 1338SOL    HW115642   3.666   2.306  21.151
 1338SOL    HW215643   3.517   2.320  21.127
 1339SOL     OW15644   1.792   2.886  24.817
 1339SOL    HW115645   1.885   2.870  24.829
 1339SOL    HW215646   1.750   2.842  24.891
 1340SOL     OW15647   1.965   0.522  14.076
 1340SOL    HW115648   1.972   0.549  14.168
 1340SOL    HW215649   2.044   0.557  14.035
 1341SOL     OW15650   2.834   0.581   6.071
 1341SOL    HW115651   2.769   0.518   6.101
 1341SOL    HW215652   2.904   0.575   6.136
 1342SOL     OW15653   3.115   3.745  10.970
 1342SOL    HW115654   3.182   3.805  10.936
 1342SOL    HW215655   3.041   3.802  10.993
 1343SOL     OW15656   0.993   0.640  23.403
 1343SOL    HW115657   0.960   0.729  23.391
 1343SOL    HW215658   1.044   0.622  23.324
 1344SOL     OW15659   2.753   2.764  24.801
 1344SOL    HW115660   2.670   2.771  24.849
 1344SOL    HW215661   2.772   2.670  24.800
 1345SOL     OW15662   4.539   2.851  28.089
 1345SOL    HW115663   4.631   2.828  28.078
 1345SOL    HW215664   4.539   2.919  28.157
 1346SOL     OW15665   4.351   1.497  24.472
 1346SOL    HW115666   4.347   1.428  24.538
 1346SOL    HW215667   4.400   1.568  24.514
 1347SOL     OW15668   3.400   1.842  25.703
 1347SOL    HW115669   3.493   1.821  25.704
 1347SOL    HW215670   3.367   1.802  25.623
 1348SOL     OW15671   4.717   3.396   0.500
 1348SOL    HW115672   4.766   3.478   0.506
 1348SOL    HW215673   4.626   3.422   0.511
 1349SOL     OW15674   2.223   0.495  25.167
 1349SOL    HW115675   2.249   0.457  25.251
 1349SOL    HW215676   2.250   0.431  25.102
 1350SOL     OW15677   1.979   2.378   5.118
 1350SOL    HW115678   2.022   2.423   5.191
 1350SOL    HW215679   1.990   2.437   5.044
 1351SOL     OW15680   3.398   3.294  23.021
 1351SOL    HW115681   3.452   3.277  22.944
 1351SOL    HW215682   3.443   3.250  23.093
 1352SOL     OW15683   0.621   2.456  22.009
 1352SOL    HW115684   0.715   2.470  21.994
 1352SOL    HW215685   0.583   2.451  21.921
 1353SOL     OW15686   3.250   3.474   8.655
 1353SOL    HW115687   3.306   3.509   8.724
 1353SOL    HW215688   3.309   3.422   8.600
 1354SOL     OW15689   0.343   0.179  21.939
 1354SOL    HW115690   0.273   0.216  21.993
 1354SOL    HW215691   0.405   0.251  21.927
 1355SOL     OW15692   3.146   0.420  21.359
 1355SOL    HW115693   3.122   0.492  21.417
 1355SOL    HW215694   3.091   0.432  21.282
 1356SOL     OW15695   1.331   3.344  21.463
 1356SOL    HW115696   1.239   3.358  21.440
 1356SOL    HW215697   1.366   3.292  21.391
 1357SOL     OW15698   1.483   4.688   4.939
 1357SOL    HW115699   1.476   4.692   5.034
 1357SOL    HW215700   1.574   4.663   4.923
 1358SOL     OW15701   1.778   1.377  19.813
 1358SOL    HW115702   1.691   1.384  19.773
 1358SOL    HW215703   1.785   1.455  19.868
 1359SOL     OW15704   0.651   4.199  24.662
 1359SOL    HW115705   0.620   4.138  24.729
 1359SOL    HW215706   0.730   4.157  24.627
 1360SOL     OW15707   2.862   3.053   7.326
 1360SOL    HW115708   2.781   3.084   7.366
 1360SOL    HW215709   2.834   3.015   7.243
 1361SOL     OW15710   4.042   1.486   7.417
 1361SOL    HW115711   3.973   1.550   7.399
 1361SOL    HW215712   3.997   1.414   7.462
 1362SOL     OW15713   3.425   0.680  26.527
 1362SOL    HW115714   3.460   0.643  26.446
 1362SOL    HW215715   3.475   0.761  26.541
 1363SOL     OW15716   3.475   3.621  28.480
 1363SOL    HW115717   3.545   3.654   0.014
 1363SOL    HW215718   3.428   3.558   0.012
 1364SOL     OW15719   3.185   3.811  21.864
 1364SOL    HW115720   3.241   3.794  21.940
 1364SOL    HW215721   3.231   3.880  21.816
 1365SOL     OW15722   3.009   0.889  27.345
 1365SOL    HW115723   3.021   0.925  27.257
 1365SOL    HW215724   3.096   0.894  27.384
 1366SOL     OW15725   0.945   1.117   3.847
 1366SOL    HW115726   0.864   1.140   3.801
 1366SOL    HW215727   1.011   1.175   3.808
 1367SOL     OW15728   1.521   0.529   8.920
 1367SOL    HW115729   1.469   0.556   8.995
 1367SOL    HW215730   1.495   0.438   8.904
 1368SOL     OW15731   0.042   0.894   7.838
 1368SOL    HW115732   4.745   0.930   7.880
 1368SOL    HW215733   0.017   0.884   7.746
 1369SOL     OW15734   2.113   4.626  21.120
 1369SOL    HW115735   2.189   4.627  21.179
 1369SOL    HW215736   2.074   4.713  21.131
 1370SOL     OW15737   2.110   2.509  24.614
 1370SOL    HW115738   2.069   2.594  24.631
 1370SOL    HW215739   2.042   2.458  24.570
 1371SOL     OW15740   0.816   3.955   7.112
 1371SOL    HW115741   0.800   3.891   7.042
 1371SOL    HW215742   0.730   3.971   7.151
 1372SOL     OW15743   0.886   0.736   0.441
 1372SOL    HW115744   0.852   0.763   0.526
 1372SOL    HW215745   0.810   0.701   0.395
 1373SOL     OW15746   2.300   2.343   8.489
 1373SOL    HW115747   2.288   2.327   8.583
 1373SOL    HW215748   2.326   2.435   8.484
 1374SOL     OW15749   0.800   3.986  22.453
 1374SOL    HW115750   0.869   4.018  22.395
 1374SOL    HW215751   0.723   3.978  22.396
 1375SOL     OW15752   0.790   3.812   2.466
 1375SOL    HW115753   0.709   3.762   2.478
 1375SOL    HW215754   0.854   3.747   2.437
 1376SOL     OW15755   4.753   3.789  18.417
 1376SOL    HW115756   0.067   3.794  18.407
 1376SOL    HW215757   4.719   3.799  18.328
 1377SOL     OW15758   2.223   3.962  26.782
 1377SOL    HW115759   2.160   3.931  26.848
 1377SOL    HW215760   2.209   3.905  26.707
 1378SOL     OW15761   1.750   2.210  21.284
 1378SOL    HW115762   1.826   2.268  21.282
 1378SOL    HW215763   1.702   2.230  21.204
 1379SOL     OW15764   2.581   2.206  21.652
 1379SOL    HW115765   2.622   2.126  21.618
 1379SOL    HW215766   2.651   2.272  21.649
 1380SOL     OW15767   3.188   1.250  27.332
 1380SOL    HW115768   3.269   1.199  27.338
 1380SOL    HW215769   3.212   1.327  27.280
 1381SOL     OW15770   0.441   0.745  23.394
 1381SOL    HW115771   0.444   0.762  23.488
 1381SOL    HW215772   0.519   0.693  23.376
 1382SOL     OW15773   4.553   1.886   6.825
 1382SOL    HW115774   4.545   1.808   6.770
 1382SOL    HW215775   4.647   1.905   6.827
 1383SOL     OW15776   3.878   1.507  18.072
 1383SOL    HW115777   3.941   1.502  18.000
 1383SOL    HW215778   3.932   1.509  18.151
 1384SOL     OW15779   1.278   1.042  10.319
 1384SOL    HW115780   1.225   1.032  10.398
 1384SOL    HW215781   1.339   0.968  10.321
 1385SOL     OW15782   3.634   3.626  17.885
 1385SOL    HW115783   3.586   3.644  17.804
 1385SOL    HW215784   3.725   3.613  17.857
 1386SOL     OW15785   3.231   3.918  28.522
 1386SOL    HW115786   3.238   3.993  28.463
 1386SOL    HW215787   3.169   3.946   0.067
 1387SOL     OW15788   1.853   0.425   5.857
 1387SOL    HW115789   1.763   0.447   5.881
 1387SOL    HW215790   1.888   0.506   5.820
 1388SOL     OW15791   0.773   1.055  22.455
 1388SOL    HW115792   0.856   1.011  22.473
 1388SOL    HW215793   0.744   1.019  22.371
 1389SOL     OW15794   3.888   2.042   3.159
 1389SOL    HW115795   3.956   1.989   3.117
 1389SOL    HW215796   3.815   1.982   3.173
 1390SOL     OW15797   4.707   1.837  24.315
 1390SOL    HW115798   4.682   1.755  24.358
 1390SOL    HW215799   4.628   1.891  24.319
 1391SOL     OW15800   2.918   2.828   7.817
 1391SOL    HW115801   2.909   2.739   7.783
 1391SOL    HW215802   2.842   2.839   7.874
 1392SOL     OW15803   0.375   3.514  21.607
 1392SOL    HW115804   0.439   3.503  21.677
 1392SOL    HW215805   0.337   3.600  21.622
 1393SOL     OW15806   2.001   1.231  24.976
 1393SOL    HW115807   1.998   1.301  24.911
 1393SOL    HW215808   1.914   1.232  25.016
 1394SOL     OW15809   2.564   0.277  26.876
 1394SOL    HW115810   2.513   0.337  26.822
 1394SOL    HW215811   2.527   0.191  26.858
 1395SOL     OW15812   1.943   3.099  21.936
 1395SOL    HW115813   1.920   3.107  21.844
 1395SOL    HW215814   1.877   3.150  21.982
 1396SOL     OW15815   4.750   1.574  27.283
 1396SOL    HW115816   4.759   1.496  27.229
 1396SOL    HW215817   4.749   1.647  27.220
 1397SOL     OW15818   0.835   1.579   1.608
 1397SOL    HW115819   0.778   1.633   1.663
 1397SOL    HW215820   0.914   1.567   1.660
 1398SOL     OW15821   0.450   0.064   2.331
 1398SOL    HW115822   0.453   4.750   2.343
 1398SOL    HW215823   0.475   0.078   2.240
 1399SOL     OW15824   0.647   1.664   3.900
 1399SOL    HW115825   0.736   1.644   3.930
 1399SOL    HW215826   0.624   1.592   3.841
 1400SOL     OW15827   4.532   0.253   0.402
 1400SOL    HW115828   4.568   0.259   0.490
 1400SOL    HW215829   4.451   0.202   0.413
 1401SOL     OW15830   1.705   3.311   4.584
 1401SOL    HW115831   1.650   3.245   4.627
 1401SOL    HW215832   1.671   3.395   4.615
 1402SOL     OW15833   1.784   1.672  20.890
 1402SOL    HW115834   1.743   1.626  20.963
 1402SOL    HW215835   1.795   1.762  20.921
 1403SOL     OW15836   2.106   2.777  10.508
 1403SOL    HW115837   2.036   2.771  10.443
 1403SOL    HW215838   2.115   2.688  10.541
 1404SOL     OW15839   4.267   2.896  28.050
 1404SOL    HW115840   4.342   2.839  28.067
 1404SOL    HW215841   4.296   2.953  27.979
 1405SOL     OW15842   4.322   1.395   0.887
 1405SOL    HW115843   4.317   1.403   0.982
 1405SOL    HW215844   4.383   1.322   0.872
 1406SOL     OW15845   1.461   1.393  20.766
 1406SOL    HW115846   1.383   1.410  20.713
 1406SOL    HW215847   1.533   1.430  20.715
 1407SOL     OW15848   3.839   2.253   5.949
 1407SOL    HW115849   3.868   2.240   5.859
 1407SOL    HW215850   3.838   2.348   5.960
 1408SOL     OW15851   3.818   1.784  22.305
 1408SOL    HW115852   3.847   1.752  22.390
 1408SOL    HW215853   3.752   1.850  22.326
 1409SOL     OW15854   1.332   3.906   7.084
 1409SOL    HW115855   1.260   3.871   7.136
 1409SOL    HW215856   1.379   3.963   7.144
 1410SOL     OW15857   1.794   1.367   7.602
 1410SOL    HW115858   1.878   1.382   7.645
 1410SOL    HW215859   1.815   1.359   7.509
 1411SOL     OW15860   4.635   3.073   6.598
 1411SOL    HW115861   4.689   2.995   6.606
 1411SOL    HW215862   4.585   3.076   6.680
 1412SOL     OW15863   0.037   2.115   1.818
 1412SOL    HW115864   0.050   2.093   1.726
 1412SOL    HW215865   0.065   2.037   1.866
 1413SOL     OW15866   3.925   3.427  26.441
 1413SOL    HW115867   3.838   3.432  26.481
 1413SOL    HW215868   3.917   3.475  26.359
 1414SOL     OW15869   2.869   3.343  23.607
 1414SOL    HW115870   2.781   3.337  23.644
 1414SOL    HW215871   2.903   3.426  23.639
 1415SOL     OW15872   2.510   0.650  28.325
 1415SOL    HW115873   2.591   0.670  28.279
 1415SOL    HW215874   2.443   0.701  28.279
 1416SOL     OW15875   1.606   2.319   1.261
 1416SOL    HW115876   1.669   2.346   1.194
 1416SOL    HW215877   1.629   2.372   1.338
 1417SOL     OW15878   4.100   4.646   5.702
 1417SOL    HW115879   4.164   4.650   5.773
 1417SOL    HW215880   4.129   4.572   5.648
 1418SOL     OW15881   4.129   3.517  22.341
 1418SOL    HW115882   4.203   3.497  22.284
 1418SOL    HW215883   4.067   3.562  22.284
 1419SOL     OW15884   2.887   2.706  27.685
 1419SOL    HW115885   2.884   2.631  27.626
 1419SOL    HW215886   2.976   2.706  27.720
 1420SOL     OW15887   4.027   2.479   5.437
 1420SOL    HW115888   4.071   2.428   5.369
 1420SOL    HW215889   3.994   2.557   5.392
 1421SOL     OW15890   0.385   4.041  24.662
 1421SOL    HW115891   0.434   4.085  24.593
 1421SOL    HW215892   0.353   4.112  24.718
 1422SOL     OW15893   3.804   0.400  10.409
 1422SOL    HW115894   3.876   0.340  10.427
 1422SOL    HW215895   3.775   0.430  10.495
 1423SOL     OW15896   0.093   2.441   3.226
 1423SOL    HW115897   0.121   2.350   3.238
 1423SOL    HW215898   0.120   2.485   3.307
 1424SOL     OW15899   1.419   4.095   7.253
 1424SOL    HW115900   1.492   4.152   7.229
 1424SOL    HW215901   1.451   4.045   7.328
 1425SOL     OW15902   1.381   4.667   7.437
 1425SOL    HW115903   1.391   4.577   7.466
 1425SOL    HW215904   1.419   4.720   7.507
 1426SOL     OW15905   4.412   0.284  25.236
 1426SOL    HW115906   4.347   0.295  25.305
 1426SOL    HW215907   4.472   0.217  25.269
 1427SOL     OW15908   2.010   3.992  26.501
 1427SOL    HW115909   1.942   4.051  26.470
 1427SOL    HW215910   1.978   3.904  26.479
 1428SOL     OW15911   0.741   0.838   8.964
 1428SOL    HW115912   0.791   0.760   8.941
 1428SOL    HW215913   0.682   0.852   8.890
 1429SOL     OW15914   1.913   1.928  25.186
 1429SOL    HW115915   1.827   1.962  25.212
 1429SOL    HW215916   1.910   1.835  25.209
 1430SOL     OW15917   3.938   0.269  21.155
 1430SOL    HW115918   4.004   0.338  21.159
 1430SOL    HW215919   3.890   0.287  21.074
 1431SOL     OW15920   0.802   3.359   3.801
 1431SOL    HW115921   0.889   3.353   3.761
 1431SOL    HW215922   0.742   3.324   3.735
 1432SOL     OW15923   0.656   4.625  21.858
 1432SOL    HW115924   0.593   4.623  21.930
 1432SOL    HW215925   0.659   4.717  21.832
 1433SOL     OW15926   1.743   0.410  12.467
 1433SOL    HW115927   1.802   0.339  12.492
 1433SOL    HW215928   1.800   0.474  12.424
 1434SOL     OW15929   2.737   1.594   5.904
 1434SOL    HW115930   2.695   1.640   5.977
 1434SOL    HW215931   2.831   1.606   5.918
 1435SOL     OW15932   3.388   3.762  20.114
 1435SOL    HW115933   3.422   3.728  20.031
 1435SOL    HW215934   3.466   3.780  20.166
 1436SOL     OW15935   3.544   0.149  26.955
 1436SOL    HW115936   3.598   0.175  27.030
 1436SOL    HW215937   3.585   0.192  26.880
 1437SOL     OW15938   1.023   4.143  26.674
 1437SOL    HW115939   1.042   4.138  26.768
 1437SOL    HW215940   0.979   4.061  26.654
 1438SOL     OW15941   3.768   4.660   9.128
 1438SOL    HW115942   3.806   4.585   9.174
 1438SOL    HW215943   3.675   4.640   9.123
 1439SOL     OW15944   0.306   3.482  23.723
 1439SOL    HW115945   0.372   3.423  23.758
 1439SOL    HW215946   0.230   3.469  23.779
 1440SOL     OW15947   3.684   1.462  26.912
 1440SOL    HW115948   3.746   1.492  26.846
 1440SOL    HW215949   3.638   1.541  26.940
 1441SOL     OW15950   4.703   2.164  27.798
 1441SOL    HW115951   4.624   2.179  27.850
 1441SOL    HW215952   4.751   2.097  27.847
 1442SOL     OW15953   3.275   3.211   3.321
 1442SOL    HW115954   3.276   3.297   3.279
 1442SOL    HW215955   3.338   3.159   3.271
 1443SOL     OW15956   0.659   1.101  20.506
 1443SOL    HW115957   0.736   1.108  20.450
 1443SOL    HW215958   0.608   1.179  20.486
 1444SOL     OW15959   1.180   1.338   2.927
 1444SOL    HW115960   1.085   1.349   2.928
 1444SOL    HW215961   1.210   1.390   3.002
 1445SOL     OW15962   1.142   1.339  23.990
 1445SOL    HW115963   1.075   1.407  23.986
 1445SOL    HW215964   1.193   1.352  23.910
 1446SOL     OW15965   0.254   3.044   2.635
 1446SOL    HW115966   0.339   3.077   2.663
 1446SOL    HW215967   0.207   3.121   2.604
 1447SOL     OW15968   3.383   4.372   9.511
 1447SOL    HW115969   3.478   4.371   9.523
 1447SOL    HW215970   3.371   4.390   9.418
 1448SOL     OW15971   4.567   2.346  26.017
 1448SOL    HW115972   4.608   2.268  26.054
 1448SOL    HW215973   4.591   2.416  26.077
 1449SOL     OW15974   0.345   2.951   1.299
 1449SOL    HW115975   0.397   2.893   1.354
 1449SOL    HW215976   0.398   2.964   1.220
 1450SOL     OW15977   0.963   1.006   5.406
 1450SOL    HW115978   0.962   0.947   5.330
 1450SOL    HW215979   0.915   0.959   5.474
 1451SOL     OW15980   3.771   2.131  18.276
 1451SOL    HW115981   3.842   2.181  18.316
 1451SOL    HW215982   3.691   2.169  18.313
 1452SOL     OW15983   0.735   3.546   5.575
 1452SOL    HW115984   0.766   3.606   5.507
 1452SOL    HW215985   0.645   3.525   5.550
 1453SOL     OW15986   1.443   3.180  28.499
 1453SOL    HW115987   1.520   3.143   0.019
 1453SOL    HW215988   1.393   3.104  28.468
 1454SOL     OW15989   3.691   1.964   1.319
 1454SOL    HW115990   3.690   1.900   1.390
 1454SOL    HW215991   3.722   1.914   1.243
 1455SOL     OW15992   4.087   2.049   7.754
 1455SOL    HW115993   4.119   2.137   7.772
 1455SOL    HW215994   4.145   1.992   7.804
 1456SOL     OW15995   3.372   0.915   5.600
 1456SOL    HW115996   3.381   0.821   5.616
 1456SOL    HW215997   3.308   0.921   5.529
 1457SOL     OW15998   3.479   0.252   7.985
 1457SOL    HW115999   3.390   0.226   7.961
 1457SOL    HW216000   3.475   0.347   7.992
 1458SOL     OW16001   1.690   3.612  11.011
 1458SOL    HW116002   1.750   3.555  11.059
 1458SOL    HW216003   1.743   3.646  10.939
 1459SOL     OW16004   1.827   2.870   4.696
 1459SOL    HW116005   1.820   2.792   4.751
 1459SOL    HW216006   1.839   2.835   4.608
 1460SOL     OW16007   2.516   1.550   9.441
 1460SOL    HW116008   2.430   1.509   9.434
 1460SOL    HW216009   2.531   1.559   9.535
 1461SOL     OW16010   0.262   3.207   6.928
 1461SOL    HW116011   0.228   3.214   7.017
 1461SOL    HW216012   0.350   3.170   6.939
 1462SOL     OW16013   1.974   2.734   8.919
 1462SOL    HW116014   1.969   2.805   8.983
 1462SOL    HW216015   2.052   2.754   8.867
 1463SOL     OW16016   0.949   1.540   7.595
 1463SOL    HW116017   0.896   1.540   7.515
 1463SOL    HW216018   0.934   1.454   7.634
 1464SOL     OW16019   3.071   2.953   2.117
 1464SOL    HW116020   3.000   2.889   2.118
 1464SOL    HW216021   3.035   3.028   2.070
 1465SOL     OW16022   2.651   4.161  22.164
 1465SOL    HW116023   2.561   4.192  22.176
 1465SOL    HW216024   2.703   4.240  22.153
 1466SOL     OW16025   2.140   3.045   1.667
 1466SOL    HW116026   2.216   3.073   1.616
 1466SOL    HW216027   2.177   3.017   1.751
 1467SOL     OW16028   4.724   2.667  27.994
 1467SOL    HW116029   4.714   2.638  27.904
 1467SOL    HW216030   4.679   2.601  28.046
 1468SOL     OW16031   3.039   4.270  27.969
 1468SOL    HW116032   2.945   4.281  27.980
 1468SOL    HW216033   3.057   4.301  27.880
 1469SOL     OW16034   2.249   4.549   8.067
 1469SOL    HW116035   2.257   4.462   8.029
 1469SOL    HW216036   2.245   4.534   8.161
 1470SOL     OW16037   0.047   3.140  20.230
 1470SOL    HW116038   0.072   3.049  20.213
 1470SOL    HW216039   0.062   3.152  20.324
 1471SOL     OW16040   2.392   3.578  18.429
 1471SOL    HW116041   2.322   3.538  18.481
 1471SOL    HW216042   2.351   3.595  18.344
 1472SOL     OW16043   4.410   3.600   0.968
 1472SOL    HW116044   4.463   3.592   0.889
 1472SOL    HW216045   4.473   3.597   1.040
 1473SOL     OW16046   0.930   1.333   0.825
 1473SOL    HW116047   0.965   1.249   0.797
 1473SOL    HW216048   0.924   1.385   0.745
 1474SOL     OW16049   4.431   1.649  19.440
 1474SOL    HW116050   4.341   1.656  19.473
 1474SOL    HW216051   4.481   1.711  19.492
 1475SOL     OW16052   0.922   2.557  23.724
 1475SOL    HW116053   0.966   2.563  23.809
 1475SOL    HW216054   0.870   2.477  23.730
 1476SOL     OW16055   3.429   1.353   3.538
 1476SOL    HW116056   3.425   1.406   3.618
 1476SOL    HW216057   3.508   1.383   3.494
 1477SOL     OW16058   3.746   2.449   8.354
 1477SOL    HW116059   3.829   2.401   8.357
 1477SOL    HW216060   3.751   2.500   8.273
 1478SOL     OW16061   3.065   0.382  21.961
 1478SOL    HW116062   3.006   0.366  22.035
 1478SOL    HW216063   3.056   0.475  21.942
 1479SOL     OW16064   3.531   4.397   5.869
 1479SOL    HW116065   3.579   4.319   5.895
 1479SOL    HW216066   3.599   4.463   5.852
 1480SOL     OW16067   0.982   0.589  19.794
 1480SOL    HW116068   0.954   0.674  19.829
 1480SOL    HW216069   1.039   0.553  19.861
 1481SOL     OW16070   4.624   4.702  21.760
 1481SOL    HW116071   4.608   4.669  21.672
 1481SOL    HW216072   4.621   4.624  21.816
 1482SOL     OW16073   1.142   3.265   0.197
 1482SOL    HW116074   1.145   3.218   0.114
 1482SOL    HW216075   1.076   3.219   0.248
 1483SOL     OW16076   1.601   3.323  25.435
 1483SOL    HW116077   1.624   3.405  25.479
 1483SOL    HW216078   1.525   3.345  25.381
 1484SOL     OW16079   0.939   2.826   2.296
 1484SOL    HW116080   0.873   2.885   2.333
 1484SOL    HW216081   0.903   2.799   2.212
 1485SOL     OW16082   2.280   0.282  10.017
 1485SOL    HW116083   2.190   0.252  10.003
 1485SOL    HW216084   2.316   0.220  10.081
 1486SOL     OW16085   2.991   4.353   9.087
 1486SOL    HW116086   3.049   4.429   9.086
 1486SOL    HW216087   3.019   4.300   9.013
 1487SOL     OW16088   4.278   4.724  28.113
 1487SOL    HW116089   4.355   4.769  28.147
 1487SOL    HW216090   4.231   4.694  28.191
 1488SOL     OW16091   1.562   3.128  19.496
 1488SOL    HW116092   1.470   3.151  19.505
 1488SOL    HW216093   1.577   3.061  19.563
 1489SOL     OW16094   0.675   3.676   7.847
 1489SOL    HW116095   0.717   3.590   7.853
 1489SOL    HW216096   0.724   3.732   7.907
 1490SOL     OW16097   4.731   4.202  23.661
 1490SOL    HW116098   0.043   4.213  23.680
 1490SOL    HW216099   4.705   4.284  23.619
 1491SOL     OW16100   3.888   4.299  26.612
 1491SOL    HW116101   3.870   4.368  26.676
 1491SOL    HW216102   3.843   4.328  26.533
 1492SOL     OW16103   3.397   3.734   4.160
 1492SOL    HW116104   3.319   3.717   4.212
 1492SOL    HW216105   3.468   3.693   4.209
 1493SOL     OW16106   2.651   2.404  21.400
 1493SOL    HW116107   2.671   2.375  21.489
 1493SOL    HW216108   2.686   2.493  21.396
 1494SOL     OW16109   4.500   3.498   5.405
 1494SOL    HW116110   4.535   3.565   5.464
 1494SOL    HW216111   4.576   3.447   5.377
 1495SOL     OW16112   2.395   3.913  27.558
 1495SOL    HW116113   2.341   3.837  27.581
 1495SOL    HW216114   2.397   3.912  27.462
 1496SOL     OW16115   2.833   4.641   9.975
 1496SOL    HW116116   2.798   4.657   9.887
 1496SOL    HW216117   2.765   4.590  10.019
 1497SOL     OW16118   2.375   1.067   4.064
 1497SOL    HW116119   2.405   1.137   4.006
 1497SOL    HW216120   2.287   1.047   4.033
 1498SOL     OW16121   2.193   0.358  27.281
 1498SOL    HW116122   2.229   0.385  27.196
 1498SOL    HW216123   2.105   0.325  27.260
 1499SOL     OW16124   1.597   2.613  21.286
 1499SOL    HW116125   1.687   2.591  21.309
 1499SOL    HW216126   1.600   2.634  21.193
 1500SOL     OW16127   0.184   2.845  21.264
 1500SOL    HW116128   0.143   2.928  21.240
 1500SOL    HW216129   0.147   2.824  21.350
 1501SOL     OW16130   2.659   2.282  19.028
 1501SOL    HW116131   2.587   2.241  19.076
 1501SOL    HW216132   2.616   2.344  18.970
 1502SOL     OW16133   0.540   4.741   5.421
 1502SOL    HW116134   0.596   0.032   5.393
 1502SOL    HW216135   0.570   4.720   5.510
 1503SOL     OW16136   2.779   1.307   9.791
 1503SOL    HW116137   2.794   1.303   9.885
 1503SOL    HW216138   2.854   1.355   9.756
 1504SOL     OW16139   3.585   4.749  18.852
 1504SOL    HW116140   3.625   0.023  18.785
 1504SOL    HW216141   3.569   0.027  18.926
 1505SOL     OW16142   0.942   3.928   4.968
 1505SOL    HW116143   0.960   4.005   4.914
 1505SOL    HW216144   0.896   3.868   4.909
 1506SOL     OW16145   2.704   0.980  17.013
 1506SOL    HW116146   2.717   1.075  17.009
 1506SOL    HW216147   2.621   0.969  17.059
 1507SOL     OW16148   3.081   4.489  28.180
 1507SOL    HW116149   2.996   4.533  28.182
 1507SOL    HW216150   3.066   4.410  28.128
 1508SOL     OW16151   1.322   2.799  12.686
 1508SOL    HW116152   1.275   2.746  12.622
 1508SOL    HW216153   1.410   2.762  12.688
 1509SOL     OW16154   4.613   1.886  17.082
 1509SOL    HW116155   4.697   1.861  17.044
 1509SOL    HW216156   4.550   1.875  17.011
 1510SOL     OW16157   1.924   3.267   0.374
 1510SOL    HW116158   1.940   3.251   0.467
 1510SOL    HW216159   1.965   3.193   0.330
 1511SOL     OW16160   2.338   2.341   5.103
 1511SOL    HW116161   2.310   2.311   5.189
 1511SOL    HW216162   2.401   2.275   5.074
 1512SOL     OW16163   2.923   0.702   0.232
 1512SOL    HW116164   3.010   0.740   0.224
 1512SOL    HW216165   2.897   0.718   0.323
 1513SOL     OW16166   1.563   4.418  12.028
 1513SOL    HW116167   1.608   4.338  12.056
 1513SOL    HW216168   1.623   4.489  12.050
 1514SOL     OW16169   0.585   0.898   2.139
 1514SOL    HW116170   0.490   0.897   2.132
 1514SOL    HW216171   0.604   0.845   2.216
 1515SOL     OW16172   4.463   3.232   5.535
 1515SOL    HW116173   4.462   3.312   5.483
 1515SOL    HW216174   4.544   3.188   5.511
 1516SOL     OW16175   1.631   3.296  22.275
 1516SOL    HW116176   1.614   3.256  22.360
 1516SOL    HW216177   1.607   3.388  22.287
 1517SOL     OW16178   2.203   1.243  23.715
 1517SOL    HW116179   2.148   1.223  23.639
 1517SOL    HW216180   2.169   1.186  23.784
 1518SOL     OW16181   2.995   1.657   6.040
 1518SOL    HW116182   3.056   1.661   6.113
 1518SOL    HW216183   3.051   1.661   5.962
 1519SOL     OW16184   4.577   0.107   8.846
 1519SOL    HW116185   4.655   0.103   8.791
 1519SOL    HW216186   4.509   0.143   8.789
 1520SOL     OW16187   0.287   2.210   6.733
 1520SOL    HW116188   0.250   2.124   6.715
 1520SOL    HW216189   0.212   2.269   6.732
 1521SOL     OW16190   4.737   4.113   2.504
 1521SOL    HW116191   4.655   4.159   2.487
 1521SOL    HW216192   4.724   4.026   2.467
 1522SOL     OW16193   0.556   1.640  28.418
 1522SOL    HW116194   0.591   1.699  28.351
 1522SOL    HW216195   0.514   1.570  28.368
 1523SOL     OW16196   4.664   2.372   3.891
 1523SOL    HW116197   4.739   2.344   3.838
 1523SOL    HW216198   4.588   2.355   3.836
 1524SOL     OW16199   3.622   3.477   9.643
 1524SOL    HW116200   3.578   3.424   9.576
 1524SOL    HW216201   3.695   3.518   9.597
 1525SOL     OW16202   2.805   2.689  18.442
 1525SOL    HW116203   2.777   2.779  18.460
 1525SOL    HW216204   2.850   2.661  18.522
 1526SOL     OW16205   2.002   3.086   4.798
 1526SOL    HW116206   2.001   3.136   4.716
 1526SOL    HW216207   1.944   3.012   4.782
 1527SOL     OW16208   1.992   2.518  25.988
 1527SOL    HW116209   2.067   2.499  25.932
 1527SOL    HW216210   1.925   2.550  25.928
 1528SOL     OW16211   3.001   3.957  23.790
 1528SOL    HW116212   3.004   4.044  23.751
 1528SOL    HW216213   2.909   3.944  23.812
 1529SOL     OW16214   0.228   3.251   0.379
 1529SOL    HW116215   0.319   3.254   0.409
 1529SOL    HW216216   0.201   3.343   0.373
 1530SOL     OW16217   1.256   1.358   6.620
 1530SOL    HW116218   1.288   1.420   6.686
 1530SOL    HW216219   1.223   1.413   6.549
 1531SOL     OW16220   1.608   0.022   9.476
 1531SOL    HW116221   1.569   0.061   9.554
 1531SOL    HW216222   1.602   0.091   9.410
 1532SOL     OW16223   0.661   3.388  10.744
 1532SOL    HW116224   0.588   3.381  10.683
 1532SOL    HW216225   0.639   3.328  10.815
 1533SOL     OW16226   0.326   0.930  10.670
 1533SOL    HW116227   0.231   0.930  10.658
 1533SOL    HW216228   0.357   0.856  10.617
 1534SOL     OW16229   3.757   3.191  20.057
 1534SOL    HW116230   3.833   3.168  20.111
 1534SOL    HW216231   3.681   3.168  20.111
 1535SOL     OW16232   1.959   0.076  21.627
 1535SOL    HW116233   1.981   0.168  21.641
 1535SOL    HW216234   1.985   0.032  21.708
 1536SOL     OW16235   0.865   3.446   9.692
 1536SOL    HW116236   0.833   3.510   9.629
 1536SOL    HW216237   0.786   3.412   9.734
 1537SOL     OW16238   3.280   2.923   6.727
 1537SOL    HW116239   3.235   2.894   6.648
 1537SOL    HW216240   3.292   3.017   6.714
 1538SOL     OW16241   4.438   1.278  20.831
 1538SOL    HW116242   4.385   1.256  20.755
 1538SOL    HW216243   4.521   1.232  20.817
 1539SOL     OW16244   0.504   4.272  27.963
 1539SOL    HW116245   0.448   4.194  27.969
 1539SOL    HW216246   0.580   4.251  28.017
 1540SOL     OW16247   1.439   3.670   6.422
 1540SOL    HW116248   1.405   3.759   6.428
 1540SOL    HW216249   1.374   3.622   6.371
 1541SOL     OW16250   3.573   2.376  25.055
 1541SOL    HW116251   3.495   2.322  25.043
 1541SOL    HW216252   3.567   2.443  24.986
 1542SOL     OW16253   3.678   0.984  24.256
 1542SOL    HW116254   3.657   1.020  24.170
 1542SOL    HW216255   3.654   1.053  24.318
 1543SOL     OW16256   1.336   2.881  25.341
 1543SOL    HW116257   1.242   2.865  25.343
 1543SOL    HW216258   1.346   2.967  25.382
 1544SOL     OW16259   4.711   2.092  22.706
 1544SOL    HW116260   4.626   2.060  22.736
 1544SOL    HW216261   4.774   2.030  22.743
 1545SOL     OW16262   3.832   4.664   5.013
 1545SOL    HW116263   3.840   4.704   4.926
 1545SOL    HW216264   3.885   4.720   5.070
 1546SOL     OW16265   1.520   2.391  10.616
 1546SOL    HW116266   1.614   2.403  10.630
 1546SOL    HW216267   1.509   2.296  10.607
 1547SOL     OW16268   0.202   1.735   7.935
 1547SOL    HW116269   0.290   1.700   7.949
 1547SOL    HW216270   0.216   1.828   7.919
 1548SOL     OW16271   2.524   3.190  28.418
 1548SOL    HW116272   2.552   3.159  28.504
 1548SOL    HW216273   2.560   3.279  28.412
 1549SOL     OW16274   4.535   0.926  26.991
 1549SOL    HW116275   4.458   0.982  27.004
 1549SOL    HW216276   4.502   0.837  27.005
 1550SOL     OW16277   3.291   4.779  21.566
 1550SOL    HW116278   3.328   4.721  21.632
 1550SOL    HW216279   3.209   0.029  21.604
 1551SOL     OW16280   3.814   2.677   8.241
 1551SOL    HW116281   3.792   2.764   8.275
 1551SOL    HW216282   3.909   2.678   8.233
 1552SOL     OW16283   1.976   1.048   3.036
 1552SOL    HW116284   1.981   1.053   2.940
 1552SOL    HW216285   1.989   1.138   3.065
 1553SOL     OW16286   4.538   0.155  27.815
 1553SOL    HW116287   4.498   0.240  27.795
 1553SOL    HW216288   4.632   0.173  27.819
 1554SOL     OW16289   1.779   1.472   2.887
 1554SOL    HW116290   1.758   1.507   2.800
 1554SOL    HW216291   1.725   1.393   2.894
 1555SOL     OW16292   3.506   2.274  11.594
 1555SOL    HW116293   3.569   2.263  11.523
 1555SOL    HW216294   3.453   2.194  11.592
 1556SOL     OW16295   2.094   3.566   3.017
 1556SOL    HW116296   2.088   3.618   3.097
 1556SOL    HW216297   2.131   3.482   3.046
 1557SOL     OW16298   3.527   0.794  25.405
 1557SOL    HW116299   3.509   0.793  25.311
 1557SOL    HW216300   3.562   0.882  25.421
 1558SOL     OW16301   3.438   4.107  20.025
 1558SOL    HW116302   3.512   4.081  19.970
 1558SOL    HW216303   3.461   4.076  20.113
 1559SOL     OW16304   1.040   4.186   8.764
 1559SOL    HW116305   1.042   4.173   8.859
 1559SOL    HW216306   1.089   4.267   8.749
 1560SOL     OW16307   1.415   0.799   0.852
 1560SOL    HW116308   1.488   0.795   0.913
 1560SOL    HW216309   1.375   0.884   0.869
 1561SOL     OW16310   4.630   4.504   1.535
 1561SOL    HW116311   4.716   4.471   1.509
 1561SOL    HW216312   4.620   4.475   1.626
 1562SOL     OW16313   3.029   1.349  22.277
 1562SOL    HW116314   2.963   1.373  22.341
 1562SOL    HW216315   3.070   1.271  22.313
 1563SOL     OW16316   4.457   0.441   2.261
 1563SOL    HW116317   4.474   0.389   2.339
 1563SOL    HW216318   4.494   0.527   2.281
 1564SOL     OW16319   3.360   3.095  28.502
 1564SOL    HW116320   3.294   3.160   0.005
 1564SOL    HW216321   3.442   3.130   0.015
 1565SOL     OW16322   3.907   2.680  27.044
 1565SOL    HW116323   3.999   2.688  27.019
 1565SOL    HW216324   3.901   2.595  27.087
 1566SOL     OW16325   3.308   1.403  25.418
 1566SOL    HW116326   3.250   1.416  25.493
 1566SOL    HW216327   3.268   1.331  25.369
 1567SOL     OW16328   4.206   2.933   6.006
 1567SOL    HW116329   4.147   2.947   6.080
 1567SOL    HW216330   4.290   2.910   6.047
 1568SOL     OW16331   4.628   4.186   0.558
 1568SOL    HW116332   4.555   4.126   0.545
 1568SOL    HW216333   4.587   4.272   0.564
 1569SOL     OW16334   1.768   1.115  26.683
 1569SOL    HW116335   1.794   1.025  26.665
 1569SOL    HW216336   1.835   1.169  26.641
 1570SOL     OW16337   2.942   2.806   8.130
 1570SOL    HW116338   2.958   2.763   8.046
 1570SOL    HW216339   2.865   2.762   8.166
 1571SOL     OW16340   0.687   0.375   3.425
 1571SOL    HW116341   0.740   0.338   3.355
 1571SOL    HW216342   0.613   0.315   3.434
 1572SOL     OW16343   0.907   3.886  22.698
 1572SOL    HW116344   0.846   3.919  22.632
 1572SOL    HW216345   0.853   3.872  22.776
 1573SOL     OW16346   0.058   3.716   8.344
 1573SOL    HW116347   0.071   3.623   8.364
 1573SOL    HW216348   0.098   3.727   8.258
 1574SOL     OW16349   4.492   1.014  22.686
 1574SOL    HW116350   4.551   0.962  22.741
 1574SOL    HW216351   4.495   0.971  22.600
 1575SOL     OW16352   3.437   4.359  20.286
 1575SOL    HW116353   3.504   4.403  20.338
 1575SOL    HW216354   3.448   4.266  20.306
 1576SOL     OW16355   0.653   0.565  25.198
 1576SOL    HW116356   0.710   0.607  25.134
 1576SOL    HW216357   0.673   0.472  25.192
 1577SOL     OW16358   4.047   4.294   7.001
 1577SOL    HW116359   4.120   4.232   6.997
 1577SOL    HW216360   4.040   4.328   6.912
 1578SOL     OW16361   2.548   3.348   8.204
 1578SOL    HW116362   2.575   3.422   8.150
 1578SOL    HW216363   2.630   3.307   8.232
 1579SOL     OW16364   2.112   3.829  24.573
 1579SOL    HW116365   2.077   3.910  24.610
 1579SOL    HW216366   2.150   3.783  24.648
 1580SOL     OW16367   3.821   3.574   0.420
 1580SOL    HW116368   3.743   3.592   0.473
 1580SOL    HW216369   3.883   3.534   0.481
 1581SOL     OW16370   1.262   2.980  27.269
 1581SOL    HW116371   1.311   3.011  27.345
 1581SOL    HW216372   1.178   3.027  27.274
 1582SOL     OW16373   4.001   1.829   0.323
 1582SOL    HW116374   3.972   1.757   0.267
 1582SOL    HW216375   4.094   1.840   0.301
 1583SOL     OW16376   2.280   2.185   8.756
 1583SOL    HW116377   2.342   2.154   8.822
 1583SOL    HW216378   2.204   2.213   8.806
 1584SOL     OW16379   4.047   0.468  26.418
 1584SOL    HW116380   4.104   0.532  26.461
 1584SOL    HW216381   4.023   0.407  26.488
 1585SOL     OW16382   4.365   2.403   1.262
 1585SOL    HW116383   4.461   2.406   1.259
 1585SOL    HW216384   4.341   2.336   1.198
 1586SOL     OW16385   0.584   0.116  21.483
 1586SOL    HW116386   0.595   0.085  21.573
 1586SOL    HW216387   0.663   0.087  21.437
 1587SOL     OW16388   3.090   0.897   5.753
 1587SOL    HW116389   3.130   0.847   5.682
 1587SOL    HW216390   3.018   0.842   5.784
 1588SOL     OW16391   2.849   4.519  19.733
 1588SOL    HW116392   2.880   4.579  19.665
 1588SOL    HW216393   2.888   4.553  19.814
 1589SOL     OW16394   0.791   0.116   5.386
 1589SOL    HW116395   0.879   0.136   5.418
 1589SOL    HW216396   0.735   0.179   5.431
 1590SOL     OW16397   2.271   0.937  22.535
 1590SOL    HW116398   2.316   0.868  22.583
 1590SOL    HW216399   2.183   0.902  22.520
 1591SOL     OW16400   2.436   4.510  23.862
 1591SOL    HW116401   2.372   4.489  23.930
 1591SOL    HW216402   2.388   4.503  23.780
 1592SOL     OW16403   0.522   0.230   1.321
 1592SOL    HW116404   0.461   0.164   1.356
 1592SOL    HW216405   0.607   0.205   1.356
 1593SOL     OW16406   0.599   4.628  25.936
 1593SOL    HW116407   0.668   4.572  25.972
 1593SOL    HW216408   0.605   4.708  25.988
 1594SOL     OW16409   3.144   2.670  27.107
 1594SOL    HW116410   3.110   2.733  27.043
 1594SOL    HW216411   3.098   2.692  27.188
 1595SOL     OW16412   2.791   4.730  18.970
 1595SOL    HW116413   2.789   4.637  18.947
 1595SOL    HW216414   2.850   4.735  19.045
 1596SOL     OW16415   3.349   0.302   2.471
 1596SOL    HW116416   3.402   0.325   2.395
 1596SOL    HW216417   3.277   0.365   2.471
 1597SOL     OW16418   2.585   1.992  22.969
 1597SOL    HW116419   2.606   1.899  22.974
 1597SOL    HW216420   2.661   2.035  23.008
 1598SOL     OW16421   1.449   1.767   6.344
 1598SOL    HW116422   1.388   1.833   6.377
 1598SOL    HW216423   1.530   1.815   6.328
 1599SOL     OW16424   0.608   1.270  10.437
 1599SOL    HW116425   0.694   1.291  10.474
 1599SOL    HW216426   0.557   1.238  10.511
 1600SOL     OW16427   0.803   3.462   6.791
 1600SOL    HW116428   0.759   3.395   6.738
 1600SOL    HW216429   0.752   3.465   6.872
 1601SOL     OW16430   2.887   1.538  22.890
 1601SOL    HW116431   2.947   1.530  22.964
 1601SOL    HW216432   2.856   1.449  22.875
 1602SOL     OW16433   1.610   4.563  25.727
 1602SOL    HW116434   1.660   4.487  25.758
 1602SOL    HW216435   1.576   4.604  25.807
 1603SOL     OW16436   2.094   3.126  19.291
 1603SOL    HW116437   2.179   3.157  19.261
 1603SOL    HW216438   2.034   3.150  19.220
 1604SOL     OW16439   0.828   0.762  21.229
 1604SOL    HW116440   0.827   0.735  21.137
 1604SOL    HW216441   0.771   0.839  21.231
 1605SOL     OW16442   4.558   2.686   0.550
 1605SOL    HW116443   4.627   2.624   0.527
 1605SOL    HW216444   4.484   2.631   0.576
 1606SOL     OW16445   2.509   0.408  26.322
 1606SOL    HW116446   2.475   0.396  26.233
 1606SOL    HW216447   2.569   0.334  26.335
 1607SOL     OW16448   1.555   0.106  27.711
 1607SOL    HW116449   1.587   0.030  27.759
 1607SOL    HW216450   1.596   0.100  27.625
 1608SOL     OW16451   3.223   1.853   7.486
 1608SOL    HW116452   3.296   1.838   7.546
 1608SOL    HW216453   3.219   1.948   7.478
 1609SOL     OW16454   1.303   3.677   0.623
 1609SOL    HW116455   1.285   3.584   0.639
 1609SOL    HW216456   1.385   3.677   0.574
 1610SOL     OW16457   0.015   3.402  10.372
 1610SOL    HW116458   0.088   3.409  10.434
 1610SOL    HW216459   0.044   3.335  10.310
 1611SOL     OW16460   0.360   3.942   3.882
 1611SOL    HW116461   0.303   4.015   3.856
 1611SOL    HW216462   0.339   3.927   3.974
 1612SOL     OW16463   4.568   0.181  23.019
 1612SOL    HW116464   4.647   0.221  22.983
 1612SOL    HW216465   4.594   0.092  23.041
 1613SOL     OW16466   0.632   1.903  19.843
 1613SOL    HW116467   0.567   1.833  19.837
 1613SOL    HW216468   0.592   1.976  19.796
 1614SOL     OW16469   4.463   4.301   1.468
 1614SOL    HW116470   4.384   4.352   1.453
 1614SOL    HW216471   4.524   4.362   1.509
 1615SOL     OW16472   0.930   3.121  23.412
 1615SOL    HW116473   0.871   3.196  23.403
 1615SOL    HW216474   0.916   3.090  23.501
 1616SOL     OW16475   4.173   1.049   8.064
 1616SOL    HW116476   4.185   1.144   8.057
 1616SOL    HW216477   4.215   1.026   8.147
 1617SOL     OW16478   3.496   3.612  23.293
 1617SOL    HW116479   3.463   3.549  23.357
 1617SOL    HW216480   3.465   3.697  23.325
 1618SOL     OW16481   0.170   3.124  24.686
 1618SOL    HW116482   0.120   3.173  24.751
 1618SOL    HW216483   0.206   3.191  24.628
 1619SOL     OW16484   3.904   1.123   1.027
 1619SOL    HW116485   3.913   1.212   1.060
 1619SOL    HW216486   3.903   1.069   1.106
 1620SOL     OW16487   3.541   2.005   0.484
 1620SOL    HW116488   3.484   1.998   0.407
 1620SOL    HW216489   3.495   2.065   0.543
 1621SOL     OW16490   4.275   2.003  18.728
 1621SOL    HW116491   4.278   2.023  18.634
 1621SOL    HW216492   4.358   2.037  18.762
 1622SOL     OW16493   1.523   0.882  22.684
 1622SOL    HW116494   1.529   0.817  22.613
 1622SOL    HW216495   1.500   0.831  22.761
 1623SOL     OW16496   1.368   3.632   5.962
 1623SOL    HW116497   1.426   3.600   5.893
 1623SOL    HW216498   1.305   3.561   5.975
 1624SOL     OW16499   1.105   0.836  25.412
 1624SOL    HW116500   1.105   0.766  25.347
 1624SOL    HW216501   1.162   0.804  25.482
 1625SOL     OW16502   0.305   1.098   8.090
 1625SOL    HW116503   0.392   1.062   8.072
 1625SOL    HW216504   0.268   1.116   8.004
 1626SOL     OW16505   1.562   3.741  10.332
 1626SOL    HW116506   1.471   3.769  10.327
 1626SOL    HW216507   1.602   3.778  10.253
 1627SOL     OW16508   4.585   4.767  10.177
 1627SOL    HW116509   4.524   4.696  10.198
 1627SOL    HW216510   4.655   4.757  10.242
 1628SOL     OW16511   3.448   0.851   5.300
 1628SOL    HW116512   3.481   0.837   5.211
 1628SOL    HW216513   3.441   0.946   5.309
 1629SOL     OW16514   2.962   2.906  22.750
 1629SOL    HW116515   2.936   2.814  22.746
 1629SOL    HW216516   2.933   2.935  22.837
 1630SOL     OW16517   1.950   3.594   4.136
 1630SOL    HW116518   1.887   3.596   4.064
 1630SOL    HW216519   1.900   3.564   4.211
 1631SOL     OW16520   3.410   3.469  26.558
 1631SOL    HW116521   3.471   3.489  26.629
 1631SOL    HW216522   3.326   3.503  26.589
 1632SOL     OW16523   2.002   4.138  23.176
 1632SOL    HW116524   1.958   4.079  23.238
 1632SOL    HW216525   1.993   4.095  23.091
 1633SOL     OW16526   0.094   4.385   2.970
 1633SOL    HW116527   0.131   4.344   2.892
 1633SOL    HW216528   0.170   4.419   3.017
 1634SOL     OW16529   4.022   2.606  25.940
 1634SOL    HW116530   4.007   2.562  26.023
 1634SOL    HW216531   4.037   2.698  25.964
 1635SOL     OW16532   2.678   4.498   1.165
 1635SOL    HW116533   2.750   4.509   1.103
 1635SOL    HW216534   2.710   4.537   1.246
 1636SOL     OW16535   4.049   2.083  21.295
 1636SOL    HW116536   4.075   1.997  21.329
 1636SOL    HW216537   3.966   2.102  21.339
 1637SOL     OW16538   3.293   2.986   3.029
 1637SOL    HW116539   3.347   2.937   2.967
 1637SOL    HW216540   3.236   2.920   3.069
 1638SOL     OW16541   1.730   2.695   5.720
 1638SOL    HW116542   1.637   2.700   5.741
 1638SOL    HW216543   1.732   2.672   5.627
 1639SOL     OW16544   1.071   3.870   7.218
 1639SOL    HW116545   1.011   3.927   7.170
 1639SOL    HW216546   1.014   3.807   7.263
 1640SOL     OW16547   2.516   2.123  11.005
 1640SOL    HW116548   2.470   2.051  11.048
 1640SOL    HW216549   2.520   2.192  11.072
 1641SOL     OW16550   0.075   2.511  26.092
 1641SOL    HW116551   0.053   2.465  26.173
 1641SOL    HW216552   0.029   2.595  26.098
 1642SOL     OW16553   2.342   3.064  23.260
 1642SOL    HW116554   2.286   3.142  23.265
 1642SOL    HW216555   2.293   3.003  23.205
 1643SOL     OW16556   1.237   1.526   6.027
 1643SOL    HW116557   1.315   1.479   6.058
 1643SOL    HW216558   1.237   1.513   5.932
 1644SOL     OW16559   4.711   4.286   0.816
 1644SOL    HW116560   4.671   4.215   0.766
 1644SOL    HW216561   0.012   4.304   0.770
 1645SOL     OW16562   3.015   2.095  23.732
 1645SOL    HW116563   3.012   2.132  23.820
 1645SOL    HW216564   2.946   2.142  23.684
 1646SOL     OW16565   1.309   3.820  10.346
 1646SOL    HW116566   1.222   3.790  10.318
 1646SOL    HW216567   1.294   3.860  10.432
 1647SOL     OW16568   2.961   1.518   3.861
 1647SOL    HW116569   2.925   1.432   3.883
 1647SOL    HW216570   2.922   1.539   3.776
 1648SOL     OW16571   1.303   2.184  26.154
 1648SOL    HW116572   1.209   2.179  26.171
 1648SOL    HW216573   1.340   2.109  26.200
 1649SOL     OW16574   4.434   4.061   5.054
 1649SOL    HW116575   4.396   4.131   5.108
 1649SOL    HW216576   4.529   4.071   5.065
 1650SOL     OW16577   2.832   4.185   6.481
 1650SOL    HW116578   2.925   4.209   6.475
 1650SOL    HW216579   2.787   4.268   6.492
 1651SOL     OW16580   0.088   4.724  22.002
 1651SOL    HW116581   0.172   4.679  22.015
 1651SOL    HW216582   0.068   4.710  21.909
 1652SOL     OW16583   1.595   1.197   4.323
 1652SOL    HW116584   1.588   1.274   4.266
 1652SOL    HW216585   1.604   1.123   4.262
 1653SOL     OW16586   0.742   1.810  22.797
 1653SOL    HW116587   0.679   1.859  22.849
 1653SOL    HW216588   0.689   1.748  22.747
 1654SOL     OW16589   1.418   4.125   8.963
 1654SOL    HW116590   1.508   4.129   8.995
 1654SOL    HW216591   1.426   4.136   8.868
 1655SOL     OW16592   2.615   1.825   3.870
 1655SOL    HW116593   2.587   1.737   3.846
 1655SOL    HW216594   2.543   1.881   3.842
 1656SOL     OW16595   2.973   4.587   8.029
 1656SOL    HW116596   2.883   4.592   8.060
 1656SOL    HW216597   2.966   4.545   7.943
 1657SOL     OW16598   4.704   1.791  22.583
 1657SOL    HW116599   4.614   1.823  22.576
 1657SOL    HW216600   4.700   1.701  22.552
 1658SOL     OW16601   4.720   1.881  21.665
 1658SOL    HW116602   4.655   1.879  21.736
 1658SOL    HW216603   0.023   1.892  21.710
 1659SOL     OW16604   2.039   3.186  11.229
 1659SOL    HW116605   1.996   3.228  11.303
 1659SOL    HW216606   2.123   3.155  11.264
 1660SOL     OW16607   0.100   1.688  27.533
 1660SOL    HW116608   0.017   1.685  27.581
 1660SOL    HW216609   0.085   1.634  27.455
 1661SOL     OW16610   1.793   3.183  25.166
 1661SOL    HW116611   1.778   3.093  25.139
 1661SOL    HW216612   1.719   3.204  25.223
 1662SOL     OW16613   4.559   4.650   7.148
 1662SOL    HW116614   4.583   4.736   7.182
 1662SOL    HW216615   4.642   4.612   7.120
 1663SOL     OW16616   3.697   1.368   6.095
 1663SOL    HW116617   3.641   1.413   6.032
 1663SOL    HW216618   3.783   1.408   6.084
 1664SOL     OW16619   1.562   3.575   7.566
 1664SOL    HW116620   1.577   3.531   7.482
 1664SOL    HW216621   1.467   3.587   7.570
 1665SOL     OW16622   4.600   2.941  25.461
 1665SOL    HW116623   4.562   3.008  25.518
 1665SOL    HW216624   4.692   2.967  25.452
 1666SOL     OW16625   3.547   3.426   4.034
 1666SOL    HW116626   3.548   3.363   3.962
 1666SOL    HW216627   3.455   3.435   4.057
 1667SOL     OW16628   2.428   3.472   6.584
 1667SOL    HW116629   2.411   3.562   6.556
 1667SOL    HW216630   2.523   3.467   6.592
 1668SOL     OW16631   3.442   1.228  24.981
 1668SOL    HW116632   3.451   1.288  25.055
 1668SOL    HW216633   3.381   1.272  24.922
 1669SOL     OW16634   2.406   4.192  20.939
 1669SOL    HW116635   2.400   4.283  20.969
 1669SOL    HW216636   2.368   4.141  21.010
 1670SOL     OW16637   3.787   3.855   5.616
 1670SOL    HW116638   3.746   3.922   5.562
 1670SOL    HW216639   3.731   3.778   5.605
 1671SOL     OW16640   3.443   1.200   4.561
 1671SOL    HW116641   3.456   1.292   4.585
 1671SOL    HW216642   3.500   1.186   4.486
 1672SOL     OW16643   3.325   1.237  22.878
 1672SOL    HW116644   3.323   1.232  22.782
 1672SOL    HW216645   3.418   1.238  22.901
 1673SOL     OW16646   1.376   0.216  28.180
 1673SOL    HW116647   1.337   0.209  28.093
 1673SOL    HW216648   1.387   0.310  28.194
 1674SOL     OW16649   1.606   2.631   4.115
 1674SOL    HW116650   1.689   2.584   4.109
 1674SOL    HW216651   1.630   2.717   4.150
 1675SOL     OW16652   3.581   0.285   7.352
 1675SOL    HW116653   3.607   0.356   7.410
 1675SOL    HW216654   3.527   0.328   7.285
 1676SOL     OW16655   2.484   2.944   1.588
 1676SOL    HW116656   2.448   3.024   1.550
 1676SOL    HW216657   2.553   2.918   1.527
 1677SOL     OW16658   2.539   4.326   3.089
 1677SOL    HW116659   2.582   4.255   3.041
 1677SOL    HW216660   2.542   4.401   3.030
 1678SOL     OW16661   3.203   4.386   3.388
 1678SOL    HW116662   3.164   4.352   3.307
 1678SOL    HW216663   3.160   4.471   3.401
 1679SOL     OW16664   3.664   1.387  18.480
 1679SOL    HW116665   3.649   1.293  18.480
 1679SOL    HW216666   3.756   1.397  18.506
 1680SOL     OW16667   4.273   4.423   1.094
 1680SOL    HW116668   4.299   4.420   1.002
 1680SOL    HW216669   4.352   4.398   1.142
 1681SOL     OW16670   3.354   1.333   5.379
 1681SOL    HW116671   3.335   1.265   5.314
 1681SOL    HW216672   3.292   1.403   5.358
 1682SOL     OW16673   1.917   3.429  27.993
 1682SOL    HW116674   2.003   3.465  28.016
 1682SOL    HW216675   1.854   3.483  28.042
 1683SOL     OW16676   1.863   4.351  23.455
 1683SOL    HW116677   1.958   4.338  23.463
 1683SOL    HW216678   1.825   4.291  23.520
 1684SOL     OW16679   0.166   0.097   4.123
 1684SOL    HW116680   0.108   0.134   4.056
 1684SOL    HW216681   0.236   0.162   4.132
 1685SOL     OW16682   4.252   3.094   7.042
 1685SOL    HW116683   4.243   3.011   7.089
 1685SOL    HW216684   4.164   3.114   7.011
 1686SOL     OW16685   3.028   2.828  18.968
 1686SOL    HW116686   3.048   2.738  18.941
 1686SOL    HW216687   2.934   2.826  18.988
 1687SOL     OW16688   1.855   3.394   4.324
 1687SOL    HW116689   1.813   3.464   4.374
 1687SOL    HW216690   1.936   3.375   4.371
 1688SOL     OW16691   3.773   2.660   3.443
 1688SOL    HW116692   3.739   2.601   3.375
 1688SOL    HW216693   3.866   2.638   3.449
 1689SOL     OW16694   3.495   2.564  24.845
 1689SOL    HW116695   3.490   2.584  24.752
 1689SOL    HW216696   3.419   2.508  24.862
 1690SOL     OW16697   4.330   1.916  21.055
 1690SOL    HW116698   4.393   1.911  21.127
 1690SOL    HW216699   4.380   1.951  20.981
 1691SOL     OW16700   4.519   4.231  27.146
 1691SOL    HW116701   4.548   4.188  27.066
 1691SOL    HW216702   4.468   4.306  27.116
 1692SOL     OW16703   1.936   2.171  26.113
 1692SOL    HW116704   1.921   2.199  26.023
 1692SOL    HW216705   1.858   2.120  26.135
 1693SOL     OW16706   4.228   1.040   9.592
 1693SOL    HW116707   4.303   0.986   9.566
 1693SOL    HW216708   4.194   1.074   9.510
 1694SOL     OW16709   1.949   2.325  11.409
 1694SOL    HW116710   1.964   2.252  11.470
 1694SOL    HW216711   2.026   2.324  11.352
 1695SOL     OW16712   2.337   0.820   8.927
 1695SOL    HW116713   2.421   0.795   8.964
 1695SOL    HW216714   2.313   0.901   8.973
 1696SOL     OW16715   0.619   4.117   1.947
 1696SOL    HW116716   0.561   4.084   1.879
 1696SOL    HW216717   0.601   4.062   2.023
 1697SOL     OW16718   4.250   1.369  25.192
 1697SOL    HW116719   4.171   1.323  25.219
 1697SOL    HW216720   4.287   1.403  25.273
 1698SOL     OW16721   2.603   0.958  21.410
 1698SOL    HW116722   2.595   1.030  21.347
 1698SOL    HW216723   2.513   0.939  21.436
 1699SOL     OW16724   4.391   4.223  26.180
 1699SOL    HW116725   4.345   4.140  26.189
 1699SOL    HW216726   4.369   4.271  26.260
 1700SOL     OW16727   0.205   2.260   0.871
 1700SOL    HW116728   0.140   2.205   0.827
 1700SOL    HW216729   0.287   2.240   0.826
 1701SOL     OW16730   4.439   3.336  21.271
 1701SOL    HW116731   4.440   3.250  21.229
 1701SOL    HW216732   4.346   3.359  21.277
 1702SOL     OW16733   2.289   3.522  25.210
 1702SOL    HW116734   2.203   3.549  25.243
 1702SOL    HW216735   2.280   3.524  25.115
 1703SOL     OW16736   2.130   0.226  26.856
 1703SOL    HW116737   2.105   0.247  26.766
 1703SOL    HW216738   2.058   0.260  26.910
 1704SOL     OW16739   1.358   3.787  21.234
 1704SOL    HW116740   1.451   3.787  21.256
 1704SOL    HW216741   1.316   3.826  21.310
 1705SOL     OW16742   2.503   3.672  11.024
 1705SOL    HW116743   2.491   3.752  11.076
 1705SOL    HW216744   2.539   3.608  11.086
 1706SOL     OW16745   1.340   1.422  25.986
 1706SOL    HW116746   1.264   1.407  25.930
 1706SOL    HW216747   1.307   1.409  26.075
 1707SOL     OW16748   1.940   4.387  11.800
 1707SOL    HW116749   2.025   4.425  11.819
 1707SOL    HW216750   1.878   4.438  11.853
 1708SOL     OW16751   3.877   0.598   4.556
 1708SOL    HW116752   3.934   0.567   4.626
 1708SOL    HW216753   3.919   0.567   4.476
 1709SOL     OW16754   0.342   1.074  24.788
 1709SOL    HW116755   0.435   1.068  24.767
 1709SOL    HW216756   0.327   1.167  24.806
 1710SOL     OW16757   0.046   1.206   8.643
 1710SOL    HW116758   4.776   1.178   8.567
 1710SOL    HW216759   0.015   1.295   8.661
 1711SOL     OW16760   1.175   3.285   3.937
 1711SOL    HW116761   1.150   3.193   3.945
 1711SOL    HW216762   1.157   3.323   4.023
 1712SOL     OW16763   3.750   2.647   0.667
 1712SOL    HW116764   3.707   2.628   0.584
 1712SOL    HW216765   3.758   2.562   0.710
 1713SOL     OW16766   2.514   0.154   7.368
 1713SOL    HW116767   2.593   0.183   7.414
 1713SOL    HW216768   2.495   0.224   7.306
 1714SOL     OW16769   2.252   3.826   3.704
 1714SOL    HW116770   2.263   3.897   3.641
 1714SOL    HW216771   2.291   3.859   3.785
 1715SOL     OW16772   1.516   0.833   1.508
 1715SOL    HW116773   1.493   0.842   1.415
 1715SOL    HW216774   1.597   0.883   1.517
 1716SOL     OW16775   1.636   2.639  19.554
 1716SOL    HW116776   1.597   2.671  19.472
 1716SOL    HW216777   1.561   2.614  19.608
 1717SOL     OW16778   4.571   4.015  24.563
 1717SOL    HW116779   4.657   3.973  24.567
 1717SOL    HW216780   4.584   4.093  24.510
 1718SOL     OW16781   2.862   0.413  26.564
 1718SOL    HW116782   2.845   0.335  26.511
 1718SOL    HW216783   2.798   0.477  26.534
 1719SOL     OW16784   4.300   0.728   6.109
 1719SOL    HW116785   4.250   0.649   6.129
 1719SOL    HW216786   4.304   0.775   6.192
 1720SOL     OW16787   0.394   4.341   2.188
 1720SOL    HW116788   0.299   4.336   2.195
 1720SOL    HW216789   0.409   4.378   2.101
 1721SOL     OW16790   3.782   4.772   3.883
 1721SOL    HW116791   3.734   4.709   3.829
 1721SOL    HW216792   3.721   0.064   3.895
 1722SOL     OW16793   3.527   2.261   6.517
 1722SOL    HW116794   3.514   2.356   6.518
 1722SOL    HW216795   3.442   2.225   6.493
 1723SOL     OW16796   2.948   4.491  26.306
 1723SOL    HW116797   2.980   4.415  26.258
 1723SOL    HW216798   2.977   4.566  26.254
 1724SOL     OW16799   3.071   2.157   5.397
 1724SOL    HW116800   3.113   2.235   5.434
 1724SOL    HW216801   2.977   2.176   5.402
 1725SOL     OW16802   2.054   2.752  18.230
 1725SOL    HW116803   1.992   2.812  18.187
 1725SOL    HW216804   2.140   2.783  18.202
 1726SOL     OW16805   4.053   0.864  17.832
 1726SOL    HW116806   4.122   0.864  17.898
 1726SOL    HW216807   4.034   0.957  17.818
 1727SOL     OW16808   1.362   3.264  24.789
 1727SOL    HW116809   1.398   3.283  24.703
 1727SOL    HW216810   1.338   3.171  24.785
 1728SOL     OW16811   1.838   2.155   4.051
 1728SOL    HW116812   1.905   2.122   3.991
 1728SOL    HW216813   1.794   2.076   4.084
 1729SOL     OW16814   3.344   2.137  19.889
 1729SOL    HW116815   3.289   2.214  19.875
 1729SOL    HW216816   3.282   2.065  19.897
 1730SOL     OW16817   2.689   3.117   4.311
 1730SOL    HW116818   2.720   3.072   4.390
 1730SOL    HW216819   2.764   3.168   4.282
 1731SOL     OW16820   1.959   2.077  19.998
 1731SOL    HW116821   1.954   2.051  19.906
 1731SOL    HW216822   1.869   2.098  20.022
 1732SOL     OW16823   2.045   0.644  26.513
 1732SOL    HW116824   2.134   0.636  26.478
 1732SOL    HW216825   2.046   0.592  26.594
 1733SOL     OW16826   1.952   1.797  25.734
 1733SOL    HW116827   1.940   1.807  25.640
 1733SOL    HW216828   1.919   1.879  25.772
 1734SOL     OW16829   0.210   2.044   5.021
 1734SOL    HW116830   0.138   2.064   4.961
 1734SOL    HW216831   0.168   2.035   5.107
 1735SOL     OW16832   3.614   4.748   4.400
 1735SOL    HW116833   3.642   4.711   4.484
 1735SOL    HW216834   3.626   4.677   4.337
 1736SOL     OW16835   1.838   3.227   7.261
 1736SOL    HW116836   1.892   3.149   7.248
 1736SOL    HW216837   1.899   3.294   7.291
 1737SOL     OW16838   0.367   4.473  23.825
 1737SOL    HW116839   0.378   4.468  23.920
 1737SOL    HW216840   0.449   4.512  23.794
 1738SOL     OW16841   1.736   4.736  20.285
 1738SOL    HW116842   1.672   0.007  20.237
 1738SOL    HW216843   1.793   0.019  20.327
 1739SOL     OW16844   1.819   3.901   1.335
 1739SOL    HW116845   1.871   3.978   1.358
 1739SOL    HW216846   1.785   3.869   1.418
 1740SOL     OW16847   2.963   1.327  24.014
 1740SOL    HW116848   2.946   1.409  23.968
 1740SOL    HW216849   2.932   1.259  23.954
 1741SOL     OW16850   3.255   2.684   2.445
 1741SOL    HW116851   3.263   2.744   2.371
 1741SOL    HW216852   3.318   2.614   2.426
 1742SOL     OW16853   0.894   3.004  27.701
 1742SOL    HW116854   0.933   2.996  27.788
 1742SOL    HW216855   0.817   2.948  27.704
 1743SOL     OW16856   2.589   0.274   2.219
 1743SOL    HW116857   2.671   0.321   2.235
 1743SOL    HW216858   2.598   0.193   2.269
 1744SOL     OW16859   3.916   1.283   8.119
 1744SOL    HW116860   3.884   1.193   8.115
 1744SOL    HW216861   4.010   1.274   8.137
 1745SOL     OW16862   3.671   3.646  24.751
 1745SOL    HW116863   3.753   3.675  24.791
 1745SOL    HW216864   3.690   3.559  24.716
 1746SOL     OW16865   2.782   3.816  10.829
 1746SOL    HW116866   2.816   3.863  10.905
 1746SOL    HW216867   2.803   3.724  10.846
 1747SOL     OW16868   2.555   0.596  27.276
 1747SOL    HW116869   2.635   0.588  27.328
 1747SOL    HW216870   2.568   0.536  27.203
 1748SOL     OW16871   3.360   4.423   1.415
 1748SOL    HW116872   3.370   4.402   1.508
 1748SOL    HW216873   3.300   4.356   1.382
 1749SOL     OW16874   2.501   3.173  25.544
 1749SOL    HW116875   2.461   3.208  25.464
 1749SOL    HW216876   2.594   3.165  25.523
 1750SOL     OW16877   2.037   2.446   6.373
 1750SOL    HW116878   2.004   2.529   6.338
 1750SOL    HW216879   1.958   2.397   6.396
 1751SOL     OW16880   0.311   3.865  24.055
 1751SOL    HW116881   0.298   3.939  23.996
 1751SOL    HW216882   0.348   3.796  23.999
 1752SOL     OW16883   0.721   4.294  23.641
 1752SOL    HW116884   0.761   4.216  23.679
 1752SOL    HW216885   0.666   4.261  23.570
 1753SOL     OW16886   1.978   1.548   8.762
 1753SOL    HW116887   1.965   1.484   8.832
 1753SOL    HW216888   2.019   1.498   8.691
 1754SOL     OW16889   1.403   3.578  20.785
 1754SOL    HW116890   1.370   3.654  20.832
 1754SOL    HW216891   1.325   3.530  20.759
 1755SOL     OW16892   1.594   1.215  19.358
 1755SOL    HW116893   1.669   1.162  19.385
 1755SOL    HW216894   1.587   1.200  19.264
 1756SOL     OW16895   1.575   1.552   4.444
 1756SOL    HW116896   1.592   1.616   4.513
 1756SOL    HW216897   1.544   1.474   4.490
 1757SOL     OW16898   3.590   3.892   9.920
 1757SOL    HW116899   3.544   3.919  10.000
 1757SOL    HW216900   3.563   3.801   9.906
 1758SOL     OW16901   1.549   1.198  22.598
 1758SOL    HW116902   1.503   1.276  22.629
 1758SOL    HW216903   1.598   1.228  22.521
 1759SOL     OW16904   3.638   2.670  20.281
 1759SOL    HW116905   3.598   2.587  20.306
 1759SOL    HW216906   3.657   2.660  20.188
 1760SOL     OW16907   0.633   3.306   8.429
 1760SOL    HW116908   0.626   3.327   8.522
 1760SOL    HW216909   0.579   3.227   8.419
 1761SOL     OW16910   2.233   3.956  26.307
 1761SOL    HW116911   2.312   3.951  26.361
 1761SOL    HW216912   2.170   4.003  26.362
 1762SOL     OW16913   1.875   2.122  25.400
 1762SOL    HW116914   1.950   2.064  25.385
 1762SOL    HW216915   1.860   2.118  25.494
 1763SOL     OW16916   3.648   2.241  20.818
 1763SOL    HW116917   3.638   2.259  20.912
 1763SOL    HW216918   3.716   2.174  20.814
 1764SOL     OW16919   3.845   1.678  27.203
 1764SOL    HW116920   3.757   1.681  27.241
 1764SOL    HW216921   3.865   1.769  27.183
 1765SOL     OW16922   4.677   2.043   5.862
 1765SOL    HW116923   4.675   2.006   5.950
 1765SOL    HW216924   4.643   2.132   5.872
 1766SOL     OW16925   1.576   3.092  24.361
 1766SOL    HW116926   1.650   3.040  24.329
 1766SOL    HW216927   1.616   3.165  24.407
 1767SOL     OW16928   2.295   2.887   0.563
 1767SOL    HW116929   2.276   2.962   0.619
 1767SOL    HW216930   2.241   2.816   0.599
 1768SOL     OW16931   4.659   4.154  18.848
 1768SOL    HW116932   4.579   4.115  18.813
 1768SOL    HW216933   4.729   4.125  18.789
 1769SOL     OW16934   0.256   1.038   8.629
 1769SOL    HW116935   0.312   1.101   8.584
 1769SOL    HW216936   0.170   1.079   8.630
 1770SOL     OW16937   3.292   2.787   2.214
 1770SOL    HW116938   3.213   2.830   2.180
 1770SOL    HW216939   3.363   2.819   2.158
 1771SOL     OW16940   3.854   2.405  27.936
 1771SOL    HW116941   3.846   2.480  27.995
 1771SOL    HW216942   3.878   2.443  27.852
 1772SOL     OW16943   4.467   1.377   7.255
 1772SOL    HW116944   4.514   1.460   7.266
 1772SOL    HW216945   4.375   1.399   7.268
 1773SOL     OW16946   4.100   3.618  16.675
 1773SOL    HW116947   4.027   3.616  16.613
 1773SOL    HW216948   4.127   3.710  16.676
 1774SOL     OW16949   4.225   2.832   7.622
 1774SOL    HW116950   4.239   2.907   7.565
 1774SOL    HW216951   4.292   2.840   7.690
 1775SOL     OW16952   1.748   1.409  11.006
 1775SOL    HW116953   1.841   1.390  11.019
 1775SOL    HW216954   1.705   1.365  11.079
 1776SOL     OW16955   4.441   2.720  16.306
 1776SOL    HW116956   4.398   2.766  16.234
 1776SOL    HW216957   4.475   2.640  16.266
 1777SOL     OW16958   0.533   1.709   7.724
 1777SOL    HW116959   0.627   1.722   7.737
 1777SOL    HW216960   0.502   1.674   7.807
 1778SOL     OW16961   2.716   0.451   8.327
 1778SOL    HW116962   2.751   0.519   8.385
 1778SOL    HW216963   2.792   0.420   8.277
 1779SOL     OW16964   1.108   3.915  28.513
 1779SOL    HW116965   1.196   3.920  28.476
 1779SOL    HW216966   1.050   3.910  28.437
 1780SOL     OW16967   4.067   2.256   6.351
 1780SOL    HW116968   4.055   2.165   6.378
 1780SOL    HW216969   3.997   2.304   6.396
 1781SOL     OW16970   1.296   2.142  21.817
 1781SOL    HW116971   1.335   2.075  21.761
 1781SOL    HW216972   1.227   2.181  21.764
 1782SOL     OW16973   3.963   3.389  11.692
 1782SOL    HW116974   4.039   3.331  11.689
 1782SOL    HW216975   3.917   3.373  11.609
 1783SOL     OW16976   1.139   2.360   3.236
 1783SOL    HW116977   1.054   2.404   3.236
 1783SOL    HW216978   1.150   2.328   3.146
 1784SOL     OW16979   1.208   3.558   1.242
 1784SOL    HW116980   1.127   3.518   1.275
 1784SOL    HW216981   1.236   3.501   1.171
 1785SOL     OW16982   1.711   3.094   8.922
 1785SOL    HW116983   1.786   3.065   8.974
 1785SOL    HW216984   1.707   3.189   8.937
 1786SOL     OW16985   0.077   1.060   2.756
 1786SOL    HW116986   0.075   1.155   2.742
 1786SOL    HW216987   0.051   1.048   2.847
 1787SOL     OW16988   0.038   3.000  23.897
 1787SOL    HW116989   4.760   2.934  23.861
 1787SOL    HW216990   0.004   3.083  23.864
 1788SOL     OW16991   3.288   2.817   6.219
 1788SOL    HW116992   3.291   2.822   6.315
 1788SOL    HW216993   3.279   2.908   6.191
 1789SOL     OW16994   1.535   3.323  20.177
 1789SOL    HW116995   1.525   3.418  20.180
 1789SOL    HW216996   1.594   3.308  20.103
 1790SOL     OW16997   2.558   2.910  22.237
 1790SOL    HW116998   2.483   2.882  22.184
 1790SOL    HW216999   2.584   2.994  22.199
 1791SOL     OW17000   3.460   2.800  26.672
 1791SOL    HW117001   3.518   2.755  26.733
 1791SOL    HW217002   3.417   2.730  26.623
 1792SOL     OW17003   4.002   1.063  23.931
 1792SOL    HW117004   3.976   1.134  23.990
 1792SOL    HW217005   3.946   0.989  23.956
 1793SOL     OW17006   3.010   1.091  24.154
 1793SOL    HW117007   3.085   1.092  24.213
 1793SOL    HW217008   2.999   1.182  24.127
 1794SOL     OW17009   2.932   3.581   6.045
 1794SOL    HW117010   2.851   3.539   6.015
 1794SOL    HW217011   2.936   3.663   5.997
 1795SOL     OW17012   3.014   3.231  26.361
 1795SOL    HW117013   3.058   3.302  26.315
 1795SOL    HW217014   2.970   3.182  26.292
 1796SOL     OW17015   4.686   3.724   4.821
 1796SOL    HW117016   4.606   3.773   4.841
 1796SOL    HW217017   4.676   3.641   4.868
 1797SOL     OW17018   0.396   2.306   3.505
 1797SOL    HW117019   0.359   2.228   3.465
 1797SOL    HW217020   0.331   2.375   3.488
 1798SOL     OW17021   3.736   2.435   3.063
 1798SOL    HW117022   3.812   2.483   3.095
 1798SOL    HW217023   3.698   2.492   2.996
 1799SOL     OW17024   0.976   0.658  27.184
 1799SOL    HW117025   0.997   0.626  27.272
 1799SOL    HW217026   0.886   0.628  27.169
 1800SOL     OW17027   1.716   1.743   5.570
 1800SOL    HW117028   1.696   1.712   5.658
 1800SOL    HW217029   1.666   1.686   5.512
 1801SOL     OW17030   1.266   3.485   6.302
 1801SOL    HW117031   1.180   3.528   6.301
 1801SOL    HW217032   1.251   3.401   6.346
 1802SOL     OW17033   2.403   2.327  21.470
 1802SOL    HW117034   2.448   2.382  21.406
 1802SOL    HW217035   2.471   2.302  21.533
 1803SOL     OW17036   1.746   0.107  13.151
 1803SOL    HW117037   1.797   0.068  13.080
 1803SOL    HW217038   1.805   0.105  13.226
 1804SOL     OW17039   1.769   4.644   2.294
 1804SOL    HW117040   1.690   4.597   2.320
 1804SOL    HW217041   1.759   4.657   2.200
 1805SOL     OW17042   3.659   2.424   6.768
 1805SOL    HW117043   3.699   2.466   6.692
 1805SOL    HW217044   3.684   2.480   6.842
 1806SOL     OW17045   1.700   4.226  21.846
 1806SOL    HW117046   1.658   4.239  21.931
 1806SOL    HW217047   1.650   4.281  21.786
 1807SOL     OW17048   0.922   1.666   7.069
 1807SOL    HW117049   0.993   1.702   7.015
 1807SOL    HW217050   0.958   1.586   7.106
 1808SOL     OW17051   1.987   2.049   7.441
 1808SOL    HW117052   2.005   1.958   7.417
 1808SOL    HW217053   2.048   2.067   7.512
 1809SOL     OW17054   2.656   3.547   3.858
 1809SOL    HW117055   2.749   3.531   3.875
 1809SOL    HW217056   2.619   3.460   3.842
 1810SOL     OW17057   0.145   0.165  24.400
 1810SOL    HW117058   0.106   0.251  24.413
 1810SOL    HW217059   0.141   0.123  24.486
 1811SOL     OW17060   3.393   0.025   4.221
 1811SOL    HW117061   3.459   0.058   4.160
 1811SOL    HW217062   3.443   4.773   4.296
 1812SOL     OW17063   4.688   3.659  23.965
 1812SOL    HW117064   4.733   3.670  24.049
 1812SOL    HW217065   4.633   3.737  23.956
 1813SOL     OW17066   2.091   0.760   3.578
 1813SOL    HW117067   2.111   0.816   3.503
 1813SOL    HW217068   1.998   0.774   3.594
 1814SOL     OW17069   4.046   2.347   4.418
 1814SOL    HW117070   4.050   2.271   4.360
 1814SOL    HW217071   3.964   2.391   4.394
 1815SOL     OW17072   1.210   1.978   1.880
 1815SOL    HW117073   1.281   2.028   1.839
 1815SOL    HW217074   1.253   1.900   1.916
 1816SOL     OW17075   0.542   4.025  24.120
 1816SOL    HW117076   0.463   3.976  24.143
 1816SOL    HW217077   0.609   3.958  24.105
 1817SOL     OW17078   1.862   1.229  20.798
 1817SOL    HW117079   1.914   1.306  20.823
 1817SOL    HW217080   1.782   1.237  20.849
 1818SOL     OW17081   3.276   2.168   6.733
 1818SOL    HW117082   3.323   2.240   6.775
 1818SOL    HW217083   3.272   2.099   6.799
 1819SOL     OW17084   3.663   1.637   7.251
 1819SOL    HW117085   3.619   1.612   7.332
 1819SOL    HW217086   3.753   1.658   7.278
 1820SOL     OW17087   4.557   3.236  20.574
 1820SOL    HW117088   4.576   3.308  20.635
 1820SOL    HW217089   4.463   3.241  20.559
 1821SOL     OW17090   1.926   0.342   7.431
 1821SOL    HW117091   1.994   0.360   7.366
 1821SOL    HW217092   1.916   0.425   7.478
 1822SOL     OW17093   2.288   4.047   7.051
 1822SOL    HW117094   2.269   3.975   7.112
 1822SOL    HW217095   2.271   4.010   6.964
 1823SOL     OW17096   4.648   2.557  27.292
 1823SOL    HW117097   4.705   2.480  27.300
 1823SOL    HW217098   4.659   2.586  27.202
 1824SOL     OW17099   3.964   0.029  20.746
 1824SOL    HW117100   3.884   0.015  20.797
 1824SOL    HW217101   3.942   0.000  20.657
 1825SOL     OW17102   3.275   3.338  21.951
 1825SOL    HW117103   3.313   3.261  21.908
 1825SOL    HW217104   3.314   3.413  21.906
 1826SOL     OW17105   1.244   0.090  28.405
 1826SOL    HW117106   1.184   0.163  28.419
 1826SOL    HW217107   1.292   0.113  28.325
 1827SOL     OW17108   0.319   1.901   0.421
 1827SOL    HW117109   0.318   1.916   0.326
 1827SOL    HW217110   0.362   1.978   0.457
 1828SOL     OW17111   3.249   0.316  10.687
 1828SOL    HW117112   3.343   0.323  10.669
 1828SOL    HW217113   3.234   0.223  10.701
 1829SOL     OW17114   4.203   2.178  27.083
 1829SOL    HW117115   4.228   2.190  27.175
 1829SOL    HW217116   4.278   2.134  27.044
 1830SOL     OW17117   1.074   3.012  28.007
 1830SOL    HW117118   1.157   3.058  27.996
 1830SOL    HW217119   1.097   2.919  28.002
 1831SOL     OW17120   0.001   3.893   7.787
 1831SOL    HW117121   0.096   3.898   7.776
 1831SOL    HW217122   4.751   3.848   7.708
 1832SOL     OW17123   2.201   3.022   8.582
 1832SOL    HW117124   2.129   3.083   8.567
 1832SOL    HW217125   2.185   2.988   8.670
 1833SOL     OW17126   1.524   2.404  26.555
 1833SOL    HW117127   1.450   2.378  26.609
 1833SOL    HW217128   1.549   2.324  26.508
 1834SOL     OW17129   1.056   3.679  21.648
 1834SOL    HW117130   1.071   3.637  21.563
 1834SOL    HW217131   1.117   3.634  21.707
 1835SOL     OW17132   1.703   0.984   3.093
 1835SOL    HW117133   1.791   1.014   3.072
 1835SOL    HW217134   1.661   0.971   3.008
 1836SOL     OW17135   2.181   1.552  24.869
 1836SOL    HW117136   2.085   1.552  24.866
 1836SOL    HW217137   2.203   1.524  24.958
 1837SOL     OW17138   2.059   0.750  19.430
 1837SOL    HW117139   2.076   0.841  19.406
 1837SOL    HW217140   2.126   0.730  19.495
 1838SOL     OW17141   4.266   3.481  20.086
 1838SOL    HW117142   4.244   3.411  20.148
 1838SOL    HW217143   4.232   3.561  20.126
 1839SOL     OW17144   2.021   2.531  23.883
 1839SOL    HW117145   2.105   2.559  23.847
 1839SOL    HW217146   1.968   2.611  23.885
 1840SOL     OW17147   1.851   4.011  10.703
 1840SOL    HW117148   1.832   3.993  10.611
 1840SOL    HW217149   1.946   4.001  10.710
 1841SOL     OW17150   4.554   2.790  24.768
 1841SOL    HW117151   4.466   2.817  24.742
 1841SOL    HW217152   4.540   2.728  24.839
 1842SOL     OW17153   3.059   3.237  22.131
 1842SOL    HW117154   3.096   3.153  22.159
 1842SOL    HW217155   3.123   3.272  22.069
 1843SOL     OW17156   1.176   0.594   4.247
 1843SOL    HW117157   1.090   0.630   4.270
 1843SOL    HW217158   1.169   0.500   4.266
 1844SOL     OW17159   0.973   1.962   3.188
 1844SOL    HW117160   0.968   1.943   3.282
 1844SOL    HW217161   0.935   2.050   3.179
 1845SOL     OW17162   4.560   0.811   5.668
 1845SOL    HW117163   4.540   0.900   5.697
 1845SOL    HW217164   4.501   0.755   5.718
 1846SOL     OW17165   2.572   3.338  23.411
 1846SOL    HW117166   2.619   3.269  23.458
 1846SOL    HW217167   2.589   3.320  23.319
 1847SOL     OW17168   4.752   1.825   1.766
 1847SOL    HW117169   0.038   1.756   1.768
 1847SOL    HW217170   4.750   1.854   1.675
 1848SOL     OW17171   0.141   1.737   9.062
 1848SOL    HW117172   0.079   1.790   9.013
 1848SOL    HW217173   0.087   1.672   9.107
 1849SOL     OW17174   2.545   1.069   2.462
 1849SOL    HW117175   2.556   1.072   2.367
 1849SOL    HW217176   2.587   0.987   2.488
 1850SOL     OW17177   2.681   0.628  25.734
 1850SOL    HW117178   2.731   0.566  25.681
 1850SOL    HW217179   2.690   0.595  25.823
 1851SOL     OW17180   0.531   1.413   7.091
 1851SOL    HW117181   0.583   1.333   7.085
 1851SOL    HW217182   0.563   1.467   7.019
 1852SOL     OW17183   4.482   1.904  25.216
 1852SOL    HW117184   4.393   1.871  25.226
 1852SOL    HW217185   4.472   1.982  25.162
 1853SOL     OW17186   1.801   2.192   0.024
 1853SOL    HW117187   1.830   2.253   0.092
 1853SOL    HW217188   1.764   2.118   0.073
 1854SOL     OW17189   1.378   3.284  26.371
 1854SOL    HW117190   1.291   3.271  26.332
 1854SOL    HW217191   1.415   3.196  26.375
 1855SOL     OW17192   1.282   4.271  11.646
 1855SOL    HW117193   1.358   4.329  11.645
 1855SOL    HW217194   1.227   4.304  11.718
 1856SOL     OW17195   1.672   3.001   2.757
 1856SOL    HW117196   1.621   3.081   2.742
 1856SOL    HW217197   1.729   3.023   2.831
 1857SOL     OW17198   2.908   3.277   5.919
 1857SOL    HW117199   2.839   3.337   5.948
 1857SOL    HW217200   2.902   3.277   5.824
 1858SOL     OW17201   4.352   2.214   1.701
 1858SOL    HW117202   4.415   2.242   1.767
 1858SOL    HW217203   4.281   2.174   1.751
 1859SOL     OW17204   0.736   0.147  11.752
 1859SOL    HW117205   0.773   0.097  11.679
 1859SOL    HW217206   0.646   0.165  11.725
 1860SOL     OW17207   2.132   3.237  28.261
 1860SOL    HW117208   2.214   3.248  28.213
 1860SOL    HW217209   2.125   3.316  28.315
 1861SOL     OW17210   2.946   1.968   0.712
 1861SOL    HW117211   2.996   1.973   0.631
 1861SOL    HW217212   2.859   2.002   0.689
 1862SOL     OW17213   0.677   1.780  28.226
 1862SOL    HW117214   0.630   1.737  28.155
 1862SOL    HW217215   0.614   1.843  28.262
 1863SOL     OW17216   0.248   4.413  25.584
 1863SOL    HW117217   0.162   4.375  25.602
 1863SOL    HW217218   0.232   4.479  25.516
 1864SOL     OW17219   2.921   4.231  23.253
 1864SOL    HW117220   2.872   4.150  23.270
 1864SOL    HW217221   2.887   4.294  23.317
 1865SOL     OW17222   1.110   3.445  22.120
 1865SOL    HW117223   1.056   3.383  22.071
 1865SOL    HW217224   1.184   3.393  22.151
 1866SOL     OW17225   1.259   1.729  23.124
 1866SOL    HW117226   1.272   1.773  23.208
 1866SOL    HW217227   1.314   1.778  23.063
 1867SOL     OW17228   1.091   1.281   3.697
 1867SOL    HW117229   1.136   1.356   3.737
 1867SOL    HW217230   1.112   1.288   3.604
 1868SOL     OW17231   2.456   3.672  22.880
 1868SOL    HW117232   2.400   3.627  22.816
 1868SOL    HW217233   2.427   3.763  22.878
 1869SOL     OW17234   2.533   4.332   6.252
 1869SOL    HW117235   2.444   4.366   6.243
 1869SOL    HW217236   2.523   4.237   6.251
 1870SOL     OW17237   1.061   4.612   5.281
 1870SOL    HW117238   1.139   4.654   5.245
 1870SOL    HW217239   0.989   4.646   5.229
 1871SOL     OW17240   0.553   0.591   4.358
 1871SOL    HW117241   0.577   0.654   4.290
 1871SOL    HW217242   0.544   0.508   4.312
 1872SOL     OW17243   1.464   1.278   8.197
 1872SOL    HW117244   1.395   1.315   8.141
 1872SOL    HW217245   1.421   1.265   8.282
 1873SOL     OW17246   2.642   0.179  24.956
 1873SOL    HW117247   2.592   0.198  24.877
 1873SOL    HW217248   2.582   0.128  25.011
 1874SOL     OW17249   0.767   0.315   8.506
 1874SOL    HW117250   0.733   0.291   8.420
 1874SOL    HW217251   0.733   0.247   8.565
 1875SOL     OW17252   0.934   2.388  12.984
 1875SOL    HW117253   1.014   2.337  12.997
 1875SOL    HW217254   0.938   2.456  13.052
 1876SOL     OW17255   1.731   0.426  25.956
 1876SOL    HW117256   1.736   0.394  25.866
 1876SOL    HW217257   1.657   0.487  25.956
 1877SOL     OW17258   1.464   2.490   9.080
 1877SOL    HW117259   1.526   2.562   9.070
 1877SOL    HW217260   1.473   2.463   9.171
 1878SOL     OW17261   3.324   0.377  27.958
 1878SOL    HW117262   3.381   0.300  27.967
 1878SOL    HW217263   3.290   0.392  28.046
 1879SOL     OW17264   3.685   0.570   2.138
 1879SOL    HW117265   3.635   0.533   2.066
 1879SOL    HW217266   3.770   0.527   2.133
 1880SOL     OW17267   1.767   3.218   4.145
 1880SOL    HW117268   1.672   3.226   4.138
 1880SOL    HW217269   1.792   3.282   4.211
 1881SOL     OW17270   2.036   1.426  18.379
 1881SOL    HW117271   1.998   1.513  18.393
 1881SOL    HW217272   1.985   1.389  18.307
 1882SOL     OW17273   1.796   4.479  26.938
 1882SOL    HW117274   1.741   4.487  27.016
 1882SOL    HW217275   1.881   4.515  26.964
 1883SOL     OW17276   2.542   4.766   8.245
 1883SOL    HW117277   2.467   0.038   8.273
 1883SOL    HW217278   2.580   4.733   8.326
 1884SOL     OW17279   4.521   0.779   1.019
 1884SOL    HW117280   4.493   0.704   1.071
 1884SOL    HW217281   4.539   0.848   1.083
 1885SOL     OW17282   4.504   0.211   2.052
 1885SOL    HW117283   4.489   0.296   2.093
 1885SOL    HW217284   4.591   0.185   2.083
 1886SOL     OW17285   0.254   2.061  18.131
 1886SOL    HW117286   0.303   1.981  18.115
 1886SOL    HW217287   0.320   2.130  18.130
 1887SOL     OW17288   2.116   2.685  26.720
 1887SOL    HW117289   2.133   2.707  26.812
 1887SOL    HW217290   2.022   2.697  26.709
 1888SOL     OW17291   4.331   0.039   4.384
 1888SOL    HW117292   4.293   0.120   4.419
 1888SOL    HW217293   4.398   0.068   4.322
 1889SOL     OW17294   3.537   1.711   0.459
 1889SOL    HW117295   3.563   1.654   0.387
 1889SOL    HW217296   3.483   1.779   0.418
 1890SOL     OW17297   2.638   2.900   8.272
 1890SOL    HW117298   2.598   2.924   8.188
 1890SOL    HW217299   2.584   2.943   8.338
 1891SOL     OW17300   4.150   2.652   8.465
 1891SOL    HW117301   4.232   2.696   8.487
 1891SOL    HW217302   4.153   2.570   8.513
 1892SOL     OW17303   3.273   0.149   0.555
 1892SOL    HW117304   3.270   0.103   0.471
 1892SOL    HW217305   3.181   0.157   0.581
 1893SOL     OW17306   0.200   1.100   0.393
 1893SOL    HW117307   0.214   1.047   0.471
 1893SOL    HW217308   0.107   1.088   0.373
 1894SOL     OW17309   3.382   0.096   7.235
 1894SOL    HW117310   3.404   0.161   7.302
 1894SOL    HW217311   3.456   0.098   7.174
 1895SOL     OW17312   0.017   0.261  21.015
 1895SOL    HW117313   4.724   0.225  21.064
 1895SOL    HW217314   0.026   0.203  20.939
 1896SOL     OW17315   3.309   3.932  10.955
 1896SOL    HW117316   3.390   3.882  10.947
 1896SOL    HW217317   3.293   3.937  11.049
 1897SOL     OW17318   4.555   1.652   4.416
 1897SOL    HW117319   4.600   1.589   4.360
 1897SOL    HW217320   4.521   1.600   4.488
 1898SOL     OW17321   4.102   3.916   1.373
 1898SOL    HW117322   4.032   3.853   1.357
 1898SOL    HW217323   4.082   3.989   1.314
 1899SOL     OW17324   2.916   3.771  18.702
 1899SOL    HW117325   2.950   3.682  18.706
 1899SOL    HW217326   2.943   3.804  18.616
 1900SOL     OW17327   3.654   3.191  25.738
 1900SOL    HW117328   3.576   3.214  25.789
 1900SOL    HW217329   3.620   3.166  25.652
 1901SOL     OW17330   2.251   3.987  23.951
 1901SOL    HW117331   2.221   3.896  23.952
 1901SOL    HW217332   2.294   4.000  24.035
 1902SOL     OW17333   1.780   3.718  21.633
 1902SOL    HW117334   1.848   3.683  21.575
 1902SOL    HW217335   1.828   3.751  21.709
 1903SOL     OW17336   0.432   0.898   5.258
 1903SOL    HW117337   0.475   0.870   5.339
 1903SOL    HW217338   0.492   0.872   5.189
 1904SOL     OW17339   0.918   4.280  11.377
 1904SOL    HW117340   0.853   4.350  11.371
 1904SOL    HW217341   0.887   4.224  11.448
 1905SOL     OW17342   3.024   3.373  10.062
 1905SOL    HW117343   3.033   3.280  10.083
 1905SOL    HW217344   2.975   3.375   9.980
 1906SOL     OW17345   4.221   0.517   3.144
 1906SOL    HW117346   4.230   0.509   3.239
 1906SOL    HW217347   4.152   0.582   3.132
 1907SOL     OW17348   2.808   0.278  22.651
 1907SOL    HW117349   2.851   0.361  22.669
 1907SOL    HW217350   2.796   0.238  22.737
 1908SOL     OW17351   4.641   1.284  28.405
 1908SOL    HW117352   4.574   1.234  28.451
 1908SOL    HW217353   4.723   1.257  28.446
 1909SOL     OW17354   0.808   2.597   0.588
 1909SOL    HW117355   0.724   2.601   0.542
 1909SOL    HW217356   0.855   2.526   0.545
 1910SOL     OW17357   4.432   3.005   2.934
 1910SOL    HW117358   4.505   3.019   2.994
 1910SOL    HW217359   4.368   3.073   2.958
 1911SOL     OW17360   2.010   4.715   6.722
 1911SOL    HW117361   1.924   4.755   6.707
 1911SOL    HW217362   1.991   4.635   6.770
 1912SOL     OW17363   3.460   2.669  11.934
 1912SOL    HW117364   3.449   2.634  12.023
 1912SOL    HW217365   3.496   2.596  11.884
 1913SOL     OW17366   2.620   1.223   7.834
 1913SOL    HW117367   2.630   1.138   7.792
 1913SOL    HW217368   2.643   1.207   7.926
 1914SOL     OW17369   3.502   0.725   3.266
 1914SOL    HW117370   3.494   0.818   3.287
 1914SOL    HW217371   3.442   0.681   3.326
 1915SOL     OW17372   3.711   4.334   2.430
 1915SOL    HW117373   3.642   4.342   2.365
 1915SOL    HW217374   3.696   4.249   2.471
 1916SOL     OW17375   4.149   2.128  27.730
 1916SOL    HW117376   4.058   2.128  27.759
 1916SOL    HW217377   4.163   2.216  27.696
 1917SOL     OW17378   4.550   1.995   3.166
 1917SOL    HW117379   4.579   2.029   3.251
 1917SOL    HW217380   4.455   2.005   3.167
 1918SOL     OW17381   0.093   1.381  19.336
 1918SOL    HW117382   0.067   1.290  19.321
 1918SOL    HW217383   0.014   1.432  19.317
 1919SOL     OW17384   0.550   1.507  20.326
 1919SOL    HW117385   0.644   1.496  20.337
 1919SOL    HW217386   0.518   1.533  20.412
 1920SOL     OW17387   4.001   4.173   8.450
 1920SOL    HW117388   3.944   4.184   8.374
 1920SOL    HW217389   3.941   4.160   8.523
 1921SOL     OW17390   0.405   1.614  28.055
 1921SOL    HW117391   0.480   1.565  28.021
 1921SOL    HW217392   0.367   1.656  27.978
 1922SOL     OW17393   1.428   1.721   4.812
 1922SOL    HW117394   1.397   1.630   4.816
 1922SOL    HW217395   1.497   1.720   4.746
 1923SOL     OW17396   3.194   2.618  19.836
 1923SOL    HW117397   3.104   2.637  19.810
 1923SOL    HW217398   3.198   2.643  19.928
 1924SOL     OW17399   3.144   4.757   2.610
 1924SOL    HW117400   3.118   4.677   2.564
 1924SOL    HW217401   3.141   0.045   2.543
 1925SOL     OW17402   0.816   0.978   0.219
 1925SOL    HW117403   0.890   0.966   0.279
 1925SOL    HW217404   0.745   0.928   0.258
 1926SOL     OW17405   1.690   0.708  11.647
 1926SOL    HW117406   1.638   0.741  11.721
 1926SOL    HW217407   1.712   0.786  11.596
 1927SOL     OW17408   0.408   2.334  18.439
 1927SOL    HW117409   0.474   2.268  18.418
 1927SOL    HW217410   0.327   2.284  18.453
 1928SOL     OW17411   2.034   4.271   5.407
 1928SOL    HW117412   2.077   4.248   5.325
 1928SOL    HW217413   2.102   4.312   5.460
 1929SOL     OW17414   1.462   0.235   5.081
 1929SOL    HW117415   1.417   0.319   5.094
 1929SOL    HW217416   1.551   0.259   5.057
 1930SOL     OW17417   3.535   0.267   2.215
 1930SOL    HW117418   3.460   0.289   2.159
 1930SOL    HW217419   3.612   0.294   2.164
 1931SOL     OW17420   3.773   3.430  24.672
 1931SOL    HW117421   3.761   3.340  24.704
 1931SOL    HW217422   3.764   3.423  24.577
 1932SOL     OW17423   2.484   0.624   4.128
 1932SOL    HW117424   2.536   0.614   4.207
 1932SOL    HW217425   2.395   0.601   4.155
 1933SOL     OW17426   2.202   4.198  26.637
 1933SOL    HW117427   2.189   4.204  26.732
 1933SOL    HW217428   2.156   4.118  26.612
 1934SOL     OW17429   1.706   1.385   0.060
 1934SOL    HW117430   1.710   1.457  28.519
 1934SOL    HW217431   1.614   1.357   0.059
 1935SOL     OW17432   1.658   0.380   0.004
 1935SOL    HW117433   1.666   0.331  28.445
 1935SOL    HW217434   1.748   0.400   0.029
 1936SOL     OW17435   1.932   0.833  27.549
 1936SOL    HW117436   1.983   0.910  27.523
 1936SOL    HW217437   1.995   0.761  27.549
 1937SOL     OW17438   2.855   2.192   2.231
 1937SOL    HW117439   2.833   2.113   2.280
 1937SOL    HW217440   2.950   2.190   2.224
 1938SOL     OW17441   4.148   0.257  22.933
 1938SOL    HW117442   4.083   0.282  22.999
 1938SOL    HW217443   4.230   0.292  22.967
 1939SOL     OW17444   0.020   3.339  25.289
 1939SOL    HW117445   0.005   3.271  25.223
 1939SOL    HW217446   4.765   3.303  25.370
 1940SOL     OW17447   1.998   1.286  21.771
 1940SOL    HW117448   1.994   1.191  21.764
 1940SOL    HW217449   1.986   1.304  21.864
 1941SOL     OW17450   4.720   3.702   1.671
 1941SOL    HW117451   0.028   3.674   1.649
 1941SOL    HW217452   4.675   3.621   1.696
 1942SOL     OW17453   2.283   4.274  27.892
 1942SOL    HW117454   2.270   4.241  27.803
 1942SOL    HW217455   2.196   4.305  27.919
 1943SOL     OW17456   4.463   4.569  24.205
 1943SOL    HW117457   4.513   4.570  24.287
 1943SOL    HW217458   4.406   4.646  24.211
 1944SOL     OW17459   1.094   4.308   8.196
 1944SOL    HW117460   1.005   4.278   8.213
 1944SOL    HW217461   1.083   4.397   8.163
 1945SOL     OW17462   3.806   3.704  23.643
 1945SOL    HW117463   3.841   3.632  23.590
 1945SOL    HW217464   3.728   3.668  23.684
 1946SOL     OW17465   1.831   4.079   4.315
 1946SOL    HW117466   1.813   4.144   4.247
 1946SOL    HW217467   1.839   3.996   4.267
 1947SOL     OW17468   4.778   2.383   8.155
 1947SOL    HW117469   4.729   2.444   8.211
 1947SOL    HW217470   0.026   2.314   8.215
 1948SOL     OW17471   2.676   0.819  21.693
 1948SOL    HW117472   2.729   0.846  21.618
 1948SOL    HW217473   2.628   0.742  21.662
 1949SOL     OW17474   3.647   2.479   5.686
 1949SOL    HW117475   3.698   2.426   5.624
 1949SOL    HW217476   3.633   2.562   5.640
 1950SOL     OW17477   4.779   1.701   4.831
 1950SOL    HW117478   4.689   1.668   4.822
 1950SOL    HW217479   0.046   1.658   4.760
 1951SOL     OW17480   2.286   4.503  28.324
 1951SOL    HW117481   2.220   4.455  28.274
 1951SOL    HW217482   2.263   4.488  28.416
 1952SOL     OW17483   3.970   3.525  19.962
 1952SOL    HW117484   4.027   3.476  19.902
 1952SOL    HW217485   3.979   3.616  19.935
 1953SOL     OW17486   3.417   2.800   9.893
 1953SOL    HW117487   3.401   2.720   9.943
 1953SOL    HW217488   3.332   2.823   9.855
 1954SOL     OW17489   3.878   0.719  19.999
 1954SOL    HW117490   3.808   0.780  20.021
 1954SOL    HW217491   3.836   0.633  20.002
 1955SOL     OW17492   1.711   0.682  12.058
 1955SOL    HW117493   1.691   0.678  12.152
 1955SOL    HW217494   1.756   0.600  12.039
 1956SOL     OW17495   2.356   0.068  24.107
 1956SOL    HW117496   2.360   0.138  24.173
 1956SOL    HW217497   2.432   0.013  24.126
 1957SOL     OW17498   2.747   0.444   9.662
 1957SOL    HW117499   2.705   0.371   9.616
 1957SOL    HW217500   2.824   0.406   9.704
 1958SOL     OW17501   4.123   2.075  16.550
 1958SOL    HW117502   4.157   1.987  16.565
 1958SOL    HW217503   4.049   2.062  16.491
 1959SOL     OW17504   2.006   3.938  18.427
 1959SOL    HW117505   1.946   3.867  18.404
 1959SOL    HW217506   1.969   4.016  18.384
 1960SOL     OW17507   0.800   2.381   8.489
 1960SOL    HW117508   0.819   2.319   8.559
 1960SOL    HW217509   0.885   2.422   8.471
 1961SOL     OW17510   3.819   1.522   1.663
 1961SOL    HW117511   3.894   1.520   1.604
 1961SOL    HW217512   3.743   1.514   1.605
 1962SOL     OW17513   1.980   0.463   6.498
 1962SOL    HW117514   1.990   0.402   6.425
 1962SOL    HW217515   1.955   0.407   6.572
 1963SOL     OW17516   1.944   1.485  25.821
 1963SOL    HW117517   1.953   1.580  25.811
 1963SOL    HW217518   2.005   1.463  25.892
 1964SOL     OW17519   2.809   0.194  26.832
 1964SOL    HW117520   2.737   0.257  26.833
 1964SOL    HW217521   2.828   0.178  26.924
 1965SOL     OW17522   1.592   2.370  24.232
 1965SOL    HW117523   1.610   2.284  24.270
 1965SOL    HW217524   1.531   2.411  24.293
 1966SOL     OW17525   3.759   3.191   8.408
 1966SOL    HW117526   3.690   3.197   8.474
 1966SOL    HW217527   3.784   3.099   8.408
 1967SOL     OW17528   4.732   0.992   0.292
 1967SOL    HW117529   4.695   1.066   0.339
 1967SOL    HW217530   4.656   0.939   0.267
 1968SOL     OW17531   1.676   3.013  11.862
 1968SOL    HW117532   1.692   2.987  11.771
 1968SOL    HW217533   1.746   2.972  11.912
 1969SOL     OW17534   4.631   1.401   1.192
 1969SOL    HW117535   4.586   1.343   1.253
 1969SOL    HW217536   4.566   1.468   1.170
 1970SOL     OW17537   2.534   3.666  22.477
 1970SOL    HW117538   2.527   3.592  22.537
 1970SOL    HW217539   2.503   3.632  22.393
 1971SOL     OW17540   2.786   3.835   2.407
 1971SOL    HW117541   2.874   3.802   2.422
 1971SOL    HW217542   2.741   3.764   2.361
 1972SOL     OW17543   4.281   1.489   4.948
 1972SOL    HW117544   4.187   1.491   4.963
 1972SOL    HW217545   4.314   1.422   5.008
 1973SOL     OW17546   3.571   4.491  23.348
 1973SOL    HW117547   3.531   4.405  23.336
 1973SOL    HW217548   3.505   4.542  23.395
 1974SOL     OW17549   1.319   1.005   9.104
 1974SOL    HW117550   1.382   0.976   9.170
 1974SOL    HW217551   1.255   0.934   9.099
 1975SOL     OW17552   0.407   0.414  26.243
 1975SOL    HW117553   0.370   0.336  26.201
 1975SOL    HW217554   0.331   0.461  26.277
 1976SOL     OW17555   4.315   0.811  27.290
 1976SOL    HW117556   4.394   0.781  27.335
 1976SOL    HW217557   4.307   0.903  27.315
 1977SOL     OW17558   2.396   4.253  20.655
 1977SOL    HW117559   2.440   4.252  20.740
 1977SOL    HW217560   2.395   4.345  20.629
 1978SOL     OW17561   1.849   0.723  23.052
 1978SOL    HW117562   1.807   0.659  22.995
 1978SOL    HW217563   1.782   0.745  23.117
 1979SOL     OW17564   2.041   2.918  23.748
 1979SOL    HW117565   2.119   2.895  23.698
 1979SOL    HW217566   1.968   2.901  23.689
 1980SOL     OW17567   4.461   4.310  24.104
 1980SOL    HW117568   4.443   4.387  24.158
 1980SOL    HW217569   4.557   4.307  24.098
 1981SOL     OW17570   0.817   2.453  26.001
 1981SOL    HW117571   0.902   2.424  26.033
 1981SOL    HW217572   0.820   2.548  26.009
 1982SOL     OW17573   1.579   2.438  12.805
 1982SOL    HW117574   1.663   2.395  12.792
 1982SOL    HW217575   1.556   2.419  12.896
 1983SOL     OW17576   4.059   2.793   3.551
 1983SOL    HW117577   4.115   2.871   3.557
 1983SOL    HW217578   3.970   2.826   3.566
 1984SOL     OW17579   2.111   1.670   4.133
 1984SOL    HW117580   2.190   1.723   4.127
 1984SOL    HW217581   2.083   1.657   4.042
 1985SOL     OW17582   2.171   1.703  25.459
 1985SOL    HW117583   2.182   1.721  25.552
 1985SOL    HW217584   2.077   1.689  25.449
 1986SOL     OW17585   4.469   3.249   4.698
 1986SOL    HW117586   4.455   3.154   4.693
 1986SOL    HW217587   4.548   3.259   4.752
 1987SOL     OW17588   4.362   2.106  24.987
 1987SOL    HW117589   4.311   2.035  24.949
 1987SOL    HW217590   4.420   2.134  24.916
 1988SOL     OW17591   1.181   3.776  20.154
 1988SOL    HW117592   1.149   3.813  20.072
 1988SOL    HW217593   1.114   3.799  20.219
 1989SOL     OW17594   0.928   3.859  21.802
 1989SOL    HW117595   0.991   3.871  21.873
 1989SOL    HW217596   0.966   3.790  21.747
 1990SOL     OW17597   0.069   4.515  27.585
 1990SOL    HW117598   0.090   4.480  27.498
 1990SOL    HW217599   0.019   4.595  27.568
 1991SOL     OW17600   0.185   1.204   1.879
 1991SOL    HW117601   0.272   1.193   1.841
 1991SOL    HW217602   0.144   1.273   1.827
 1992SOL     OW17603   2.754   2.542  26.207
 1992SOL    HW117604   2.700   2.518  26.132
 1992SOL    HW217605   2.721   2.488  26.279
 1993SOL     OW17606   0.715   3.440  28.040
 1993SOL    HW117607   0.802   3.400  28.049
 1993SOL    HW217608   0.704   3.450  27.945
 1994SOL     OW17609   4.010   1.307   1.819
 1994SOL    HW117610   4.058   1.379   1.860
 1994SOL    HW217611   3.918   1.331   1.829
 1995SOL     OW17612   3.146   0.955  23.341
 1995SOL    HW117613   3.176   0.970  23.430
 1995SOL    HW217614   3.063   1.003  23.336
 1996SOL     OW17615   1.885   3.228  25.489
 1996SOL    HW117616   1.900   3.134  25.479
 1996SOL    HW217617   1.794   3.241  25.462
 1997SOL     OW17618   2.775   4.078   2.308
 1997SOL    HW117619   2.787   4.110   2.397
 1997SOL    HW217620   2.767   3.983   2.317
 1998SOL     OW17621   3.770   1.743   2.777
 1998SOL    HW117622   3.857   1.742   2.737
 1998SOL    HW217623   3.727   1.664   2.744
 1999SOL     OW17624   4.602   3.039   3.517
 1999SOL    HW117625   4.541   3.091   3.569
 1999SOL    HW217626   4.659   3.103   3.475
 2000SOL     OW17627   0.781   2.400   0.792
 2000SOL    HW117628   0.742   2.453   0.723
 2000SOL    HW217629   0.875   2.407   0.778
 2001SOL     OW17630   1.423   0.569  12.305
 2001SOL    HW117631   1.378   0.617  12.235
 2001SOL    HW217632   1.502   0.620  12.322
 2002SOL     OW17633   1.325   0.285   1.906
 2002SOL    HW117634   1.319   0.308   1.999
 2002SOL    HW217635   1.235   0.288   1.875
 2003SOL     OW17636   1.832   1.860  24.759
 2003SOL    HW117637   1.882   1.935  24.791
 2003SOL    HW217638   1.785   1.828  24.836
 2004SOL     OW17639   0.895   1.823   8.283
 2004SOL    HW117640   0.918   1.807   8.375
 2004SOL    HW217641   0.912   1.916   8.269
 2005SOL     OW17642   3.280   4.603  12.071
 2005SOL    HW117643   3.312   4.523  12.112
 2005SOL    HW217644   3.357   4.660  12.066
 2006SOL     OW17645   3.933   3.795  21.963
 2006SOL    HW117646   3.924   3.710  22.006
 2006SOL    HW217647   3.996   3.843  22.016
 2007SOL     OW17648   4.092   2.621  21.708
 2007SOL    HW117649   3.999   2.621  21.685
 2007SOL    HW217650   4.102   2.545  21.765
 2008SOL     OW17651   0.962   4.006   2.131
 2008SOL    HW117652   0.912   4.082   2.101
 2008SOL    HW217653   0.896   3.939   2.148
 2009SOL     OW17654   3.460   2.871  11.738
 2009SOL    HW117655   3.538   2.922  11.757
 2009SOL    HW217656   3.459   2.802  11.805
 2010SOL     OW17657   2.047   2.183  26.859
 2010SOL    HW117658   2.028   2.257  26.801
 2010SOL    HW217659   2.106   2.219  26.925
 2011SOL     OW17660   1.487   0.011  13.095
 2011SOL    HW117661   1.580   0.030  13.107
 2011SOL    HW217662   1.444   0.096  13.104
 2012SOL     OW17663   0.706   3.562  24.198
 2012SOL    HW117664   0.757   3.546  24.278
 2012SOL    HW217665   0.647   3.487  24.192
 2013SOL     OW17666   0.853   3.027   6.417
 2013SOL    HW117667   0.843   3.022   6.512
 2013SOL    HW217668   0.910   3.103   6.403
 2014SOL     OW17669   1.091   2.809   6.009
 2014SOL    HW117670   1.186   2.803   6.002
 2014SOL    HW217671   1.074   2.824   6.102
 2015SOL     OW17672   0.977   1.099  27.817
 2015SOL    HW117673   0.936   1.069  27.898
 2015SOL    HW217674   1.057   1.144  27.845
 2016SOL     OW17675   0.282   3.353   3.094
 2016SOL    HW117676   0.374   3.375   3.111
 2016SOL    HW217677   0.234   3.432   3.117
 2017SOL     OW17678   4.693   1.134  12.459
 2017SOL    HW117679   4.700   1.083  12.540
 2017SOL    HW217680   4.609   1.109  12.421
 2018SOL     OW17681   1.478   4.520  21.203
 2018SOL    HW117682   1.523   4.440  21.174
 2018SOL    HW217683   1.510   4.588  21.144
 2019SOL     OW17684   0.270   1.539  11.639
 2019SOL    HW117685   0.319   1.590  11.574
 2019SOL    HW217686   0.336   1.485  11.683
 2020SOL     OW17687   1.163   1.911  19.957
 2020SOL    HW117688   1.077   1.946  19.932
 2020SOL    HW217689   1.155   1.817  19.941
 2021SOL     OW17690   3.734   0.423  27.864
 2021SOL    HW117691   3.646   0.462  27.861
 2021SOL    HW217692   3.754   0.403  27.773
 2022SOL     OW17693   3.329   3.052  24.247
 2022SOL    HW117694   3.413   3.097  24.240
 2022SOL    HW217695   3.349   2.970  24.293
 2023SOL     OW17696   4.460   2.990  11.536
 2023SOL    HW117697   4.474   3.014  11.445
 2023SOL    HW217698   4.467   3.072  11.584
 2024SOL     OW17699   0.622   4.504   2.582
 2024SOL    HW117700   0.652   4.446   2.512
 2024SOL    HW217701   0.591   4.445   2.651
 2025SOL     OW17702   1.069   2.794   7.615
 2025SOL    HW117703   1.117   2.713   7.597
 2025SOL    HW217704   1.053   2.833   7.529
 2026SOL     OW17705   0.901   2.837   4.198
 2026SOL    HW117706   0.879   2.869   4.111
 2026SOL    HW217707   0.977   2.781   4.185
 2027SOL     OW17708   2.965   4.548  23.069
 2027SOL    HW117709   2.882   4.575  23.029
 2027SOL    HW217710   2.965   4.453  23.062
 2028SOL     OW17711   0.281   3.311   4.338
 2028SOL    HW117712   0.354   3.329   4.279
 2028SOL    HW217713   0.309   3.347   4.422
 2029SOL     OW17714   0.414   2.846  25.106
 2029SOL    HW117715   0.495   2.829  25.057
 2029SOL    HW217716   0.444   2.881  25.190
 2030SOL     OW17717   2.627   3.239  21.902
 2030SOL    HW117718   2.635   3.225  21.996
 2030SOL    HW217719   2.533   3.239  21.886
 2031SOL     OW17720   4.149   3.947  11.772
 2031SOL    HW117721   4.212   3.898  11.825
 2031SOL    HW217722   4.064   3.928  11.811
 2032SOL     OW17723   1.288   0.133   4.854
 2032SOL    HW117724   1.320   0.220   4.829
 2032SOL    HW217725   1.352   0.102   4.918
 2033SOL     OW17726   2.855   0.779  21.433
 2033SOL    HW117727   2.921   0.845  21.414
 2033SOL    HW217728   2.787   0.793  21.367
 2034SOL     OW17729   0.215   4.281   1.237
 2034SOL    HW117730   0.218   4.231   1.318
 2034SOL    HW217731   0.124   4.309   1.229
 2035SOL     OW17732   1.874   1.804   0.435
 2035SOL    HW117733   1.872   1.715   0.470
 2035SOL    HW217734   1.946   1.803   0.372
 2036SOL     OW17735   1.925   1.868  21.870
 2036SOL    HW117736   1.981   1.816  21.812
 2036SOL    HW217737   1.854   1.899  21.814
 2037SOL     OW17738   0.408   2.897   8.181
 2037SOL    HW117739   0.484   2.916   8.125
 2037SOL    HW217740   0.359   2.831   8.133
 2038SOL     OW17741   2.060   4.164  25.761
 2038SOL    HW117742   2.095   4.127  25.680
 2038SOL    HW217743   2.060   4.091  25.823
 2039SOL     OW17744   0.719   3.671  18.431
 2039SOL    HW117745   0.780   3.745  18.434
 2039SOL    HW217746   0.669   3.677  18.512
 2040SOL     OW17747   3.314   3.564  21.817
 2040SOL    HW117748   3.396   3.600  21.852
 2040SOL    HW217749   3.253   3.638  21.818
 2041SOL     OW17750   3.916   3.192  11.232
 2041SOL    HW117751   3.885   3.116  11.280
 2041SOL    HW217752   4.008   3.173  11.215
 2042SOL     OW17753   4.345   3.693  21.583
 2042SOL    HW117754   4.264   3.718  21.627
 2042SOL    HW217755   4.325   3.608  21.544
 2043SOL     OW17756   0.281   3.211   1.450
 2043SOL    HW117757   0.324   3.147   1.507
 2043SOL    HW217758   0.214   3.161   1.404
 2044SOL     OW17759   3.225   2.346   5.915
 2044SOL    HW117760   3.237   2.392   5.998
 2044SOL    HW217761   3.311   2.308   5.896
 2045SOL     OW17762   0.605   2.450  23.950
 2045SOL    HW117763   0.558   2.521  23.905
 2045SOL    HW217764   0.667   2.495  24.007
 2046SOL     OW17765   1.455   4.722  20.160
 2046SOL    HW117766   1.440   4.665  20.084
 2046SOL    HW217767   1.463   0.029  20.123
 2047SOL     OW17768   4.521   2.256  27.426
 2047SOL    HW117769   4.597   2.276  27.480
 2047SOL    HW217770   4.547   2.179  27.375
 2048SOL     OW17771   2.172   3.889  12.288
 2048SOL    HW117772   2.242   3.845  12.240
 2048SOL    HW217773   2.116   3.927  12.220
 2049SOL     OW17774   3.991   0.320   3.484
 2049SOL    HW117775   3.982   0.225   3.482
 2049SOL    HW217776   3.901   0.352   3.480
 2050SOL     OW17777   0.639   2.022  25.555
 2050SOL    HW117778   0.654   2.025  25.650
 2050SOL    HW217779   0.605   2.109  25.533
 2051SOL     OW17780   1.580   4.467   4.264
 2051SOL    HW117781   1.597   4.375   4.284
 2051SOL    HW217782   1.592   4.512   4.347
 2052SOL     OW17783   4.344   2.758   9.633
 2052SOL    HW117784   4.254   2.789   9.647
 2052SOL    HW217785   4.369   2.720   9.717
 2053SOL     OW17786   0.241   3.521  20.307
 2053SOL    HW117787   0.149   3.500  20.293
 2053SOL    HW217788   0.280   3.516  20.220
 2054SOL     OW17789   4.726   0.600  28.129
 2054SOL    HW117790   4.669   0.606  28.052
 2054SOL    HW217791   4.666   0.583  28.202
 2055SOL     OW17792   2.257   0.757   7.727
 2055SOL    HW117793   2.294   0.686   7.780
 2055SOL    HW217794   2.283   0.837   7.773
 2056SOL     OW17795   3.527   4.502   6.685
 2056SOL    HW117796   3.492   4.591   6.687
 2056SOL    HW217797   3.622   4.514   6.678
 2057SOL     OW17798   3.481   1.758   9.585
 2057SOL    HW117799   3.408   1.785   9.641
 2057SOL    HW217800   3.559   1.793   9.629
 2058SOL     OW17801   0.588   0.591   2.208
 2058SOL    HW117802   0.531   0.550   2.274
 2058SOL    HW217803   0.587   0.530   2.134
 2059SOL     OW17804   3.100   0.422   4.291
 2059SOL    HW117805   3.139   0.373   4.218
 2059SOL    HW217806   3.034   0.478   4.250
 2060SOL     OW17807   2.814   0.319  19.184
 2060SOL    HW117808   2.762   0.285  19.111
 2060SOL    HW217809   2.773   0.402  19.206
 2061SOL     OW17810   1.012   2.248  19.953
 2061SOL    HW117811   0.918   2.243  19.972
 2061SOL    HW217812   1.045   2.316  20.012
 2062SOL     OW17813   1.379   2.033   9.095
 2062SOL    HW117814   1.419   1.987   9.021
 2062SOL    HW217815   1.348   2.116   9.058
 2063SOL     OW17816   1.867   0.984  28.215
 2063SOL    HW117817   1.838   1.014  28.301
 2063SOL    HW217818   1.955   0.949  28.230
 2064SOL     OW17819   1.199   3.650  28.394
 2064SOL    HW117820   1.148   3.642  28.475
 2064SOL    HW217821   1.187   3.566  28.350
 2065SOL     OW17822   4.510   4.432   3.145
 2065SOL    HW117823   4.553   4.517   3.155
 2065SOL    HW217824   4.430   4.439   3.198
 2066SOL     OW17825   0.349   4.104   0.251
 2066SOL    HW117826   0.384   4.026   0.293
 2066SOL    HW217827   0.370   4.093   0.158
 2067SOL     OW17828   3.594   3.023  10.844
 2067SOL    HW117829   3.524   3.021  10.909
 2067SOL    HW217830   3.663   3.076  10.885
 2068SOL     OW17831   0.920   1.629  20.262
 2068SOL    HW117832   0.980   1.564  20.227
 2068SOL    HW217833   0.847   1.631  20.200
 2069SOL     OW17834   2.691   1.090   5.017
 2069SOL    HW117835   2.761   1.064   5.077
 2069SOL    HW217836   2.729   1.081   4.930
 2070SOL     OW17837   4.513   2.421   0.399
 2070SOL    HW117838   4.514   2.329   0.424
 2070SOL    HW217839   4.605   2.442   0.382
 2071SOL     OW17840   2.180   1.884   5.474
 2071SOL    HW117841   2.131   1.879   5.392
 2071SOL    HW217842   2.116   1.913   5.539
 2072SOL     OW17843   2.657   3.642   0.312
 2072SOL    HW117844   2.681   3.730   0.342
 2072SOL    HW217845   2.740   3.602   0.285
 2073SOL     OW17846   3.398   1.640   6.568
 2073SOL    HW117847   3.378   1.728   6.536
 2073SOL    HW217848   3.491   1.628   6.549
 2074SOL     OW17849   3.769   1.746  25.085
 2074SOL    HW117850   3.711   1.680  25.124
 2074SOL    HW217851   3.796   1.707  25.002
 2075SOL     OW17852   3.718   4.438  12.156
 2075SOL    HW117853   3.748   4.440  12.247
 2075SOL    HW217854   3.793   4.406  12.107
 2076SOL     OW17855   2.261   2.802  11.276
 2076SOL    HW117856   2.285   2.797  11.183
 2076SOL    HW217857   2.281   2.715  11.310
 2077SOL     OW17858   3.218   1.226  23.861
 2077SOL    HW117859   3.258   1.300  23.906
 2077SOL    HW217860   3.128   1.254  23.844
 2078SOL     OW17861   0.642   2.938  12.735
 2078SOL    HW117862   0.592   2.909  12.658
 2078SOL    HW217863   0.665   2.857  12.780
 2079SOL     OW17864   2.114   2.908  27.624
 2079SOL    HW117865   2.175   2.970  27.583
 2079SOL    HW217866   2.037   2.961  27.645
 2080SOL     OW17867   2.692   3.837  25.382
 2080SOL    HW117868   2.689   3.931  25.367
 2080SOL    HW217869   2.747   3.803  25.311
 2081SOL     OW17870   0.605   1.418   2.133
 2081SOL    HW117871   0.590   1.324   2.132
 2081SOL    HW217872   0.626   1.438   2.224
 2082SOL     OW17873   1.134   1.556   1.316
 2082SOL    HW117874   1.187   1.581   1.241
 2082SOL    HW217875   1.150   1.624   1.381
 2083SOL     OW17876   0.392   4.056  26.584
 2083SOL    HW117877   0.420   3.965  26.591
 2083SOL    HW217878   0.367   4.067  26.492
 2084SOL     OW17879   3.830   3.349  11.443
 2084SOL    HW117880   3.741   3.317  11.430
 2084SOL    HW217881   3.878   3.321  11.365
 2085SOL     OW17882   4.529   2.923  21.417
 2085SOL    HW117883   4.515   2.832  21.442
 2085SOL    HW217884   4.606   2.950  21.467
 2086SOL     OW17885   0.561   2.540  21.488
 2086SOL    HW117886   0.518   2.621  21.460
 2086SOL    HW217887   0.523   2.472  21.433
 2087SOL     OW17888   3.726   4.629  13.106
 2087SOL    HW117889   3.740   4.702  13.046
 2087SOL    HW217890   3.751   4.663  13.192
 2088SOL     OW17891   0.030   3.776  12.004
 2088SOL    HW117892   0.025   3.763  12.099
 2088SOL    HW217893   4.770   3.861  11.989
 2089SOL     OW17894   2.387   4.575  25.371
 2089SOL    HW117895   2.351   4.530  25.295
 2089SOL    HW217896   2.394   4.507  25.438
 2090SOL     OW17897   0.563   1.718  21.897
 2090SOL    HW117898   0.557   1.805  21.936
 2090SOL    HW217899   0.652   1.713  21.862
 2091SOL     OW17900   2.808   2.285  23.760
 2091SOL    HW117901   2.770   2.262  23.845
 2091SOL    HW217902   2.808   2.381  23.758
 2092SOL     OW17903   4.056   1.208  23.640
 2092SOL    HW117904   3.986   1.247  23.587
 2092SOL    HW217905   4.033   1.231  23.730
 2093SOL     OW17906   2.054   0.168  12.035
 2093SOL    HW117907   2.097   0.253  12.025
 2093SOL    HW217908   2.011   0.173  12.121
 2094SOL     OW17909   3.235   1.586   8.052
 2094SOL    HW117910   3.292   1.655   8.018
 2094SOL    HW217911   3.272   1.505   8.018
 2095SOL     OW17912   3.654   4.229  25.808
 2095SOL    HW117913   3.695   4.190  25.731
 2095SOL    HW217914   3.724   4.233  25.873
 2096SOL     OW17915   1.160   2.876  26.547
 2096SOL    HW117916   1.213   2.799  26.524
 2096SOL    HW217917   1.191   2.900  26.634
 2097SOL     OW17918   2.031   2.288  23.010
 2097SOL    HW117919   2.121   2.270  22.984
 2097SOL    HW217920   1.991   2.328  22.933
 2098SOL     OW17921   3.063   4.269  10.362
 2098SOL    HW117922   3.120   4.296  10.290
 2098SOL    HW217923   3.120   4.270  10.439
 2099SOL     OW17924   4.177   2.568  11.880
 2099SOL    HW117925   4.243   2.530  11.938
 2099SOL    HW217926   4.172   2.660  11.906
 2100SOL     OW17927   3.996   3.365   0.920
 2100SOL    HW117928   4.034   3.401   1.000
 2100SOL    HW217929   3.902   3.379   0.929
 2101SOL     OW17930   2.927   3.684   3.085
 2101SOL    HW117931   2.904   3.734   3.007
 2101SOL    HW217932   2.850   3.692   3.142
 2102SOL     OW17933   1.162   1.722  17.570
 2102SOL    HW117934   1.128   1.802  17.529
 2102SOL    HW217935   1.243   1.703  17.522
 2103SOL     OW17936   0.775   0.942  27.980
 2103SOL    HW117937   0.680   0.937  27.970
 2103SOL    HW217938   0.807   0.856  27.953
 2104SOL     OW17939   2.557   1.559  11.746
 2104SOL    HW117940   2.513   1.503  11.810
 2104SOL    HW217941   2.626   1.504  11.709
 2105SOL     OW17942   1.845   0.900   4.990
 2105SOL    HW117943   1.940   0.893   4.986
 2105SOL    HW217944   1.825   0.900   5.084
 2106SOL     OW17945   2.989   1.678   5.222
 2106SOL    HW117946   2.893   1.682   5.224
 2106SOL    HW217947   3.018   1.749   5.279
 2107SOL     OW17948   1.799   2.133   8.803
 2107SOL    HW117949   1.762   2.054   8.843
 2107SOL    HW217950   1.878   2.103   8.759
 2108SOL     OW17951   2.099   1.665   3.879
 2108SOL    HW117952   2.064   1.706   3.800
 2108SOL    HW217953   2.179   1.622   3.850
 2109SOL     OW17954   4.034   4.234  26.228
 2109SOL    HW117955   3.975   4.304  26.200
 2109SOL    HW217956   4.075   4.267  26.308
 2110SOL     OW17957   2.078   4.426  18.618
 2110SOL    HW117958   2.120   4.442  18.533
 2110SOL    HW217959   2.111   4.495  18.675
 2111SOL     OW17960   0.144   2.773   3.433
 2111SOL    HW117961   0.049   2.769   3.425
 2111SOL    HW217962   0.169   2.852   3.385
 2112SOL     OW17963   0.923   3.676  28.166
 2112SOL    HW117964   0.874   3.646  28.089
 2112SOL    HW217965   0.908   3.608  28.232
 2113SOL     OW17966   1.161   4.614   5.818
 2113SOL    HW117967   1.080   4.645   5.859
 2113SOL    HW217968   1.145   4.623   5.724
 2114SOL     OW17969   3.622   0.034  21.161
 2114SOL    HW117970   3.567   0.011  21.236
 2114SOL    HW217971   3.712   0.031  21.195
 2115SOL     OW17972   0.096   0.210  27.053
 2115SOL    HW117973   0.020   0.180  27.003
 2115SOL    HW217974   0.169   0.204  26.991
 2116SOL     OW17975   2.057   3.358  25.646
 2116SOL    HW117976   2.007   3.312  25.579
 2116SOL    HW217977   2.098   3.289  25.698
 2117SOL     OW17978   2.373   3.110   3.808
 2117SOL    HW117979   2.346   3.144   3.893
 2117SOL    HW217980   2.301   3.053   3.782
 2118SOL     OW17981   0.390   2.106  10.353
 2118SOL    HW117982   0.415   2.030  10.405
 2118SOL    HW217983   0.296   2.095  10.338
 2119SOL     OW17984   1.363   2.986  24.197
 2119SOL    HW117985   1.409   2.904  24.177
 2119SOL    HW217986   1.429   3.041  24.240
 2120SOL     OW17987   3.619   1.520  10.296
 2120SOL    HW117988   3.622   1.482  10.384
 2120SOL    HW217989   3.685   1.471  10.246
 2121SOL     OW17990   0.293   0.209   7.857
 2121SOL    HW117991   0.280   0.271   7.929
 2121SOL    HW217992   0.228   0.140   7.873
 2122SOL     OW17993   2.236   2.901   2.210
 2122SOL    HW117994   2.276   2.818   2.235
 2122SOL    HW217995   2.154   2.905   2.259
 2123SOL     OW17996   2.245   4.572   1.614
 2123SOL    HW117997   2.331   4.601   1.584
 2123SOL    HW217998   2.245   4.591   1.708
 2124SOL     OW17999   1.228   3.590   2.550
 2124SOL    HW118000   1.158   3.566   2.610
 2124SOL    HW218001   1.184   3.639   2.480
 2125SOL     OW18002   3.928   3.064  11.900
 2125SOL    HW118003   4.022   3.051  11.886
 2125SOL    HW218004   3.889   2.979  11.880
 2126SOL     OW18005   3.240   3.297  25.467
 2126SOL    HW118006   3.152   3.323  25.493
 2126SOL    HW218007   3.244   3.203  25.486
 2127SOL     OW18008   3.313   0.223   9.848
 2127SOL    HW118009   3.353   0.272   9.777
 2127SOL    HW218010   3.270   0.149   9.805
 2128SOL     OW18011   1.449   3.502   7.134
 2128SOL    HW118012   1.537   3.500   7.097
 2128SOL    HW218013   1.456   3.455   7.217
 2129SOL     OW18014   0.071   0.724  20.867
 2129SOL    HW118015   0.106   0.644  20.906
 2129SOL    HW218016   4.766   0.699  20.834
 2130SOL     OW18017   1.129   3.446  11.917
 2130SOL    HW118018   1.095   3.529  11.950
 2130SOL    HW218019   1.207   3.430  11.970
 2131SOL     OW18020   4.415   0.696   5.879
 2131SOL    HW118021   4.367   0.729   5.955
 2131SOL    HW218022   4.493   0.654   5.916
 2132SOL     OW18023   3.151   2.852   9.838
 2132SOL    HW118024   3.101   2.910   9.781
 2132SOL    HW218025   3.085   2.804   9.888
 2133SOL     OW18026   4.772   3.872   3.134
 2133SOL    HW118027   4.760   3.779   3.156
 2133SOL    HW218028   4.724   3.919   3.202
 2134SOL     OW18029   0.585   1.725   9.192
 2134SOL    HW118030   0.604   1.636   9.223
 2134SOL    HW218031   0.512   1.714   9.131
 2135SOL     OW18032   1.630   1.041   8.948
 2135SOL    HW118033   1.535   1.032   8.946
 2135SOL    HW218034   1.654   1.070   8.860
 2136SOL     OW18035   3.438   1.206   9.256
 2136SOL    HW118036   3.345   1.229   9.254
 2136SOL    HW218037   3.465   1.223   9.346
 2137SOL     OW18038   0.830   4.138  24.877
 2137SOL    HW118039   0.804   4.226  24.904
 2137SOL    HW218040   0.753   4.084  24.895
 2138SOL     OW18041   1.351   1.972  20.972
 2138SOL    HW118042   1.266   1.929  20.965
 2138SOL    HW218043   1.338   2.058  20.932
 2139SOL     OW18044   2.968   0.385   2.684
 2139SOL    HW118045   2.957   0.307   2.629
 2139SOL    HW218046   3.037   0.435   2.641
 2140SOL     OW18047   2.715   4.174  12.700
 2140SOL    HW118048   2.673   4.093  12.671
 2140SOL    HW218049   2.779   4.146  12.766
 2141SOL     OW18050   2.470   4.099  13.056
 2141SOL    HW118051   2.419   4.104  13.137
 2141SOL    HW218052   2.527   4.176  13.058
 2142SOL     OW18053   1.923   2.295  28.299
 2142SOL    HW118054   1.987   2.228  28.320
 2142SOL    HW218055   1.885   2.319  28.383
 2143SOL     OW18056   3.663   3.512  13.015
 2143SOL    HW118057   3.652   3.427  12.973
 2143SOL    HW218058   3.729   3.496  13.083
 2144SOL     OW18059   3.398   4.378  12.183
 2144SOL    HW118060   3.478   4.405  12.229
 2144SOL    HW218061   3.387   4.286  12.205
 2145SOL     OW18062   3.500   3.717  11.020
 2145SOL    HW118063   3.563   3.777  11.059
 2145SOL    HW218064   3.542   3.631  11.027
 2146SOL     OW18065   2.189   1.907  12.958
 2146SOL    HW118066   2.164   1.919  13.050
 2146SOL    HW218067   2.260   1.969  12.944
 2147SOL     OW18068   2.575   3.474  13.094
 2147SOL    HW118069   2.652   3.484  13.150
 2147SOL    HW218070   2.520   3.411  13.141
 2148SOL     OW18071   0.137   0.489  11.071
 2148SOL    HW118072   0.172   0.490  11.160
 2148SOL    HW218073   0.069   0.556  11.071
 2149SOL     OW18074   4.106   3.635   4.003
 2149SOL    HW118075   4.099   3.540   3.989
 2149SOL    HW218076   4.056   3.673   3.931
 2150SOL     OW18077   2.060   4.203  13.341
 2150SOL    HW118078   2.024   4.141  13.277
 2150SOL    HW218079   1.998   4.276  13.341
 2151SOL     OW18080   2.409   3.630  13.723
 2151SOL    HW118081   2.348   3.559  13.742
 2151SOL    HW218082   2.481   3.616  13.784
 2152SOL     OW18083   1.014   1.729  10.911
 2152SOL    HW118084   1.020   1.777  10.828
 2152SOL    HW218085   0.983   1.794  10.974
 2153SOL     OW18086   0.457   0.958  20.958
 2153SOL    HW118087   0.508   0.960  20.877
 2153SOL    HW218088   0.410   1.041  20.959
 2154SOL     OW18089   2.464   3.708  13.001
 2154SOL    HW118090   2.492   3.617  13.010
 2154SOL    HW218091   2.492   3.750  13.082
 2155SOL     OW18092   3.650   3.275  12.908
 2155SOL    HW118093   3.703   3.245  12.834
 2155SOL    HW218094   3.571   3.221  12.905
 2156SOL     OW18095   0.444   1.358  11.765
 2156SOL    HW118096   0.458   1.268  11.794
 2156SOL    HW218097   0.389   1.396  11.833
 2157SOL     OW18098   3.629   4.773  12.374
 2157SOL    HW118099   3.564   0.032  12.433
 2157SOL    HW218100   3.661   0.065  12.321
 2158SOL     OW18101   1.484   1.016  13.236
 2158SOL    HW118102   1.518   0.980  13.318
 2158SOL    HW218103   1.539   1.093  13.219
 2159SOL     OW18104   3.213   3.263  12.882
 2159SOL    HW118105   3.270   3.339  12.874
 2159SOL    HW218106   3.271   3.188  12.868
 2160SOL     OW18107   0.711   3.490  25.753
 2160SOL    HW118108   0.783   3.473  25.692
 2160SOL    HW218109   0.747   3.552  25.816
 2161SOL     OW18110   2.509   3.515  12.617
 2161SOL    HW118111   2.448   3.586  12.597
 2161SOL    HW218112   2.557   3.545  12.694
 2162SOL     OW18113   1.739   3.615  13.539
 2162SOL    HW118114   1.730   3.525  13.507
 2162SOL    HW218115   1.800   3.608  13.612
 2163SOL     OW18116   2.214   3.711  12.880
 2163SOL    HW118117   2.297   3.717  12.927
 2163SOL    HW218118   2.157   3.774  12.923
 2164SOL     OW18119   0.740   1.306  23.787
 2164SOL    HW118120   0.798   1.342  23.854
 2164SOL    HW218121   0.769   1.346  23.705
 2165SOL     OW18122   2.621   3.921  12.593
 2165SOL    HW118123   2.575   3.919  12.677
 2165SOL    HW218124   2.572   3.860  12.538
 2166SOL     OW18125   3.692   0.029   1.925
 2166SOL    HW118126   3.703   4.764   2.009
 2166SOL    HW218127   3.781   0.039   1.892
 2167SOL     OW18128   0.287   0.107   8.236
 2167SOL    HW118129   0.229   0.050   8.187
 2167SOL    HW218130   0.361   0.123   8.177
 2168SOL     OW18131   3.865   4.248  13.012
 2168SOL    HW118132   3.917   4.263  13.091
 2168SOL    HW218133   3.926   4.209  12.950
 2169SOL     OW18134   2.304   3.980  13.368
 2169SOL    HW118135   2.245   4.038  13.417
 2169SOL    HW218136   2.355   3.935  13.435
 2170SOL     OW18137   1.891   3.380  11.124
 2170SOL    HW118138   1.854   3.404  11.209
 2170SOL    HW218139   1.958   3.315  11.144
 2171SOL     OW18140   2.723   3.834  13.699
 2171SOL    HW118141   2.700   3.792  13.782
 2171SOL    HW218142   2.687   3.922  13.706
 2172SOL     OW18143   4.274   1.623   2.775
 2172SOL    HW118144   4.334   1.591   2.842
 2172SOL    HW218145   4.256   1.546   2.720
 2173SOL     OW18146   2.824   3.585  13.421
 2173SOL    HW118147   2.805   3.520  13.354
 2173SOL    HW218148   2.740   3.598  13.465
 2174SOL     OW18149   3.099   0.215  11.962
 2174SOL    HW118150   3.047   0.267  12.023
 2174SOL    HW218151   3.157   0.278  11.919
 2175SOL     OW18152   0.354   2.674  12.380
 2175SOL    HW118153   0.284   2.661  12.443
 2175SOL    HW218154   0.396   2.588  12.372
 2176SOL     OW18155   4.589   0.515   9.252
 2176SOL    HW118156   4.598   0.610   9.259
 2176SOL    HW218157   4.665   0.487   9.202
 2177SOL     OW18158   2.340   4.107  12.701
 2177SOL    HW118159   2.393   4.055  12.762
 2177SOL    HW218160   2.275   4.046  12.667
 2178SOL     OW18161   2.199   4.261  13.570
 2178SOL    HW118162   2.189   4.190  13.634
 2178SOL    HW218163   2.133   4.243  13.503
 2179SOL     OW18164   2.752   0.047  12.561
 2179SOL    HW118165   2.817   4.775  12.608
 2179SOL    HW218166   2.767   0.136  12.591
 2180SOL     OW18167   3.826   4.446  12.419
 2180SOL    HW118168   3.866   4.459  12.505
 2180SOL    HW218169   3.732   4.456  12.434
 2181SOL     OW18170   2.164   3.865  13.170
 2181SOL    HW118171   2.119   3.947  13.152
 2181SOL    HW218172   2.234   3.889  13.230
 2182SOL     OW18173   1.933   0.223  12.620
 2182SOL    HW118174   1.864   0.175  12.665
 2182SOL    HW218175   2.000   0.237  12.687
 2183SOL     OW18176   2.903   3.887  12.499
 2183SOL    HW118177   2.937   3.956  12.442
 2183SOL    HW218178   2.827   3.926  12.541
 2184SOL     OW18179   3.314   0.925  11.268
 2184SOL    HW118180   3.257   0.885  11.334
 2184SOL    HW218181   3.327   1.015  11.298
 2185SOL     OW18182   3.537   0.251   1.573
 2185SOL    HW118183   3.536   0.257   1.668
 2185SOL    HW218184   3.575   0.165   1.554
 2186SOL     OW18185   4.168   3.649  12.434
 2186SOL    HW118186   4.146   3.619  12.346
 2186SOL    HW218187   4.137   3.579  12.491
 2187SOL     OW18188   3.725   0.624   8.764
 2187SOL    HW118189   3.723   0.534   8.732
 2187SOL    HW218190   3.751   0.617   8.856
 2188SOL     OW18191   0.026   4.409   2.493
 2188SOL    HW118192   4.729   4.424   2.546
 2188SOL    HW218193   0.048   4.317   2.508
 2189SOL     OW18194   2.526   2.655  14.114
 2189SOL    HW118195   2.616   2.626  14.097
 2189SOL    HW218196   2.472   2.580  14.090
 2190SOL     OW18197   2.093   3.638  12.333
 2190SOL    HW118198   2.120   3.729  12.325
 2190SOL    HW218199   2.029   3.639  12.404
 2191SOL     OW18200   1.845   0.525  11.031
 2191SOL    HW118201   1.859   0.550  11.122
 2191SOL    HW218202   1.762   0.567  11.008
 2192SOL     OW18203   3.479   3.727  12.573
 2192SOL    HW118204   3.494   3.633  12.583
 2192SOL    HW218205   3.433   3.752  12.653
 2193SOL     OW18206   3.150   4.541  11.273
 2193SOL    HW118207   3.172   4.527  11.365
 2193SOL    HW218208   3.181   4.630  11.255
 2194SOL     OW18209   2.086   0.652  13.337
 2194SOL    HW118210   2.168   0.615  13.370
 2194SOL    HW218211   2.042   0.687  13.415
 2195SOL     OW18212   2.527   3.044   7.253
 2195SOL    HW118213   2.541   3.097   7.332
 2195SOL    HW218214   2.553   3.101   7.181
 2196SOL     OW18215   1.751   0.800   7.373
 2196SOL    HW118216   1.688   0.859   7.414
 2196SOL    HW218217   1.807   0.857   7.320
 2197SOL     OW18218   3.200   3.245  12.300
 2197SOL    HW118219   3.250   3.325  12.317
 2197SOL    HW218220   3.243   3.178  12.352
 2198SOL     OW18221   2.948   3.759  13.591
 2198SOL    HW118222   2.875   3.809  13.627
 2198SOL    HW218223   2.908   3.700  13.527
 2199SOL     OW18224   3.382   2.386  27.212
 2199SOL    HW118225   3.471   2.374  27.246
 2199SOL    HW218226   3.395   2.410  27.120
 2200SOL     OW18227   3.075   0.752  14.503
 2200SOL    HW118228   3.142   0.761  14.570
 2200SOL    HW218229   3.069   0.839  14.464
 2201SOL     OW18230   3.396   4.555  13.736
 2201SOL    HW118231   3.451   4.633  13.746
 2201SOL    HW218232   3.317   4.587  13.692
 2202SOL     OW18233   3.331   4.241  14.172
 2202SOL    HW118234   3.268   4.258  14.242
 2202SOL    HW218235   3.322   4.316  14.113
 2203SOL     OW18236   1.737   0.371  14.036
 2203SOL    HW118237   1.654   0.419  14.043
 2203SOL    HW218238   1.804   0.436  14.056
 2204SOL     OW18239   2.698   0.248  14.242
 2204SOL    HW118240   2.710   0.251  14.147
 2204SOL    HW218241   2.785   0.266  14.278
 2205SOL     OW18242   1.131   4.242  13.938
 2205SOL    HW118243   1.061   4.226  13.874
 2205SOL    HW218244   1.099   4.316  13.990
 2206SOL     OW18245   2.474   4.493  14.297
 2206SOL    HW118246   2.426   4.456  14.223
 2206SOL    HW218247   2.410   4.494  14.369
 2207SOL     OW18248   2.741   3.669  12.415
 2207SOL    HW118249   2.789   3.752  12.423
 2207SOL    HW218250   2.649   3.694  12.424
 2208SOL     OW18251   2.222   3.793  14.109
 2208SOL    HW118252   2.193   3.851  14.179
 2208SOL    HW218253   2.289   3.738  14.150
 2209SOL     OW18254   3.574   3.845  14.042
 2209SOL    HW118255   3.612   3.920  13.997
 2209SOL    HW218256   3.519   3.883  14.111
 2210SOL     OW18257   2.834   3.473  14.248
 2210SOL    HW118258   2.833   3.378  14.262
 2210SOL    HW218259   2.924   3.493  14.224
 2211SOL     OW18260   2.043   3.653  13.966
 2211SOL    HW118261   2.094   3.711  14.023
 2211SOL    HW218262   1.986   3.712  13.917
 2212SOL     OW18263   1.732   1.958  14.508
 2212SOL    HW118264   1.756   1.870  14.479
 2212SOL    HW218265   1.810   1.992  14.551
 2213SOL     OW18266   2.246   0.456  14.183
 2213SOL    HW118267   2.232   0.530  14.242
 2213SOL    HW218268   2.191   0.386  14.219
 2214SOL     OW18269   2.338   0.837  13.242
 2214SOL    HW118270   2.328   0.852  13.336
 2214SOL    HW218271   2.410   0.774  13.235
 2215SOL     OW18272   2.642   0.739  14.626
 2215SOL    HW118273   2.595   0.663  14.662
 2215SOL    HW218274   2.715   0.701  14.577
 2216SOL     OW18275   4.149   0.223  12.834
 2216SOL    HW118276   4.097   0.266  12.767
 2216SOL    HW218277   4.138   0.277  12.912
 2217SOL     OW18278   2.479   3.773  12.419
 2217SOL    HW118279   2.399   3.739  12.459
 2217SOL    HW218280   2.469   3.755  12.326
 2218SOL     OW18281   3.750   3.494  14.992
 2218SOL    HW118282   3.789   3.412  14.963
 2218SOL    HW218283   3.659   3.490  14.962
 2219SOL     OW18284   3.100   4.589  13.915
 2219SOL    HW118285   3.111   4.590  13.820
 2219SOL    HW218286   3.006   4.579  13.928
 2220SOL     OW18287   2.839   3.163  12.359
 2220SOL    HW118288   2.915   3.175  12.416
 2220SOL    HW218289   2.765   3.156  12.419
 2221SOL     OW18290   4.113   4.720  12.382
 2221SOL    HW118291   4.085   4.651  12.322
 2221SOL    HW218292   4.192   4.685  12.424
 2222SOL     OW18293   0.891   4.087  14.117
 2222SOL    HW118294   0.852   4.148  14.180
 2222SOL    HW218295   0.851   4.110  14.033
 2223SOL     OW18296   1.912   2.849  14.444
 2223SOL    HW118297   1.917   2.940  14.474
 2223SOL    HW218298   1.987   2.839  14.385
 2224SOL     OW18299   3.186   0.141  14.374
 2224SOL    HW118300   3.222   0.176  14.292
 2224SOL    HW218301   3.097   0.176  14.378
 2225SOL     OW18302   4.039   3.896  13.069
 2225SOL    HW118303   4.003   3.930  13.151
 2225SOL    HW218304   4.073   3.809  13.092
 2226SOL     OW18305   0.234   0.544  13.581
 2226SOL    HW118306   0.328   0.540  13.562
 2226SOL    HW218307   0.229   0.556  13.676
 2227SOL     OW18308   2.475   3.702  14.252
 2227SOL    HW118309   2.558   3.750  14.249
 2227SOL    HW218310   2.486   3.632  14.188
 2228SOL     OW18311   2.488   3.923  12.832
 2228SOL    HW118312   2.491   3.982  12.907
 2228SOL    HW218313   2.492   3.835  12.870
 2229SOL     OW18314   2.653   4.737  14.015
 2229SOL    HW118315   2.656   0.052  14.020
 2229SOL    HW218316   2.567   4.717  13.978
 2230SOL     OW18317   3.197   4.775  14.604
 2230SOL    HW118318   3.195   0.013  14.510
 2230SOL    HW218319   3.210   4.680  14.610
 2231SOL     OW18320   3.600   4.288  14.093
 2231SOL    HW118321   3.506   4.282  14.109
 2231SOL    HW218322   3.607   4.337  14.011
 2232SOL     OW18323   4.042   4.089  12.889
 2232SOL    HW118324   4.040   4.018  12.953
 2232SOL    HW218325   4.027   4.045  12.805
 2233SOL     OW18326   3.390   3.601  13.711
 2233SOL    HW118327   3.428   3.603  13.799
 2233SOL    HW218328   3.302   3.637  13.722
 2234SOL     OW18329   1.572   4.187  14.870
 2234SOL    HW118330   1.509   4.246  14.911
 2234SOL    HW218331   1.542   4.100  14.895
 2235SOL     OW18332   2.256   3.145  14.125
 2235SOL    HW118333   2.321   3.124  14.192
 2235SOL    HW218334   2.178   3.170  14.175
 2236SOL     OW18335   3.434   4.293  14.487
 2236SOL    HW118336   3.344   4.302  14.455
 2236SOL    HW218337   3.425   4.246  14.570
 2237SOL     OW18338   3.912   3.826  13.858
 2237SOL    HW118339   3.875   3.746  13.895
 2237SOL    HW218340   3.838   3.887  13.852
 2238SOL     OW18341   3.687   4.050  13.915
 2238SOL    HW118342   3.650   4.063  13.828
 2238SOL    HW218343   3.684   4.137  13.955
 2239SOL     OW18344   3.166   3.738  13.764
 2239SOL    HW118345   3.153   3.756  13.857
 2239SOL    HW218346   3.080   3.753  13.725
 2240SOL     OW18347   2.155   4.361  14.352
 2240SOL    HW118348   2.201   4.306  14.289
 2240SOL    HW218349   2.221   4.382  14.418
 2241SOL     OW18350   2.169   2.922  14.409
 2241SOL    HW118351   2.195   2.834  14.435
 2241SOL    HW218352   2.251   2.965  14.384
 2242SOL     OW18353   2.994   4.095  13.760
 2242SOL    HW118354   2.925   4.157  13.739
 2242SOL    HW218355   3.052   4.097  13.684
 2243SOL     OW18356   3.457   0.730   3.603
 2243SOL    HW118357   3.475   0.776   3.685
 2243SOL    HW218358   3.460   0.637   3.626
 2244SOL     OW18359   2.085   0.778  14.135
 2244SOL    HW118360   2.118   0.718  14.202
 2244SOL    HW218361   2.123   0.745  14.053
 2245SOL     OW18362   2.521   3.723  14.795
 2245SOL    HW118363   2.588   3.792  14.791
 2245SOL    HW218364   2.506   3.698  14.704
 2246SOL     OW18365   2.505   3.427  14.086
 2246SOL    HW118366   2.426   3.424  14.032
 2246SOL    HW218367   2.575   3.397  14.028
 2247SOL     OW18368   2.567   3.809  13.226
 2247SOL    HW118369   2.570   3.767  13.312
 2247SOL    HW218370   2.578   3.902  13.244
 2248SOL     OW18371   3.623   0.347  14.276
 2248SOL    HW118372   3.572   0.380  14.350
 2248SOL    HW218373   3.571   0.371  14.199
 2249SOL     OW18374   2.662   3.570  12.822
 2249SOL    HW118375   2.672   3.549  12.915
 2249SOL    HW218376   2.733   3.632  12.804
 2250SOL     OW18377   2.819   4.675  14.935
 2250SOL    HW118378   2.844   4.750  14.989
 2250SOL    HW218379   2.840   4.599  14.989
 2251SOL     OW18380   3.536   4.414  12.635
 2251SOL    HW118381   3.457   4.360  12.624
 2251SOL    HW218382   3.558   4.406  12.728
 2252SOL     OW18383   3.923   4.251  11.329
 2252SOL    HW118384   3.857   4.312  11.296
 2252SOL    HW218385   3.880   4.206  11.402
 2253SOL     OW18386   2.035   4.581  14.250
 2253SOL    HW118387   1.984   4.574  14.170
 2253SOL    HW218388   2.059   4.491  14.271
 2254SOL     OW18389   2.129   3.932  12.600
 2254SOL    HW118390   2.191   3.932  12.527
 2254SOL    HW218391   2.045   3.953  12.560
 2255SOL     OW18392   2.257   3.478  13.905
 2255SOL    HW118393   2.229   3.393  13.939
 2255SOL    HW218394   2.185   3.537  13.927
 2256SOL     OW18395   3.330   4.444  13.992
 2256SOL    HW118396   3.260   4.510  13.996
 2256SOL    HW218397   3.360   4.446  13.901
 2257SOL     OW18398   2.638   3.675  13.913
 2257SOL    HW118399   2.675   3.587  13.905
 2257SOL    HW218400   2.653   3.698  14.005
 2258SOL     OW18401   3.357   3.975  14.149
 2258SOL    HW118402   3.351   3.973  14.245
 2258SOL    HW218403   3.343   4.067  14.127
 2259SOL     OW18404   2.373   0.834  13.969
 2259SOL    HW118405   2.401   0.802  14.055
 2259SOL    HW218406   2.408   0.770  13.907
 2260SOL     OW18407   3.358   3.799  12.812
 2260SOL    HW118408   3.290   3.832  12.870
 2260SOL    HW218409   3.415   3.875  12.796
 2261SOL     OW18410   3.611   4.163  14.325
 2261SOL    HW118411   3.605   4.207  14.240
 2261SOL    HW218412   3.554   4.214  14.382
 2262SOL     OW18413   1.877   0.197  14.193
 2262SOL    HW118414   1.815   0.264  14.164
 2262SOL    HW218415   1.948   0.247  14.234
 2263SOL     OW18416   3.132   3.717  14.311
 2263SOL    HW118417   3.066   3.652  14.287
 2263SOL    HW218418   3.138   3.711  14.406
 2264SOL     OW18419   4.101   3.736  13.669
 2264SOL    HW118420   4.178   3.772  13.713
 2264SOL    HW218421   4.027   3.762  13.724
 2265SOL     OW18422   2.589   3.701  13.501
 2265SOL    HW118423   2.521   3.672  13.562
 2265SOL    HW218424   2.635   3.770  13.548
 2266SOL     OW18425   1.951   1.171  13.230
 2266SOL    HW118426   1.942   1.076  13.238
 2266SOL    HW218427   1.877   1.207  13.279
 2267SOL     OW18428   1.790   3.151  15.570
 2267SOL    HW118429   1.741   3.114  15.643
 2267SOL    HW218430   1.871   3.100  15.567
 2268SOL     OW18431   4.567   2.405  14.701
 2268SOL    HW118432   4.629   2.435  14.635
 2268SOL    HW218433   4.481   2.423  14.663
 2269SOL     OW18434   1.666   4.436  15.157
 2269SOL    HW118435   1.687   4.427  15.250
 2269SOL    HW218436   1.750   4.457  15.116
 2270SOL     OW18437   2.949   3.804  15.959
 2270SOL    HW118438   3.037   3.769  15.942
 2270SOL    HW218439   2.892   3.727  15.960
 2271SOL     OW18440   2.561   0.177  15.132
 2271SOL    HW118441   2.583   0.152  15.042
 2271SOL    HW218442   2.516   0.261  15.123
 2272SOL     OW18443   2.378   4.446  15.817
 2272SOL    HW118444   2.411   4.533  15.840
 2272SOL    HW218445   2.284   4.450  15.835
 2273SOL     OW18446   1.674   3.279  15.370
 2273SOL    HW118447   1.746   3.239  15.419
 2273SOL    HW218448   1.698   3.267  15.278
 2274SOL     OW18449   2.143   4.478  16.001
 2274SOL    HW118450   2.063   4.460  16.050
 2274SOL    HW218451   2.164   4.569  16.022
 2275SOL     OW18452   0.128   0.278  14.798
 2275SOL    HW118453   0.058   0.258  14.861
 2275SOL    HW218454   0.086   0.271  14.712
 2276SOL     OW18455   1.957   0.488  15.331
 2276SOL    HW118456   1.909   0.468  15.412
 2276SOL    HW218457   1.898   0.461  15.261
 2277SOL     OW18458   2.439   4.724  15.923
 2277SOL    HW118459   2.363   4.731  15.980
 2277SOL    HW218460   2.412   4.765  15.841
 2278SOL     OW18461   1.685   3.609  15.885
 2278SOL    HW118462   1.663   3.686  15.833
 2278SOL    HW218463   1.711   3.543  15.820
 2279SOL     OW18464   4.421   2.245  15.918
 2279SOL    HW118465   4.457   2.334  15.916
 2279SOL    HW218466   4.489   2.193  15.961
 2280SOL     OW18467   3.420   4.243  16.205
 2280SOL    HW118468   3.460   4.187  16.139
 2280SOL    HW218469   3.475   4.321  16.207
 2281SOL     OW18470   2.551   0.116  14.841
 2281SOL    HW118471   2.457   0.115  14.823
 2281SOL    HW218472   2.587   0.180  14.779
 2282SOL     OW18473   2.323   4.082  14.943
 2282SOL    HW118474   2.311   4.017  14.874
 2282SOL    HW218475   2.284   4.041  15.021
 2283SOL     OW18476   3.210   0.132  15.744
 2283SOL    HW118477   3.125   0.091  15.757
 2283SOL    HW218478   3.198   0.222  15.776
 2284SOL     OW18479   2.419   3.274  16.144
 2284SOL    HW118480   2.354   3.221  16.098
 2284SOL    HW218481   2.375   3.301  16.225
 2285SOL     OW18482   2.429   4.081  16.283
 2285SOL    HW118483   2.425   4.159  16.228
 2285SOL    HW218484   2.522   4.058  16.286
 2286SOL     OW18485   3.536   4.114  15.981
 2286SOL    HW118486   3.589   4.045  15.941
 2286SOL    HW218487   3.567   4.195  15.941
 2287SOL     OW18488   3.340   4.339  16.469
 2287SOL    HW118489   3.427   4.344  16.509
 2287SOL    HW218490   3.354   4.290  16.388
 2288SOL     OW18491   2.868   4.481  17.393
 2288SOL    HW118492   2.792   4.538  17.381
 2288SOL    HW218493   2.943   4.540  17.389
 2289SOL     OW18494   2.525   4.262  15.668
 2289SOL    HW118495   2.460   4.318  15.710
 2289SOL    HW218496   2.608   4.309  15.678
 2290SOL     OW18497   4.051   3.407  15.903
 2290SOL    HW118498   3.956   3.412  15.913
 2290SOL    HW218499   4.085   3.465  15.971
 2291SOL     OW18500   2.204   0.348  15.430
 2291SOL    HW118501   2.136   0.355  15.497
 2291SOL    HW218502   2.160   0.369  15.348
 2292SOL     OW18503   2.238   0.071  15.431
 2292SOL    HW118504   2.248   0.164  15.411
 2292SOL    HW218505   2.251   0.027  15.347
 2293SOL     OW18506   2.092   0.234  15.210
 2293SOL    HW118507   2.035   0.160  15.232
 2293SOL    HW218508   2.032   0.307  15.195
 2294SOL     OW18509   1.970   1.342  15.429
 2294SOL    HW118510   2.043   1.388  15.469
 2294SOL    HW218511   1.903   1.409  15.417
 2295SOL     OW18512   3.986   0.413  16.599
 2295SOL    HW118513   3.996   0.501  16.635
 2295SOL    HW218514   3.927   0.424  16.524
 2296SOL     OW18515   4.084   3.566  14.933
 2296SOL    HW118516   4.177   3.584  14.916
 2296SOL    HW218517   4.079   3.471  14.940
 2297SOL     OW18518   2.345   4.336  16.157
 2297SOL    HW118519   2.309   4.359  16.243
 2297SOL    HW218520   2.288   4.382  16.095
 2298SOL     OW18521   2.951   0.078  15.812
 2298SOL    HW118522   2.941   0.116  15.899
 2298SOL    HW218523   2.863   0.048  15.788
 2299SOL     OW18524   3.873   1.476  16.281
 2299SOL    HW118525   3.883   1.442  16.370
 2299SOL    HW218526   3.782   1.505  16.276
 2300SOL     OW18527   1.436   4.397  14.973
 2300SOL    HW118528   1.504   4.419  15.037
 2300SOL    HW218529   1.463   4.441  14.893
 2301SOL     OW18530   2.756   0.386  15.846
 2301SOL    HW118531   2.701   0.429  15.781
 2301SOL    HW218532   2.705   0.311  15.876
 2302SOL     OW18533   2.387   4.776  15.649
 2302SOL    HW118534   2.362   0.065  15.589
 2302SOL    HW218535   2.438   4.716  15.596
 2303SOL     OW18536   0.968   0.346  17.259
 2303SOL    HW118537   0.875   0.332  17.278
 2303SOL    HW218538   0.972   0.353  17.164
 2304SOL     OW18539   2.213   4.737  16.054
 2304SOL    HW118540   2.218   4.739  16.150
 2304SOL    HW218541   2.212   0.048  16.028
 2305SOL     OW18542   2.289   3.875  14.772
 2305SOL    HW118543   2.234   3.824  14.713
 2305SOL    HW218544   2.362   3.817  14.793
 2306SOL     OW18545   2.048   4.538  16.279
 2306SOL    HW118546   2.024   4.453  16.316
 2306SOL    HW218547   2.132   4.559  16.321
 2307SOL     OW18548   4.099   3.593  16.116
 2307SOL    HW118549   4.118   3.687  16.116
 2307SOL    HW218550   4.118   3.565  16.206
 2308SOL     OW18551   1.845   1.121  15.794
 2308SOL    HW118552   1.907   1.117  15.721
 2308SOL    HW218553   1.759   1.124  15.752
 2309SOL     OW18554   0.633   4.711  15.833
 2309SOL    HW118555   0.654   4.671  15.748
 2309SOL    HW218556   0.644   0.024  15.819
 2310SOL     OW18557   4.381   2.371  17.979
 2310SOL    HW118558   4.389   2.438  18.047
 2310SOL    HW218559   4.467   2.328  17.978
 2311SOL     OW18560   2.532   3.502  16.007
 2311SOL    HW118561   2.493   3.425  16.049
 2311SOL    HW218562   2.624   3.498  16.033
 2312SOL     OW18563   2.938   3.336  16.334
 2312SOL    HW118564   2.959   3.276  16.406
 2312SOL    HW218565   2.866   3.389  16.368
 2313SOL     OW18566   2.579   4.589  14.791
 2313SOL    HW118567   2.548   4.645  14.720
 2313SOL    HW218568   2.648   4.640  14.834
 2314SOL     OW18569   1.693   4.476  15.441
 2314SOL    HW118570   1.708   4.382  15.448
 2314SOL    HW218571   1.745   4.514  15.512
 2315SOL     OW18572   1.938   0.017  15.265
 2315SOL    HW118573   1.956   4.704  15.257
 2315SOL    HW218574   1.849   0.021  15.301
 2316SOL     OW18575   3.096   3.392  16.872
 2316SOL    HW118576   3.073   3.317  16.927
 2316SOL    HW218577   3.142   3.452  16.931
 2317SOL     OW18578   2.709   3.871  16.095
 2317SOL    HW118579   2.625   3.837  16.065
 2317SOL    HW218580   2.751   3.905  16.016
 2318SOL     OW18581   4.171   3.327  15.665
 2318SOL    HW118582   4.189   3.421  15.656
 2318SOL    HW218583   4.117   3.320  15.743
 2319SOL     OW18584   3.112   4.258  16.149
 2319SOL    HW118585   3.202   4.225  16.140
 2319SOL    HW218586   3.057   4.182  16.128
 2320SOL     OW18587   3.077   1.214   0.477
 2320SOL    HW118588   3.002   1.189   0.424
 2320SOL    HW218589   3.129   1.134   0.484
 2321SOL     OW18590   4.683   1.337  16.378
 2321SOL    HW118591   4.593   1.327  16.409
 2321SOL    HW218592   4.692   1.430  16.359
 2322SOL     OW18593   1.977   2.982  18.053
 2322SOL    HW118594   2.002   2.924  17.981
 2322SOL    HW218595   2.025   3.063  18.036
 2323SOL     OW18596   2.085   3.393  15.352
 2323SOL    HW118597   2.090   3.309  15.307
 2323SOL    HW218598   2.166   3.398  15.403
 2324SOL     OW18599   0.774   0.031  16.924
 2324SOL    HW118600   0.850   0.011  16.869
 2324SOL    HW218601   0.741   0.114  16.890
 2325SOL     OW18602   3.423   0.391  17.462
 2325SOL    HW118603   3.473   0.387  17.543
 2325SOL    HW218604   3.377   0.475  17.466
 2326SOL     OW18605   3.515   3.682  15.157
 2326SOL    HW118606   3.556   3.768  15.143
 2326SOL    HW218607   3.487   3.655  15.070
 2327SOL     OW18608   2.877   0.064  18.114
 2327SOL    HW118609   2.842   4.762  18.081
 2327SOL    HW218610   2.920   0.041  18.196
 2328SOL     OW18611   1.332   4.351  21.348
 2328SOL    HW118612   1.244   4.347  21.311
 2328SOL    HW218613   1.378   4.415  21.294
 2329SOL     OW18614   0.132   3.601   2.563
 2329SOL    HW118615   0.045   3.610   2.524
 2329SOL    HW218616   0.158   3.690   2.586
 2330SOL     OW18617   3.879   2.475  19.001
 2330SOL    HW118618   3.942   2.421  19.049
 2330SOL    HW218619   3.870   2.432  18.916
 2331SOL     OW18620   2.866   4.550  16.999
 2331SOL    HW118621   2.873   4.458  16.975
 2331SOL    HW218622   2.773   4.571  16.991
 2332SOL     OW18623   0.228   4.271  21.032
 2332SOL    HW118624   0.250   4.261  20.939
 2332SOL    HW218625   0.163   4.202  21.048
 2333SOL     OW18626   0.632   0.195  15.807
 2333SOL    HW118627   0.708   0.252  15.820
 2333SOL    HW218628   0.585   0.234  15.733
 2334SOL     OW18629   3.079   4.666  16.891
 2334SOL    HW118630   3.061   4.754  16.925
 2334SOL    HW218631   3.007   4.612  16.924
 2335SOL     OW18632   1.453   1.477  16.521
 2335SOL    HW118633   1.428   1.397  16.474
 2335SOL    HW218634   1.438   1.457  16.613
 2336SOL     OW18635   1.524   3.509  14.665
 2336SOL    HW118636   1.471   3.462  14.601
 2336SOL    HW218637   1.505   3.601  14.650
 2337SOL     OW18638   2.903   3.023  24.285
 2337SOL    HW118639   2.950   2.947  24.250
 2337SOL    HW218640   2.891   3.004  24.378
 2338SOL     OW18641   3.542   4.606  16.662
 2338SOL    HW118642   3.621   4.660  16.671
 2338SOL    HW218643   3.472   4.669  16.643
 2339SOL     OW18644   1.934   0.463  16.950
 2339SOL    HW118645   2.009   0.502  16.996
 2339SOL    HW218646   1.882   0.422  17.019
 2340SOL     OW18647   3.332   3.967  15.836
 2340SOL    HW118648   3.384   4.018  15.899
 2340SOL    HW218649   3.391   3.952  15.763
 2341SOL     OW18650   1.551   2.480  23.193
 2341SOL    HW118651   1.520   2.510  23.108
 2341SOL    HW218652   1.609   2.407  23.173
 2342SOL     OW18653   4.144   1.984   9.449
 2342SOL    HW118654   4.074   2.049   9.446
 2342SOL    HW218655   4.138   1.946   9.537
 2343SOL     OW18656   2.775   4.371  17.638
 2343SOL    HW118657   2.845   4.309  17.661
 2343SOL    HW218658   2.805   4.412  17.557
 2344SOL     OW18659   3.821   0.735  15.834
 2344SOL    HW118660   3.853   0.771  15.751
 2344SOL    HW218661   3.732   0.768  15.842
 2345SOL     OW18662   4.174   1.455  17.111
 2345SOL    HW118663   4.234   1.382  17.097
 2345SOL    HW218664   4.107   1.420  17.170
 2346SOL     OW18665   0.811   0.755  17.081
 2346SOL    HW118666   0.758   0.803  17.017
 2346SOL    HW218667   0.754   0.685  17.112
 2347SOL     OW18668   3.692   0.647  16.638
 2347SOL    HW118669   3.670   0.674  16.549
 2347SOL    HW218670   3.747   0.717  16.672
 2348SOL     OW18671   3.581   0.009  18.219
 2348SOL    HW118672   3.491   4.772  18.190
 2348SOL    HW218673   3.585   0.104  18.228
 2349SOL     OW18674   2.799   0.189  17.399
 2349SOL    HW118675   2.814   0.220  17.488
 2349SOL    HW218676   2.757   0.104  17.410
 2350SOL     OW18677   3.992   2.418   1.804
 2350SOL    HW118678   3.926   2.476   1.766
 2350SOL    HW218679   4.076   2.460   1.784
 2351SOL     OW18680   2.749   0.182  16.853
 2351SOL    HW118681   2.811   0.233  16.801
 2351SOL    HW218682   2.788   0.180  16.941
 2352SOL     OW18683   2.476   3.816  15.962
 2352SOL    HW118684   2.501   3.891  15.908
 2352SOL    HW218685   2.474   3.742  15.901
 2353SOL     OW18686   1.449   1.647  18.268
 2353SOL    HW118687   1.517   1.598  18.221
 2353SOL    HW218688   1.368   1.627  18.221
 2354SOL     OW18689   3.694   1.018  19.407
 2354SOL    HW118690   3.752   0.958  19.359
 2354SOL    HW218691   3.658   1.075  19.340
 2355SOL     OW18692   0.743   1.926  16.739
 2355SOL    HW118693   0.809   1.966  16.796
 2355SOL    HW218694   0.794   1.885  16.669
 2356SOL     OW18695   3.265   3.569  16.996
 2356SOL    HW118696   3.340   3.569  16.936
 2356SOL    HW218697   3.299   3.609  17.076
 2357SOL     OW18698   2.697   4.027  16.316
 2357SOL    HW118699   2.775   4.082  16.313
 2357SOL    HW218700   2.712   3.961  16.249
 2358SOL     OW18701   1.823   1.546  27.818
 2358SOL    HW118702   1.825   1.555  27.723
 2358SOL    HW218703   1.851   1.456  27.835
 2359SOL     OW18704   2.172   3.681  16.969
 2359SOL    HW118705   2.223   3.757  16.941
 2359SOL    HW218706   2.094   3.683  16.913
 2360SOL     OW18707   2.706   0.048  15.676
 2360SOL    HW118708   2.739   0.110  15.611
 2360SOL    HW218709   2.648   4.770  15.627
 2361SOL     OW18710   2.256   3.200  26.315
 2361SOL    HW118711   2.253   3.228  26.407
 2361SOL    HW218712   2.348   3.180  26.299
 2362SOL     OW18713   0.176   2.723  16.844
 2362SOL    HW118714   0.270   2.709  16.832
 2362SOL    HW218715   0.165   2.818  16.839
 2363SOL     OW18716   4.272   3.706  17.887
 2363SOL    HW118717   4.306   3.779  17.836
 2363SOL    HW218718   4.180   3.729  17.903
 2364SOL     OW18719   1.452   4.183   4.707
 2364SOL    HW118720   1.543   4.155   4.711
 2364SOL    HW218721   1.457   4.277   4.688
 2365SOL     OW18722   3.478   3.561  16.804
 2365SOL    HW118723   3.556   3.524  16.762
 2365SOL    HW218724   3.437   3.614  16.736
 2366SOL     OW18725   3.664   4.538  17.618
 2366SOL    HW118726   3.726   4.499  17.556
 2366SOL    HW218727   3.718   4.561  17.694
 2367SOL     OW18728   1.717   3.446  15.677
 2367SOL    HW118729   1.784   3.480  15.617
 2367SOL    HW218730   1.697   3.359  15.643
 2368SOL     OW18731   2.732   0.637   6.459
 2368SOL    HW118732   2.657   0.695   6.443
 2368SOL    HW218733   2.802   0.672   6.405
 2369SOL     OW18734   2.292   3.852  16.180
 2369SOL    HW118735   2.319   3.939  16.208
 2369SOL    HW218736   2.320   3.846  16.089
 2370SOL     OW18737   2.316   1.787  15.308
 2370SOL    HW118738   2.254   1.798  15.236
 2370SOL    HW218739   2.336   1.876  15.337
 2371SOL     OW18740   4.576   2.886  16.470
 2371SOL    HW118741   4.522   2.835  16.409
 2371SOL    HW218742   4.665   2.852  16.458
 2372SOL     OW18743   2.659   3.672  18.391
 2372SOL    HW118744   2.637   3.745  18.333
 2372SOL    HW218745   2.584   3.613  18.384
 2373SOL     OW18746   1.630   4.014  17.714
 2373SOL    HW118747   1.669   3.927  17.706
 2373SOL    HW218748   1.705   4.074  17.714
 2374SOL     OW18749   3.638   3.374   3.699
 2374SOL    HW118750   3.567   3.384   3.635
 2374SOL    HW218751   3.652   3.462   3.733
 2375SOL     OW18752   3.780   1.152  15.904
 2375SOL    HW118753   3.772   1.159  15.809
 2375SOL    HW218754   3.831   1.229  15.929
 2376SOL     OW18755   4.274   3.732  15.801
 2376SOL    HW118756   4.259   3.670  15.729
 2376SOL    HW218757   4.223   3.809  15.778
 2377SOL     OW18758   2.151   4.280  17.012
 2377SOL    HW118759   2.077   4.236  16.970
 2377SOL    HW218760   2.121   4.370  17.026
 2378SOL     OW18761   3.868   2.423  18.375
 2378SOL    HW118762   3.805   2.486  18.340
 2378SOL    HW218763   3.836   2.404  18.463
 2379SOL     OW18764   2.443   0.574   9.409
 2379SOL    HW118765   2.347   0.576   9.411
 2379SOL    HW218766   2.470   0.661   9.437
 2380SOL     OW18767   1.391   1.923  22.962
 2380SOL    HW118768   1.465   1.953  22.909
 2380SOL    HW218769   1.388   1.984  23.035
 2381SOL     OW18770   3.506   0.983  16.105
 2381SOL    HW118771   3.511   0.948  16.016
 2381SOL    HW218772   3.521   1.077  16.094
 2382SOL     OW18773   2.227   0.043  19.066
 2382SOL    HW118774   2.300   4.769  19.038
 2382SOL    HW218775   2.196   0.084  18.985
 2383SOL     OW18776   0.111   2.899  18.212
 2383SOL    HW118777   0.203   2.874  18.212
 2383SOL    HW218778   0.109   2.984  18.168
 2384SOL     OW18779   0.467   3.436   7.202
 2384SOL    HW118780   0.488   3.485   7.282
 2384SOL    HW218781   0.375   3.457   7.184
 2385SOL     OW18782   4.036   2.137  18.396
 2385SOL    HW118783   4.115   2.125  18.448
 2385SOL    HW218784   4.065   2.188  18.320
 2386SOL     OW18785   1.891   0.085  18.190
 2386SOL    HW118786   1.803   0.070  18.225
 2386SOL    HW218787   1.885   0.171  18.148
 2387SOL     OW18788   3.021   4.227  17.665
 2387SOL    HW118789   3.065   4.259  17.586
 2387SOL    HW218790   3.074   4.261  17.737
 2388SOL     OW18791   0.334   3.066  16.751
 2388SOL    HW118792   0.335   3.145  16.805
 2388SOL    HW218793   0.416   3.069  16.702
 2389SOL     OW18794   0.190   4.265  18.647
 2389SOL    HW118795   0.145   4.183  18.669
 2389SOL    HW218796   0.259   4.239  18.586
 2390SOL     OW18797   0.700   1.403   3.200
 2390SOL    HW118798   0.731   1.354   3.276
 2390SOL    HW218799   0.725   1.494   3.217
 2391SOL     OW18800   1.046   0.637  16.988
 2391SOL    HW118801   0.975   0.698  17.007
 2391SOL    HW218802   1.006   0.550  16.993
 2392SOL     OW18803   3.565   0.229  17.303
 2392SOL    HW118804   3.511   0.296  17.345
 2392SOL    HW218805   3.556   0.152  17.359
 2393SOL     OW18806   1.732   2.005   4.787
 2393SOL    HW118807   1.784   2.065   4.841
 2393SOL    HW218808   1.644   2.042   4.789
 2394SOL     OW18809   3.667   3.879  15.860
 2394SOL    HW118810   3.609   3.808  15.887
 2394SOL    HW218811   3.753   3.854  15.894
 2395SOL     OW18812   1.280   4.424  17.598
 2395SOL    HW118813   1.372   4.445  17.580
 2395SOL    HW218814   1.238   4.509  17.613
 2396SOL     OW18815   2.530   1.191  17.188
 2396SOL    HW118816   2.509   1.203  17.095
 2396SOL    HW218817   2.462   1.131  17.220
 2397SOL     OW18818   4.142   0.228   4.934
 2397SOL    HW118819   4.124   0.226   4.840
 2397SOL    HW218820   4.227   0.185   4.943
 2398SOL     OW18821   3.680   2.088  26.501
 2398SOL    HW118822   3.600   2.131  26.471
 2398SOL    HW218823   3.712   2.145  26.571
 2399SOL     OW18824   2.248   2.528   6.543
 2399SOL    HW118825   2.267   2.600   6.483
 2399SOL    HW218826   2.173   2.483   6.504
 2400SOL     OW18827   3.793   1.391   4.316
 2400SOL    HW118828   3.722   1.327   4.318
 2400SOL    HW218829   3.778   1.446   4.393
 2401SOL     OW18830   1.861   4.150  25.449
 2401SOL    HW118831   1.806   4.111  25.381
 2401SOL    HW218832   1.908   4.076  25.487
 2402SOL     OW18833   4.652   3.673  20.181
 2402SOL    HW118834   4.634   3.720  20.262
 2402SOL    HW218835   4.681   3.586  20.209
 2403SOL     OW18836   1.942   4.780  17.180
 2403SOL    HW118837   1.989   0.021  17.260
 2403SOL    HW218838   1.993   0.039  17.110
 2404SOL     OW18839   0.752   0.916   6.863
 2404SOL    HW118840   0.841   0.951   6.870
 2404SOL    HW218841   0.723   0.942   6.775
 2405SOL     OW18842   2.883   3.569   8.977
 2405SOL    HW118843   2.896   3.656   8.940
 2405SOL    HW218844   2.847   3.517   8.905
 2406SOL     OW18845   1.301   3.163   5.549
 2406SOL    HW118846   1.260   3.193   5.630
 2406SOL    HW218847   1.231   3.115   5.504
 2407SOL     OW18848   1.177   4.280   4.508
 2407SOL    HW118849   1.103   4.321   4.553
 2407SOL    HW218850   1.255   4.317   4.550
 2408SOL     OW18851   3.576   0.475  22.833
 2408SOL    HW118852   3.541   0.508  22.750
 2408SOL    HW218853   3.525   0.520  22.900
 2409SOL     OW18854   2.155   2.925   8.831
 2409SOL    HW118855   2.144   3.011   8.871
 2409SOL    HW218856   2.250   2.917   8.818
 2410SOL     OW18857   3.017   3.322  18.180
 2410SOL    HW118858   3.059   3.386  18.238
 2410SOL    HW218859   2.980   3.375  18.110
 2411SOL     OW18860   0.498   2.345  28.336
 2411SOL    HW118861   0.434   2.296  28.388
 2411SOL    HW218862   0.537   2.407  28.398
 2412SOL     OW18863   1.092   2.553  25.719
 2412SOL    HW118864   1.105   2.558  25.624
 2412SOL    HW218865   1.012   2.502  25.729
 2413SOL     OW18866   3.452   0.631  10.554
 2413SOL    HW118867   3.542   0.607  10.576
 2413SOL    HW218868   3.451   0.637  10.459
 2414SOL     OW18869   0.444   2.845  17.329
 2414SOL    HW118870   0.417   2.928  17.290
 2414SOL    HW218871   0.513   2.812  17.271
 2415SOL     OW18872   0.046   4.156  17.021
 2415SOL    HW118873   0.079   4.246  17.021
 2415SOL    HW218874   0.032   4.136  16.929
 2416SOL     OW18875   4.063   1.892   4.023
 2416SOL    HW118876   4.108   1.973   4.045
 2416SOL    HW218877   4.129   1.840   3.976
 2417SOL     OW18878   2.711   0.937   8.544
 2417SOL    HW118879   2.720   1.031   8.557
 2417SOL    HW218880   2.623   0.916   8.576
 2418SOL     OW18881   1.787   4.393   5.183
 2418SOL    HW118882   1.710   4.337   5.175
 2418SOL    HW218883   1.850   4.340   5.231
 2419SOL     OW18884   2.236   2.911   2.554
 2419SOL    HW118885   2.241   2.816   2.560
 2419SOL    HW218886   2.161   2.928   2.498
 2420SOL     OW18887   0.224   3.107  26.191
 2420SOL    HW118888   0.242   3.029  26.243
 2420SOL    HW218889   0.197   3.173  26.255
 2421SOL     OW18890   1.920   1.071   3.433
 2421SOL    HW118891   2.013   1.092   3.438
 2421SOL    HW218892   1.918   0.975   3.429
 2422SOL     OW18893   0.732   2.672  19.759
 2422SOL    HW118894   0.735   2.653  19.853
 2422SOL    HW218895   0.750   2.766  19.753
 2423SOL     OW18896   1.938   4.520   1.325
 2423SOL    HW118897   1.850   4.484   1.313
 2423SOL    HW218898   1.941   4.595   1.266
 2424SOL     OW18899   0.312   3.900  19.747
 2424SOL    HW118900   0.290   3.847  19.670
 2424SOL    HW218901   0.406   3.915  19.740
 2425SOL     OW18902   1.699   2.154  27.952
 2425SOL    HW118903   1.795   2.158  27.951
 2425SOL    HW218904   1.675   2.154  28.045
 2426SOL     OW18905   0.103   4.055   6.557
 2426SOL    HW118906   0.118   4.036   6.464
 2426SOL    HW218907   0.183   4.027   6.601
 2427SOL     OW18908   3.015   2.344  18.113
 2427SOL    HW118909   3.018   2.365  18.020
 2427SOL    HW218910   2.973   2.420  18.153
 2428SOL     OW18911   0.673   2.040  27.360
 2428SOL    HW118912   0.764   2.021  27.336
 2428SOL    HW218913   0.621   1.988  27.299
 2429SOL     OW18914   4.284   1.211  23.511
 2429SOL    HW118915   4.263   1.259  23.431
 2429SOL    HW218916   4.202   1.210  23.560
 2430SOL     OW18917   0.154   2.782   3.745
 2430SOL    HW118918   0.164   2.853   3.682
 2430SOL    HW218919   0.144   2.826   3.829
 2431SOL     OW18920   3.805   3.908  20.922
 2431SOL    HW118921   3.724   3.931  20.877
 2431SOL    HW218922   3.777   3.857  20.998
 2432SOL     OW18923   1.728   3.586   1.778
 2432SOL    HW118924   1.814   3.565   1.743
 2432SOL    HW218925   1.746   3.633   1.860
 2433SOL     OW18926   1.920   1.996  20.573
 2433SOL    HW118927   1.922   2.002  20.668
 2433SOL    HW218928   2.007   2.023  20.545
 2434SOL     OW18929   2.160   2.298  12.652
 2434SOL    HW118930   2.158   2.232  12.583
 2434SOL    HW218931   2.114   2.257  12.726
 2435SOL     OW18932   3.166   3.590  22.174
 2435SOL    HW118933   3.073   3.579  22.154
 2435SOL    HW218934   3.202   3.635  22.098
 2436SOL     OW18935   0.017   3.788   0.174
 2436SOL    HW118936   4.708   3.762   0.154
 2436SOL    HW218937   0.007   3.863   0.232
 2437SOL     OW18938   4.599   0.531  18.350
 2437SOL    HW118939   4.570   0.599  18.289
 2437SOL    HW218940   4.602   0.451  18.297
 2438SOL     OW18941   1.232   1.393   8.978
 2438SOL    HW118942   1.196   1.316   8.934
 2438SOL    HW218943   1.156   1.435   9.019
 2439SOL     OW18944   0.045   3.071  21.163
 2439SOL    HW118945   0.097   3.148  21.138
 2439SOL    HW218946   0.003   3.043  21.082
 2440SOL     OW18947   2.532   4.759   7.060
 2440SOL    HW118948   2.453   4.777   7.010
 2440SOL    HW218949   2.601   4.752   6.994
 2441SOL     OW18950   0.700   1.585   8.601
 2441SOL    HW118951   0.709   1.592   8.696
 2441SOL    HW218952   0.606   1.590   8.586
 2442SOL     OW18953   3.352   1.036  18.823
 2442SOL    HW118954   3.290   0.967  18.845
 2442SOL    HW218955   3.431   0.989  18.796
 2443SOL     OW18956   4.142   1.374  23.894
 2443SOL    HW118957   4.209   1.376  23.963
 2443SOL    HW218958   4.066   1.334  23.936
 2444SOL     OW18959   3.237   3.777  22.602
 2444SOL    HW118960   3.176   3.711  22.568
 2444SOL    HW218961   3.181   3.851  22.627
 2445SOL     OW18962   3.929   3.640   7.247
 2445SOL    HW118963   3.904   3.647   7.155
 2445SOL    HW218964   3.946   3.547   7.260
 2446SOL     OW18965   0.769   2.254   0.472
 2446SOL    HW118966   0.852   2.219   0.504
 2446SOL    HW218967   0.764   2.225   0.381
 2447SOL     OW18968   2.385   3.282  24.722
 2447SOL    HW118969   2.372   3.324  24.637
 2447SOL    HW218970   2.368   3.189  24.706
 2448SOL     OW18971   1.103   2.308   7.653
 2448SOL    HW118972   1.134   2.218   7.662
 2448SOL    HW218973   1.047   2.307   7.576
 2449SOL     OW18974   0.482   1.937   6.172
 2449SOL    HW118975   0.489   1.875   6.244
 2449SOL    HW218976   0.553   1.913   6.112
 2450SOL     OW18977   4.160   4.099   0.956
 2450SOL    HW118978   4.233   4.077   1.014
 2450SOL    HW218979   4.198   4.157   0.890
 2451SOL     OW18980   4.679   4.051  17.223
 2451SOL    HW118981   4.735   4.079  17.151
 2451SOL    HW218982   4.610   3.999  17.181
 2452SOL     OW18983   3.375   4.589  19.836
 2452SOL    HW118984   3.429   4.523  19.880
 2452SOL    HW218985   3.436   4.660  19.817
 2453SOL     OW18986   4.670   1.236  27.144
 2453SOL    HW118987   4.582   1.246  27.180
 2453SOL    HW218988   4.656   1.205  27.055
 2454SOL     OW18989   3.484   2.443  28.516
 2454SOL    HW118990   3.408   2.396  28.481
 2454SOL    HW218991   3.457   2.535  28.515
 2455SOL     OW18992   1.154   1.239   9.666
 2455SOL    HW118993   1.107   1.309   9.711
 2455SOL    HW218994   1.116   1.237   9.578
 2456SOL     OW18995   1.412   4.297  10.363
 2456SOL    HW118996   1.372   4.379  10.392
 2456SOL    HW218997   1.350   4.229  10.388
 2457SOL     OW18998   1.860   4.256  22.271
 2457SOL    HW118999   1.857   4.232  22.363
 2457SOL    HW219000   1.798   4.197  22.228
 2458SOL     OW19001   1.114   4.391  22.547
 2458SOL    HW119002   1.099   4.297  22.554
 2458SOL    HW219003   1.113   4.422  22.638
 2459SOL     OW19004   1.151   0.073   3.573
 2459SOL    HW119005   1.181   0.158   3.540
 2459SOL    HW219006   1.129   0.089   3.665
 2460SOL     OW19007   1.111   1.040  22.062
 2460SOL    HW119008   1.044   0.992  22.014
 2460SOL    HW219009   1.072   1.126  22.078
 2461SOL     OW19010   2.972   3.994   2.785
 2461SOL    HW119011   3.031   3.967   2.715
 2461SOL    HW219012   2.940   3.912   2.822
 2462SOL     OW19013   2.029   0.566  24.824
 2462SOL    HW119014   2.058   0.652  24.793
 2462SOL    HW219015   2.034   0.572  24.919
 2463SOL     OW19016   0.708   1.069   8.657
 2463SOL    HW119017   0.753   1.113   8.729
 2463SOL    HW219018   0.709   1.132   8.585
 2464SOL     OW19019   1.724   0.928  17.636
 2464SOL    HW119020   1.748   0.917  17.544
 2464SOL    HW219021   1.808   0.927  17.683
 2465SOL     OW19022   2.446   4.699   8.605
 2465SOL    HW119023   2.538   4.700   8.577
 2465SOL    HW219024   2.406   4.774   8.560
 2466SOL     OW19025   4.715   2.704   2.796
 2466SOL    HW119026   4.698   2.662   2.881
 2466SOL    HW219027   4.646   2.769   2.787
 2467SOL     OW19028   4.382   1.995  26.311
 2467SOL    HW119029   4.342   1.924  26.261
 2467SOL    HW219030   4.468   1.961  26.336
 2468SOL     OW19031   2.269   2.553   5.383
 2468SOL    HW119032   2.339   2.612   5.412
 2468SOL    HW219033   2.233   2.595   5.305
 2469SOL     OW19034   1.722   0.392   7.835
 2469SOL    HW119035   1.638   0.428   7.863
 2469SOL    HW219036   1.783   0.420   7.903
 2470SOL     OW19037   2.058   0.300   4.643
 2470SOL    HW119038   2.089   0.380   4.600
 2470SOL    HW219039   2.021   0.330   4.726
 2471SOL     OW19040   0.912   0.668   8.826
 2471SOL    HW119041   0.935   0.760   8.811
 2471SOL    HW219042   0.868   0.641   8.745
 2472SOL     OW19043   4.071   0.465   3.720
 2472SOL    HW119044   4.118   0.401   3.774
 2472SOL    HW219045   4.012   0.412   3.667
 2473SOL     OW19046   4.772   3.883  22.098
 2473SOL    HW119047   4.773   3.855  22.190
 2473SOL    HW219048   4.730   3.969  22.099
 2474SOL     OW19049   4.102   2.935  23.608
 2474SOL    HW119050   4.116   3.026  23.583
 2474SOL    HW219051   4.169   2.886  23.561
 2475SOL     OW19052   1.146   1.561   2.595
 2475SOL    HW119053   1.218   1.615   2.564
 2475SOL    HW219054   1.141   1.489   2.532
 2476SOL     OW19055   3.340   1.350   1.364
 2476SOL    HW119056   3.374   1.262   1.347
 2476SOL    HW219057   3.280   1.368   1.292
 2477SOL     OW19058   1.987   2.808  22.985
 2477SOL    HW119059   1.929   2.757  23.041
 2477SOL    HW219060   2.066   2.754  22.976
 2478SOL     OW19061   1.857   1.126   8.760
 2478SOL    HW119062   1.875   1.131   8.854
 2478SOL    HW219063   1.923   1.066   8.726
 2479SOL     OW19064   3.175   3.739   4.300
 2479SOL    HW119065   3.181   3.721   4.394
 2479SOL    HW219066   3.081   3.746   4.283
 2480SOL     OW19067   4.022   4.009   3.338
 2480SOL    HW119068   4.067   4.089   3.310
 2480SOL    HW219069   3.958   3.992   3.269
 2481SOL     OW19070   2.902   4.529   0.985
 2481SOL    HW119071   2.900   4.546   0.891
 2481SOL    HW219072   2.912   4.615   1.025
 2482SOL     OW19073   1.653   1.078   5.101
 2482SOL    HW119074   1.631   1.171   5.105
 2482SOL    HW219075   1.665   1.060   5.008
 2483SOL     OW19076   3.198   0.506   0.891
 2483SOL    HW119077   3.240   0.519   0.976
 2483SOL    HW219078   3.267   0.524   0.827
 2484SOL     OW19079   0.152   3.635   5.213
 2484SOL    HW119080   0.101   3.715   5.203
 2484SOL    HW219081   0.241   3.660   5.188
 2485SOL     OW19082   4.556   3.574  26.677
 2485SOL    HW119083   4.474   3.598  26.721
 2485SOL    HW219084   4.619   3.640  26.706
 2486SOL     OW19085   2.372   0.993   0.375
 2486SOL    HW119086   2.335   1.068   0.329
 2486SOL    HW219087   2.300   0.930   0.380
 2487SOL     OW19088   2.353   4.486   6.934
 2487SOL    HW119089   2.344   4.581   6.941
 2487SOL    HW219090   2.286   4.451   6.993
 2488SOL     OW19091   4.297   2.043  19.320
 2488SOL    HW119092   4.360   2.028  19.391
 2488SOL    HW219093   4.314   1.972  19.258
 2489SOL     OW19094   3.577   3.851  18.024
 2489SOL    HW119095   3.594   3.762  17.992
 2489SOL    HW219096   3.482   3.858  18.025
 2490SOL     OW19097   0.384   1.399  15.916
 2490SOL    HW119098   0.347   1.311  15.906
 2490SOL    HW219099   0.308   1.457  15.910
 2491SOL     OW19100   4.436   1.777  18.205
 2491SOL    HW119101   4.356   1.825  18.226
 2491SOL    HW219102   4.410   1.714  18.138
 2492SOL     OW19103   1.703   1.069  25.960
 2492SOL    HW119104   1.656   1.151  25.943
 2492SOL    HW219105   1.795   1.090  25.944
 2493SOL     OW19106   0.662   3.987   8.191
 2493SOL    HW119107   0.668   3.895   8.164
 2493SOL    HW219108   0.652   4.036   8.109
 2494SOL     OW19109   0.866   2.325  22.995
 2494SOL    HW119110   0.810   2.311  23.072
 2494SOL    HW219111   0.920   2.246  22.991
 2495SOL     OW19112   2.116   2.052  25.650
 2495SOL    HW119113   2.146   2.107  25.722
 2495SOL    HW219114   2.189   1.993  25.633
 2496SOL     OW19115   0.047   4.232  28.171
 2496SOL    HW119116   0.135   4.254  28.202
 2496SOL    HW219117   0.012   4.173  28.238
 2497SOL     OW19118   0.217   0.114  20.458
 2497SOL    HW119119   0.256   0.027  20.469
 2497SOL    HW219120   0.137   0.099  20.407
 2498SOL     OW19121   3.839   2.913  19.812
 2498SOL    HW119122   3.810   3.004  19.823
 2498SOL    HW219123   3.773   2.874  19.755
 2499SOL     OW19124   1.886   1.544  21.689
 2499SOL    HW119125   1.847   1.507  21.610
 2499SOL    HW219126   1.955   1.482  21.713
 2500SOL     OW19127   4.052   1.171   3.390
 2500SOL    HW119128   3.980   1.231   3.368
 2500SOL    HW219129   4.122   1.228   3.422
 2501SOL     OW19130   2.030   2.125  19.225
 2501SOL    HW119131   2.086   2.080  19.288
 2501SOL    HW219132   1.953   2.151  19.275
 2502SOL     OW19133   0.532   2.998   0.354
 2502SOL    HW119134   0.543   3.072   0.414
 2502SOL    HW219135   0.484   3.035   0.279
 2503SOL     OW19136   3.348   3.582   4.650
 2503SOL    HW119137   3.256   3.604   4.666
 2503SOL    HW219138   3.349   3.545   4.562
 2504SOL     OW19139   4.432   4.707   2.346
 2504SOL    HW119140   4.503   4.738   2.403
 2504SOL    HW219141   4.362   4.771   2.358
 2505SOL     OW19142   1.975   3.185  21.197
 2505SOL    HW119143   1.923   3.262  21.174
 2505SOL    HW219144   2.022   3.211  21.276
 2506SOL     OW19145   2.652   2.991  24.675
 2506SOL    HW119146   2.691   2.905  24.691
 2506SOL    HW219147   2.724   3.044  24.640
 2507SOL     OW19148   3.705   0.494  10.660
 2507SOL    HW119149   3.745   0.579  10.640
 2507SOL    HW219150   3.745   0.467  10.742
 2508SOL     OW19151   1.441   0.311  25.583
 2508SOL    HW119152   1.421   0.326  25.491
 2508SOL    HW219153   1.371   0.356  25.631
 2509SOL     OW19154   3.752   0.465  16.868
 2509SOL    HW119155   3.847   0.458  16.880
 2509SOL    HW219156   3.741   0.529  16.798
 2510SOL     OW19157   3.841   4.350   5.891
 2510SOL    HW119158   3.823   4.274   5.946
 2510SOL    HW219159   3.855   4.422   5.952
 2511SOL     OW19160   0.804   2.420  20.088
 2511SOL    HW119161   0.861   2.459  20.022
 2511SOL    HW219162   0.841   2.448  20.171
 2512SOL     OW19163   0.215   1.058   6.381
 2512SOL    HW119164   0.131   1.087   6.416
 2512SOL    HW219165   0.267   1.037   6.458
 2513SOL     OW19166   2.160   3.713  26.662
 2513SOL    HW119167   2.238   3.657  26.663
 2513SOL    HW219168   2.121   3.697  26.576
 2514SOL     OW19169   3.255   1.581  20.320
 2514SOL    HW119170   3.217   1.640  20.385
 2514SOL    HW219171   3.263   1.497  20.365
 2515SOL     OW19172   4.565   3.616  11.061
 2515SOL    HW119173   4.597   3.690  11.112
 2515SOL    HW219174   4.613   3.540  11.094
 2516SOL     OW19175   0.847   2.698  27.000
 2516SOL    HW119176   0.927   2.746  27.023
 2516SOL    HW219177   0.802   2.686  27.083
 2517SOL     OW19178   4.421   2.591  22.218
 2517SOL    HW119179   4.397   2.592  22.125
 2517SOL    HW219180   4.461   2.505  22.231
 2518SOL     OW19181   2.304   3.515   0.640
 2518SOL    HW119182   2.387   3.487   0.602
 2518SOL    HW219183   2.296   3.607   0.614
 2519SOL     OW19184   0.287   0.898  25.657
 2519SOL    HW119185   0.372   0.860  25.636
 2519SOL    HW219186   0.261   0.944  25.577
 2520SOL     OW19187   2.563   1.645  20.841
 2520SOL    HW119188   2.477   1.609  20.817
 2520SOL    HW219189   2.573   1.623  20.934
 2521SOL     OW19190   2.859   3.818  20.316
 2521SOL    HW119191   2.884   3.727  20.331
 2521SOL    HW219192   2.817   3.818  20.230
 2522SOL     OW19193   1.471   1.164  23.119
 2522SOL    HW119194   1.388   1.181  23.163
 2522SOL    HW219195   1.458   1.080  23.075
 2523SOL     OW19196   4.651   4.434  10.878
 2523SOL    HW119197   4.623   4.525  10.891
 2523SOL    HW219198   4.645   4.394  10.965
 2524SOL     OW19199   0.719   2.655   5.003
 2524SOL    HW119200   0.721   2.646   5.098
 2524SOL    HW219201   0.738   2.747   4.987
 2525SOL     OW19202   3.405   4.056  26.984
 2525SOL    HW119203   3.468   4.004  26.934
 2525SOL    HW219204   3.454   4.134  27.010
 2526SOL     OW19205   1.499   4.691   7.146
 2526SOL    HW119206   1.502   4.736   7.231
 2526SOL    HW219207   1.444   4.614   7.162
 2527SOL     OW19208   1.647   2.719   9.069
 2527SOL    HW119209   1.571   2.738   9.124
 2527SOL    HW219210   1.720   2.764   9.112
 2528SOL     OW19211   3.527   0.383  28.409
 2528SOL    HW119212   3.437   0.415  28.408
 2528SOL    HW219213   3.579   0.457  28.379
 2529SOL     OW19214   2.182   1.105   2.521
 2529SOL    HW119215   2.258   1.088   2.576
 2529SOL    HW219216   2.162   1.197   2.537
 2530SOL     OW19217   4.530   4.349   7.577
 2530SOL    HW119218   4.593   4.280   7.598
 2530SOL    HW219219   4.529   4.405   7.655
 2531SOL     OW19220   3.133   1.858  27.911
 2531SOL    HW119221   3.137   1.771  27.952
 2531SOL    HW219222   3.082   1.845  27.831
 2532SOL     OW19223   2.304   0.350  24.944
 2532SOL    HW119224   2.340   0.281  24.888
 2532SOL    HW219225   2.210   0.332  24.947
 2533SOL     OW19226   2.953   4.660   0.368
 2533SOL    HW119227   2.896   4.692   0.298
 2533SOL    HW219228   2.990   4.579   0.333
 2534SOL     OW19229   1.359   3.888  27.600
 2534SOL    HW119230   1.396   3.907  27.686
 2534SOL    HW219231   1.268   3.863  27.617
 2535SOL     OW19232   0.514   2.929  11.343
 2535SOL    HW119233   0.485   2.948  11.432
 2535SOL    HW219234   0.553   2.842  11.349
 2536SOL     OW19235   2.019   0.326   1.060
 2536SOL    HW119236   2.088   0.392   1.052
 2536SOL    HW219237   1.992   0.309   0.970
 2537SOL     OW19238   3.473   0.100  24.396
 2537SOL    HW119239   3.386   0.083  24.361
 2537SOL    HW219240   3.491   0.191  24.373
 2538SOL     OW19241   0.642   4.570  16.937
 2538SOL    HW119242   0.551   4.599  16.931
 2538SOL    HW219243   0.692   4.651  16.938
 2539SOL     OW19244   1.650   1.068   7.439
 2539SOL    HW119245   1.557   1.090   7.448
 2539SOL    HW219246   1.673   1.094   7.350
 2540SOL     OW19247   3.306   2.698   0.507
 2540SOL    HW119248   3.351   2.696   0.591
 2540SOL    HW219249   3.313   2.789   0.479
 2541SOL     OW19250   1.663   1.998  10.507
 2541SOL    HW119251   1.728   2.051  10.553
 2541SOL    HW219252   1.698   1.909  10.509
 2542SOL     OW19253   4.745   0.269   2.883
 2542SOL    HW119254   4.746   0.337   2.950
 2542SOL    HW219255   4.773   0.190   2.928
 2543SOL     OW19256   3.795   1.010  18.791
 2543SOL    HW119257   3.726   0.943  18.786
 2543SOL    HW219258   3.842   1.002  18.708
 2544SOL     OW19259   0.426   0.696   8.882
 2544SOL    HW119260   0.508   0.733   8.848
 2544SOL    HW219261   0.422   0.727   8.973
 2545SOL     OW19262   1.126   4.316  21.158
 2545SOL    HW119263   1.046   4.368  21.169
 2545SOL    HW219264   1.181   4.369  21.101
 2546SOL     OW19265   2.608   4.374  23.064
 2546SOL    HW119266   2.675   4.313  23.033
 2546SOL    HW219267   2.598   4.438  22.993
 2547SOL     OW19268   0.323   2.808   6.996
 2547SOL    HW119269   0.308   2.873   7.064
 2547SOL    HW219270   0.245   2.813   6.941
 2548SOL     OW19271   3.549   2.228   2.064
 2548SOL    HW119272   3.454   2.229   2.053
 2548SOL    HW219273   3.562   2.234   2.159
 2549SOL     OW19274   4.333   4.515  23.500
 2549SOL    HW119275   4.239   4.501  23.511
 2549SOL    HW219276   4.363   4.544  23.586
 2550SOL     OW19277   1.010   0.496   1.562
 2550SOL    HW119278   1.071   0.562   1.528
 2550SOL    HW219279   0.973   0.455   1.484
 2551SOL     OW19280   2.930   2.449   0.696
 2551SOL    HW119281   2.846   2.440   0.651
 2551SOL    HW219282   2.991   2.478   0.628
 2552SOL     OW19283   3.118   3.858  20.120
 2552SOL    HW119284   3.078   3.827  20.039
 2552SOL    HW219285   3.208   3.825  20.116
 2553SOL     OW19286   1.138   1.566  22.609
 2553SOL    HW119287   1.045   1.543  22.602
 2553SOL    HW219288   1.150   1.590  22.701
 2554SOL     OW19289   1.022   3.160   4.464
 2554SOL    HW119290   0.983   3.077   4.490
 2554SOL    HW219291   1.003   3.220   4.536
 2555SOL     OW19292   2.197   4.398  19.493
 2555SOL    HW119293   2.122   4.367  19.544
 2555SOL    HW219294   2.162   4.472  19.443
 2556SOL     OW19295   3.232   4.727   1.334
 2556SOL    HW119296   3.194   0.016   1.388
 2556SOL    HW219297   3.245   4.654   1.395
 2557SOL     OW19298   3.358   3.548  18.597
 2557SOL    HW119299   3.408   3.546  18.679
 2557SOL    HW219300   3.418   3.514  18.531
 2558SOL     OW19301   2.539   2.753   4.514
 2558SOL    HW119302   2.629   2.766   4.483
 2558SOL    HW219303   2.533   2.807   4.593
 2559SOL     OW19304   0.354   2.213  23.125
 2559SOL    HW119305   0.297   2.268  23.070
 2559SOL    HW219306   0.301   2.136  23.145
 2560SOL     OW19307   0.308   0.968  27.057
 2560SOL    HW119308   0.266   0.947  27.140
 2560SOL    HW219309   0.241   0.952  26.991
 2561SOL     OW19310   1.929   2.800  17.738
 2561SOL    HW119311   1.988   2.778  17.666
 2561SOL    HW219312   1.987   2.812  17.814
 2562SOL     OW19313   2.694   2.704   6.928
 2562SOL    HW119314   2.701   2.731   6.836
 2562SOL    HW219315   2.750   2.627   6.934
 2563SOL     OW19316   3.287   0.373  22.659
 2563SOL    HW119317   3.254   0.317  22.589
 2563SOL    HW219318   3.327   0.313  22.722
 2564SOL     OW19319   2.251   4.436  21.419
 2564SOL    HW119320   2.167   4.398  21.444
 2564SOL    HW219321   2.309   4.361  21.409
 2565SOL     OW19322   1.533   4.641  27.795
 2565SOL    HW119323   1.450   4.601  27.770
 2565SOL    HW219324   1.540   4.624  27.889
 2566SOL     OW19325   1.737   2.577  22.722
 2566SOL    HW119326   1.668   2.550  22.662
 2566SOL    HW219327   1.758   2.667  22.697
 2567SOL     OW19328   2.509   2.049  22.156
 2567SOL    HW119329   2.549   1.962  22.148
 2567SOL    HW219330   2.527   2.091  22.072
 2568SOL     OW19331   1.987   0.750   7.634
 2568SOL    HW119332   2.077   0.764   7.664
 2568SOL    HW219333   1.961   0.835   7.599
 2569SOL     OW19334   4.318   1.884  23.046
 2569SOL    HW119335   4.310   1.977  23.026
 2569SOL    HW219336   4.354   1.882  23.135
 2570SOL     OW19337   1.796   3.837   6.163
 2570SOL    HW119338   1.819   3.751   6.198
 2570SOL    HW219339   1.855   3.897   6.208
 2571SOL     OW19340   0.247   4.489   5.978
 2571SOL    HW119341   0.186   4.518   6.046
 2571SOL    HW219342   0.231   4.549   5.905
 2572SOL     OW19343   2.720   4.018  27.896
 2572SOL    HW119344   2.636   3.995  27.856
 2572SOL    HW219345   2.718   3.977  27.982
 2573SOL     OW19346   2.952   4.186  21.454
 2573SOL    HW119347   2.934   4.271  21.495
 2573SOL    HW219348   2.886   4.178  21.385
 2574SOL     OW19349   2.790   1.196   7.414
 2574SOL    HW119350   2.765   1.209   7.323
 2574SOL    HW219351   2.708   1.179   7.460
 2575SOL     OW19352   4.457   1.898  11.106
 2575SOL    HW119353   4.437   1.956  11.180
 2575SOL    HW219354   4.375   1.894  11.056
 2576SOL     OW19355   3.169   4.303   7.552
 2576SOL    HW119356   3.181   4.237   7.621
 2576SOL    HW219357   3.232   4.371   7.573
 2577SOL     OW19358   4.043   1.495  17.867
 2577SOL    HW119359   4.073   1.408  17.840
 2577SOL    HW219360   4.035   1.544  17.785
 2578SOL     OW19361   3.474   4.095  28.149
 2578SOL    HW119362   3.423   4.095  28.230
 2578SOL    HW219363   3.408   4.091  28.080
 2579SOL     OW19364   4.125   3.378  21.288
 2579SOL    HW119365   4.079   3.323  21.225
 2579SOL    HW219366   4.154   3.454  21.237
 2580SOL     OW19367   3.667   1.285  25.573
 2580SOL    HW119368   3.587   1.332  25.595
 2580SOL    HW219369   3.712   1.274  25.657
 2581SOL     OW19370   3.049   3.739  19.457
 2581SOL    HW119371   2.997   3.686  19.518
 2581SOL    HW219372   3.090   3.805  19.512
 2582SOL     OW19373   3.823   1.145  21.705
 2582SOL    HW119374   3.762   1.152  21.631
 2582SOL    HW219375   3.906   1.177  21.670
 2583SOL     OW19376   4.490   1.910  24.016
 2583SOL    HW119377   4.448   1.836  24.060
 2583SOL    HW219378   4.504   1.974  24.085
 2584SOL     OW19379   2.854   0.376  27.939
 2584SOL    HW119380   2.944   0.351  27.917
 2584SOL    HW219381   2.863   0.449  28.000
 2585SOL     OW19382   2.015   0.665  25.552
 2585SOL    HW119383   2.017   0.646  25.646
 2585SOL    HW219384   1.980   0.585  25.512
 2586SOL     OW19385   1.298   1.569   7.424
 2586SOL    HW119386   1.392   1.583   7.410
 2586SOL    HW219387   1.290   1.553   7.518
 2587SOL     OW19388   3.381   4.543  24.142
 2587SOL    HW119389   3.461   4.570  24.187
 2587SOL    HW219390   3.363   4.455  24.175
 2588SOL     OW19391   4.712   4.115   0.116
 2588SOL    HW119392   4.772   4.104   0.190
 2588SOL    HW219393   4.644   4.174   0.148
 2589SOL     OW19394   3.172   2.975  22.561
 2589SOL    HW119395   3.204   3.049  22.612
 2589SOL    HW219396   3.083   2.961  22.593
 2590SOL     OW19397   1.509   1.676  19.133
 2590SOL    HW119398   1.425   1.651  19.172
 2590SOL    HW219399   1.570   1.608  19.160
 2591SOL     OW19400   0.751   1.589   0.741
 2591SOL    HW119401   0.736   1.528   0.813
 2591SOL    HW219402   0.699   1.553   0.669
 2592SOL     OW19403   0.685   3.343  20.524
 2592SOL    HW119404   0.635   3.325  20.444
 2592SOL    HW219405   0.672   3.265  20.578
 2593SOL     OW19406   3.645   3.389  19.624
 2593SOL    HW119407   3.643   3.484  19.633
 2593SOL    HW219408   3.663   3.357  19.712
 2594SOL     OW19409   1.453   2.200  25.880
 2594SOL    HW119410   1.405   2.260  25.823
 2594SOL    HW219411   1.409   2.207  25.965
 2595SOL     OW19412   1.577   3.786   2.845
 2595SOL    HW119413   1.668   3.813   2.830
 2595SOL    HW219414   1.544   3.850   2.908
 2596SOL     OW19415   1.906   2.051  24.009
 2596SOL    HW119416   1.833   2.113  24.014
 2596SOL    HW219417   1.953   2.062  24.092
 2597SOL     OW19418   4.443   0.965  16.657
 2597SOL    HW119419   4.412   0.949  16.568
 2597SOL    HW219420   4.512   0.900  16.671
 2598SOL     OW19421   2.885   2.163   4.867
 2598SOL    HW119422   2.790   2.159   4.859
 2598SOL    HW219423   2.905   2.257   4.865
 2599SOL     OW19424   0.183   2.028   3.826
 2599SOL    HW119425   0.224   1.992   3.905
 2599SOL    HW219426   0.189   2.123   3.837
 2600SOL     OW19427   2.432   3.658  25.442
 2600SOL    HW119428   2.483   3.738  25.426
 2600SOL    HW219429   2.422   3.618  25.356
 2601SOL     OW19430   2.360   1.592   7.462
 2601SOL    HW119431   2.369   1.528   7.533
 2601SOL    HW219432   2.434   1.652   7.474
 2602SOL     OW19433   3.431   2.751  18.955
 2602SOL    HW119434   3.375   2.777  18.882
 2602SOL    HW219435   3.400   2.663  18.978
 2603SOL     OW19436   4.675   1.535   3.869
 2603SOL    HW119437   4.622   1.505   3.796
 2603SOL    HW219438   4.625   1.607   3.907
 2604SOL     OW19439   0.719   1.579  24.578
 2604SOL    HW119440   0.630   1.557  24.551
 2604SOL    HW219441   0.744   1.651  24.521
 2605SOL     OW19442   0.243   0.928   1.187
 2605SOL    HW119443   0.263   0.974   1.268
 2605SOL    HW219444   0.166   0.876   1.207
 2606SOL     OW19445   4.408   3.974  22.092
 2606SOL    HW119446   4.361   4.021  22.161
 2606SOL    HW219447   4.473   4.036  22.061
 2607SOL     OW19448   2.197   2.146  27.412
 2607SOL    HW119449   2.284   2.107  27.410
 2607SOL    HW219450   2.149   2.095  27.478
 2608SOL     OW19451   1.559   2.663   1.669
 2608SOL    HW119452   1.562   2.716   1.589
 2608SOL    HW219453   1.482   2.607   1.658
 2609SOL     OW19454   2.287   1.906  23.653
 2609SOL    HW119455   2.207   1.950  23.680
 2609SOL    HW219456   2.343   1.908  23.730
 2610SOL     OW19457   0.884   4.173  18.852
 2610SOL    HW119458   0.912   4.234  18.784
 2610SOL    HW219459   0.954   4.176  18.917
 2611SOL     OW19460   3.354   2.687  17.221
 2611SOL    HW119461   3.373   2.645  17.137
 2611SOL    HW219462   3.410   2.643  17.284
 2612SOL     OW19463   4.579   0.372   6.399
 2612SOL    HW119464   4.588   0.453   6.450
 2612SOL    HW219465   4.541   0.309   6.460
 2613SOL     OW19466   2.778   4.172   0.272
 2613SOL    HW119467   2.773   4.149   0.365
 2613SOL    HW219468   2.713   4.117   0.229
 2614SOL     OW19469   3.618   0.983   2.174
 2614SOL    HW119470   3.709   0.975   2.202
 2614SOL    HW219471   3.611   0.927   2.096
 2615SOL     OW19472   0.847   1.433   3.545
 2615SOL    HW119473   0.844   1.355   3.601
 2615SOL    HW219474   0.917   1.486   3.582
 2616SOL     OW19475   2.980   1.761  26.485
 2616SOL    HW119476   3.035   1.739  26.410
 2616SOL    HW219477   2.899   1.712  26.471
 2617SOL     OW19478   2.478   3.228   4.446
 2617SOL    HW119479   2.408   3.165   4.429
 2617SOL    HW219480   2.552   3.196   4.395
 2618SOL     OW19481   2.479   3.148  24.121
 2618SOL    HW119482   2.462   3.075  24.061
 2618SOL    HW219483   2.498   3.107  24.205
 2619SOL     OW19484   2.701   0.830   2.034
 2619SOL    HW119485   2.635   0.823   1.965
 2619SOL    HW219486   2.677   0.909   2.082
 2620SOL     OW19487   0.898   4.171  20.186
 2620SOL    HW119488   0.908   4.266  20.197
 2620SOL    HW219489   0.982   4.135  20.215
 2621SOL     OW19490   4.737   3.950  25.946
 2621SOL    HW119491   4.671   3.902  25.997
 2621SOL    HW219492   4.697   4.035  25.930
 2622SOL     OW19493   4.209   2.629  27.084
 2622SOL    HW119494   4.237   2.687  27.155
 2622SOL    HW219495   4.282   2.630  27.022
 2623SOL     OW19496   2.552   3.796  20.516
 2623SOL    HW119497   2.642   3.808  20.545
 2623SOL    HW219498   2.559   3.742  20.437
 2624SOL     OW19499   2.941   3.522  26.868
 2624SOL    HW119500   2.875   3.583  26.902
 2624SOL    HW219501   2.979   3.481  26.946
 2625SOL     OW19502   1.174   1.363   0.022
 2625SOL    HW119503   1.126   1.283   0.041
 2625SOL    HW219504   1.265   1.335   0.015
 2626SOL     OW19505   4.175   2.397  17.538
 2626SOL    HW119506   4.164   2.322  17.479
 2626SOL    HW219507   4.256   2.378  17.586
 2627SOL     OW19508   1.675   2.124  23.227
 2627SOL    HW119509   1.678   2.028  23.227
 2627SOL    HW219510   1.601   2.146  23.170
 2628SOL     OW19511   3.037   3.592  25.565
 2628SOL    HW119512   2.952   3.635  25.570
 2628SOL    HW219513   3.017   3.499  25.575
 2629SOL     OW19514   4.620   1.458  10.694
 2629SOL    HW119515   4.554   1.478  10.628
 2629SOL    HW219516   4.570   1.442  10.774
 2630SOL     OW19517   3.447   3.371  19.067
 2630SOL    HW119518   3.502   3.413  19.133
 2630SOL    HW219519   3.425   3.286  19.104
 2631SOL     OW19520   2.989   0.971   4.052
 2631SOL    HW119521   2.957   0.894   4.004
 2631SOL    HW219522   2.966   1.045   3.997
 2632SOL     OW19523   0.471   0.317  23.703
 2632SOL    HW119524   0.521   0.360  23.772
 2632SOL    HW219525   0.388   0.292  23.745
 2633SOL     OW19526   0.060   4.342   3.848
 2633SOL    HW119527   0.081   4.401   3.920
 2633SOL    HW219528   0.025   4.399   3.780
 2634SOL     OW19529   1.751   2.385   6.142
 2634SOL    HW119530   1.739   2.327   6.067
 2634SOL    HW219531   1.841   2.416   6.134
 2635SOL     OW19532   1.377   3.847  22.645
 2635SOL    HW119533   1.353   3.804  22.727
 2635SOL    HW219534   1.302   3.833  22.588
 2636SOL     OW19535   0.894   4.506   6.850
 2636SOL    HW119536   0.973   4.548   6.885
 2636SOL    HW219537   0.868   4.562   6.777
 2637SOL     OW19538   1.499   2.321  23.640
 2637SOL    HW119539   1.588   2.311  23.607
 2637SOL    HW219540   1.448   2.350  23.564
 2638SOL     OW19541   2.308   0.396  20.724
 2638SOL    HW119542   2.220   0.403  20.760
 2638SOL    HW219543   2.365   0.400  20.800
 2639SOL     OW19544   0.761   4.473   6.091
 2639SOL    HW119545   0.735   4.472   6.183
 2639SOL    HW219546   0.678   4.471   6.043
 2640SOL     OW19547   2.440   3.809   1.223
 2640SOL    HW119548   2.462   3.773   1.137
 2640SOL    HW219549   2.512   3.869   1.243
 2641SOL     OW19550   3.757   0.610  25.448
 2641SOL    HW119551   3.744   0.555  25.371
 2641SOL    HW219552   3.710   0.691  25.428
 2642SOL     OW19553   3.325   4.402   6.209
 2642SOL    HW119554   3.252   4.351   6.243
 2642SOL    HW219555   3.318   4.395   6.114
 2643SOL     OW19556   0.621   3.252   3.623
 2643SOL    HW119557   0.641   3.214   3.538
 2643SOL    HW219558   0.546   3.202   3.655
 2644SOL     OW19559   2.430   2.460   0.117
 2644SOL    HW119560   2.426   2.526   0.048
 2644SOL    HW219561   2.405   2.378   0.073
 2645SOL     OW19562   1.486   0.734  25.393
 2645SOL    HW119563   1.524   0.650  25.417
 2645SOL    HW219564   1.430   0.757  25.467
 2646SOL     OW19565   3.468   0.453  25.165
 2646SOL    HW119566   3.479   0.389  25.095
 2646SOL    HW219567   3.469   0.401  25.245
 2647SOL     OW19568   1.203   2.361  27.757
 2647SOL    HW119569   1.159   2.391  27.836
 2647SOL    HW219570   1.138   2.307  27.712
 2648SOL     OW19571   4.445   2.471  27.771
 2648SOL    HW119572   4.503   2.490  27.697
 2648SOL    HW219573   4.431   2.556  27.813
 2649SOL     OW19574   1.483   4.403  23.290
 2649SOL    HW119575   1.434   4.404  23.208
 2649SOL    HW219576   1.483   4.494  23.320
 2650SOL     OW19577   0.206   3.660   9.241
 2650SOL    HW119578   0.111   3.648   9.247
 2650SOL    HW219579   0.223   3.744   9.283
 2651SOL     OW19580   3.781   0.048   6.848
 2651SOL    HW119581   3.743   0.132   6.874
 2651SOL    HW219582   3.870   0.070   6.822
 2652SOL     OW19583   3.281   1.890  10.058
 2652SOL    HW119584   3.291   1.799  10.087
 2652SOL    HW219585   3.370   1.924  10.055
 2653SOL     OW19586   2.342   3.195  21.166
 2653SOL    HW119587   2.432   3.205  21.196
 2653SOL    HW219588   2.301   3.139  21.231
 2654SOL     OW19589   0.839   2.051  23.214
 2654SOL    HW119590   0.833   1.956  23.203
 2654SOL    HW219591   0.748   2.080  23.220
 2655SOL     OW19592   0.642   1.254   9.441
 2655SOL    HW119593   0.698   1.178   9.425
 2655SOL    HW219594   0.562   1.218   9.480
 2656SOL     OW19595   0.943   4.329   0.497
 2656SOL    HW119596   0.914   4.287   0.578
 2656SOL    HW219597   0.915   4.269   0.428
 2657SOL     OW19598   1.804   2.339  23.137
 2657SOL    HW119599   1.771   2.251  23.156
 2657SOL    HW219600   1.895   2.326  23.110
 2658SOL     OW19601   2.029   2.940   2.392
 2658SOL    HW119602   1.958   2.986   2.348
 2658SOL    HW219603   1.985   2.883   2.455
 2659SOL     OW19604   1.621   2.976   4.464
 2659SOL    HW119605   1.712   2.948   4.454
 2659SOL    HW219606   1.623   3.038   4.537
 2660SOL     OW19607   0.794   3.059  22.994
 2660SOL    HW119608   0.712   3.052  23.043
 2660SOL    HW219609   0.781   3.132  22.934
 2661SOL     OW19610   1.039   3.827   9.777
 2661SOL    HW119611   1.108   3.781   9.729
 2661SOL    HW219612   0.968   3.835   9.714
 2662SOL     OW19613   2.538   1.945   8.340
 2662SOL    HW119614   2.545   1.975   8.431
 2662SOL    HW219615   2.629   1.928   8.314
 2663SOL     OW19616   1.511   1.877  23.959
 2663SOL    HW119617   1.505   1.788  23.924
 2663SOL    HW219618   1.557   1.867  24.042
 2664SOL     OW19619   1.265   0.612   1.842
 2664SOL    HW119620   1.328   0.552   1.802
 2664SOL    HW219621   1.182   0.564   1.842
 2665SOL     OW19622   3.551   1.700   4.718
 2665SOL    HW119623   3.514   1.777   4.675
 2665SOL    HW219624   3.495   1.686   4.795
 2666SOL     OW19625   3.423   0.519   0.739
 2666SOL    HW119626   3.501   0.574   0.733
 2666SOL    HW219627   3.390   0.514   0.649
 2667SOL     OW19628   0.273   2.748  23.936
 2667SOL    HW119629   0.178   2.755  23.932
 2667SOL    HW219630   0.295   2.683  23.870
 2668SOL     OW19631   2.177   4.317   0.020
 2668SOL    HW119632   2.265   4.344   0.046
 2668SOL    HW219633   2.192   4.250  28.475
 2669SOL     OW19634   1.561   1.193   2.795
 2669SOL    HW119635   1.476   1.197   2.752
 2669SOL    HW219636   1.555   1.258   2.865
 2670SOL     OW19637   3.438   2.049   7.321
 2670SOL    HW119638   3.355   2.080   7.284
 2670SOL    HW219639   3.462   1.974   7.267
 2671SOL     OW19640   2.298   3.787  20.624
 2671SOL    HW119641   2.254   3.797  20.540
 2671SOL    HW219642   2.390   3.770  20.602
 2672SOL     OW19643   4.533   1.797   6.166
 2672SOL    HW119644   4.443   1.813   6.194
 2672SOL    HW219645   4.578   1.880   6.179
 2673SOL     OW19646   4.024   0.136   6.826
 2673SOL    HW119647   4.102   0.121   6.879
 2673SOL    HW219648   4.054   0.188   6.752
 2674SOL     OW19649   2.969   3.308   8.413
 2674SOL    HW119650   3.012   3.235   8.457
 2674SOL    HW219651   2.925   3.268   8.338
 2675SOL     OW19652   2.478   3.393   3.185
 2675SOL    HW119653   2.521   3.477   3.168
 2675SOL    HW219654   2.502   3.371   3.275
 2676SOL     OW19655   2.905   1.472  28.252
 2676SOL    HW119656   2.860   1.447  28.333
 2676SOL    HW219657   2.910   1.391  28.202
 2677SOL     OW19658   0.261   4.749  21.120
 2677SOL    HW119659   0.312   0.046  21.096
 2677SOL    HW219660   0.326   4.688  21.155
 2678SOL     OW19661   1.049   4.020   3.277
 2678SOL    HW119662   1.089   4.075   3.345
 2678SOL    HW219663   1.073   3.931   3.302
 2679SOL     OW19664   3.245   3.515   5.915
 2679SOL    HW119665   3.318   3.495   5.974
 2679SOL    HW219666   3.168   3.517   5.972
 2680SOL     OW19667   0.890   0.780  20.671
 2680SOL    HW119668   0.965   0.773  20.612
 2680SOL    HW219669   0.814   0.785  20.613
 2681SOL     OW19670   4.387   2.008   5.611
 2681SOL    HW119671   4.375   2.032   5.703
 2681SOL    HW219672   4.482   2.001   5.600
 2682SOL     OW19673   1.314   1.046  23.342
 2682SOL    HW119674   1.367   1.119  23.374
 2682SOL    HW219675   1.303   0.989  23.418
 2683SOL     OW19676   1.952   3.485  26.763
 2683SOL    HW119677   1.978   3.432  26.687
 2683SOL    HW219678   2.034   3.504  26.808
 2684SOL     OW19679   1.658   3.036   5.310
 2684SOL    HW119680   1.733   3.085   5.275
 2684SOL    HW219681   1.660   3.055   5.404
 2685SOL     OW19682   0.570   3.060  21.906
 2685SOL    HW119683   0.502   3.112  21.949
 2685SOL    HW219684   0.622   3.124  21.857
 2686SOL     OW19685   0.697   0.157  22.076
 2686SOL    HW119686   0.766   0.221  22.059
 2686SOL    HW219687   0.732   0.102  22.146
 2687SOL     OW19688   1.558   1.957  21.148
 2687SOL    HW119689   1.483   1.955  21.088
 2687SOL    HW219690   1.535   2.024  21.212
 2688SOL     OW19691   0.479   3.072   1.684
 2688SOL    HW119692   0.476   3.153   1.734
 2688SOL    HW219693   0.569   3.068   1.651
 2689SOL     OW19694   2.837   3.697   1.373
 2689SOL    HW119695   2.805   3.697   1.283
 2689SOL    HW219696   2.927   3.665   1.367
 2690SOL     OW19697   1.028   0.119  22.216
 2690SOL    HW119698   1.109   0.102  22.265
 2690SOL    HW219699   1.000   0.033  22.186
 2691SOL     OW19700   4.212   2.524  22.910
 2691SOL    HW119701   4.228   2.583  22.836
 2691SOL    HW219702   4.169   2.448  22.871
 2692SOL     OW19703   2.090   0.675   1.879
 2692SOL    HW119704   2.130   0.655   1.964
 2692SOL    HW219705   2.156   0.726   1.832
 2693SOL     OW19706   0.289   1.580  25.929
 2693SOL    HW119707   0.269   1.667  25.895
 2693SOL    HW219708   0.207   1.532  25.920
 2694SOL     OW19709   3.808   0.239  26.766
 2694SOL    HW119710   3.900   0.220  26.750
 2694SOL    HW219711   3.777   0.277  26.684
 2695SOL     OW19712   0.332   4.492   1.849
 2695SOL    HW119713   0.383   4.558   1.896
 2695SOL    HW219714   0.246   4.533   1.836
 2696SOL     OW19715   2.280   0.500  26.437
 2696SOL    HW119716   2.360   0.458  26.405
 2696SOL    HW219717   2.219   0.427  26.450
 2697SOL     OW19718   0.282   1.807   2.128
 2697SOL    HW119719   0.377   1.817   2.119
 2697SOL    HW219720   0.271   1.724   2.174
 2698SOL     OW19721   3.682   3.226  23.681
 2698SOL    HW119722   3.587   3.235  23.694
 2698SOL    HW219723   3.705   3.296  23.619
 2699SOL     OW19724   4.580   3.311  24.134
 2699SOL    HW119725   4.577   3.397  24.177
 2699SOL    HW219726   4.515   3.258  24.180
 2700SOL     OW19727   4.418   2.336  11.579
 2700SOL    HW119728   4.470   2.290  11.645
 2700SOL    HW219729   4.483   2.381  11.525
 2701SOL     OW19730   0.543   1.854  27.202
 2701SOL    HW119731   0.458   1.826  27.236
 2701SOL    HW219732   0.600   1.778  27.214
 2702SOL     OW19733   3.389   0.530   1.107
 2702SOL    HW119734   3.424   0.598   1.165
 2702SOL    HW219735   3.463   0.472   1.091
 2703SOL     OW19736   1.975   4.516   1.611
 2703SOL    HW119737   2.069   4.536   1.607
 2703SOL    HW219738   1.950   4.503   1.520
 2704SOL     OW19739   4.381   1.001  22.181
 2704SOL    HW119740   4.351   1.013  22.091
 2704SOL    HW219741   4.310   1.037  22.235
 2705SOL     OW19742   1.766   0.745   5.228
 2705SOL    HW119743   1.814   0.738   5.311
 2705SOL    HW219744   1.678   0.713   5.249
 2706SOL     OW19745   2.436   0.953  24.201
 2706SOL    HW119746   2.453   0.992  24.115
 2706SOL    HW219747   2.493   1.000  24.261
 2707SOL     OW19748   0.239   2.271   6.358
 2707SOL    HW119749   0.231   2.177   6.376
 2707SOL    HW219750   0.170   2.311   6.410
 2708SOL     OW19751   0.382   3.961   6.351
 2708SOL    HW119752   0.385   3.870   6.381
 2708SOL    HW219753   0.290   3.976   6.328
 2709SOL     OW19754   3.417   2.439   2.366
 2709SOL    HW119755   3.421   2.416   2.459
 2709SOL    HW219756   3.506   2.467   2.345
 2710SOL     OW19757   2.558   0.425   0.926
 2710SOL    HW119758   2.514   0.472   0.997
 2710SOL    HW219759   2.635   0.386   0.968
 2711SOL     OW19760   3.806   4.564   0.278
 2711SOL    HW119761   3.761   4.482   0.299
 2711SOL    HW219762   3.737   4.621   0.243
 2712SOL     OW19763   1.735   0.553  23.786
 2712SOL    HW119764   1.796   0.491  23.825
 2712SOL    HW219765   1.674   0.499  23.736
 2713SOL     OW19766   3.458   1.417   0.300
 2713SOL    HW119767   3.428   1.439   0.212
 2713SOL    HW219768   3.378   1.410   0.352
 2714SOL     OW19769   0.798   2.934   0.324
 2714SOL    HW119770   0.857   2.876   0.371
 2714SOL    HW219771   0.713   2.889   0.327
 2715SOL     OW19772   2.598   1.025  24.656
 2715SOL    HW119773   2.620   1.079  24.732
 2715SOL    HW219774   2.570   0.941  24.693
 2716SOL     OW19775   2.303   1.844  22.200
 2716SOL    HW119776   2.212   1.874  22.191
 2716SOL    HW219777   2.342   1.906  22.262
 2717SOL     OW19778   1.093   2.975   3.395
 2717SOL    HW119779   1.041   3.019   3.463
 2717SOL    HW219780   1.083   3.031   3.318
 2718SOL     OW19781   1.583   2.678  27.456
 2718SOL    HW119782   1.504   2.678  27.402
 2718SOL    HW219783   1.570   2.607  27.519
 2719SOL     OW19784   0.138   1.663  10.286
 2719SOL    HW119785   0.087   1.696  10.212
 2719SOL    HW219786   0.076   1.660  10.359
 2720SOL     OW19787   4.471   0.093  20.913
 2720SOL    HW119788   4.380   0.072  20.932
 2720SOL    HW219789   4.512   0.008  20.895
 2721SOL     OW19790   1.241   2.218   8.306
 2721SOL    HW119791   1.273   2.133   8.337
 2721SOL    HW219792   1.200   2.258   8.383
 2722SOL     OW19793   2.562   1.405  19.961
 2722SOL    HW119794   2.637   1.431  20.014
 2722SOL    HW219795   2.493   1.386  20.024
 2723SOL     OW19796   2.438   2.701   5.616
 2723SOL    HW119797   2.435   2.730   5.525
 2723SOL    HW219798   2.530   2.679   5.631
 2724SOL     OW19799   3.677   1.122  10.475
 2724SOL    HW119800   3.698   1.215  10.467
 2724SOL    HW219801   3.759   1.081  10.504
 2725SOL     OW19802   0.279   2.325   5.124
 2725SOL    HW119803   0.336   2.288   5.057
 2725SOL    HW219804   0.220   2.253   5.148
 2726SOL     OW19805   4.161   2.660   7.010
 2726SOL    HW119806   4.221   2.586   7.019
 2726SOL    HW219807   4.188   2.703   6.929
 2727SOL     OW19808   1.802   4.551  21.091
 2727SOL    HW119809   1.791   4.458  21.070
 2727SOL    HW219810   1.838   4.589  21.011
 2728SOL     OW19811   4.218   0.609  26.575
 2728SOL    HW119812   4.197   0.652  26.658
 2728SOL    HW219813   4.251   0.680  26.520
 2729SOL     OW19814   1.833   3.178  19.630
 2729SOL    HW119815   1.790   3.256  19.665
 2729SOL    HW219816   1.763   3.128  19.589
 2730SOL     OW19817   3.158   4.042   7.626
 2730SOL    HW119818   3.224   4.005   7.568
 2730SOL    HW219819   3.175   4.002   7.711
 2731SOL     OW19820   1.734   1.073  21.637
 2731SOL    HW119821   1.692   1.098  21.719
 2731SOL    HW219822   1.712   1.144  21.576
 2732SOL     OW19823   1.413   4.539   5.718
 2732SOL    HW119824   1.359   4.590   5.778
 2732SOL    HW219825   1.351   4.483   5.672
 2733SOL     OW19826   2.524   4.738  21.040
 2733SOL    HW119827   2.535   4.706  20.950
 2733SOL    HW219828   2.613   4.759  21.069
 2734SOL     OW19829   1.567   2.988  20.739
 2734SOL    HW119830   1.533   3.063  20.788
 2734SOL    HW219831   1.506   2.978  20.666
 2735SOL     OW19832   1.056   1.118  23.217
 2735SOL    HW119833   1.093   1.150  23.135
 2735SOL    HW219834   1.131   1.083  23.265
 2736SOL     OW19835   2.748   3.016  20.000
 2736SOL    HW119836   2.763   2.921  19.997
 2736SOL    HW219837   2.792   3.045  20.080
 2737SOL     OW19838   0.764   2.188   6.700
 2737SOL    HW119839   0.686   2.196   6.754
 2737SOL    HW219840   0.744   2.117   6.639
 2738SOL     OW19841   2.828   0.360   2.197
 2738SOL    HW119842   2.849   0.452   2.182
 2738SOL    HW219843   2.854   0.317   2.116
 2739SOL     OW19844   2.826   2.772  26.531
 2739SOL    HW119845   2.903   2.825  26.553
 2739SOL    HW219846   2.836   2.752  26.438
 2740SOL     OW19847   0.633   0.148  21.763
 2740SOL    HW119848   0.565   0.215  21.762
 2740SOL    HW219849   0.711   0.193  21.795
 2741SOL     OW19850   2.918   0.242  24.518
 2741SOL    HW119851   2.868   0.307  24.468
 2741SOL    HW219852   2.911   0.162  24.466
 2742SOL     OW19853   4.424   4.042  19.104
 2742SOL    HW119854   4.431   4.038  19.009
 2742SOL    HW219855   4.509   4.011  19.136
 2743SOL     OW19856   2.944   3.887  26.974
 2743SOL    HW119857   2.929   3.961  27.032
 2743SOL    HW219858   2.895   3.908  26.894
 2744SOL     OW19859   1.788   4.480   9.119
 2744SOL    HW119860   1.764   4.566   9.154
 2744SOL    HW219861   1.790   4.493   9.024
 2745SOL     OW19862   4.467   3.368   6.637
 2745SOL    HW119863   4.377   3.399   6.646
 2745SOL    HW219864   4.479   3.306   6.709
 2746SOL     OW19865   3.819   4.098  22.750
 2746SOL    HW119866   3.894   4.110  22.809
 2746SOL    HW219867   3.767   4.029  22.791
 2747SOL     OW19868   3.313   0.334  21.722
 2747SOL    HW119869   3.384   0.366  21.666
 2747SOL    HW219870   3.325   0.381  21.805
 2748SOL     OW19871   0.731   1.584  25.209
 2748SOL    HW119872   0.681   1.661  25.235
 2748SOL    HW219873   0.817   1.619  25.185
 2749SOL     OW19874   3.730   4.616   7.063
 2749SOL    HW119875   3.641   4.580   7.061
 2749SOL    HW219876   3.731   4.681   6.992
 2750SOL     OW19877   3.885   0.230  25.908
 2750SOL    HW119878   3.943   0.183  25.968
 2750SOL    HW219879   3.815   0.265  25.963
 2751SOL     OW19880   3.957   2.280   3.326
 2751SOL    HW119881   3.917   2.207   3.279
 2751SOL    HW219882   3.969   2.348   3.259
 2752SOL     OW19883   0.490   2.014  19.221
 2752SOL    HW119884   0.487   1.918  19.221
 2752SOL    HW219885   0.399   2.041  19.209
 2753SOL     OW19886   4.031   1.231  25.244
 2753SOL    HW119887   3.979   1.168  25.194
 2753SOL    HW219888   4.048   1.188  25.328
 2754SOL     OW19889   2.037   3.457  21.728
 2754SOL    HW119890   1.958   3.451  21.782
 2754SOL    HW219891   2.005   3.480  21.641
 2755SOL     OW19892   1.226   2.366  17.814
 2755SOL    HW119893   1.167   2.441  17.821
 2755SOL    HW219894   1.233   2.350  17.720
 2756SOL     OW19895   3.703   2.948   5.612
 2756SOL    HW119896   3.744   2.861   5.617
 2756SOL    HW219897   3.745   2.990   5.537
 2757SOL     OW19898   0.389   3.753  20.367
 2757SOL    HW119899   0.468   3.728  20.416
 2757SOL    HW219900   0.350   3.670  20.341
 2758SOL     OW19901   4.172   3.194  23.468
 2758SOL    HW119902   4.240   3.259  23.451
 2758SOL    HW219903   4.104   3.243  23.514
 2759SOL     OW19904   0.295   4.354   8.579
 2759SOL    HW119905   0.215   4.401   8.556
 2759SOL    HW219906   0.358   4.423   8.598
 2760SOL     OW19907   0.313   1.838  24.752
 2760SOL    HW119908   0.315   1.810  24.660
 2760SOL    HW219909   0.243   1.903  24.755
 2761SOL     OW19910   1.239   0.260   1.252
 2761SOL    HW119911   1.295   0.280   1.177
 2761SOL    HW219912   1.170   0.205   1.216
 2762SOL     OW19913   0.599   3.669  18.691
 2762SOL    HW119914   0.608   3.729  18.765
 2762SOL    HW219915   0.612   3.582  18.729
 2763SOL     OW19916   2.834   4.521  22.088
 2763SOL    HW119917   2.905   4.524  22.152
 2763SOL    HW219918   2.755   4.509  22.141
 2764SOL     OW19919   1.489   4.301   7.858
 2764SOL    HW119920   1.433   4.371   7.825
 2764SOL    HW219921   1.431   4.225   7.865
 2765SOL     OW19922   0.009   0.029  19.309
 2765SOL    HW119923   4.739   4.746  19.258
 2765SOL    HW219924   4.772   0.113  19.267
 2766SOL     OW19925   1.864   1.158   0.790
 2766SOL    HW119926   1.872   1.193   0.879
 2766SOL    HW219927   1.934   1.093   0.783
 2767SOL     OW19928   1.508   1.164  24.163
 2767SOL    HW119929   1.425   1.116  24.164
 2767SOL    HW219930   1.567   1.110  24.110
 2768SOL     OW19931   2.243   4.337   2.552
 2768SOL    HW119932   2.179   4.406   2.571
 2768SOL    HW219933   2.302   4.376   2.488
 2769SOL     OW19934   3.605   1.619   8.626
 2769SOL    HW119935   3.568   1.652   8.544
 2769SOL    HW219936   3.564   1.673   8.694
 2770SOL     OW19937   4.421   3.840   8.846
 2770SOL    HW119938   4.415   3.880   8.933
 2770SOL    HW219939   4.332   3.808   8.828
 2771SOL     OW19940   2.225   3.450   1.599
 2771SOL    HW119941   2.148   3.498   1.631
 2771SOL    HW219942   2.268   3.511   1.539
 2772SOL     OW19943   0.091   1.213  23.596
 2772SOL    HW119944   0.027   1.225  23.526
 2772SOL    HW219945   0.043   1.234  23.676
 2773SOL     OW19946   2.524   4.308  24.238
 2773SOL    HW119947   2.556   4.315  24.148
 2773SOL    HW219948   2.600   4.279  24.288
 2774SOL     OW19949   4.752   2.255  25.720
 2774SOL    HW119950   0.049   2.309  25.731
 2774SOL    HW219951   4.683   2.317  25.697
 2775SOL     OW19952   1.256   3.028  26.737
 2775SOL    HW119953   1.184   3.027  26.800
 2775SOL    HW219954   1.266   3.120  26.713
 2776SOL     OW19955   3.000   2.642   7.126
 2776SOL    HW119956   2.982   2.554   7.094
 2776SOL    HW219957   3.095   2.644   7.138
 2777SOL     OW19958   4.277   1.881  26.537
 2777SOL    HW119959   4.291   1.941  26.464
 2777SOL    HW219960   4.352   1.821  26.533
 2778SOL     OW19961   2.667   3.721   4.474
 2778SOL    HW119962   2.686   3.747   4.564
 2778SOL    HW219963   2.591   3.663   4.481
 2779SOL     OW19964   2.739   1.691   2.045
 2779SOL    HW119965   2.810   1.721   2.102
 2779SOL    HW219966   2.704   1.771   2.005
 2780SOL     OW19967   3.526   0.280  10.654
 2780SOL    HW119968   3.559   0.221  10.722
 2780SOL    HW219969   3.592   0.349  10.649
 2781SOL     OW19970   1.491   3.093  23.748
 2781SOL    HW119971   1.445   3.009  23.743
 2781SOL    HW219972   1.534   3.102  23.663
 2782SOL     OW19973   3.033   1.508   0.519
 2782SOL    HW119974   2.998   1.432   0.565
 2782SOL    HW219975   3.065   1.473   0.436
 2783SOL     OW19976   3.312   3.426   9.712
 2783SOL    HW119977   3.389   3.370   9.700
 2783SOL    HW219978   3.239   3.373   9.681
 2784SOL     OW19979   0.758   1.567   5.485
 2784SOL    HW119980   0.757   1.472   5.478
 2784SOL    HW219981   0.668   1.594   5.468
 2785SOL     OW19982   0.306   4.462   4.178
 2785SOL    HW119983   0.358   4.419   4.110
 2785SOL    HW219984   0.279   4.545   4.138
 2786SOL     OW19985   1.688   1.677  21.833
 2786SOL    HW119986   1.724   1.609  21.776
 2786SOL    HW219987   1.663   1.748  21.773
 2787SOL     OW19988   1.302   2.411  25.825
 2787SOL    HW119989   1.338   2.467  25.894
 2787SOL    HW219990   1.241   2.468  25.778
 2788SOL     OW19991   2.917   1.487  18.784
 2788SOL    HW119992   3.004   1.510  18.751
 2788SOL    HW219993   2.917   1.391  18.788
 2789SOL     OW19994   0.844   3.862   2.892
 2789SOL    HW119995   0.911   3.860   2.961
 2789SOL    HW219996   0.882   3.811   2.820
 2790SOL     OW19997   3.982   1.235   8.459
 2790SOL    HW119998   4.059   1.213   8.512
 2790SOL    HW219999   3.960   1.153   8.414
 2791SOL     OW20000   3.249   2.189  20.473
 2791SOL    HW120001   3.180   2.135  20.511
 2791SOL    HW220002   3.232   2.277  20.507
 2792SOL     OW20003   4.246   1.566   7.696
 2792SOL    HW120004   4.168   1.517   7.723
 2792SOL    HW220005   4.293   1.583   7.777
 2793SOL     OW20006   1.682   3.449  25.869
 2793SOL    HW120007   1.746   3.380  25.853
 2793SOL    HW220008   1.735   3.528  25.882
 2794SOL     OW20009   1.479   3.444  26.765
 2794SOL    HW120010   1.531   3.405  26.695
 2794SOL    HW220011   1.544   3.480  26.826
 2795SOL     OW20012   4.540   0.421   1.502
 2795SOL    HW120013   4.485   0.413   1.580
 2795SOL    HW220014   4.629   0.418   1.536
 2796SOL     OW20015   3.246   1.242   3.881
 2796SOL    HW120016   3.220   1.329   3.852
 2796SOL    HW220017   3.166   1.204   3.918
 2797SOL     OW20018   0.587   4.129  26.287
 2797SOL    HW120019   0.572   4.154  26.196
 2797SOL    HW220020   0.500   4.104  26.319
 2798SOL     OW20021   4.597   3.471   6.279
 2798SOL    HW120022   4.630   3.392   6.323
 2798SOL    HW220023   4.652   3.480   6.201
 2799SOL     OW20024   2.315   0.696  22.434
 2799SOL    HW120025   2.271   0.778  22.413
 2799SOL    HW220026   2.303   0.641  22.356
 2800SOL     OW20027   1.472   2.062   0.566
 2800SOL    HW120028   1.465   2.099   0.654
 2800SOL    HW220029   1.518   2.129   0.516
 2801SOL     OW20030   1.559   0.653  25.963
 2801SOL    HW120031   1.626   0.706  25.920
 2801SOL    HW220032   1.530   0.707  26.037
 2802SOL     OW20033   3.543   1.776   8.364
 2802SOL    HW120034   3.559   1.693   8.319
 2802SOL    HW220035   3.630   1.811   8.383
 2803SOL     OW20036   4.452   2.521  20.969
 2803SOL    HW120037   4.446   2.506  21.063
 2803SOL    HW220038   4.449   2.433  20.930
 2804SOL     OW20039   2.647   3.012   5.856
 2804SOL    HW120040   2.571   3.045   5.904
 2804SOL    HW220041   2.679   3.088   5.808
 2805SOL     OW20042   0.270   1.331   7.430
 2805SOL    HW120043   0.202   1.318   7.364
 2805SOL    HW220044   0.230   1.390   7.495
 2806SOL     OW20045   2.906   1.072  26.885
 2806SOL    HW120046   2.814   1.096  26.880
 2806SOL    HW220047   2.916   1.003  26.819
 2807SOL     OW20048   4.211   1.105  19.610
 2807SOL    HW120049   4.270   1.174  19.641
 2807SOL    HW220050   4.188   1.132  19.521
 2808SOL     OW20051   1.456   4.052  26.623
 2808SOL    HW120052   1.461   4.033  26.529
 2808SOL    HW220053   1.516   4.126  26.635
 2809SOL     OW20054   4.199   1.360  10.851
 2809SOL    HW120055   4.214   1.438  10.905
 2809SOL    HW220056   4.150   1.392  10.775
 2810SOL     OW20057   3.280   3.849   9.451
 2810SOL    HW120058   3.263   3.755   9.444
 2810SOL    HW220059   3.353   3.856   9.513
 2811SOL     OW20060   2.986   2.978  21.950
 2811SOL    HW120061   3.078   2.977  21.975
 2811SOL    HW220062   2.955   2.890  21.971
 2812SOL     OW20063   3.331   1.935  19.469
 2812SOL    HW120064   3.353   1.955  19.378
 2812SOL    HW220065   3.409   1.892  19.504
 2813SOL     OW20066   2.173   1.557   9.119
 2813SOL    HW120067   2.148   1.649   9.115
 2813SOL    HW220068   2.234   1.551   9.192
 2814SOL     OW20069   4.673   1.941  21.411
 2814SOL    HW120070   4.675   1.930  21.506
 2814SOL    HW220071   4.582   1.926  21.387
 2815SOL     OW20072   1.480   2.994   8.588
 2815SOL    HW120073   1.574   3.001   8.602
 2815SOL    HW220074   1.471   2.933   8.515
 2816SOL     OW20075   4.727   3.484   4.310
 2816SOL    HW120076   4.758   3.547   4.375
 2816SOL    HW220077   4.686   3.538   4.243
 2817SOL     OW20078   2.611   3.332  28.188
 2817SOL    HW120079   2.604   3.320  28.093
 2817SOL    HW220080   2.693   3.290  28.211
 2818SOL     OW20081   0.241   4.202   9.238
 2818SOL    HW120082   0.260   4.181   9.146
 2818SOL    HW220083   0.241   4.298   9.241
 2819SOL     OW20084   4.180   2.049   1.542
 2819SOL    HW120085   4.157   2.076   1.453
 2819SOL    HW220086   4.194   2.131   1.590
 2820SOL     OW20087   2.081   3.820   0.229
 2820SOL    HW120088   2.060   3.727   0.228
 2820SOL    HW220089   2.149   3.829   0.295
 2821SOL     OW20090   0.400   4.567   1.569
 2821SOL    HW120091   0.366   4.538   1.654
 2821SOL    HW220092   0.493   4.544   1.571
 2822SOL     OW20093   0.832   1.118  25.103
 2822SOL    HW120094   0.822   1.181  25.174
 2822SOL    HW220095   0.918   1.079  25.118
 2823SOL     OW20096   1.548   4.247  18.252
 2823SOL    HW120097   1.638   4.274  18.270
 2823SOL    HW220098   1.540   4.250  18.157
 2824SOL     OW20099   3.651   0.145   6.401
 2824SOL    HW120100   3.742   0.114   6.398
 2824SOL    HW220101   3.600   0.067   6.421
 2825SOL     OW20102   1.638   4.150  26.842
 2825SOL    HW120103   1.682   4.084  26.788
 2825SOL    HW220104   1.640   4.114  26.931
 2826SOL     OW20105   2.973   2.384   7.338
 2826SOL    HW120106   3.064   2.393   7.366
 2826SOL    HW220107   2.935   2.471   7.351
 2827SOL     OW20108   3.994   4.026  22.952
 2827SOL    HW120109   4.008   4.068  23.037
 2827SOL    HW220110   4.076   4.040  22.904
 2828SOL     OW20111   1.176   1.544   9.442
 2828SOL    HW120112   1.192   1.617   9.382
 2828SOL    HW220113   1.251   1.486   9.428
 2829SOL     OW20114   2.818   4.464  18.736
 2829SOL    HW120115   2.794   4.371  18.739
 2829SOL    HW220116   2.914   4.465  18.741
 2830SOL     OW20117   3.791   3.655   3.474
 2830SOL    HW120118   3.812   3.615   3.558
 2830SOL    HW220119   3.713   3.707   3.491
 2831SOL     OW20120   3.618   0.708  24.288
 2831SOL    HW120121   3.611   0.801  24.267
 2831SOL    HW220122   3.646   0.667  24.206
 2832SOL     OW20123   3.578   3.812   3.567
 2832SOL    HW120124   3.575   3.781   3.657
 2832SOL    HW220125   3.506   3.766   3.523
 2833SOL     OW20126   1.167   0.008  26.008
 2833SOL    HW120127   1.240   4.756  26.060
 2833SOL    HW220128   1.206   0.035  25.925
 2834SOL     OW20129   0.944   2.412   7.163
 2834SOL    HW120130   0.907   2.468   7.231
 2834SOL    HW220131   1.034   2.442   7.152
 2835SOL     OW20132   4.643   0.179  10.658
 2835SOL    HW120133   4.695   0.215  10.586
 2835SOL    HW220134   4.662   0.085  10.656
 2836SOL     OW20135   4.230   0.857   6.626
 2836SOL    HW120136   4.201   0.776   6.668
 2836SOL    HW220137   4.153   0.889   6.579
 2837SOL     OW20138   2.136   0.146   4.450
 2837SOL    HW120139   2.117   0.212   4.516
 2837SOL    HW220140   2.143   0.195   4.368
 2838SOL     OW20141   1.143   0.141  20.945
 2838SOL    HW120142   1.138   0.164  21.038
 2838SOL    HW220143   1.172   0.221  20.901
 2839SOL     OW20144   1.316   3.090  25.936
 2839SOL    HW120145   1.276   3.176  25.922
 2839SOL    HW220146   1.410   3.107  25.932
 2840SOL     OW20147   3.178   1.247  28.359
 2840SOL    HW120148   3.181   1.189  28.283
 2840SOL    HW220149   3.259   1.229  28.406
 2841SOL     OW20150   3.697   1.724  21.178
 2841SOL    HW120151   3.668   1.635  21.158
 2841SOL    HW220152   3.697   1.768  21.093
 2842SOL     OW20153   3.015   0.520  21.138
 2842SOL    HW120154   3.059   0.449  21.092
 2842SOL    HW220155   3.052   0.600  21.100
 2843SOL     OW20156   4.762   2.456   0.889
 2843SOL    HW120157   0.043   2.522   0.919
 2843SOL    HW220158   4.770   2.457   0.794
 2844SOL     OW20159   4.096   1.017  26.519
 2844SOL    HW120160   4.091   1.079  26.592
 2844SOL    HW220161   4.155   0.948  26.551
 2845SOL     OW20162   1.282   1.476  18.072
 2845SOL    HW120163   1.199   1.454  18.031
 2845SOL    HW220164   1.329   1.527  18.006
 2846SOL     OW20165   2.416   2.948  20.297
 2846SOL    HW120166   2.441   2.869  20.248
 2846SOL    HW220167   2.322   2.958  20.279
 2847SOL     OW20168   0.577   0.423  19.958
 2847SOL    HW120169   0.636   0.491  19.991
 2847SOL    HW220170   0.594   0.348  20.014
 2848SOL     OW20171   1.175   2.422   0.117
 2848SOL    HW120172   1.268   2.433   0.136
 2848SOL    HW220173   1.173   2.370   0.036
 2849SOL     OW20174   1.489   2.963  22.216
 2849SOL    HW120175   1.461   2.998  22.301
 2849SOL    HW220176   1.568   2.912  22.236
 2850SOL     OW20177   1.442   2.763   4.526
 2850SOL    HW120178   1.497   2.688   4.549
 2850SOL    HW220179   1.503   2.828   4.491
 2851SOL     OW20180   1.007   4.244  26.316
 2851SOL    HW120181   0.971   4.297  26.387
 2851SOL    HW220182   0.955   4.163  26.318
 2852SOL     OW20183   0.159   2.986  22.211
 2852SOL    HW120184   0.089   2.926  22.186
 2852SOL    HW220185   0.146   3.063  22.155
 2853SOL     OW20186   3.135   3.420   6.814
 2853SOL    HW120187   3.102   3.395   6.900
 2853SOL    HW220188   3.141   3.515   6.818
 2854SOL     OW20189   1.842   4.172   2.879
 2854SOL    HW120190   1.834   4.085   2.840
 2854SOL    HW220191   1.791   4.229   2.821
 2855SOL     OW20192   1.235   4.777  22.915
 2855SOL    HW120193   1.306   4.730  22.958
 2855SOL    HW220194   1.156   4.750  22.963
 2856SOL     OW20195   4.738   0.400  22.146
 2856SOL    HW120196   4.766   0.336  22.081
 2856SOL    HW220197   4.662   0.360  22.188
 2857SOL     OW20198   0.720   0.796  26.058
 2857SOL    HW120199   0.637   0.759  26.087
 2857SOL    HW220200   0.718   0.886  26.090
 2858SOL     OW20201   3.233   4.607  20.142
 2858SOL    HW120202   3.234   4.685  20.197
 2858SOL    HW220203   3.325   4.585  20.130
 2859SOL     OW20204   2.729   1.135   0.252
 2859SOL    HW120205   2.713   1.125   0.346
 2859SOL    HW220206   2.642   1.126   0.212
 2860SOL     OW20207   2.686   2.053   7.875
 2860SOL    HW120208   2.746   2.008   7.935
 2860SOL    HW220209   2.645   2.120   7.929
 2861SOL     OW20210   3.259   2.719  24.063
 2861SOL    HW120211   3.212   2.685  24.139
 2861SOL    HW220212   3.220   2.805  24.046
 2862SOL     OW20213   2.130   4.237  23.526
 2862SOL    HW120214   2.057   4.180  23.501
 2862SOL    HW220215   2.168   4.266  23.443
 2863SOL     OW20216   0.777   1.340   5.226
 2863SOL    HW120217   0.699   1.289   5.249
 2863SOL    HW220218   0.746   1.431   5.222
 2864SOL     OW20219   2.424   3.598  26.612
 2864SOL    HW120220   2.461   3.558  26.691
 2864SOL    HW220221   2.444   3.691  26.620
 2865SOL     OW20222   1.569   1.072  26.886
 2865SOL    HW120223   1.628   1.014  26.934
 2865SOL    HW220224   1.621   1.103  26.812
 2866SOL     OW20225   1.918   4.292   4.134
 2866SOL    HW120226   1.984   4.223   4.127
 2866SOL    HW220227   1.949   4.348   4.205
 2867SOL     OW20228   1.026   4.680   3.301
 2867SOL    HW120229   1.027   4.593   3.260
 2867SOL    HW220230   1.085   4.733   3.247
 2868SOL     OW20231   2.814   4.265   3.881
 2868SOL    HW120232   2.779   4.226   3.961
 2868SOL    HW220233   2.909   4.252   3.888
 2869SOL     OW20234   3.504   4.107   4.545
 2869SOL    HW120235   3.537   4.024   4.580
 2869SOL    HW220236   3.437   4.134   4.608
 2870SOL     OW20237   4.314   2.163   0.746
 2870SOL    HW120238   4.248   2.130   0.685
 2870SOL    HW220239   4.329   2.090   0.806
 2871SOL     OW20240   3.474   4.740  20.516
 2871SOL    HW120241   3.558   0.003  20.501
 2871SOL    HW220242   3.414   0.001  20.455
 2872SOL     OW20243   3.802   0.746  27.116
 2872SOL    HW120244   3.778   0.660  27.151
 2872SOL    HW220245   3.886   0.766  27.157
 2873SOL     OW20246   2.069   4.287  28.234
 2873SOL    HW120247   2.008   4.357  28.212
 2873SOL    HW220248   2.022   4.207  28.212
 2874SOL     OW20249   4.780   2.891  19.393
 2874SOL    HW120250   4.705   2.937  19.355
 2874SOL    HW220251   0.069   2.901  19.328
 2875SOL     OW20252   3.425   2.045  27.731
 2875SOL    HW120253   3.507   2.009  27.699
 2875SOL    HW220254   3.399   2.109  27.664
 2876SOL     OW20255   4.370   1.913   2.729
 2876SOL    HW120256   4.365   1.972   2.804
 2876SOL    HW220257   4.333   1.831   2.760
 2877SOL     OW20258   0.908   4.155  27.686
 2877SOL    HW120259   0.852   4.230  27.708
 2877SOL    HW220260   0.909   4.102  27.766
 2878SOL     OW20261   4.597   0.794   9.197
 2878SOL    HW120262   4.671   0.772   9.140
 2878SOL    HW220263   4.537   0.843   9.141
 2879SOL     OW20264   3.364   0.359  21.984
 2879SOL    HW120265   3.287   0.343  22.039
 2879SOL    HW220266   3.433   0.383  22.046
 2880SOL     OW20267   0.550   3.644   1.359
 2880SOL    HW120268   0.573   3.576   1.422
 2880SOL    HW220269   0.466   3.678   1.390
 2881SOL     OW20270   4.627   3.209   8.714
 2881SOL    HW120271   4.598   3.224   8.804
 2881SOL    HW220272   4.576   3.270   8.662
 2882SOL     OW20273   1.061   1.164   5.837
 2882SOL    HW120274   1.108   1.204   5.910
 2882SOL    HW220275   0.995   1.228   5.813
 2883SOL     OW20276   4.761   1.296   3.360
 2883SOL    HW120277   4.738   1.357   3.290
 2883SOL    HW220278   4.780   1.352   3.435
 2884SOL     OW20279   0.876   3.169  10.888
 2884SOL    HW120280   0.947   3.220  10.848
 2884SOL    HW220281   0.807   3.233  10.904
 2885SOL     OW20282   2.874   0.956   8.792
 2885SOL    HW120283   2.828   0.939   8.710
 2885SOL    HW220284   2.870   1.051   8.803
 2886SOL     OW20285   4.207   1.160   3.853
 2886SOL    HW120286   4.182   1.111   3.775
 2886SOL    HW220287   4.169   1.247   3.840
 2887SOL     OW20288   3.425   3.864  23.386
 2887SOL    HW120289   3.365   3.915  23.441
 2887SOL    HW220290   3.428   3.912  23.303
 2888SOL     OW20291   1.112   3.205  28.443
 2888SOL    HW120292   1.168   3.277  28.415
 2888SOL    HW220293   1.144   3.129  28.394
 2889SOL     OW20294   0.667   2.435  12.985
 2889SOL    HW120295   0.620   2.368  12.935
 2889SOL    HW220296   0.759   2.414  12.972
 2890SOL     OW20297   4.094   1.567   4.083
 2890SOL    HW120298   4.021   1.513   4.053
 2890SOL    HW220299   4.075   1.584   4.175
 2891SOL     OW20300   2.810   4.443  26.528
 2891SOL    HW120301   2.720   4.465  26.505
 2891SOL    HW220302   2.860   4.459  26.448
 2892SOL     OW20303   0.786   3.828  23.031
 2892SOL    HW120304   0.790   3.747  23.083
 2892SOL    HW220305   0.692   3.845  23.021
 2893SOL     OW20306   3.706   2.039  22.100
 2893SOL    HW120307   3.754   2.101  22.156
 2893SOL    HW220308   3.614   2.055  22.121
 2894SOL     OW20309   1.139   3.411  10.172
 2894SOL    HW120310   1.154   3.466  10.095
 2894SOL    HW220311   1.153   3.322  10.141
 2895SOL     OW20312   3.964   1.544  20.247
 2895SOL    HW120313   4.041   1.552  20.191
 2895SOL    HW220314   3.901   1.496  20.193
 2896SOL     OW20315   2.356   2.047  24.823
 2896SOL    HW120316   2.274   2.089  24.848
 2896SOL    HW220317   2.353   1.961  24.866
 2897SOL     OW20318   3.265   3.487  21.515
 2897SOL    HW120319   3.243   3.468  21.606
 2897SOL    HW220320   3.323   3.415  21.489
 2898SOL     OW20321   3.288   0.322   1.319
 2898SOL    HW120322   3.325   0.410   1.322
 2898SOL    HW220323   3.342   0.275   1.255
 2899SOL     OW20324   2.502   3.657   1.600
 2899SOL    HW120325   2.444   3.645   1.675
 2899SOL    HW220326   2.443   3.667   1.526
 2900SOL     OW20327   1.284   3.889   6.425
 2900SOL    HW120328   1.320   3.918   6.341
 2900SOL    HW220329   1.219   3.956   6.448
 2901SOL     OW20330   1.014   0.260  22.987
 2901SOL    HW120331   1.021   0.165  22.997
 2901SOL    HW220332   0.956   0.272  22.912
 2902SOL     OW20333   0.406   2.584   4.541
 2902SOL    HW120334   0.495   2.549   4.537
 2902SOL    HW220335   0.385   2.606   4.450
 2903SOL     OW20336   0.253   3.841   8.675
 2903SOL    HW120337   0.256   3.912   8.739
 2903SOL    HW220338   0.241   3.885   8.591
 2904SOL     OW20339   4.632   0.888   2.185
 2904SOL    HW120340   4.689   0.882   2.261
 2904SOL    HW220341   4.678   0.839   2.117
 2905SOL     OW20342   1.929   3.236  23.515
 2905SOL    HW120343   2.018   3.239  23.550
 2905SOL    HW220344   1.874   3.215  23.590
 2906SOL     OW20345   1.675   4.243   6.944
 2906SOL    HW120346   1.747   4.211   6.998
 2906SOL    HW220347   1.634   4.164   6.909
 2907SOL     OW20348   3.162   3.919  19.598
 2907SOL    HW120349   3.176   4.009  19.626
 2907SOL    HW220350   3.209   3.866  19.662
 2908SOL     OW20351   2.146   4.531  25.521
 2908SOL    HW120352   2.180   4.442  25.518
 2908SOL    HW220353   2.067   4.529  25.466
 2909SOL     OW20354   2.919   1.510   1.032
 2909SOL    HW120355   2.933   1.494   0.939
 2909SOL    HW220356   2.824   1.514   1.042
 2910SOL     OW20357   2.205   1.143  27.724
 2910SOL    HW120358   2.195   1.206  27.653
 2910SOL    HW220359   2.299   1.129  27.730
 2911SOL     OW20360   0.443   2.524  26.328
 2911SOL    HW120361   0.406   2.445  26.366
 2911SOL    HW220362   0.512   2.550  26.390
 2912SOL     OW20363   4.482   2.267   8.165
 2912SOL    HW120364   4.560   2.310   8.200
 2912SOL    HW220365   4.455   2.207   8.234
 2913SOL     OW20366   1.719   3.286  26.813
 2913SOL    HW120367   1.772   3.365  26.809
 2913SOL    HW220368   1.653   3.305  26.880
 2914SOL     OW20369   4.660   1.150   1.512
 2914SOL    HW120370   4.679   1.202   1.590
 2914SOL    HW220371   4.674   1.059   1.539
 2915SOL     OW20372   4.097   0.933  28.056
 2915SOL    HW120373   4.147   1.006  28.020
 2915SOL    HW220374   4.125   0.927  28.147
 2916SOL     OW20375   3.983   3.752   5.079
 2916SOL    HW120376   4.055   3.783   5.134
 2916SOL    HW220377   4.022   3.683   5.025
 2917SOL     OW20378   2.770   4.698   6.485
 2917SOL    HW120379   2.700   4.763   6.486
 2917SOL    HW220380   2.804   4.698   6.575
 2918SOL     OW20381   3.899   1.595   8.038
 2918SOL    HW120382   3.939   1.576   7.953
 2918SOL    HW220383   3.817   1.546   8.037
 2919SOL     OW20384   3.875   3.579  22.943
 2919SOL    HW120385   3.804   3.603  23.003
 2919SOL    HW220386   3.871   3.646  22.875
 2920SOL     OW20387   3.530   0.626  23.663
 2920SOL    HW120388   3.481   0.654  23.586
 2920SOL    HW220389   3.465   0.624  23.733
 2921SOL     OW20390   1.720   2.595  28.412
 2921SOL    HW120391   1.803   2.549  28.398
 2921SOL    HW220392   1.656   2.542  28.364
 2922SOL     OW20393   3.602   4.538  18.643
 2922SOL    HW120394   3.596   4.587  18.725
 2922SOL    HW220395   3.673   4.475  18.658
 2923SOL     OW20396   2.602   3.572  11.722
 2923SOL    HW120397   2.695   3.553  11.731
 2923SOL    HW220398   2.563   3.490  11.691
 2924SOL     OW20399   1.160   4.465  23.276
 2924SOL    HW120400   1.160   4.539  23.216
 2924SOL    HW220401   1.135   4.390  23.222
 2925SOL     OW20402   1.786   3.138   6.794
 2925SOL    HW120403   1.879   3.141   6.773
 2925SOL    HW220404   1.771   3.049   6.826
 2926SOL     OW20405   0.369   1.515   3.147
 2926SOL    HW120406   0.409   1.441   3.102
 2926SOL    HW220407   0.351   1.482   3.235
 2927SOL     OW20408   0.810   3.580  23.180
 2927SOL    HW120409   0.758   3.510  23.219
 2927SOL    HW220410   0.896   3.572  23.221
 2928SOL     OW20411   3.072   1.672  21.805
 2928SOL    HW120412   3.119   1.725  21.869
 2928SOL    HW220413   2.992   1.645  21.850
 2929SOL     OW20414   2.482   0.903  16.807
 2929SOL    HW120415   2.511   0.970  16.745
 2929SOL    HW220416   2.555   0.893  16.868
 2930SOL     OW20417   1.652   1.563  25.463
 2930SOL    HW120418   1.658   1.484  25.517
 2930SOL    HW220419   1.560   1.568  25.437
 2931SOL     OW20420   4.269   0.069  23.918
 2931SOL    HW120421   4.179   0.098  23.930
 2931SOL    HW220422   4.261   4.756  23.899
 2932SOL     OW20423   1.004   2.288  24.466
 2932SOL    HW120424   0.980   2.380  24.474
 2932SOL    HW220425   1.067   2.273  24.537
 2933SOL     OW20426   0.222   4.520  20.250
 2933SOL    HW120427   0.231   4.432  20.214
 2933SOL    HW220428   0.128   4.536  20.251
 2934SOL     OW20429   0.874   2.587   5.424
 2934SOL    HW120430   0.857   2.591   5.518
 2934SOL    HW220431   0.826   2.661   5.387
 2935SOL     OW20432   2.864   2.167  18.352
 2935SOL    HW120433   2.790   2.122  18.311
 2935SOL    HW220434   2.896   2.227  18.284
 2936SOL     OW20435   4.230   3.759   6.289
 2936SOL    HW120436   4.141   3.763   6.254
 2936SOL    HW220437   4.258   3.669   6.271
 2937SOL     OW20438   4.777   4.552  21.300
 2937SOL    HW120439   0.061   4.622  21.299
 2937SOL    HW220440   4.713   4.579  21.366
 2938SOL     OW20441   4.395   1.500  10.548
 2938SOL    HW120442   4.366   1.576  10.498
 2938SOL    HW220443   4.408   1.431  10.482
 2939SOL     OW20444   3.343   2.875   1.024
 2939SOL    HW120445   3.389   2.897   0.943
 2939SOL    HW220446   3.412   2.858   1.088
 2940SOL     OW20447   1.021   2.755   4.892
 2940SOL    HW120448   1.001   2.848   4.883
 2940SOL    HW220449   1.083   2.751   4.964
 2941SOL     OW20450   0.631   2.726  21.689
 2941SOL    HW120451   0.650   2.808  21.643
 2941SOL    HW220452   0.712   2.675  21.680
 2942SOL     OW20453   3.034   4.609   9.432
 2942SOL    HW120454   2.956   4.664   9.422
 2942SOL    HW220455   3.106   4.662   9.398
 2943SOL     OW20456   3.949   4.339   0.470
 2943SOL    HW120457   4.040   4.355   0.495
 2943SOL    HW220458   3.911   4.426   0.460
 2944SOL     OW20459   4.709   4.240  27.932
 2944SOL    HW120460   0.007   4.238  27.878
 2944SOL    HW220461   4.740   4.228  28.022
 2945SOL     OW20462   4.069   2.218   9.148
 2945SOL    HW120463   3.982   2.190   9.176
 2945SOL    HW220464   4.111   2.138   9.116
 2946SOL     OW20465   1.850   0.670   6.598
 2946SOL    HW120466   1.775   0.685   6.541
 2946SOL    HW220467   1.890   0.589   6.566
 2947SOL     OW20468   3.241   0.631  19.926
 2947SOL    HW120469   3.218   0.540  19.946
 2947SOL    HW220470   3.159   0.679  19.938
 2948SOL     OW20471   4.017   4.059   5.247
 2948SOL    HW120472   4.079   4.129   5.268
 2948SOL    HW220473   4.071   3.992   5.205
 2949SOL     OW20474   0.783   2.702  20.444
 2949SOL    HW120475   0.775   2.665  20.532
 2949SOL    HW220476   0.789   2.625  20.387
 2950SOL     OW20477   2.155   4.219   0.886
 2950SOL    HW120478   2.221   4.268   0.934
 2950SOL    HW220479   2.081   4.214   0.946
 2951SOL     OW20480   2.563   2.773  23.450
 2951SOL    HW120481   2.499   2.709  23.418
 2951SOL    HW220482   2.640   2.721  23.473
 2952SOL     OW20483   4.113   3.161   4.166
 2952SOL    HW120484   4.187   3.120   4.121
 2952SOL    HW220485   4.093   3.102   4.239
 2953SOL     OW20486   1.997   1.568  21.996
 2953SOL    HW120487   1.971   1.480  22.025
 2953SOL    HW220488   1.914   1.615  21.985
 2954SOL     OW20489   4.444   4.412  20.521
 2954SOL    HW120490   4.415   4.429  20.432
 2954SOL    HW220491   4.538   4.397  20.513
 2955SOL     OW20492   2.699   2.887  21.215
 2955SOL    HW120493   2.639   2.918  21.283
 2955SOL    HW220494   2.786   2.902  21.251
 2956SOL     OW20495   3.355   3.548  25.183
 2956SOL    HW120496   3.274   3.596  25.166
 2956SOL    HW220497   3.423   3.599  25.138
 2957SOL     OW20498   0.356   2.400  20.709
 2957SOL    HW120499   0.268   2.420  20.676
 2957SOL    HW220500   0.373   2.469  20.774
 2958SOL     OW20501   3.062   3.506   5.492
 2958SOL    HW120502   3.133   3.536   5.549
 2958SOL    HW220503   3.101   3.506   5.404
 2959SOL     OW20504   2.656   0.686  25.377
 2959SOL    HW120505   2.564   0.678  25.351
 2959SOL    HW220506   2.681   0.775  25.351
 2960SOL     OW20507   1.621   1.964  25.217
 2960SOL    HW120508   1.603   1.947  25.309
 2960SOL    HW220509   1.586   2.052  25.202
 2961SOL     OW20510   4.596   4.660  23.734
 2961SOL    HW120511   4.596   4.756  23.732
 2961SOL    HW220512   4.603   4.638  23.827
 2962SOL     OW20513   0.339   2.082  26.676
 2962SOL    HW120514   0.415   2.035  26.642
 2962SOL    HW220515   0.307   2.028  26.748
 2963SOL     OW20516   4.689   2.571  20.513
 2963SOL    HW120517   4.633   2.646  20.532
 2963SOL    HW220518   4.684   2.561  20.418
 2964SOL     OW20519   4.388   0.309  24.268
 2964SOL    HW120520   4.354   0.363  24.197
 2964SOL    HW220521   4.310   0.282  24.317
 2965SOL     OW20522   1.924   0.975  27.263
 2965SOL    HW120523   1.913   0.880  27.255
 2965SOL    HW220524   2.001   0.986  27.319
 2966SOL     OW20525   3.069   4.521  16.211
 2966SOL    HW120526   3.042   4.576  16.137
 2966SOL    HW220527   3.093   4.437  16.171
 2967SOL     OW20528   1.416   3.536  23.257
 2967SOL    HW120529   1.408   3.561  23.165
 2967SOL    HW220530   1.431   3.441  23.255
 2968SOL     OW20531   2.964   2.834   3.526
 2968SOL    HW120532   2.972   2.765   3.460
 2968SOL    HW220533   3.046   2.883   3.519
 2969SOL     OW20534   2.857   1.341   1.765
 2969SOL    HW120535   2.858   1.437   1.765
 2969SOL    HW220536   2.949   1.316   1.772
 2970SOL     OW20537   1.665   0.333  28.008
 2970SOL    HW120538   1.586   0.318  27.956
 2970SOL    HW220539   1.725   0.379  27.949
 2971SOL     OW20540   4.723   3.992  20.811
 2971SOL    HW120541   4.660   3.925  20.785
 2971SOL    HW220542   4.676   4.075  20.800
 2972SOL     OW20543   0.420   3.647   7.691
 2972SOL    HW120544   0.505   3.656   7.734
 2972SOL    HW220545   0.416   3.722   7.631
 2973SOL     OW20546   4.473   3.180   1.609
 2973SOL    HW120547   4.410   3.220   1.668
 2973SOL    HW220548   4.422   3.156   1.532
 2974SOL     OW20549   3.569   0.458  22.166
 2974SOL    HW120550   3.657   0.429  22.142
 2974SOL    HW220551   3.582   0.544  22.206
 2975SOL     OW20552   2.736   4.206   2.821
 2975SOL    HW120553   2.786   4.202   2.739
 2975SOL    HW220554   2.792   4.163   2.886
 2976SOL     OW20555   4.219   3.440  26.509
 2976SOL    HW120556   4.226   3.535  26.519
 2976SOL    HW220557   4.125   3.423  26.505
 2977SOL     OW20558   2.753   2.479  10.285
 2977SOL    HW120559   2.712   2.550  10.236
 2977SOL    HW220560   2.832   2.519  10.323
 2978SOL     OW20561   4.550   1.567   6.034
 2978SOL    HW120562   4.530   1.658   6.055
 2978SOL    HW220563   4.528   1.518   6.113
 2979SOL     OW20564   2.381   0.635   6.518
 2979SOL    HW120565   2.352   0.634   6.427
 2979SOL    HW220566   2.440   0.710   6.523
 2980SOL     OW20567   2.334   3.490   3.459
 2980SOL    HW120568   2.318   3.398   3.439
 2980SOL    HW220569   2.259   3.517   3.511
 2981SOL     OW20570   1.954   0.400  21.085
 2981SOL    HW120571   1.944   0.376  20.993
 2981SOL    HW220572   1.987   0.490  21.083
 2982SOL     OW20573   1.516   2.184   4.360
 2982SOL    HW120574   1.497   2.251   4.294
 2982SOL    HW220575   1.610   2.190   4.374
 2983SOL     OW20576   4.567   0.838  28.287
 2983SOL    HW120577   4.507   0.899  28.244
 2983SOL    HW220578   4.512   0.764  28.313
 2984SOL     OW20579   4.160   1.936   0.649
 2984SOL    HW120580   4.067   1.914   0.647
 2984SOL    HW220581   4.184   1.932   0.742
 2985SOL     OW20582   1.434   2.426  27.570
 2985SOL    HW120583   1.352   2.414  27.618
 2985SOL    HW220584   1.501   2.391  27.628
 2986SOL     OW20585   1.566   1.369  22.985
 2986SOL    HW120586   1.522   1.291  23.019
 2986SOL    HW220587   1.508   1.441  23.009
 2987SOL     OW20588   0.884   4.735  24.580
 2987SOL    HW120589   0.877   0.001  24.497
 2987SOL    HW220590   0.926   4.652  24.557
 2988SOL     OW20591   1.450   1.868  27.698
 2988SOL    HW120592   1.447   1.961  27.719
 2988SOL    HW220593   1.506   1.863  27.621
 2989SOL     OW20594   4.261   1.580   0.520
 2989SOL    HW120595   4.169   1.581   0.546
 2989SOL    HW220596   4.278   1.668   0.487
 2990SOL     OW20597   1.184   4.468   8.976
 2990SOL    HW120598   1.248   4.528   9.014
 2990SOL    HW220599   1.219   4.447   8.889
 2991SOL     OW20600   4.644   3.081   5.871
 2991SOL    HW120601   4.560   3.124   5.855
 2991SOL    HW220602   4.641   3.002   5.818
 2992SOL     OW20603   0.486   0.329  25.914
 2992SOL    HW120604   0.402   0.284  25.917
 2992SOL    HW220605   0.465   0.421  25.928
 2993SOL     OW20606   0.939   4.277   2.961
 2993SOL    HW120607   1.010   4.213   2.952
 2993SOL    HW220608   0.941   4.326   2.879
 2994SOL     OW20609   3.496   4.426  20.027
 2994SOL    HW120610   3.450   4.367  19.967
 2994SOL    HW220611   3.467   4.398  20.114
 2995SOL     OW20612   0.823   4.170  28.070
 2995SOL    HW120613   0.894   4.234  28.062
 2995SOL    HW220614   0.860   4.089  28.033
 2996SOL     OW20615   1.147   0.647   5.745
 2996SOL    HW120616   1.131   0.553   5.734
 2996SOL    HW220617   1.241   0.654   5.764
 2997SOL     OW20618   0.344   3.984   4.176
 2997SOL    HW120619   0.342   4.034   4.257
 2997SOL    HW220620   0.313   3.897   4.201
 2998SOL     OW20621   1.814   0.667   3.982
 2998SOL    HW120622   1.839   0.637   4.069
 2998SOL    HW220623   1.737   0.615   3.960
 2999SOL     OW20624   1.823   3.896   3.112
 2999SOL    HW120625   1.803   3.808   3.144
 2999SOL    HW220626   1.792   3.896   3.022
 3000SOL     OW20627   2.596   0.219   5.876
 3000SOL    HW120628   2.662   0.260   5.821
 3000SOL    HW220629   2.627   0.129   5.887
 3001SOL     OW20630   0.256   0.920   1.723
 3001SOL    HW120631   0.285   0.971   1.798
 3001SOL    HW220632   0.301   0.959   1.648
 3002SOL     OW20633   0.014   4.072  20.268
 3002SOL    HW120634   4.716   4.107  20.227
 3002SOL    HW220635   0.039   3.997  20.214
 3003SOL     OW20636   4.690   0.164   3.551
 3003SOL    HW120637   0.004   0.175   3.555
 3003SOL    HW220638   4.675   0.073   3.577
 3004SOL     OW20639   1.521   1.609   1.187
 3004SOL    HW120640   1.500   1.598   1.280
 3004SOL    HW220641   1.603   1.561   1.176
 3005SOL     OW20642   3.797   0.635  21.699
 3005SOL    HW120643   3.806   0.714  21.646
 3005SOL    HW220644   3.828   0.660  21.786
 3006SOL     OW20645   2.560   1.490  23.658
 3006SOL    HW120646   2.552   1.402  23.695
 3006SOL    HW220647   2.502   1.490  23.582
 3007SOL     OW20648   3.463   0.886  26.256
 3007SOL    HW120649   3.498   0.797  26.248
 3007SOL    HW220650   3.369   0.873  26.270
 3008SOL     OW20651   4.211   1.763  27.073
 3008SOL    HW120652   4.139   1.822  27.049
 3008SOL    HW220653   4.252   1.805  27.148
 3009SOL     OW20654   2.367   3.656  10.800
 3009SOL    HW120655   2.336   3.566  10.813
 3009SOL    HW220656   2.418   3.675  10.879
 3010SOL     OW20657   4.250   2.561  19.536
 3010SOL    HW120658   4.219   2.632  19.481
 3010SOL    HW220659   4.233   2.591  19.625
 3011SOL     OW20660   2.594   0.304   3.996
 3011SOL    HW120661   2.598   0.253   3.915
 3011SOL    HW220662   2.503   0.299   4.024
 3012SOL     OW20663   1.147   4.763   2.390
 3012SOL    HW120664   1.138   4.777   2.484
 3012SOL    HW220665   1.152   4.668   2.381
 3013SOL     OW20666   3.656   1.743   7.900
 3013SOL    HW120667   3.746   1.764   7.923
 3013SOL    HW220668   3.619   1.705   7.980
 3014SOL     OW20669   0.806   2.937  20.291
 3014SOL    HW120670   0.809   2.855  20.341
 3014SOL    HW220671   0.713   2.954  20.279
 3015SOL     OW20672   1.321   2.210  18.023
 3015SOL    HW120673   1.306   2.147  17.952
 3015SOL    HW220674   1.281   2.291  17.992
 3016SOL     OW20675   1.776   3.490  21.802
 3016SOL    HW120676   1.751   3.563  21.745
 3016SOL    HW220677   1.780   3.528  21.890
 3017SOL     OW20678   3.575   3.967   8.560
 3017SOL    HW120679   3.533   4.000   8.481
 3017SOL    HW220680   3.509   3.912   8.602
 3018SOL     OW20681   1.143   3.845   7.802
 3018SOL    HW120682   1.121   3.758   7.835
 3018SOL    HW220683   1.059   3.888   7.789
 3019SOL     OW20684   2.873   2.326  10.115
 3019SOL    HW120685   2.914   2.391  10.058
 3019SOL    HW220686   2.857   2.373  10.197
 3020SOL     OW20687   3.887   1.117   1.610
 3020SOL    HW120688   3.878   1.023   1.592
 3020SOL    HW220689   3.909   1.121   1.703
 3021SOL     OW20690   1.035   0.105  16.995
 3021SOL    HW120691   1.083   0.050  16.934
 3021SOL    HW220692   0.965   0.048  17.028
 3022SOL     OW20693   0.058   1.130   0.073
 3022SOL    HW120694   0.146   1.167   0.081
 3022SOL    HW220695   0.046   1.079   0.153
 3023SOL     OW20696   3.791   2.846  24.389
 3023SOL    HW120697   3.757   2.759  24.408
 3023SOL    HW220698   3.777   2.857  24.295
 3024SOL     OW20699   2.846   4.530   1.381
 3024SOL    HW120700   2.830   4.508   1.473
 3024SOL    HW220701   2.820   4.622   1.374
 3025SOL     OW20702   0.627   3.516   1.651
 3025SOL    HW120703   0.721   3.535   1.647
 3025SOL    HW220704   0.618   3.434   1.603
 3026SOL     OW20705   2.895   1.551  23.440
 3026SOL    HW120706   2.881   1.459  23.418
 3026SOL    HW220707   2.988   1.556  23.464
 3027SOL     OW20708   3.326   2.329  26.364
 3027SOL    HW120709   3.336   2.239  26.334
 3027SOL    HW220710   3.234   2.350  26.347
 3028SOL     OW20711   1.331   1.361  17.443
 3028SOL    HW120712   1.361   1.416  17.515
 3028SOL    HW220713   1.235   1.367  17.447
 3029SOL     OW20714   1.571   1.565   0.922
 3029SOL    HW120715   1.554   1.658   0.906
 3029SOL    HW220716   1.531   1.548   1.007
 3030SOL     OW20717   2.918   3.154  22.343
 3030SOL    HW120718   2.976   3.206  22.287
 3030SOL    HW220719   2.947   3.173  22.432
 3031SOL     OW20720   3.750   2.655  24.772
 3031SOL    HW120721   3.754   2.750  24.766
 3031SOL    HW220722   3.665   2.636  24.812
 3032SOL     OW20723   4.732   1.959  10.530
 3032SOL    HW120724   4.740   2.050  10.559
 3032SOL    HW220725   0.008   1.953  10.453
 3033SOL     OW20726   2.268   1.939   2.243
 3033SOL    HW120727   2.328   1.994   2.192
 3033SOL    HW220728   2.181   1.976   2.225
 3034SOL     OW20729   3.018   0.485  22.623
 3034SOL    HW120730   3.021   0.463  22.530
 3034SOL    HW220731   3.110   0.497  22.647
 3035SOL     OW20732   2.169   2.586   1.590
 3035SOL    HW120733   2.179   2.496   1.558
 3035SOL    HW220734   2.113   2.628   1.525
 3036SOL     OW20735   3.067   1.735  20.842
 3036SOL    HW120736   3.015   1.794  20.897
 3036SOL    HW220737   3.148   1.783  20.825
 3037SOL     OW20738   4.568   0.944  22.418
 3037SOL    HW120739   4.578   1.018  22.358
 3037SOL    HW220740   4.478   0.915  22.405
 3038SOL     OW20741   4.198   2.951   1.143
 3038SOL    HW120742   4.268   2.888   1.160
 3038SOL    HW220743   4.147   2.951   1.224
 3039SOL     OW20744   2.173   3.527  28.123
 3039SOL    HW120745   2.238   3.533  28.193
 3039SOL    HW220746   2.210   3.464  28.062
 3040SOL     OW20747   0.653   3.830   9.984
 3040SOL    HW120748   0.746   3.841  10.002
 3040SOL    HW220749   0.625   3.914   9.948
 3041SOL     OW20750   0.854   4.003  26.266
 3041SOL    HW120751   0.882   3.942  26.335
 3041SOL    HW220752   0.758   4.002  26.271
 3042SOL     OW20753   0.240   2.789   6.564
 3042SOL    HW120754   0.279   2.704   6.585
 3042SOL    HW220755   0.310   2.852   6.580
 3043SOL     OW20756   4.477   4.444   0.631
 3043SOL    HW120757   4.498   4.529   0.670
 3043SOL    HW220758   4.420   4.465   0.557
 3044SOL     OW20759   4.729   2.247   7.703
 3044SOL    HW120760   0.001   2.205   7.635
 3044SOL    HW220761   4.765   2.214   7.785
 3045SOL     OW20762   3.894   0.489   6.473
 3045SOL    HW120763   3.804   0.473   6.502
 3045SOL    HW220764   3.891   0.476   6.378
 3046SOL     OW20765   3.696   0.749  10.788
 3046SOL    HW120766   3.756   0.805  10.836
 3046SOL    HW220767   3.744   0.725  10.709
 3047SOL     OW20768   1.457   3.849   5.533
 3047SOL    HW120769   1.520   3.802   5.478
 3047SOL    HW220770   1.444   3.933   5.488
 3048SOL     OW20771   2.381   1.971   3.115
 3048SOL    HW120772   2.308   2.002   3.168
 3048SOL    HW220773   2.457   2.017   3.150
 3049SOL     OW20774   1.666   3.101   0.110
 3049SOL    HW120775   1.611   3.121   0.186
 3049SOL    HW220776   1.720   3.027   0.138
 3050SOL     OW20777   1.106   1.758  18.300
 3050SOL    HW120778   1.036   1.740  18.237
 3050SOL    HW220779   1.129   1.850  18.286
 3051SOL     OW20780   2.562   2.812  20.989
 3051SOL    HW120781   2.591   2.832  21.078
 3051SOL    HW220782   2.481   2.762  21.001
 3052SOL     OW20783   2.316   4.456  24.680
 3052SOL    HW120784   2.376   4.506  24.624
 3052SOL    HW220785   2.368   4.381  24.709
 3053SOL     OW20786   0.157   0.926  10.040
 3053SOL    HW120787   0.167   0.981   9.962
 3053SOL    HW220788   0.100   0.855  10.012
 3054SOL     OW20789   1.850   0.769  17.910
 3054SOL    HW120790   1.911   0.831  17.871
 3054SOL    HW220791   1.817   0.813  17.988
 3055SOL     OW20792   1.388   4.069   6.642
 3055SOL    HW120793   1.438   4.023   6.575
 3055SOL    HW220794   1.297   4.052   6.620
 3056SOL     OW20795   1.605   3.062   4.982
 3056SOL    HW120796   1.609   2.966   4.983
 3056SOL    HW220797   1.550   3.084   5.057
 3057SOL     OW20798   2.795   4.331   0.755
 3057SOL    HW120799   2.815   4.414   0.798
 3057SOL    HW220800   2.737   4.286   0.817
 3058SOL     OW20801   3.680   1.881   3.218
 3058SOL    HW120802   3.690   1.811   3.283
 3058SOL    HW220803   3.593   1.918   3.235
 3059SOL     OW20804   1.949   2.516  20.016
 3059SOL    HW120805   2.038   2.526  19.984
 3059SOL    HW220806   1.894   2.546  19.944
 3060SOL     OW20807   3.227   4.223  22.088
 3060SOL    HW120808   3.143   4.184  22.112
 3060SOL    HW220809   3.240   4.198  21.997
 3061SOL     OW20810   3.005   4.020  16.136
 3061SOL    HW120811   2.986   3.943  16.082
 3061SOL    HW220812   2.991   3.990  16.226
 3062SOL     OW20813   3.340   2.735  27.754
 3062SOL    HW120814   3.337   2.722  27.849
 3062SOL    HW220815   3.277   2.673  27.719
 3063SOL     OW20816   2.682   1.983  23.400
 3063SOL    HW120817   2.683   2.062  23.454
 3063SOL    HW220818   2.739   1.922  23.446
 3064SOL     OW20819   1.665   2.619  20.169
 3064SOL    HW120820   1.686   2.684  20.236
 3064SOL    HW220821   1.647   2.671  20.091
 3065SOL     OW20822   2.098   4.744   5.574
 3065SOL    HW120823   2.059   4.682   5.636
 3065SOL    HW220824   2.037   4.746   5.501
 3066SOL     OW20825   3.403   2.295  23.100
 3066SOL    HW120826   3.401   2.353  23.176
 3066SOL    HW220827   3.454   2.343  23.035
 3067SOL     OW20828   2.760   4.507   6.217
 3067SOL    HW120829   2.683   4.451   6.209
 3067SOL    HW220830   2.752   4.546   6.304
 3068SOL     OW20831   4.466   0.252   6.612
 3068SOL    HW120832   4.398   0.292   6.667
 3068SOL    HW220833   4.517   0.198   6.672
 3069SOL     OW20834   1.815   3.893  23.261
 3069SOL    HW120835   1.738   3.947  23.242
 3069SOL    HW220836   1.780   3.814  23.301
 3070SOL     OW20837   3.646   1.308  27.162
 3070SOL    HW120838   3.664   1.371  27.092
 3070SOL    HW220839   3.559   1.274  27.142
 3071SOL     OW20840   4.067   3.980   1.989
 3071SOL    HW120841   4.019   3.905   2.023
 3071SOL    HW220842   4.043   4.052   2.048
 3072SOL     OW20843   2.949   0.519   0.826
 3072SOL    HW120844   2.910   0.470   0.898
 3072SOL    HW220845   3.042   0.499   0.831
 3073SOL     OW20846   2.656   3.300   0.868
 3073SOL    HW120847   2.618   3.385   0.890
 3073SOL    HW220848   2.724   3.320   0.803
 3074SOL     OW20849   1.377   2.572   0.838
 3074SOL    HW120850   1.352   2.664   0.838
 3074SOL    HW220851   1.323   2.533   0.769
 3075SOL     OW20852   2.273   1.644  22.445
 3075SOL    HW120853   2.178   1.650  22.434
 3075SOL    HW220854   2.309   1.693  22.371
 3076SOL     OW20855   0.805   4.139   7.457
 3076SOL    HW120856   0.750   4.162   7.382
 3076SOL    HW220857   0.755   4.167   7.534
 3077SOL     OW20858   2.719   2.704   5.711
 3077SOL    HW120859   2.809   2.724   5.685
 3077SOL    HW220860   2.705   2.614   5.681
 3078SOL     OW20861   2.637   3.378   4.945
 3078SOL    HW120862   2.715   3.350   4.897
 3078SOL    HW220863   2.671   3.423   5.022
 3079SOL     OW20864   2.569   3.202   7.036
 3079SOL    HW120865   2.594   3.181   6.946
 3079SOL    HW220866   2.517   3.282   7.028
 3080SOL     OW20867   4.548   2.225  24.800
 3080SOL    HW120868   4.594   2.250  24.880
 3080SOL    HW220869   4.473   2.284  24.795
 3081SOL     OW20870   0.523   4.711   0.540
 3081SOL    HW120871   0.519   4.627   0.586
 3081SOL    HW220872   0.547   4.774   0.608
 3082SOL     OW20873   4.458   0.425   1.067
 3082SOL    HW120874   4.364   0.427   1.083
 3082SOL    HW220875   4.478   0.332   1.057
 3083SOL     OW20876   0.423   3.677   2.766
 3083SOL    HW120877   0.505   3.681   2.815
 3083SOL    HW220878   0.435   3.604   2.705
 3084SOL     OW20879   3.528   4.082  20.304
 3084SOL    HW120880   3.503   4.027  20.378
 3084SOL    HW220881   3.619   4.105  20.320
 3085SOL     OW20882   1.439   1.254   6.375
 3085SOL    HW120883   1.437   1.327   6.313
 3085SOL    HW220884   1.465   1.293   6.458
 3086SOL     OW20885   1.735   2.213  26.914
 3086SOL    HW120886   1.797   2.141  26.906
 3086SOL    HW220887   1.784   2.290  26.883
 3087SOL     OW20888   2.416   2.101   6.299
 3087SOL    HW120889   2.394   2.052   6.379
 3087SOL    HW220890   2.344   2.163   6.288
 3088SOL     OW20891   2.751   1.680   8.219
 3088SOL    HW120892   2.766   1.768   8.254
 3088SOL    HW220893   2.837   1.638   8.224
 3089SOL     OW20894   2.677   0.782   5.692
 3089SOL    HW120895   2.637   0.695   5.684
 3089SOL    HW220896   2.752   0.769   5.750
 3090SOL     OW20897   1.417   4.662  23.084
 3090SOL    HW120898   1.386   4.579  23.047
 3090SOL    HW220899   1.513   4.655  23.083
 3091SOL     OW20900   0.552   0.411   2.012
 3091SOL    HW120901   0.463   0.444   1.998
 3091SOL    HW220902   0.541   0.316   2.022
 3092SOL     OW20903   1.142   3.210  26.230
 3092SOL    HW120904   1.145   3.232  26.137
 3092SOL    HW220905   1.127   3.116  26.232
 3093SOL     OW20906   2.524   1.638  27.323
 3093SOL    HW120907   2.588   1.707  27.306
 3093SOL    HW220908   2.574   1.568  27.365
 3094SOL     OW20909   2.756   3.665   3.369
 3094SOL    HW120910   2.800   3.749   3.384
 3094SOL    HW220911   2.698   3.655   3.444
 3095SOL     OW20912   3.623   1.422   3.898
 3095SOL    HW120913   3.588   1.335   3.878
 3095SOL    HW220914   3.554   1.482   3.869
 3096SOL     OW20915   3.166   3.841  21.237
 3096SOL    HW120916   3.100   3.832  21.168
 3096SOL    HW220917   3.207   3.755  21.243
 3097SOL     OW20918   0.899   1.525  26.412
 3097SOL    HW120919   0.927   1.600  26.360
 3097SOL    HW220920   0.976   1.468  26.415
 3098SOL     OW20921   4.699   4.462   3.657
 3098SOL    HW120922   4.606   4.440   3.663
 3098SOL    HW220923   4.701   4.549   3.617
 3099SOL     OW20924   3.381   2.196  28.015
 3099SOL    HW120925   3.388   2.134  27.942
 3099SOL    HW220926   3.469   2.200  28.052
 3100SOL     OW20927   0.250   0.681  24.656
 3100SOL    HW120928   0.188   0.753  24.669
 3100SOL    HW220929   0.333   0.724  24.637
 3101SOL     OW20930   2.788   0.909  25.926
 3101SOL    HW120931   2.849   0.983  25.928
 3101SOL    HW220932   2.746   0.915  25.840
 3102SOL     OW20933   1.994   4.141   7.842
 3102SOL    HW120934   1.906   4.166   7.813
 3102SOL    HW220935   2.025   4.216   7.893
 3103SOL     OW20936   2.544   2.911   3.717
 3103SOL    HW120937   2.480   2.886   3.651
 3103SOL    HW220938   2.495   2.965   3.779
 3104SOL     OW20939   4.438   1.116   8.517
 3104SOL    HW120940   4.487   1.045   8.560
 3104SOL    HW220941   4.496   1.147   8.448
 3105SOL     OW20942   4.692   1.235   9.211
 3105SOL    HW120943   4.725   1.197   9.129
 3105SOL    HW220944   4.677   1.159   9.268
 3106SOL     OW20945   4.590   1.287   6.214
 3106SOL    HW120946   4.549   1.352   6.271
 3106SOL    HW220947   4.610   1.214   6.272
 3107SOL     OW20948   2.121   1.855   5.960
 3107SOL    HW120949   2.066   1.795   6.010
 3107SOL    HW220950   2.172   1.901   6.026
 3108SOL     OW20951   0.552   2.807  25.418
 3108SOL    HW120952   0.473   2.758  25.442
 3108SOL    HW220953   0.567   2.784  25.326
 3109SOL     OW20954   0.925   2.905   4.476
 3109SOL    HW120955   0.906   2.908   4.382
 3109SOL    HW220956   0.934   2.812   4.495
 3110SOL     OW20957   2.036   1.963   3.962
 3110SOL    HW120958   2.092   1.978   4.038
 3110SOL    HW220959   2.047   1.870   3.941
 3111SOL     OW20960   0.932   4.531  28.242
 3111SOL    HW120961   0.940   4.602  28.179
 3111SOL    HW220962   0.893   4.572  28.319
 3112SOL     OW20963   0.023   2.522  19.377
 3112SOL    HW120964   0.097   2.581  19.394
 3112SOL    HW220965   4.740   2.576  19.330
 3113SOL     OW20966   0.590   0.368   7.857
 3113SOL    HW120967   0.685   0.362   7.868
 3113SOL    HW220968   0.572   0.316   7.779
 3114SOL     OW20969   0.893   4.275   5.967
 3114SOL    HW120970   0.856   4.223   6.038
 3114SOL    HW220971   0.862   4.364   5.983
 3115SOL     OW20972   0.195   2.379   6.098
 3115SOL    HW120973   0.229   2.338   6.178
 3115SOL    HW220974   0.209   2.313   6.030
 3116SOL     OW20975   3.712   1.247  27.963
 3116SOL    HW120976   3.718   1.161  28.004
 3116SOL    HW220977   3.768   1.240  27.885
 3117SOL     OW20978   2.834   4.040   2.047
 3117SOL    HW120979   2.813   4.054   2.139
 3117SOL    HW220980   2.770   4.092   1.999
 3118SOL     OW20981   2.003   1.604   2.707
 3118SOL    HW120982   1.970   1.682   2.663
 3118SOL    HW220983   1.924   1.558   2.737
 3119SOL     OW20984   3.506   3.633   3.107
 3119SOL    HW120985   3.505   3.728   3.098
 3119SOL    HW220986   3.591   3.613   3.147
 3120SOL     OW20987   2.622   3.017   5.222
 3120SOL    HW120988   2.652   2.943   5.170
 3120SOL    HW220989   2.703   3.057   5.254
 3121SOL     OW20990   3.282   2.652  19.259
 3121SOL    HW120991   3.191   2.626  19.272
 3121SOL    HW220992   3.311   2.599  19.184
 3122SOL     OW20993   0.962   3.349  20.957
 3122SOL    HW120994   1.030   3.309  21.011
 3122SOL    HW220995   1.009   3.384  20.881
 3123SOL     OW20996   2.136   3.319   4.891
 3123SOL    HW120997   2.098   3.233   4.872
 3123SOL    HW220998   2.227   3.301   4.915
 3124SOL     OW20999   3.352   4.402  26.829
 3124SOL    HW121000   3.390   4.334  26.885
 3124SOL    HW221001   3.382   4.484  26.868
 3125SOL     OW21002   3.992   1.742   2.550
 3125SOL    HW121003   4.048   1.674   2.511
 3125SOL    HW221004   3.923   1.757   2.485
 3126SOL     OW21005   4.654   1.390   2.892
 3126SOL    HW121006   4.660   1.325   2.822
 3126SOL    HW221007   4.743   1.396   2.927
 3127SOL     OW21008   3.508   3.031   8.285
 3127SOL    HW121009   3.581   2.974   8.263
 3127SOL    HW221010   3.547   3.101   8.337
 3128SOL     OW21011   0.483   3.829   7.094
 3128SOL    HW121012   0.505   3.784   7.176
 3128SOL    HW221013   0.567   3.838   7.049
 3129SOL     OW21014   1.993   2.978   0.407
 3129SOL    HW121015   1.983   2.888   0.438
 3129SOL    HW221016   2.070   2.975   0.351
 3130SOL     OW21017   0.272   1.388  23.243
 3130SOL    HW121018   0.225   1.335  23.178
 3130SOL    HW221019   0.361   1.393  23.209
 3131SOL     OW21020   2.731   1.628  27.747
 3131SOL    HW121021   2.642   1.663  27.750
 3131SOL    HW221022   2.740   1.576  27.827
 3132SOL     OW21023   4.424   2.802  26.290
 3132SOL    HW121024   4.369   2.725  26.276
 3132SOL    HW221025   4.482   2.777  26.361
 3133SOL     OW21026   1.325   2.878   7.495
 3133SOL    HW121027   1.302   2.787   7.512
 3133SOL    HW221028   1.414   2.874   7.460
 3134SOL     OW21029   3.155   1.208  21.870
 3134SOL    HW121030   3.219   1.278  21.859
 3134SOL    HW221031   3.181   1.163  21.951
 3135SOL     OW21032   1.632   0.945   4.203
 3135SOL    HW121033   1.597   0.857   4.188
 3135SOL    HW221034   1.705   0.932   4.263
 3136SOL     OW21035   2.707   4.495  27.131
 3136SOL    HW121036   2.711   4.515  27.037
 3136SOL    HW221037   2.788   4.531  27.167
 3137SOL     OW21038   1.765   2.673  26.755
 3137SOL    HW121039   1.680   2.704  26.724
 3137SOL    HW221040   1.764   2.692  26.849
 3138SOL     OW21041   1.508   2.892  19.657
 3138SOL    HW121042   1.435   2.863  19.601
 3138SOL    HW221043   1.577   2.827  19.642
 3139SOL     OW21044   2.966   1.947   5.017
 3139SOL    HW121045   2.919   2.025   4.988
 3139SOL    HW221046   2.960   1.887   4.943
 3140SOL     OW21047   0.201   4.317  23.600
 3140SOL    HW121048   0.243   4.363  23.673
 3140SOL    HW221049   0.129   4.375  23.574
 3141SOL     OW21050   2.230   1.227  20.713
 3141SOL    HW121051   2.292   1.155  20.716
 3141SOL    HW221052   2.190   1.221  20.626
 3142SOL     OW21053   2.496   4.283  28.023
 3142SOL    HW121054   2.423   4.300  27.964
 3142SOL    HW221055   2.505   4.363  28.074
 3143SOL     OW21056   2.806   4.052  26.799
 3143SOL    HW121057   2.763   4.089  26.876
 3143SOL    HW221058   2.825   4.128  26.744
 3144SOL     OW21059   3.871   4.222  25.613
 3144SOL    HW121060   3.896   4.267  25.694
 3144SOL    HW221061   3.905   4.278  25.543
 3145SOL     OW21062   2.235   4.100   2.398
 3145SOL    HW121063   2.265   4.020   2.440
 3145SOL    HW221064   2.255   4.169   2.461
 3146SOL     OW21065   2.738   1.689  22.347
 3146SOL    HW121066   2.664   1.663  22.292
 3146SOL    HW221067   2.812   1.698  22.287
 3147SOL     OW21068   3.813   0.875   0.372
 3147SOL    HW121069   3.851   0.876   0.460
 3147SOL    HW221070   3.854   0.949   0.327
 3148SOL     OW21071   3.038   4.068  27.249
 3148SOL    HW121072   3.111   4.006  27.249
 3148SOL    HW221073   2.963   4.016  27.277
 3149SOL     OW21074   2.528   3.003  28.166
 3149SOL    HW121075   2.612   3.048  28.156
 3149SOL    HW221076   2.503   3.019  28.257
 3150SOL     OW21077   0.445   2.198   9.373
 3150SOL    HW121078   0.490   2.117   9.350
 3150SOL    HW221079   0.448   2.201   9.469
 3151SOL     OW21080   3.152   1.451  22.668
 3151SOL    HW121081   3.100   1.531  22.662
 3151SOL    HW221082   3.090   1.381  22.646
 3152SOL     OW21083   1.227   3.133  19.243
 3152SOL    HW121084   1.298   3.115  19.181
 3152SOL    HW221085   1.157   3.072  19.218
 3153SOL     OW21086   1.592   1.931  25.516
 3153SOL    HW121087   1.615   1.951  25.607
 3153SOL    HW221088   1.502   1.898  25.521
 3154SOL     OW21089   4.102   3.895   4.427
 3154SOL    HW121090   4.033   3.895   4.493
 3154SOL    HW221091   4.059   3.865   4.347
 3155SOL     OW21092   0.872   4.226   5.292
 3155SOL    HW121093   0.867   4.130   5.293
 3155SOL    HW221094   0.827   4.254   5.372
 3156SOL     OW21095   0.759   1.506  12.797
 3156SOL    HW121096   0.830   1.446  12.818
 3156SOL    HW221097   0.683   1.470  12.842
 3157SOL     OW21098   0.716   3.462  23.934
 3157SOL    HW121099   0.763   3.513  23.868
 3157SOL    HW221100   0.712   3.520  24.010
 3158SOL     OW21101   2.859   0.493  18.669
 3158SOL    HW121102   2.889   0.405  18.644
 3158SOL    HW221103   2.886   0.549  18.596
 3159SOL     OW21104   2.085   4.031   9.259
 3159SOL    HW121105   1.991   4.024   9.246
 3159SOL    HW221106   2.122   3.957   9.210
 3160SOL     OW21107   3.228   0.659  23.425
 3160SOL    HW121108   3.182   0.637  23.344
 3160SOL    HW221109   3.159   0.683  23.486
 3161SOL     OW21110   0.744   4.767   9.345
 3161SOL    HW121111   0.837   4.772   9.321
 3161SOL    HW221112   0.744   4.745   9.438
 3162SOL     OW21113   1.197   1.260  17.725
 3162SOL    HW121114   1.197   1.191  17.791
 3162SOL    HW221115   1.244   1.222  17.651
 3163SOL     OW21116   2.192   1.720   0.866
 3163SOL    HW121117   2.110   1.768   0.874
 3163SOL    HW221118   2.260   1.786   0.883
 3164SOL     OW21119   4.516   0.132  28.119
 3164SOL    HW121120   4.492   0.126  28.027
 3164SOL    HW221121   4.512   0.225  28.139
 3165SOL     OW21122   1.897   4.681   7.264
 3165SOL    HW121123   1.820   4.724   7.302
 3165SOL    HW221124   1.970   4.738   7.287
 3166SOL     OW21125   0.995   3.312   7.718
 3166SOL    HW121126   1.080   3.274   7.741
 3166SOL    HW221127   0.938   3.236   7.703
 3167SOL     OW21128   4.452   0.891  19.421
 3167SOL    HW121129   4.423   0.890  19.512
 3167SOL    HW221130   4.545   0.867  19.426
 3168SOL     OW21131   3.624   3.297  10.583
 3168SOL    HW121132   3.716   3.294  10.610
 3168SOL    HW221133   3.586   3.217  10.618
 3169SOL     OW21134   3.462   2.788  19.388
 3169SOL    HW121135   3.536   2.728  19.377
 3169SOL    HW221136   3.389   2.743  19.346
 3170SOL     OW21137   1.329   1.850   9.290
 3170SOL    HW121138   1.319   1.918   9.224
 3170SOL    HW221139   1.253   1.860   9.347
 3171SOL     OW21140   2.597   4.053   8.905
 3171SOL    HW121141   2.679   4.098   8.886
 3171SOL    HW221142   2.599   4.037   8.999
 3172SOL     OW21143   4.393   4.537   6.408
 3172SOL    HW121144   4.405   4.450   6.446
 3172SOL    HW221145   4.429   4.597   6.474
 3173SOL     OW21146   4.364   2.693  20.035
 3173SOL    HW121147   4.338   2.697  20.127
 3173SOL    HW221148   4.456   2.718  20.035
 3174SOL     OW21149   3.903   0.190  25.281
 3174SOL    HW121150   3.933   0.127  25.215
 3174SOL    HW221151   3.818   0.157  25.310
 3175SOL     OW21152   1.759   1.208   9.666
 3175SOL    HW121153   1.737   1.124   9.706
 3175SOL    HW221154   1.681   1.261   9.678
 3176SOL     OW21155   2.645   0.560  23.387
 3176SOL    HW121156   2.601   0.622  23.329
 3176SOL    HW221157   2.655   0.607  23.470
 3177SOL     OW21158   3.542   3.730  26.044
 3177SOL    HW121159   3.585   3.803  26.088
 3177SOL    HW221160   3.451   3.757  26.036
 3178SOL     OW21161   2.597   2.172   6.047
 3178SOL    HW121162   2.599   2.089   5.999
 3178SOL    HW221163   2.519   2.165   6.103
 3179SOL     OW21164   0.684   3.892  15.637
 3179SOL    HW121165   0.779   3.885  15.627
 3179SOL    HW221166   0.660   3.968  15.585
 3180SOL     OW21167   1.905   3.342  22.224
 3180SOL    HW121168   1.883   3.250  22.241
 3180SOL    HW221169   1.913   3.381  22.311
 3181SOL     OW21170   1.351   2.644  23.974
 3181SOL    HW121171   1.418   2.710  23.959
 3181SOL    HW221172   1.399   2.561  23.974
 3182SOL     OW21173   1.689   2.045  21.838
 3182SOL    HW121174   1.698   2.124  21.785
 3182SOL    HW221175   1.614   2.063  21.895
 3183SOL     OW21176   1.942   3.425   7.826
 3183SOL    HW121177   1.904   3.510   7.849
 3183SOL    HW221178   1.958   3.431   7.732
 3184SOL     OW21179   4.029   1.621   4.491
 3184SOL    HW121180   3.945   1.603   4.533
 3184SOL    HW221181   4.005   1.664   4.409
 3185SOL     OW21182   0.642   0.256   4.246
 3185SOL    HW121183   0.623   0.198   4.320
 3185SOL    HW221184   0.729   0.292   4.266
 3186SOL     OW21185   3.335   1.308  20.488
 3186SOL    HW121186   3.287   1.238  20.532
 3186SOL    HW221187   3.411   1.325  20.544
 3187SOL     OW21188   2.904   3.945   7.429
 3187SOL    HW121189   2.869   3.978   7.346
 3187SOL    HW221190   2.895   4.018   7.490
 3188SOL     OW21191   1.581   2.862  25.993
 3188SOL    HW121192   1.616   2.944  25.958
 3188SOL    HW221193   1.630   2.847  26.074
 3189SOL     OW21194   0.003   4.495  25.837
 3189SOL    HW121195   4.770   4.477  25.744
 3189SOL    HW221196   0.033   4.586  25.840
 3190SOL     OW21197   3.555   2.738  23.748
 3190SOL    HW121198   3.471   2.756  23.706
 3190SOL    HW221199   3.616   2.799  23.707
 3191SOL     OW21200   2.407   3.372   1.973
 3191SOL    HW121201   2.401   3.382   2.068
 3191SOL    HW221202   2.501   3.364   1.956
 3192SOL     OW21203   0.937   3.877  26.662
 3192SOL    HW121204   0.885   3.866  26.741
 3192SOL    HW221205   0.996   3.801  26.662
 3193SOL     OW21206   3.866   3.194   2.045
 3193SOL    HW121207   3.849   3.122   1.985
 3193SOL    HW221208   3.939   3.242   2.005
 3194SOL     OW21209   1.224   1.920  22.729
 3194SOL    HW121210   1.291   1.949  22.791
 3194SOL    HW221211   1.165   1.866  22.781
 3195SOL     OW21212   0.873   3.199  26.581
 3195SOL    HW121213   0.821   3.231  26.655
 3195SOL    HW221214   0.898   3.110  26.606
 3196SOL     OW21215   0.698   2.780   9.547
 3196SOL    HW121216   0.608   2.786   9.578
 3196SOL    HW221217   0.750   2.773   9.627
 3197SOL     OW21218   1.357   3.393  19.668
 3197SOL    HW121219   1.302   3.368  19.594
 3197SOL    HW221220   1.434   3.434  19.628
 3198SOL     OW21221   0.630   4.415  21.663
 3198SOL    HW121222   0.615   4.339  21.719
 3198SOL    HW221223   0.615   4.490  21.720
 3199SOL     OW21224   1.710   1.344  25.878
 3199SOL    HW121225   1.722   1.408  25.808
 3199SOL    HW221226   1.799   1.321  25.905
 3200SOL     OW21227   4.465   2.520   0.732
 3200SOL    HW121228   4.406   2.461   0.779
 3200SOL    HW221229   4.519   2.560   0.800
 3201SOL     OW21230   4.142   1.512  22.870
 3201SOL    HW121231   4.131   1.428  22.914
 3201SOL    HW221232   4.230   1.541  22.896
 3202SOL     OW21233   0.809   1.880  24.777
 3202SOL    HW121234   0.889   1.932  24.770
 3202SOL    HW221235   0.743   1.932  24.732
 3203SOL     OW21236   4.776   4.257  26.757
 3203SOL    HW121237   4.731   4.183  26.797
 3203SOL    HW221238   0.088   4.237  26.765
 3204SOL     OW21239   0.228   3.149   4.971
 3204SOL    HW121240   0.162   3.082   4.950
 3204SOL    HW221241   0.282   3.155   4.892
 3205SOL     OW21242   2.042   3.743  23.966
 3205SOL    HW121243   1.980   3.716  23.898
 3205SOL    HW221244   2.118   3.686  23.953
 3206SOL     OW21245   4.324   3.397  23.056
 3206SOL    HW121246   4.383   3.419  23.128
 3206SOL    HW221247   4.335   3.303  23.044
 3207SOL     OW21248   0.706   1.134  18.381
 3207SOL    HW121249   0.669   1.111  18.466
 3207SOL    HW221250   0.788   1.084  18.376
 3208SOL     OW21251   3.391   1.547  28.003
 3208SOL    HW121252   3.302   1.556  27.969
 3208SOL    HW221253   3.427   1.635  27.998
 3209SOL     OW21254   2.696   3.449  20.858
 3209SOL    HW121255   2.748   3.525  20.834
 3209SOL    HW221256   2.689   3.398  20.777
 3210SOL     OW21257   0.354   4.622  16.892
 3210SOL    HW121258   0.319   4.709  16.912
 3210SOL    HW221259   0.300   4.591  16.820
 3211SOL     OW21260   1.158   1.721   6.948
 3211SOL    HW121261   1.198   1.703   7.033
 3211SOL    HW221262   1.181   1.812   6.929
 3212SOL     OW21263   0.619   1.160   2.179
 3212SOL    HW121264   0.710   1.182   2.197
 3212SOL    HW221265   0.612   1.068   2.204
 3213SOL     OW21266   2.096   4.749  21.396
 3213SOL    HW121267   2.023   4.732  21.456
 3213SOL    HW221268   2.107   0.063  21.398
 3214SOL     OW21269   0.433   0.270  25.037
 3214SOL    HW121270   0.436   0.321  24.956
 3214SOL    HW221271   0.418   0.180  25.008
 3215SOL     OW21272   1.318   3.324   8.450
 3215SOL    HW121273   1.336   3.293   8.361
 3215SOL    HW221274   1.241   3.274   8.478
 3216SOL     OW21275   0.907   2.964  26.012
 3216SOL    HW121276   0.945   3.050  25.993
 3216SOL    HW221277   0.969   2.902  25.975
 3217SOL     OW21278   3.088   0.944  22.710
 3217SOL    HW121279   3.035   0.912  22.637
 3217SOL    HW221280   3.174   0.961  22.672
 3218SOL     OW21281   4.454   1.989   7.431
 3218SOL    HW121282   4.530   1.975   7.487
 3218SOL    HW221283   4.418   1.901   7.416
 3219SOL     OW21284   0.242   0.470  27.378
 3219SOL    HW121285   0.218   0.383  27.346
 3219SOL    HW221286   0.197   0.530  27.319
 3220SOL     OW21287   0.977   3.806  25.194
 3220SOL    HW121288   0.979   3.888  25.146
 3220SOL    HW221289   1.031   3.746  25.142
 3221SOL     OW21290   4.779   1.311  26.059
 3221SOL    HW121291   4.744   1.353  25.980
 3221SOL    HW221292   0.037   1.229  26.027
 3222SOL     OW21293   1.085   1.139   9.007
 3222SOL    HW121294   1.176   1.109   9.009
 3222SOL    HW221295   1.053   1.123   9.096
 3223SOL     OW21296   0.689   2.215  26.112
 3223SOL    HW121297   0.604   2.243  26.078
 3223SOL    HW221298   0.752   2.276  26.074
 3224SOL     OW21299   0.463   3.322  25.946
 3224SOL    HW121300   0.553   3.350  25.963
 3224SOL    HW221301   0.456   3.323  25.851
 3225SOL     OW21302   3.328   2.454  24.536
 3225SOL    HW121303   3.259   2.510  24.500
 3225SOL    HW221304   3.402   2.513  24.549
 3226SOL     OW21305   2.872   3.707  18.181
 3226SOL    HW121306   2.872   3.708  18.085
 3226SOL    HW221307   2.781   3.688  18.204
 3227SOL     OW21308   4.281   0.387  24.008
 3227SOL    HW121309   4.268   0.296  24.035
 3227SOL    HW221310   4.215   0.401  23.940
 3228SOL     OW21311   0.981   3.206   5.113
 3228SOL    HW121312   1.074   3.204   5.135
 3228SOL    HW221313   0.969   3.288   5.065
 3229SOL     OW21314   0.121   2.215  25.352
 3229SOL    HW121315   0.114   2.123  25.327
 3229SOL    HW221316   0.035   2.252  25.331
 3230SOL     OW21317   2.431   3.862  24.563
 3230SOL    HW121318   2.485   3.784  24.578
 3230SOL    HW221319   2.371   3.836  24.493
 3231SOL     OW21320   3.606   3.479   6.369
 3231SOL    HW121321   3.669   3.541   6.405
 3231SOL    HW221322   3.595   3.505   6.278
 3232SOL     OW21323   2.450   0.311   4.645
 3232SOL    HW121324   2.519   0.357   4.693
 3232SOL    HW221325   2.418   0.245   4.707
 3233SOL     OW21326   4.704   0.472   7.617
 3233SOL    HW121327   0.014   0.473   7.587
 3233SOL    HW221328   4.652   0.473   7.536
 3234SOL     OW21329   4.489   0.610   4.671
 3234SOL    HW121330   4.467   0.701   4.690
 3234SOL    HW221331   4.443   0.590   4.590
 3235SOL     OW21332   0.390   2.118  22.087
 3235SOL    HW121333   0.336   2.178  22.036
 3235SOL    HW221334   0.358   2.127  22.177
 3236SOL     OW21335   2.232   2.800   5.756
 3236SOL    HW121336   2.292   2.743   5.709
 3236SOL    HW221337   2.288   2.852   5.814
 3237SOL     OW21338   2.167   3.545  17.493
 3237SOL    HW121339   2.165   3.557  17.398
 3237SOL    HW221340   2.198   3.455  17.506
 3238SOL     OW21341   1.995   3.810   7.241
 3238SOL    HW121342   2.028   3.896   7.267
 3238SOL    HW221343   1.981   3.817   7.147
 3239SOL     OW21344   4.745   1.141  24.671
 3239SOL    HW121345   0.011   1.221  24.647
 3239SOL    HW221346   4.686   1.168  24.741
 3240SOL     OW21347   0.424   1.671  20.133
 3240SOL    HW121348   0.329   1.667  20.137
 3240SOL    HW221349   0.454   1.603  20.194
 3241SOL     OW21350   0.255   3.982   3.265
 3241SOL    HW121351   0.199   3.955   3.192
 3241SOL    HW221352   0.318   4.043   3.226
 3242SOL     OW21353   1.018   3.301  20.539
 3242SOL    HW121354   0.923   3.306  20.547
 3242SOL    HW221355   1.035   3.209  20.519
 3243SOL     OW21356   4.299   4.518   7.999
 3243SOL    HW121357   4.208   4.540   7.981
 3243SOL    HW221358   4.305   4.424   7.982
 3244SOL     OW21359   1.863   3.153  10.794
 3244SOL    HW121360   1.917   3.112  10.726
 3244SOL    HW221361   1.904   3.238  10.810
 3245SOL     OW21362   4.721   3.249   6.949
 3245SOL    HW121363   4.730   3.339   6.981
 3245SOL    HW221364   0.029   3.224   6.923
 3246SOL     OW21365   3.928   2.242  22.928
 3246SOL    HW121366   3.925   2.257  23.023
 3246SOL    HW221367   3.836   2.240  22.901
 3247SOL     OW21368   4.006   4.355   7.385
 3247SOL    HW121369   4.064   4.405   7.442
 3247SOL    HW221370   3.941   4.419   7.355
 3248SOL     OW21371   0.712   1.095   5.906
 3248SOL    HW121372   0.753   1.174   5.870
 3248SOL    HW221373   0.783   1.031   5.909
 3249SOL     OW21374   4.480   4.346   2.479
 3249SOL    HW121375   4.420   4.340   2.405
 3249SOL    HW221376   4.425   4.374   2.552
 3250SOL     OW21377   2.981   4.369   2.054
 3250SOL    HW121378   2.928   4.382   1.975
 3250SOL    HW221379   2.922   4.325   2.115
 3251SOL     OW21380   2.302   0.878  24.442
 3251SOL    HW121381   2.347   0.954  24.479
 3251SOL    HW221382   2.350   0.858  24.361
 3252SOL     OW21383   1.086   4.131  19.052
 3252SOL    HW121384   1.146   4.074  19.100
 3252SOL    HW221385   1.080   4.210  19.106
 3253SOL     OW21386   3.274   3.088  20.778
 3253SOL    HW121387   3.353   3.079  20.831
 3253SOL    HW221388   3.259   3.182  20.775
 3254SOL     OW21389   2.817   2.124   6.962
 3254SOL    HW121390   2.770   2.057   7.012
 3254SOL    HW221391   2.797   2.104   6.871
 3255SOL     OW21392   2.864   3.959  19.783
 3255SOL    HW121393   2.771   3.970  19.803
 3255SOL    HW221394   2.877   4.005  19.700
 3256SOL     OW21395   4.518   4.561   8.130
 3256SOL    HW121396   4.436   4.566   8.080
 3256SOL    HW221397   4.502   4.616   8.207
 3257SOL     OW21398   1.377   2.300  24.869
 3257SOL    HW121399   1.405   2.209  24.861
 3257SOL    HW221400   1.433   2.336  24.938
 3258SOL     OW21401   1.122   3.830   3.031
 3258SOL    HW121402   1.198   3.796   3.078
 3258SOL    HW221403   1.157   3.900   2.977
 3259SOL     OW21404   4.163   3.063   6.493
 3259SOL    HW121405   4.075   3.098   6.507
 3259SOL    HW221406   4.220   3.121   6.544
 3260SOL     OW21407   3.746   4.336   8.400
 3260SOL    HW121408   3.761   4.321   8.493
 3260SOL    HW221409   3.710   4.253   8.368
 3261SOL     OW21410   0.699   0.971   0.667
 3261SOL    HW121411   0.672   0.880   0.657
 3261SOL    HW221412   0.697   0.987   0.761
 3262SOL     OW21413   0.669   3.810   0.233
 3262SOL    HW121414   0.704   3.888   0.189
 3262SOL    HW221415   0.651   3.749   0.162
 3263SOL     OW21416   2.811   1.242  27.748
 3263SOL    HW121417   2.894   1.288  27.757
 3263SOL    HW221418   2.815   1.201  27.661
 3264SOL     OW21419   1.876   0.527   8.616
 3264SOL    HW121420   1.962   0.523   8.657
 3264SOL    HW221421   1.839   0.609   8.648
 3265SOL     OW21422   2.677   2.699   8.539
 3265SOL    HW121423   2.754   2.643   8.531
 3265SOL    HW221424   2.712   2.788   8.535
 3266SOL     OW21425   1.521   0.177  25.883
 3266SOL    HW121426   1.458   0.203  25.815
 3266SOL    HW221427   1.591   0.242  25.876
 3267SOL     OW21428   4.464   3.814   0.109
 3267SOL    HW121429   4.478   3.903   0.141
 3267SOL    HW221430   4.370   3.800   0.117
 3268SOL     OW21431   3.481   3.894  27.908
 3268SOL    HW121432   3.526   3.810  27.913
 3268SOL    HW221433   3.396   3.873  27.870
 3269SOL     OW21434   4.204   4.362  21.003
 3269SOL    HW121435   4.181   4.434  21.061
 3269SOL    HW221436   4.262   4.401  20.937
 3270SOL     OW21437   4.290   0.278   5.704
 3270SOL    HW121438   4.362   0.318   5.654
 3270SOL    HW221439   4.232   0.241   5.637
 3271SOL     OW21440   4.274   2.953  22.160
 3271SOL    HW121441   4.213   2.992  22.223
 3271SOL    HW221442   4.259   3.002  22.079
 3272SOL     OW21443   4.210   3.952  20.349
 3272SOL    HW121444   4.207   3.887  20.279
 3272SOL    HW221445   4.284   4.008  20.327
 3273SOL     OW21446   3.203   2.179   1.423
 3273SOL    HW121447   3.288   2.200   1.463
 3273SOL    HW221448   3.168   2.264   1.395
 3274SOL     OW21449   1.910   0.147  18.492
 3274SOL    HW121450   1.901   0.242  18.495
 3274SOL    HW221451   1.927   0.127  18.400
 3275SOL     OW21452   1.353   2.864   8.918
 3275SOL    HW121453   1.296   2.863   8.995
 3275SOL    HW221454   1.403   2.783   8.924
 3276SOL     OW21455   0.093   3.130   3.906
 3276SOL    HW121456   0.172   3.110   3.956
 3276SOL    HW221457   0.041   3.185   3.964
 3277SOL     OW21458   1.750   4.333  25.714
 3277SOL    HW121459   1.803   4.306  25.639
 3277SOL    HW221460   1.709   4.252  25.745
 3278SOL     OW21461   2.882   3.208  27.889
 3278SOL    HW121462   2.869   3.267  27.963
 3278SOL    HW221463   2.871   3.264  27.812
 3279SOL     OW21464   0.661   1.185  17.820
 3279SOL    HW121465   0.570   1.210  17.806
 3279SOL    HW221466   0.696   1.255  17.875
 3280SOL     OW21467   2.690   3.553   9.968
 3280SOL    HW121468   2.743   3.622   9.927
 3280SOL    HW221469   2.708   3.475   9.915
 3281SOL     OW21470   1.042   3.898  24.163
 3281SOL    HW121471   1.002   3.847  24.093
 3281SOL    HW221472   1.059   3.834  24.232
 3282SOL     OW21473   2.921   4.157  22.387
 3282SOL    HW121474   3.010   4.137  22.417
 3282SOL    HW221475   2.926   4.149  22.292
 3283SOL     OW21476   1.086   3.775  22.946
 3283SOL    HW121477   1.043   3.833  23.009
 3283SOL    HW221478   1.015   3.722  22.911
 3284SOL     OW21479   0.797   2.980   5.489
 3284SOL    HW121480   0.791   3.062   5.439
 3284SOL    HW221481   0.717   2.978   5.542
 3285SOL     OW21482   3.301   3.089  21.218
 3285SOL    HW121483   3.233   3.152  21.195
 3285SOL    HW221484   3.362   3.138  21.273
 3286SOL     OW21485   1.296   0.750  25.590
 3286SOL    HW121486   1.309   0.808  25.665
 3286SOL    HW221487   1.284   0.663  25.628
 3287SOL     OW21488   1.943   1.565   0.525
 3287SOL    HW121489   1.900   1.486   0.493
 3287SOL    HW221490   1.989   1.537   0.604
 3288SOL     OW21491   3.276   1.364   9.892
 3288SOL    HW121492   3.241   1.276   9.905
 3288SOL    HW221493   3.340   1.375   9.963
 3289SOL     OW21494   2.171   1.798  26.069
 3289SOL    HW121495   2.146   1.879  26.113
 3289SOL    HW221496   2.264   1.786  26.090
 3290SOL     OW21497   1.277   1.920   8.414
 3290SOL    HW121498   1.221   1.905   8.490
 3290SOL    HW221499   1.365   1.928   8.451
 3291SOL     OW21500   3.937   2.997   2.275
 3291SOL    HW121501   3.852   3.031   2.248
 3291SOL    HW221502   3.999   3.068   2.256
 3292SOL     OW21503   2.671   1.390   3.088
 3292SOL    HW121504   2.681   1.482   3.111
 3292SOL    HW221505   2.589   1.386   3.039
 3293SOL     OW21506   1.450   4.703  20.981
 3293SOL    HW121507   1.443   4.762  21.056
 3293SOL    HW221508   1.436   4.759  20.905
 3294SOL     OW21509   4.450   3.325  18.964
 3294SOL    HW121510   4.503   3.370  19.030
 3294SOL    HW221511   4.360   3.348  18.986
 3295SOL     OW21512   2.772   3.980  23.208
 3295SOL    HW121513   2.738   3.891  23.215
 3295SOL    HW221514   2.813   3.984  23.122
 3296SOL     OW21515   3.312   3.259   2.644
 3296SOL    HW121516   3.386   3.205   2.616
 3296SOL    HW221517   3.333   3.347   2.614
 3297SOL     OW21518   1.084   2.582  24.462
 3297SOL    HW121519   1.112   2.638  24.390
 3297SOL    HW221520   1.077   2.641  24.537
 3298SOL     OW21521   3.692   2.824  17.434
 3298SOL    HW121522   3.664   2.875  17.358
 3298SOL    HW221523   3.721   2.889  17.497
 3299SOL     OW21524   4.345   2.859  26.738
 3299SOL    HW121525   4.331   2.946  26.776
 3299SOL    HW221526   4.316   2.867  26.647
 3300SOL     OW21527   0.471   0.062  24.331
 3300SOL    HW121528   0.444   4.751  24.337
 3300SOL    HW221529   0.538   0.072  24.398
 3301SOL     OW21530   1.915   0.731   0.719
 3301SOL    HW121531   1.860   0.735   0.797
 3301SOL    HW221532   1.972   0.808   0.726
 3302SOL     OW21533   1.696   3.400  19.729
 3302SOL    HW121534   1.755   3.473  19.748
 3302SOL    HW221535   1.641   3.431  19.657
 3303SOL     OW21536   0.262   0.803   0.500
 3303SOL    HW121537   0.204   0.727   0.494
 3303SOL    HW221538   0.305   0.808   0.415
 3304SOL     OW21539   0.104   3.139   3.068
 3304SOL    HW121540   0.057   3.150   2.985
 3304SOL    HW221541   0.155   3.219   3.078
 3305SOL     OW21542   4.443   4.175  22.669
 3305SOL    HW121543   4.439   4.206  22.578
 3305SOL    HW221544   4.483   4.088  22.663
 3306SOL     OW21545   0.119   2.269   2.011
 3306SOL    HW121546   0.119   2.183   2.053
 3306SOL    HW221547   0.104   2.250   1.918
 3307SOL     OW21548   0.248   4.325   4.830
 3307SOL    HW121549   0.272   4.391   4.766
 3307SOL    HW221550   0.317   4.330   4.897
 3308SOL     OW21551   0.393   2.105  21.620
 3308SOL    HW121552   0.331   2.054  21.672
 3308SOL    HW221553   0.364   2.196  21.631
 3309SOL     OW21554   2.885   3.911  24.641
 3309SOL    HW121555   2.953   3.875  24.698
 3309SOL    HW221556   2.904   4.005  24.637
 3310SOL     OW21557   4.244   3.758   5.466
 3310SOL    HW121558   4.318   3.817   5.451
 3310SOL    HW221559   4.180   3.811   5.513
 3311SOL     OW21560   0.875   1.199  18.844
 3311SOL    HW121561   0.792   1.151  18.845
 3311SOL    HW221562   0.926   1.157  18.775
 3312SOL     OW21563   3.163   0.785   1.718
 3312SOL    HW121564   3.197   0.874   1.721
 3312SOL    HW221565   3.080   0.790   1.765
 3313SOL     OW21566   1.639   4.506  24.927
 3313SOL    HW121567   1.599   4.548  24.851
 3313SOL    HW221568   1.665   4.579  24.984
 3314SOL     OW21569   0.853   2.811  10.163
 3314SOL    HW121570   0.912   2.741  10.190
 3314SOL    HW221571   0.784   2.812  10.230
 3315SOL     OW21572   0.492   1.206  23.752
 3315SOL    HW121573   0.584   1.223  23.732
 3315SOL    HW221574   0.452   1.190  23.667
 3316SOL     OW21575   4.380   4.733  27.653
 3316SOL    HW121576   4.326   4.680  27.711
 3316SOL    HW221577   4.435   0.003  27.712
 3317SOL     OW21578   2.065   4.701  25.108
 3317SOL    HW121579   2.093   4.655  25.029
 3317SOL    HW221580   2.001   4.642  25.148
 3318SOL     OW21581   2.455   1.574  26.409
 3318SOL    HW121582   2.501   1.649  26.446
 3318SOL    HW221583   2.471   1.580  26.315
 3319SOL     OW21584   2.540   1.311  21.668
 3319SOL    HW121585   2.510   1.224  21.695
 3319SOL    HW221586   2.549   1.305  21.573
 3320SOL     OW21587   2.733   1.995  21.564
 3320SOL    HW121588   2.766   2.017  21.477
 3320SOL    HW221589   2.805   1.949  21.606
 3321SOL     OW21590   1.071   2.329  22.594
 3321SOL    HW121591   0.997   2.385  22.569
 3321SOL    HW221592   1.062   2.252  22.538
 3322SOL     OW21593   1.205   1.257  18.711
 3322SOL    HW121594   1.164   1.180  18.751
 3322SOL    HW221595   1.252   1.222  18.636
 3323SOL     OW21596   4.466   2.790   2.403
 3323SOL    HW121597   4.545   2.749   2.439
 3323SOL    HW221598   4.410   2.805   2.479
 3324SOL     OW21599   1.012   1.874   6.704
 3324SOL    HW121600   1.057   1.934   6.763
 3324SOL    HW221601   1.067   1.871   6.626
 3325SOL     OW21602   3.565   1.750  19.945
 3325SOL    HW121603   3.661   1.751  19.951
 3325SOL    HW221604   3.545   1.688  19.874
 3326SOL     OW21605   4.380   0.028  27.019
 3326SOL    HW121606   4.403   4.780  27.107
 3326SOL    HW221607   4.394   0.123  27.020
 3327SOL     OW21608   0.927   1.763   5.433
 3327SOL    HW121609   0.848   1.722   5.469
 3327SOL    HW221610   0.989   1.691   5.422
 3328SOL     OW21611   4.359   1.812   6.518
 3328SOL    HW121612   4.337   1.868   6.592
 3328SOL    HW221613   4.446   1.778   6.539
 3329SOL     OW21614   0.207   2.184   1.199
 3329SOL    HW121615   0.183   2.274   1.223
 3329SOL    HW221616   0.141   2.159   1.134
 3330SOL     OW21617   2.385   0.132   2.051
 3330SOL    HW121618   2.451   0.197   2.074
 3330SOL    HW221619   2.315   0.183   2.010
 3331SOL     OW21620   3.307   1.360  26.270
 3331SOL    HW121621   3.303   1.347  26.175
 3331SOL    HW221622   3.273   1.278  26.307
 3332SOL     OW21623   0.506   0.093   7.709
 3332SOL    HW121624   0.474   0.023   7.652
 3332SOL    HW221625   0.435   0.107   7.771
 3333SOL     OW21626   3.864   2.902   4.957
 3333SOL    HW121627   3.946   2.854   4.964
 3333SOL    HW221628   3.873   2.975   5.019
 3334SOL     OW21629   3.074   3.020   1.331
 3334SOL    HW121630   3.041   3.026   1.421
 3334SOL    HW221631   3.169   3.020   1.340
 3335SOL     OW21632   1.519   4.320  27.869
 3335SOL    HW121633   1.463   4.301  27.793
 3335SOL    HW221634   1.504   4.246  27.928
 3336SOL     OW21635   3.772   0.871   9.089
 3336SOL    HW121636   3.841   0.937   9.090
 3336SOL    HW221637   3.721   0.889   9.168
 3337SOL     OW21638   4.124   3.496   1.146
 3337SOL    HW121639   4.076   3.496   1.229
 3337SOL    HW221640   4.194   3.560   1.158
 3338SOL     OW21641   0.073   4.656  20.957
 3338SOL    HW121642   0.057   4.725  20.893
 3338SOL    HW221643   0.147   4.688  21.009
 3339SOL     OW21644   0.209   4.528   5.283
 3339SOL    HW121645   0.160   4.448   5.301
 3339SOL    HW221646   0.283   4.499   5.229
 3340SOL     OW21647   3.791   4.114   4.830
 3340SOL    HW121648   3.834   4.125   4.915
 3340SOL    HW221649   3.698   4.127   4.848
 3341SOL     OW21650   2.819   3.713  17.882
 3341SOL    HW121651   2.912   3.731  17.897
 3341SOL    HW221652   2.780   3.799  17.866
 3342SOL     OW21653   2.969   3.749  21.031
 3342SOL    HW121654   2.889   3.801  21.043
 3342SOL    HW221655   2.950   3.666  21.075
 3343SOL     OW21656   1.650   1.836  23.620
 3343SOL    HW121657   1.568   1.864  23.660
 3343SOL    HW221658   1.626   1.809  23.531
 3344SOL     OW21659   0.501   4.589  21.182
 3344SOL    HW121660   0.493   4.523  21.113
 3344SOL    HW221661   0.591   4.621  21.174
 3345SOL     OW21662   0.719   3.954   3.419
 3345SOL    HW121663   0.809   3.972   3.393
 3345SOL    HW221664   0.666   3.984   3.345
 3346SOL     OW21665   3.416   1.242  18.653
 3346SOL    HW121666   3.501   1.207  18.627
 3346SOL    HW221667   3.389   1.187  18.726
 3347SOL     OW21668   3.100   0.172   5.811
 3347SOL    HW121669   3.075   0.264   5.817
 3347SOL    HW221670   3.177   0.171   5.755
 3348SOL     OW21671   1.532   3.556   4.796
 3348SOL    HW121672   1.478   3.635   4.790
 3348SOL    HW221673   1.622   3.588   4.790
 3349SOL     OW21674   1.772   4.578   5.517
 3349SOL    HW121675   1.732   4.553   5.600
 3349SOL    HW221676   1.720   4.652   5.486
 3350SOL     OW21677   0.091   4.752  25.925
 3350SOL    HW121678   0.024   4.747  25.993
 3350SOL    HW221679   0.168   4.712  25.964
 3351SOL     OW21680   1.370   4.134   0.291
 3351SOL    HW121681   1.292   4.104   0.243
 3351SOL    HW221682   1.443   4.092   0.246
 3352SOL     OW21683   1.885   0.357  23.946
 3352SOL    HW121684   1.819   0.290  23.931
 3352SOL    HW221685   1.968   0.310  23.943
 3353SOL     OW21686   3.683   1.641   5.397
 3353SOL    HW121687   3.745   1.684   5.338
 3353SOL    HW221688   3.623   1.711   5.424
 3354SOL     OW21689   1.969   2.917  10.905
 3354SOL    HW121690   1.931   2.994  10.862
 3354SOL    HW221691   1.977   2.942  10.997
 3355SOL     OW21692   3.878   4.117   6.053
 3355SOL    HW121693   3.925   4.109   6.136
 3355SOL    HW221694   3.946   4.110   5.986
 3356SOL     OW21695   2.843   3.545  10.225
 3356SOL    HW121696   2.802   3.550  10.138
 3356SOL    HW221697   2.916   3.485  10.214
 3357SOL     OW21698   2.600   2.801   0.165
 3357SOL    HW121699   2.626   2.749   0.089
 3357SOL    HW221700   2.622   2.891   0.141
 3358SOL     OW21701   0.439   3.622  25.019
 3358SOL    HW121702   0.460   3.714  25.001
 3358SOL    HW221703   0.385   3.595  24.945
 3359SOL     OW21704   3.382   2.411   3.159
 3359SOL    HW121705   3.434   2.348   3.108
 3359SOL    HW221706   3.420   2.408   3.247
 3360SOL     OW21707   3.377   1.221  19.013
 3360SOL    HW121708   3.345   1.157  18.949
 3360SOL    HW221709   3.441   1.273  18.965
 3361SOL     OW21710   4.299   4.445   7.228
 3361SOL    HW121711   4.364   4.464   7.295
 3361SOL    HW221712   4.216   4.440   7.275
 3362SOL     OW21713   0.652   1.852  27.900
 3362SOL    HW121714   0.606   1.918  27.951
 3362SOL    HW221715   0.734   1.894  27.875
 3363SOL     OW21716   3.698   2.926  24.792
 3363SOL    HW121717   3.674   2.944  24.701
 3363SOL    HW221718   3.783   2.969  24.804
 3364SOL     OW21719   4.572   1.959  20.889
 3364SOL    HW121720   4.618   1.877  20.874
 3364SOL    HW221721   4.636   2.015  20.934
 3365SOL     OW21722   1.499   1.211  23.457
 3365SOL    HW121723   1.460   1.297  23.442
 3365SOL    HW221724   1.506   1.204  23.552
 3366SOL     OW21725   1.140   3.701  22.004
 3366SOL    HW121726   1.098   3.623  22.040
 3366SOL    HW221727   1.173   3.674  21.919
 3367SOL     OW21728   2.484   0.401  21.529
 3367SOL    HW121729   2.405   0.368  21.571
 3367SOL    HW221730   2.555   0.377  21.589
 3368SOL     OW21731   1.456   2.395  27.269
 3368SOL    HW121732   1.488   2.408  27.358
 3368SOL    HW221733   1.370   2.354  27.280
 3369SOL     OW21734   4.626   2.667  25.086
 3369SOL    HW121735   4.605   2.760  25.094
 3369SOL    HW221736   4.670   2.646  25.168
 3370SOL     OW21737   1.858   3.343   1.112
 3370SOL    HW121738   1.772   3.373   1.082
 3370SOL    HW221739   1.920   3.405   1.073
 3371SOL     OW21740   0.964   3.631   8.180
 3371SOL    HW121741   1.027   3.600   8.245
 3371SOL    HW221742   0.999   3.599   8.096
 3372SOL     OW21743   3.345   2.059   5.535
 3372SOL    HW121744   3.433   2.024   5.549
 3372SOL    HW221745   3.357   2.125   5.466
 3373SOL     OW21746   2.419   2.552  26.321
 3373SOL    HW121747   2.368   2.593  26.391
 3373SOL    HW221748   2.390   2.596  26.241
 3374SOL     OW21749   0.978   2.573  22.922
 3374SOL    HW121750   0.977   2.610  23.010
 3374SOL    HW221751   0.941   2.485  22.933
 3375SOL     OW21752   1.069   0.254  22.612
 3375SOL    HW121753   1.065   0.305  22.531
 3375SOL    HW221754   0.984   0.270  22.654
 3376SOL     OW21755   3.939   3.957   1.701
 3376SOL    HW121756   3.909   4.019   1.635
 3376SOL    HW221757   3.871   3.958   1.768
 3377SOL     OW21758   2.676   0.700   7.596
 3377SOL    HW121759   2.632   0.714   7.512
 3377SOL    HW221760   2.669   0.606   7.612
 3378SOL     OW21761   3.574   2.390  27.511
 3378SOL    HW121762   3.598   2.470  27.558
 3378SOL    HW221763   3.640   2.381  27.443
 3379SOL     OW21764   0.118   0.294   2.647
 3379SOL    HW121765   0.196   0.343   2.673
 3379SOL    HW221766   0.057   0.307   2.719
 3380SOL     OW21767   3.367   1.875   0.808
 3380SOL    HW121768   3.363   1.800   0.748
 3380SOL    HW221769   3.358   1.951   0.751
 3381SOL     OW21770   3.218   3.295   5.741
 3381SOL    HW121771   3.255   3.241   5.811
 3381SOL    HW221772   3.224   3.384   5.775
 3382SOL     OW21773   1.698   3.880   4.453
 3382SOL    HW121774   1.780   3.914   4.416
 3382SOL    HW221775   1.688   3.794   4.413
 3383SOL     OW21776   1.623   2.118   9.262
 3383SOL    HW121777   1.534   2.106   9.228
 3383SOL    HW221778   1.667   2.171   9.195
 3384SOL     OW21779   0.988   3.825   4.356
 3384SOL    HW121780   0.897   3.826   4.387
 3384SOL    HW221781   0.986   3.874   4.274
 3385SOL     OW21782   4.569   3.682  10.761
 3385SOL    HW121783   4.574   3.621  10.835
 3385SOL    HW221784   4.476   3.704  10.755
 3386SOL     OW21785   1.514   0.008  17.378
 3386SOL    HW121786   1.570   4.760  17.306
 3386SOL    HW221787   1.555   0.088  17.410
 3387SOL     OW21788   2.650   1.870  10.100
 3387SOL    HW121789   2.616   1.789  10.062
 3387SOL    HW221790   2.574   1.910  10.143
 3388SOL     OW21791   1.608   0.713  20.803
 3388SOL    HW121792   1.639   0.723  20.893
 3388SOL    HW221793   1.622   0.799  20.763
 3389SOL     OW21794   3.013   0.550   5.427
 3389SOL    HW121795   2.947   0.571   5.361
 3389SOL    HW221796   3.061   0.476   5.390
 3390SOL     OW21797   2.166   1.363   1.969
 3390SOL    HW121798   2.262   1.364   1.974
 3390SOL    HW221799   2.145   1.431   1.905
 3391SOL     OW21800   1.577   1.498  24.990
 3391SOL    HW121801   1.521   1.420  24.994
 3391SOL    HW221802   1.543   1.548  24.916
 3392SOL     OW21803   0.173   2.524  23.230
 3392SOL    HW121804   0.268   2.537  23.236
 3392SOL    HW221805   0.142   2.599  23.179
 3393SOL     OW21806   0.141   1.179  24.418
 3393SOL    HW121807   0.131   1.084  24.410
 3393SOL    HW221808   0.221   1.190  24.469
 3394SOL     OW21809   1.845   0.517  22.329
 3394SOL    HW121810   1.760   0.527  22.287
 3394SOL    HW221811   1.855   0.423  22.342
 3395SOL     OW21812   4.320   0.979   5.014
 3395SOL    HW121813   4.360   0.971   4.927
 3395SOL    HW221814   4.232   1.012   4.997
 3396SOL     OW21815   3.794   1.804   9.629
 3396SOL    HW121816   3.812   1.897   9.640
 3396SOL    HW221817   3.835   1.763   9.705
 3397SOL     OW21818   1.341   4.626   9.562
 3397SOL    HW121819   1.382   4.689   9.621
 3397SOL    HW221820   1.354   4.541   9.604
 3398SOL     OW21821   1.073   2.002  28.370
 3398SOL    HW121822   1.055   1.930  28.431
 3398SOL    HW221823   1.027   1.978  28.290
 3399SOL     OW21824   1.948   4.354  19.638
 3399SOL    HW121825   2.001   4.382  19.713
 3399SOL    HW221826   1.890   4.286  19.673
 3400SOL     OW21827   4.340   2.316   4.176
 3400SOL    HW121828   4.343   2.410   4.193
 3400SOL    HW221829   4.432   2.289   4.173
 3401SOL     OW21830   4.188   3.823   8.574
 3401SOL    HW121831   4.157   3.774   8.651
 3401SOL    HW221832   4.115   3.818   8.512
 3402SOL     OW21833   0.580   2.395  28.064
 3402SOL    HW121834   0.656   2.447  28.092
 3402SOL    HW221835   0.523   2.392  28.141
 3403SOL     OW21836   2.256   4.143  10.378
 3403SOL    HW121837   2.313   4.143  10.301
 3403SOL    HW221838   2.304   4.194  10.444
 3404SOL     OW21839   3.897   3.926   9.194
 3404SOL    HW121840   3.839   3.998   9.218
 3404SOL    HW221841   3.982   3.950   9.231
 3405SOL     OW21842   1.932   2.848  24.189
 3405SOL    HW121843   2.005   2.902  24.219
 3405SOL    HW221844   1.863   2.865  24.253
 3406SOL     OW21845   3.772   1.434   3.040
 3406SOL    HW121846   3.708   1.479   2.984
 3406SOL    HW221847   3.825   1.382   2.980
 3407SOL     OW21848   3.210   2.316  26.119
 3407SOL    HW121849   3.202   2.285  26.029
 3407SOL    HW221850   3.273   2.257  26.159
 3408SOL     OW21851   3.574   4.670   1.722
 3408SOL    HW121852   3.611   4.713   1.799
 3408SOL    HW221853   3.625   4.703   1.648
 3409SOL     OW21854   0.061   3.342   8.616
 3409SOL    HW121855   4.765   3.302   8.655
 3409SOL    HW221856   0.103   3.389   8.688
 3410SOL     OW21857   2.665   1.675   7.127
 3410SOL    HW121858   2.660   1.744   7.193
 3410SOL    HW221859   2.688   1.596   7.176
 3411SOL     OW21860   1.591   1.754   3.376
 3411SOL    HW121861   1.499   1.754   3.404
 3411SOL    HW221862   1.613   1.847   3.369
 3412SOL     OW21863   2.988   4.100  26.400
 3412SOL    HW121864   3.013   4.008  26.412
 3412SOL    HW221865   2.974   4.133  26.489
 3413SOL     OW21866   1.794   1.009  19.313
 3413SOL    HW121867   1.872   1.008  19.257
 3413SOL    HW221868   1.729   0.958  19.265
 3414SOL     OW21869   2.028   4.670   7.735
 3414SOL    HW121870   2.088   4.690   7.807
 3414SOL    HW221871   2.041   4.741   7.672
 3415SOL     OW21872   0.586   2.711   2.704
 3415SOL    HW121873   0.660   2.663   2.667
 3415SOL    HW221874   0.514   2.648   2.702
 3416SOL     OW21875   3.290   3.177   1.946
 3416SOL    HW121876   3.232   3.159   1.872
 3416SOL    HW221877   3.238   3.154   2.023
 3417SOL     OW21878   0.866   4.319   5.026
 3417SOL    HW121879   0.866   4.299   5.120
 3417SOL    HW221880   0.923   4.253   4.987
 3418SOL     OW21881   3.639   1.882  17.415
 3418SOL    HW121882   3.558   1.835  17.433
 3418SOL    HW221883   3.643   1.887  17.319
 3419SOL     OW21884   2.664   3.335  27.650
 3419SOL    HW121885   2.639   3.364  27.562
 3419SOL    HW221886   2.585   3.346  27.702
 3420SOL     OW21887   0.270   4.712   5.517
 3420SOL    HW121888   0.306   4.626   5.536
 3420SOL    HW221889   0.331   4.751   5.455
 3421SOL     OW21890   0.684   0.243  25.746
 3421SOL    HW121891   0.613   0.282  25.798
 3421SOL    HW221892   0.672   0.280  25.658
 3422SOL     OW21893   0.489   4.011  25.751
 3422SOL    HW121894   0.410   3.980  25.795
 3422SOL    HW221895   0.465   4.098  25.718
 3423SOL     OW21896   2.949   3.026  10.972
 3423SOL    HW121897   3.044   3.020  10.960
 3423SOL    HW221898   2.933   2.992  11.060
 3424SOL     OW21899   3.662   0.368  23.736
 3424SOL    HW121900   3.593   0.322  23.784
 3424SOL    HW221901   3.615   0.432  23.682
 3425SOL     OW21902   4.329   1.431  25.433
 3425SOL    HW121903   4.345   1.504  25.493
 3425SOL    HW221904   4.257   1.382  25.473
 3426SOL     OW21905   2.557   4.679  23.608
 3426SOL    HW121906   2.605   4.603  23.575
 3426SOL    HW221907   2.625   4.737  23.641
 3427SOL     OW21908   2.652   2.652   7.425
 3427SOL    HW121909   2.706   2.730   7.437
 3427SOL    HW221910   2.684   2.613   7.343
 3428SOL     OW21911   3.726   3.004   4.350
 3428SOL    HW121912   3.660   3.049   4.403
 3428SOL    HW221913   3.705   3.029   4.260
 3429SOL     OW21914   0.222   1.947  27.652
 3429SOL    HW121915   0.262   1.994  27.725
 3429SOL    HW221916   0.143   1.908  27.690
 3430SOL     OW21917   1.781   4.268  27.261
 3430SOL    HW121918   1.707   4.308  27.307
 3430SOL    HW221919   1.838   4.341  27.238
 3431SOL     OW21920   4.242   1.679  19.915
 3431SOL    HW121921   4.268   1.605  19.861
 3431SOL    HW221922   4.233   1.643  20.003
 3432SOL     OW21923   2.359   4.719   5.481
 3432SOL    HW121924   2.274   4.696   5.519
 3432SOL    HW221925   2.344   4.719   5.387
 3433SOL     OW21926   2.353   3.627   7.981
 3433SOL    HW121927   2.265   3.649   7.950
 3433SOL    HW221928   2.351   3.646   8.075
 3434SOL     OW21929   0.072   1.678  10.999
 3434SOL    HW121930   0.078   1.708  11.090
 3434SOL    HW221931   4.762   1.696  10.974
 3435SOL     OW21932   4.497   2.053   4.835
 3435SOL    HW121933   4.484   2.125   4.897
 3435SOL    HW221934   4.581   2.014   4.861
 3436SOL     OW21935   3.551   0.485   1.926
 3436SOL    HW121936   3.457   0.496   1.913
 3436SOL    HW221937   3.591   0.558   1.878
 3437SOL     OW21938   3.209   3.709  15.916
 3437SOL    HW121939   3.248   3.792  15.889
 3437SOL    HW221940   3.268   3.676  15.984
 3438SOL     OW21941   3.447   3.083   9.818
 3438SOL    HW121942   3.538   3.054   9.824
 3438SOL    HW221943   3.397   3.015   9.863
 3439SOL     OW21944   3.971   2.508   7.903
 3439SOL    HW121945   3.893   2.480   7.856
 3439SOL    HW221946   4.043   2.461   7.861
 3440SOL     OW21947   4.127   1.284  23.010
 3440SOL    HW121948   4.210   1.248  22.979
 3440SOL    HW221949   4.096   1.221  23.075
 3441SOL     OW21950   3.383   3.983  21.175
 3441SOL    HW121951   3.395   4.053  21.239
 3441SOL    HW221952   3.312   3.930  21.211
 3442SOL     OW21953   1.581   2.789  25.648
 3442SOL    HW121954   1.507   2.848  25.660
 3442SOL    HW221955   1.544   2.702  25.660
 3443SOL     OW21956   1.361   0.800  21.435
 3443SOL    HW121957   1.323   0.822  21.350
 3443SOL    HW221958   1.294   0.827  21.498
 3444SOL     OW21959   1.421   4.581   8.319
 3444SOL    HW121960   1.421   4.487   8.302
 3444SOL    HW221961   1.511   4.609   8.301
 3445SOL     OW21962   0.397   2.734   8.382
 3445SOL    HW121963   0.376   2.803   8.319
 3445SOL    HW221964   0.475   2.692   8.347
 3446SOL     OW21965   1.155   3.298   1.527
 3446SOL    HW121966   1.153   3.245   1.607
 3446SOL    HW221967   1.244   3.332   1.522
 3447SOL     OW21968   4.633   4.499  26.781
 3447SOL    HW121969   4.679   4.417  26.797
 3447SOL    HW221970   4.541   4.473  26.772
 3448SOL     OW21971   1.822   2.668  23.155
 3448SOL    HW121972   1.806   2.574  23.160
 3448SOL    HW221973   1.742   2.708  23.189
 3449SOL     OW21974   1.792   3.034   1.403
 3449SOL    HW121975   1.838   3.036   1.319
 3449SOL    HW221976   1.793   3.125   1.434
 3450SOL     OW21977   3.764   1.903   7.006
 3450SOL    HW121978   3.801   1.859   6.930
 3450SOL    HW221979   3.669   1.897   6.993
 3451SOL     OW21980   4.710   3.958  27.516
 3451SOL    HW121981   4.668   3.919  27.593
 3451SOL    HW221982   4.720   4.051  27.538
 3452SOL     OW21983   4.576   1.801  19.954
 3452SOL    HW121984   4.631   1.749  20.013
 3452SOL    HW221985   4.516   1.848  20.012
 3453SOL     OW21986   3.038   2.458   5.688
 3453SOL    HW121987   3.107   2.412   5.735
 3453SOL    HW221988   2.958   2.409   5.709
 3454SOL     OW21989   0.392   0.414   9.841
 3454SOL    HW121990   0.338   0.335   9.834
 3454SOL    HW221991   0.476   0.383   9.874
 3455SOL     OW21992   0.159   3.532  25.073
 3455SOL    HW121993   0.170   3.518  25.167
 3455SOL    HW221994   0.215   3.607  25.054
 3456SOL     OW21995   2.806   4.255   8.008
 3456SOL    HW121996   2.818   4.166   8.041
 3456SOL    HW221997   2.766   4.303   8.081
 3457SOL     OW21998   3.316   0.439   1.621
 3457SOL    HW121999   3.313   0.502   1.549
 3457SOL    HW222000   3.367   0.365   1.587
 3458SOL     OW22001   2.363   3.240  28.121
 3458SOL    HW122002   2.408   3.179  28.063
 3458SOL    HW222003   2.433   3.282  28.171
 3459SOL     OW22004   1.578   2.046  20.815
 3459SOL    HW122005   1.669   2.022  20.833
 3459SOL    HW222006   1.584   2.112  20.746
 3460SOL     OW22007   2.593   3.332   3.426
 3460SOL    HW122008   2.619   3.243   3.404
 3460SOL    HW222009   2.647   3.355   3.501
 3461SOL     OW22010   3.793   2.626  10.037
 3461SOL    HW122011   3.774   2.622   9.943
 3461SOL    HW222012   3.755   2.709  10.066
 3462SOL     OW22013   1.617   3.866  25.635
 3462SOL    HW122014   1.575   3.924  25.571
 3462SOL    HW222015   1.580   3.893  25.719
 3463SOL     OW22016   1.446   3.110  27.448
 3463SOL    HW122017   1.509   3.111  27.376
 3463SOL    HW222018   1.417   3.201  27.457
 3464SOL     OW22019   1.425   4.690  19.239
 3464SOL    HW122020   1.501   4.662  19.189
 3464SOL    HW222021   1.350   4.666  19.184
 3465SOL     OW22022   3.903   3.326  23.282
 3465SOL    HW122023   3.887   3.234  23.263
 3465SOL    HW222024   3.963   3.355  23.213
 3466SOL     OW22025   0.525   0.214   8.096
 3466SOL    HW122026   0.562   0.126   8.085
 3466SOL    HW222027   0.513   0.246   8.007
 3467SOL     OW22028   4.454   3.817   4.931
 3467SOL    HW122029   4.432   3.877   5.002
 3467SOL    HW222030   4.402   3.847   4.856
 3468SOL     OW22031   0.921   1.483   8.501
 3468SOL    HW122032   0.831   1.510   8.522
 3468SOL    HW222033   0.960   1.464   8.586
 3469SOL     OW22034   2.040   3.429  27.486
 3469SOL    HW122035   2.015   3.362  27.423
 3469SOL    HW222036   1.992   3.406  27.566
 3470SOL     OW22037   0.639   0.819   7.544
 3470SOL    HW122038   0.647   0.731   7.508
 3470SOL    HW222039   0.588   0.867   7.479
 3471SOL     OW22040   0.485   2.684   0.632
 3471SOL    HW122041   0.524   2.606   0.592
 3471SOL    HW222042   0.468   2.659   0.723
 3472SOL     OW22043   0.061   2.401  26.876
 3472SOL    HW122044   0.008   2.321  26.874
 3472SOL    HW222045   0.064   2.429  26.785
 3473SOL     OW22046   4.554   1.981   2.530
 3473SOL    HW122047   4.603   2.056   2.565
 3473SOL    HW222048   4.508   1.945   2.606
 3474SOL     OW22049   0.804   3.599   4.407
 3474SOL    HW122050   0.842   3.618   4.321
 3474SOL    HW222051   0.873   3.552   4.454
 3475SOL     OW22052   3.156   1.511  22.083
 3475SOL    HW122053   3.217   1.468  22.022
 3475SOL    HW222054   3.152   1.452  22.158
 3476SOL     OW22055   3.228   4.507  22.053
 3476SOL    HW122056   3.168   4.544  22.118
 3476SOL    HW222057   3.228   4.413  22.071
 3477SOL     OW22058   3.202   0.781   3.511
 3477SOL    HW122059   3.286   0.769   3.555
 3477SOL    HW222060   3.178   0.872   3.530
 3478SOL     OW22061   4.034   0.139  27.061
 3478SOL    HW122062   4.111   0.141  27.118
 3478SOL    HW222063   4.020   0.230  27.037
 3479SOL     OW22064   2.843   3.156  24.058
 3479SOL    HW122065   2.881   3.111  24.134
 3479SOL    HW222066   2.893   3.237  24.050
 3480SOL     OW22067   3.840   0.405  20.442
 3480SOL    HW122068   3.898   0.376  20.371
 3480SOL    HW222069   3.759   0.356  20.429
 3481SOL     OW22070   1.841   1.932  17.807
 3481SOL    HW122071   1.925   1.972  17.784
 3481SOL    HW222072   1.844   1.923  17.902
 3482SOL     OW22073   2.276   3.431   5.254
 3482SOL    HW122074   2.334   3.503   5.230
 3482SOL    HW222075   2.328   3.352   5.238
 3483SOL     OW22076   2.098   2.118   1.198
 3483SOL    HW122077   2.034   2.146   1.132
 3483SOL    HW222078   2.182   2.123   1.153
 3484SOL     OW22079   4.604   0.996   9.384
 3484SOL    HW122080   4.616   0.917   9.332
 3484SOL    HW222081   4.514   0.989   9.417
 3485SOL     OW22082   1.077   3.433  10.525
 3485SOL    HW122083   1.083   3.528  10.533
 3485SOL    HW222084   1.166   3.406  10.503
 3486SOL     OW22085   4.218   0.859  28.326
 3486SOL    HW122086   4.267   0.937  28.351
 3486SOL    HW222087   4.153   0.848  28.396
 3487SOL     OW22088   1.589   3.379  27.615
 3487SOL    HW122089   1.536   3.426  27.679
 3487SOL    HW222090   1.679   3.402  27.637
 3488SOL     OW22091   2.892   1.332  22.011
 3488SOL    HW122092   2.819   1.270  22.008
 3488SOL    HW222093   2.935   1.314  22.095
 3489SOL     OW22094   4.728   3.571  26.028
 3489SOL    HW122095   4.778   3.510  26.082
 3489SOL    HW222096   4.647   3.586  26.077
 3490SOL     OW22097   4.045   2.551  23.724
 3490SOL    HW122098   4.130   2.571  23.686
 3490SOL    HW222099   4.017   2.471  23.680
 3491SOL     OW22100   1.861   3.931  22.588
 3491SOL    HW122101   1.815   3.863  22.539
 3491SOL    HW222102   1.934   3.956  22.531
 3492SOL     OW22103   3.664   3.529  20.591
 3492SOL    HW122104   3.753   3.497  20.576
 3492SOL    HW222105   3.671   3.624  20.584
 3493SOL     OW22106   2.429   0.689  18.908
 3493SOL    HW122107   2.467   0.658  18.826
 3493SOL    HW222108   2.500   0.735  18.952
 3494SOL     OW22109   2.670   1.944   1.940
 3494SOL    HW122110   2.697   1.973   1.853
 3494SOL    HW222111   2.575   1.952   1.940
 3495SOL     OW22112   4.683   2.813   2.122
 3495SOL    HW122113   4.597   2.841   2.091
 3495SOL    HW222114   4.712   2.749   2.058
 3496SOL     OW22115   1.916   3.412   6.858
 3496SOL    HW122116   1.960   3.345   6.806
 3496SOL    HW222117   1.962   3.493   6.835
 3497SOL     OW22118   0.675   4.636   3.861
 3497SOL    HW122119   0.610   4.664   3.925
 3497SOL    HW222120   0.643   4.551   3.830
 3498SOL     OW22121   3.365   2.020  25.467
 3498SOL    HW122122   3.382   2.052  25.556
 3498SOL    HW222123   3.294   1.957  25.478
 3499SOL     OW22124   2.479   3.574  22.210
 3499SOL    HW122125   2.504   3.662  22.183
 3499SOL    HW222126   2.435   3.537  22.133
 3500SOL     OW22127   2.482   2.055   5.050
 3500SOL    HW122128   2.515   1.967   5.030
 3500SOL    HW222129   2.524   2.078   5.133
 3501SOL     OW22130   3.877   1.234  20.697
 3501SOL    HW122131   3.812   1.189  20.751
 3501SOL    HW222132   3.960   1.192  20.720
 3502SOL     OW22133   0.502   2.657   9.193
 3502SOL    HW122134   0.443   2.648   9.268
 3502SOL    HW222135   0.551   2.575   9.191
 3503SOL     OW22136   3.006   3.637  24.126
 3503SOL    HW122137   3.062   3.700  24.080
 3503SOL    HW222138   3.013   3.661  24.218
 3504SOL     OW22139   0.633   4.531  10.606
 3504SOL    HW122140   0.613   4.534  10.700
 3504SOL    HW222141   0.577   4.462  10.571
 3505SOL     OW22142   2.141   3.113  20.415
 3505SOL    HW122143   2.151   3.121  20.320
 3505SOL    HW222144   2.104   3.026  20.428
 3506SOL     OW22145   2.631   4.384  25.520
 3506SOL    HW122146   2.725   4.404  25.517
 3506SOL    HW222147   2.608   4.391  25.613
 3507SOL     OW22148   3.707   4.256  11.708
 3507SOL    HW122149   3.713   4.350  11.693
 3507SOL    HW222150   3.670   4.248  11.796
 3508SOL     OW22151   1.916   3.426  26.480
 3508SOL    HW122152   1.845   3.426  26.416
 3508SOL    HW222153   1.926   3.518  26.506
 3509SOL     OW22154   3.183   2.650   0.249
 3509SOL    HW122155   3.219   2.644   0.337
 3509SOL    HW222156   3.208   2.568   0.207
 3510SOL     OW22157   1.265   3.257   7.098
 3510SOL    HW122158   1.230   3.346   7.103
 3510SOL    HW222159   1.360   3.269   7.097
 3511SOL     OW22160   4.232   4.237  19.168
 3511SOL    HW122161   4.148   4.192  19.164
 3511SOL    HW222162   4.296   4.171  19.142
 3512SOL     OW22163   0.905   0.580  22.937
 3512SOL    HW122164   0.950   0.521  22.997
 3512SOL    HW222165   0.816   0.587  22.972
 3513SOL     OW22166   1.842   2.724  12.191
 3513SOL    HW122167   1.757   2.694  12.223
 3513SOL    HW222168   1.904   2.692  12.256
 3514SOL     OW22169   3.600   4.021   2.393
 3514SOL    HW122170   3.616   4.073   2.472
 3514SOL    HW222171   3.642   3.937   2.411
 3515SOL     OW22172   1.406   4.397   7.470
 3515SOL    HW122173   1.357   4.323   7.435
 3515SOL    HW222174   1.498   4.375   7.454
 3516SOL     OW22175   1.510   3.419  10.934
 3516SOL    HW122176   1.449   3.410  11.007
 3516SOL    HW222177   1.577   3.480  10.966
 3517SOL     OW22178   0.452   2.560  10.071
 3517SOL    HW122179   0.519   2.616  10.031
 3517SOL    HW222180   0.385   2.621  10.103
 3518SOL     OW22181   1.139   0.528  27.012
 3518SOL    HW122182   1.115   0.590  27.081
 3518SOL    HW222183   1.075   0.458  27.020
 3519SOL     OW22184   3.483   3.870   9.623
 3519SOL    HW122185   3.531   3.948   9.595
 3519SOL    HW222186   3.535   3.834   9.694
 3520SOL     OW22187   0.022   3.747  25.301
 3520SOL    HW122188   0.024   3.685  25.228
 3520SOL    HW222189   0.078   3.707  25.368
 3521SOL     OW22190   3.059   3.186  28.211
 3521SOL    HW122191   3.140   3.215  28.168
 3521SOL    HW222192   3.026   3.115  28.156
 3522SOL     OW22193   1.076   0.415   1.803
 3522SOL    HW122194   1.008   0.372   1.854
 3522SOL    HW222195   1.032   0.442   1.722
 3523SOL     OW22196   0.123   3.065   4.227
 3523SOL    HW122197   0.164   3.124   4.163
 3523SOL    HW222198   0.165   2.981   4.211
 3524SOL     OW22199   1.325   3.232  10.826
 3524SOL    HW122200   1.319   3.139  10.846
 3524SOL    HW222201   1.234   3.263  10.826
 3525SOL     OW22202   3.062   3.046   3.301
 3525SOL    HW122203   3.091   2.987   3.231
 3525SOL    HW222204   3.137   3.103   3.317
 3526SOL     OW22205   0.037   3.293   1.713
 3526SOL    HW122206   0.096   3.245   1.655
 3526SOL    HW222207   0.095   3.342   1.771
 3527SOL     OW22208   3.277   4.607  10.345
 3527SOL    HW122209   3.181   4.602  10.347
 3527SOL    HW222210   3.297   4.637  10.256
 3528SOL     OW22211   2.782   4.720  25.612
 3528SOL    HW122212   2.872   4.690  25.624
 3528SOL    HW222213   2.790   0.032  25.592
 3529SOL     OW22214   3.132   0.064   7.120
 3529SOL    HW122215   3.211   0.080   7.172
 3529SOL    HW222216   3.061   0.061   7.184
 3530SOL     OW22217   1.097   1.546   6.450
 3530SOL    HW122218   1.140   1.603   6.386
 3530SOL    HW222219   1.037   1.493   6.398
 3531SOL     OW22220   3.108   0.747   2.824
 3531SOL    HW122221   3.013   0.757   2.828
 3531SOL    HW222222   3.122   0.652   2.820
 3532SOL     OW22223   3.158   2.051   7.860
 3532SOL    HW122224   3.119   2.103   7.790
 3532SOL    HW222225   3.090   1.988   7.884
 3533SOL     OW22226   2.185   0.593   8.897
 3533SOL    HW122227   2.227   0.677   8.915
 3533SOL    HW222228   2.181   0.587   8.802
 3534SOL     OW22229   1.602   3.179  10.808
 3534SOL    HW122230   1.565   3.105  10.856
 3534SOL    HW222231   1.696   3.164  10.810
 3535SOL     OW22232   1.372   3.499  10.688
 3535SOL    HW122233   1.395   3.564  10.621
 3535SOL    HW222234   1.312   3.545  10.747
 3536SOL     OW22235   3.932   3.949   7.062
 3536SOL    HW122236   3.857   3.891   7.077
 3536SOL    HW222237   3.893   4.033   7.036
 3537SOL     OW22238   1.507   1.765  24.556
 3537SOL    HW122239   1.585   1.821  24.557
 3537SOL    HW222240   1.497   1.740  24.464
 3538SOL     OW22241   2.514   2.081   7.233
 3538SOL    HW122242   2.423   2.052   7.230
 3538SOL    HW222243   2.508   2.176   7.238
 3539SOL     OW22244   3.771   1.261   7.799
 3539SOL    HW122245   3.754   1.320   7.726
 3539SOL    HW222246   3.850   1.213   7.773
 3540SOL     OW22247   3.915   0.784  24.015
 3540SOL    HW122248   3.919   0.701  24.063
 3540SOL    HW222249   3.930   0.760  23.924
 3541SOL     OW22250   1.102   3.320   3.323
 3541SOL    HW122251   1.020   3.364   3.348
 3541SOL    HW222252   1.074   3.241   3.278
 3542SOL     OW22253   0.041   1.394  10.254
 3542SOL    HW122254   0.086   1.479  10.255
 3542SOL    HW222255   0.049   1.362  10.344
 3543SOL     OW22256   1.842   1.213  28.409
 3543SOL    HW122257   1.797   1.256  28.481
 3543SOL    HW222258   1.913   1.272  28.386
 3544SOL     OW22259   0.449   4.000   0.001
 3544SOL    HW122260   0.527   3.945  28.510
 3544SOL    HW222261   0.441   4.050  28.442
 3545SOL     OW22262   1.457   3.236  10.567
 3545SOL    HW122263   1.406   3.260  10.489
 3545SOL    HW222264   1.508   3.160  10.540
 3546SOL     OW22265   1.483   0.139  20.713
 3546SOL    HW122266   1.564   0.088  20.714
 3546SOL    HW222267   1.495   0.204  20.782
 3547SOL     OW22268   2.917   1.091   5.641
 3547SOL    HW122269   3.000   1.059   5.676
 3547SOL    HW222270   2.874   1.132   5.716
 3548SOL     OW22271   2.595   0.427   7.274
 3548SOL    HW122272   2.575   0.424   7.180
 3548SOL    HW222273   2.689   0.409   7.279
 3549SOL     OW22274   3.980   3.053   7.526
 3549SOL    HW122275   3.937   2.978   7.567
 3549SOL    HW222276   4.047   3.014   7.470
 3550SOL     OW22277   0.770   3.296  25.241
 3550SOL    HW122278   0.689   3.335  25.209
 3550SOL    HW222279   0.743   3.245  25.318
 3551SOL     OW22280   4.571   2.930  22.122
 3551SOL    HW122281   4.484   2.890  22.128
 3551SOL    HW222282   4.629   2.859  22.095
 3552SOL     OW22283   1.140   4.659  21.981
 3552SOL    HW122284   1.084   4.626  22.051
 3552SOL    HW222285   1.089   4.646  21.901
 3553SOL     OW22286   3.108   2.826  18.194
 3553SOL    HW122287   3.091   2.915  18.163
 3553SOL    HW222288   3.189   2.801  18.150
 3554SOL     OW22289   3.040   0.319   4.682
 3554SOL    HW122290   3.046   0.231   4.644
 3554SOL    HW222291   2.983   0.367   4.622
 3555SOL     OW22292   2.953   1.136  25.874
 3555SOL    HW122293   3.034   1.093  25.846
 3555SOL    HW222294   2.902   1.146  25.793
 3556SOL     OW22295   2.484   0.490   5.897
 3556SOL    HW122296   2.524   0.405   5.918
 3556SOL    HW222297   2.475   0.534   5.982
 3557SOL     OW22298   1.418   1.096  27.809
 3557SOL    HW122299   1.448   1.161  27.873
 3557SOL    HW222300   1.404   1.146  27.729
 3558SOL     OW22301   1.509   2.408  21.445
 3558SOL    HW122302   1.507   2.479  21.381
 3558SOL    HW222303   1.502   2.328  21.393
 3559SOL     OW22304   2.783   2.400   0.174
 3559SOL    HW122305   2.695   2.414   0.209
 3559SOL    HW222306   2.842   2.418   0.247
 3560SOL     OW22307   3.382   2.466  19.053
 3560SOL    HW122308   3.335   2.385  19.035
 3560SOL    HW222309   3.455   2.439  19.108
 3561SOL     OW22310   2.079   3.151  27.876
 3561SOL    HW122311   1.991   3.115  27.885
 3561SOL    HW222312   2.137   3.081  27.908
 3562SOL     OW22313   1.098   4.336   5.220
 3562SOL    HW122314   1.029   4.287   5.265
 3562SOL    HW222315   1.074   4.428   5.232
 3563SOL     OW22316   1.989   0.644  25.882
 3563SOL    HW122317   1.933   0.716  25.909
 3563SOL    HW222318   1.951   0.567  25.924
 3564SOL     OW22319   2.165   2.179   3.295
 3564SOL    HW122320   2.116   2.184   3.213
 3564SOL    HW222321   2.236   2.242   3.284
 3565SOL     OW22322   0.393   4.188  19.668
 3565SOL    HW122323   0.358   4.144  19.591
 3565SOL    HW222324   0.339   4.156  19.741
 3566SOL     OW22325   2.794   0.029  11.167
 3566SOL    HW122326   2.712   0.071  11.141
 3566SOL    HW222327   2.769   4.750  11.238
 3567SOL     OW22328   1.675   3.434  10.678
 3567SOL    HW122329   1.769   3.435  10.693
 3567SOL    HW222330   1.655   3.521  10.643
 3568SOL     OW22331   3.831   2.221   0.461
 3568SOL    HW122332   3.838   2.126   0.453
 3568SOL    HW222333   3.833   2.253   0.371
 3569SOL     OW22334   2.176   0.238   8.515
 3569SOL    HW122335   2.197   0.326   8.547
 3569SOL    HW222336   2.086   0.223   8.543
 3570SOL     OW22337   0.227   2.022   8.124
 3570SOL    HW122338   0.201   1.973   8.202
 3570SOL    HW222339   0.267   2.102   8.158
 3571SOL     OW22340   3.715   0.486  27.180
 3571SOL    HW122341   3.620   0.495  27.189
 3571SOL    HW222342   3.735   0.401  27.220
 3572SOL     OW22343   1.757   2.059   6.679
 3572SOL    HW122344   1.816   1.993   6.643
 3572SOL    HW222345   1.682   2.009   6.710
 3573SOL     OW22346   3.061   1.994  26.321
 3573SOL    HW122347   2.975   1.957  26.302
 3573SOL    HW222348   3.114   1.973  26.244
 3574SOL     OW22349   2.740   1.794  27.215
 3574SOL    HW122350   2.729   1.800  27.120
 3574SOL    HW222351   2.780   1.877  27.240
 3575SOL     OW22352   0.362   4.581   7.882
 3575SOL    HW122353   0.301   4.507   7.889
 3575SOL    HW222354   0.429   4.551   7.820
 3576SOL     OW22355   3.063   4.094  25.966
 3576SOL    HW122356   2.999   4.028  25.994
 3576SOL    HW222357   3.075   4.077  25.873
 3577SOL     OW22358   2.517   0.579  22.602
 3577SOL    HW122359   2.566   0.556  22.523
 3577SOL    HW222360   2.458   0.649  22.574
 3578SOL     OW22361   0.310   4.664  25.065
 3578SOL    HW122362   0.220   4.668  25.032
 3578SOL    HW222363   0.314   4.583  25.116
 3579SOL     OW22364   4.397   1.395  20.266
 3579SOL    HW122365   4.328   1.358  20.321
 3579SOL    HW222366   4.376   1.365  20.178
 3580SOL     OW22367   2.956   4.401   7.836
 3580SOL    HW122368   3.014   4.337   7.796
 3580SOL    HW222369   2.889   4.348   7.880
 3581SOL     OW22370   3.347   3.589  19.455
 3581SOL    HW122371   3.341   3.635  19.372
 3581SOL    HW222372   3.292   3.511  19.443
 3582SOL     OW22373   3.381   0.425  23.946
 3582SOL    HW122374   3.360   0.518  23.938
 3582SOL    HW222375   3.378   0.408  24.040
 3583SOL     OW22376   4.526   3.469   0.244
 3583SOL    HW122377   4.438   3.433   0.232
 3583SOL    HW222378   4.518   3.528   0.319
 3584SOL     OW22379   4.537   0.962  16.210
 3584SOL    HW122380   4.481   1.006  16.146
 3584SOL    HW222381   4.608   1.024  16.226
 3585SOL     OW22382   1.481   4.066   5.807
 3585SOL    HW122383   1.515   4.154   5.824
 3585SOL    HW222384   1.539   4.008   5.856
 3586SOL     OW22385   2.479   1.249  18.471
 3586SOL    HW122386   2.414   1.318  18.458
 3586SOL    HW222387   2.455   1.209  18.555
 3587SOL     OW22388   2.776   2.703  20.358
 3587SOL    HW122389   2.727   2.775  20.397
 3587SOL    HW222390   2.860   2.741  20.332
 3588SOL     OW22391   2.408   2.590   8.764
 3588SOL    HW122392   2.471   2.519   8.779
 3588SOL    HW222393   2.323   2.551   8.786
 3589SOL     OW22394   2.313   0.777   9.574
 3589SOL    HW122395   2.297   0.830   9.652
 3589SOL    HW222396   2.403   0.747   9.584
 3590SOL     OW22397   0.197   4.098  25.542
 3590SOL    HW122398   0.109   4.117  25.575
 3590SOL    HW222399   0.234   4.184  25.522
 3591SOL     OW22400   0.057   2.382   8.974
 3591SOL    HW122401   0.047   2.470   8.937
 3591SOL    HW222402   4.781   2.381   9.051
 3592SOL     OW22403   3.508   3.182  20.171
 3592SOL    HW122404   3.467   3.153  20.252
 3592SOL    HW222405   3.435   3.209  20.115
 3593SOL     OW22406   4.335   3.968   1.119
 3593SOL    HW122407   4.419   3.922   1.118
 3593SOL    HW222408   4.328   4.003   1.208
 3594SOL     OW22409   4.331   3.637   9.757
 3594SOL    HW122410   4.413   3.613   9.800
 3594SOL    HW222411   4.337   3.732   9.747
 3595SOL     OW22412   4.664   3.155   2.140
 3595SOL    HW122413   4.595   3.122   2.083
 3595SOL    HW222414   4.693   3.079   2.190
 3596SOL     OW22415   2.587   3.315  27.295
 3596SOL    HW122416   2.507   3.301  27.345
 3596SOL    HW222417   2.557   3.350  27.211
 3597SOL     OW22418   3.793   0.448  23.186
 3597SOL    HW122419   3.815   0.505  23.260
 3597SOL    HW222420   3.819   0.360  23.214
 3598SOL     OW22421   2.920   3.748   0.057
 3598SOL    HW122422   2.917   3.721   0.149
 3598SOL    HW222423   2.988   3.693   0.018
 3599SOL     OW22424   1.129   4.724  11.285
 3599SOL    HW122425   1.129   4.695  11.376
 3599SOL    HW222426   1.202   0.004  11.279
 3600SOL     OW22427   1.249   3.298   9.313
 3600SOL    HW122428   1.334   3.333   9.285
 3600SOL    HW222429   1.236   3.335   9.400
 3601SOL     OW22430   3.706   0.473  25.729
 3601SOL    HW122431   3.645   0.403  25.754
 3601SOL    HW222432   3.757   0.436  25.657
 3602SOL     OW22433   1.964   0.491   8.331
 3602SOL    HW122434   1.934   0.581   8.318
 3602SOL    HW222435   1.926   0.465   8.415
 3603SOL     OW22436   1.924   0.747  20.253
 3603SOL    HW122437   1.862   0.675  20.267
 3603SOL    HW222438   1.878   0.808  20.195
 3604SOL     OW22439   1.670   0.963  20.719
 3604SOL    HW122440   1.669   0.944  20.625
 3604SOL    HW222441   1.754   1.006  20.733
 3605SOL     OW22442   0.787   2.858   1.389
 3605SOL    HW122443   0.815   2.807   1.313
 3605SOL    HW222444   0.823   2.811   1.464
 3606SOL     OW22445   1.740   3.575   2.331
 3606SOL    HW122446   1.746   3.547   2.422
 3606SOL    HW222447   1.772   3.665   2.332
 3607SOL     OW22448   3.514   4.724  26.363
 3607SOL    HW122449   3.550   0.013  26.418
 3607SOL    HW222450   3.585   4.703  26.302
 3608SOL     OW22451   4.518   4.292   8.176
 3608SOL    HW122452   4.468   4.264   8.099
 3608SOL    HW222453   4.521   4.387   8.169
 3609SOL     OW22454   2.648   3.803   8.691
 3609SOL    HW122455   2.721   3.804   8.753
 3609SOL    HW222456   2.642   3.894   8.661
 3610SOL     OW22457   3.115   2.917   5.531
 3610SOL    HW122458   3.208   2.897   5.537
 3610SOL    HW222459   3.074   2.862   5.597
 3611SOL     OW22460   3.683   1.766  20.901
 3611SOL    HW122461   3.719   1.678  20.889
 3611SOL    HW222462   3.653   1.792  20.814
 3612SOL     OW22463   4.611   1.839  23.286
 3612SOL    HW122464   4.527   1.853  23.330
 3612SOL    HW222465   4.658   1.922  23.297
 3613SOL     OW22466   2.735   1.111  21.038
 3613SOL    HW122467   2.706   1.103  20.947
 3613SOL    HW222468   2.761   1.022  21.063
 3614SOL     OW22469   0.883   3.412   8.688
 3614SOL    HW122470   0.934   3.416   8.769
 3614SOL    HW222471   0.886   3.501   8.653
 3615SOL     OW22472   2.116   2.070  11.505
 3615SOL    HW122473   2.148   2.061  11.415
 3615SOL    HW222474   2.022   2.051  11.499
 3616SOL     OW22475   2.173   2.385   4.613
 3616SOL    HW122476   2.133   2.436   4.683
 3616SOL    HW222477   2.254   2.432   4.593
 3617SOL     OW22478   2.810   1.659  18.129
 3617SOL    HW122479   2.717   1.671  18.146
 3617SOL    HW222480   2.813   1.601  18.053
 3618SOL     OW22481   1.667   2.892  27.639
 3618SOL    HW122482   1.721   2.943  27.579
 3618SOL    HW222483   1.596   2.858  27.585
 3619SOL     OW22484   3.752   2.969   6.814
 3619SOL    HW122485   3.736   2.964   6.908
 3619SOL    HW222486   3.672   3.007   6.778
 3620SOL     OW22487   2.994   1.697   7.962
 3620SOL    HW122488   2.996   1.665   7.872
 3620SOL    HW222489   3.070   1.657   8.004
 3621SOL     OW22490   1.525   3.513  22.616
 3621SOL    HW122491   1.461   3.552  22.676
 3621SOL    HW222492   1.607   3.557  22.638
 3622SOL     OW22493   3.380   1.749  27.637
 3622SOL    HW122494   3.315   1.803  27.593
 3622SOL    HW222495   3.331   1.672  27.667
 3623SOL     OW22496   2.448   2.695  21.427
 3623SOL    HW122497   2.376   2.733  21.478
 3623SOL    HW222498   2.525   2.703  21.484
 3624SOL     OW22499   2.631   1.416   3.400
 3624SOL    HW122500   2.589   1.421   3.314
 3624SOL    HW222501   2.639   1.322   3.417
 3625SOL     OW22502   3.499   1.323   7.003
 3625SOL    HW122503   3.425   1.329   7.063
 3625SOL    HW222504   3.473   1.374   6.927
 3626SOL     OW22505   1.610   0.857  24.440
 3626SOL    HW122506   1.683   0.812  24.483
 3626SOL    HW222507   1.589   0.802  24.365
 3627SOL     OW22508   0.889   2.099  18.138
 3627SOL    HW122509   0.907   2.014  18.098
 3627SOL    HW222510   0.875   2.158  18.064
 3628SOL     OW22511   0.487   3.306  23.871
 3628SOL    HW122512   0.502   3.218  23.835
 3628SOL    HW222513   0.570   3.352  23.857
 3629SOL     OW22514   1.336   1.062   0.904
 3629SOL    HW122515   1.409   1.120   0.880
 3629SOL    HW222516   1.258   1.109   0.876
 3630SOL     OW22517   3.733   4.169   6.410
 3630SOL    HW122518   3.724   4.246   6.354
 3630SOL    HW222519   3.662   4.111   6.382
 3631SOL     OW22520   0.484   3.621  19.807
 3631SOL    HW122521   0.390   3.606  19.800
 3631SOL    HW222522   0.498   3.708  19.770
 3632SOL     OW22523   3.691   0.644  23.412
 3632SOL    HW122524   3.720   0.662  23.502
 3632SOL    HW222525   3.621   0.708  23.396
 3633SOL     OW22526   1.888   1.074   7.916
 3633SOL    HW122527   1.848   0.991   7.889
 3633SOL    HW222528   1.962   1.085   7.856
 3634SOL     OW22529   0.436   1.580   4.146
 3634SOL    HW122530   0.356   1.630   4.129
 3634SOL    HW222531   0.427   1.551   4.237
 3635SOL     OW22532   2.595   4.093  20.194
 3635SOL    HW122533   2.555   4.093  20.281
 3635SOL    HW222534   2.567   4.011  20.154
 3636SOL     OW22535   1.789   1.022   5.695
 3636SOL    HW122536   1.766   1.018   5.602
 3636SOL    HW222537   1.759   1.108   5.724
 3637SOL     OW22538   1.135   4.744   4.094
 3637SOL    HW122539   1.082   4.668   4.119
 3637SOL    HW222540   1.225   4.715   4.108
 3638SOL     OW22541   1.632   2.641   2.338
 3638SOL    HW122542   1.651   2.641   2.244
 3638SOL    HW222543   1.717   2.657   2.380
 3639SOL     OW22544   4.451   0.419  27.709
 3639SOL    HW122545   4.535   0.443  27.671
 3639SOL    HW222546   4.389   0.480  27.670
 3640SOL     OW22547   0.462   2.682   3.265
 3640SOL    HW122548   0.435   2.595   3.236
 3640SOL    HW222549   0.485   2.728   3.184
 3641SOL     OW22550   1.483   2.649   3.856
 3641SOL    HW122551   1.550   2.614   3.797
 3641SOL    HW222552   1.524   2.647   3.943
 3642SOL     OW22553   0.349   0.379  26.777
 3642SOL    HW122554   0.438   0.415  26.782
 3642SOL    HW222555   0.347   0.309  26.842
 3643SOL     OW22556   1.565   4.376  22.095
 3643SOL    HW122557   1.543   4.469  22.087
 3643SOL    HW222558   1.558   4.358  22.189
 3644SOL     OW22559   1.624   0.942  24.948
 3644SOL    HW122560   1.712   0.911  24.969
 3644SOL    HW222561   1.573   0.927  25.028
 3645SOL     OW22562   0.393   3.155  28.101
 3645SOL    HW122563   0.484   3.139  28.078
 3645SOL    HW222564   0.375   3.095  28.174
 3646SOL     OW22565   1.541   3.618   0.452
 3646SOL    HW122566   1.560   3.554   0.520
 3646SOL    HW222567   1.501   3.567   0.382
 3647SOL     OW22568   3.020   4.330   9.372
 3647SOL    HW122569   3.024   4.416   9.413
 3647SOL    HW222570   3.030   4.348   9.278
 3648SOL     OW22571   3.903   0.492   2.898
 3648SOL    HW122572   3.818   0.451   2.910
 3648SOL    HW222573   3.964   0.419   2.886
 3649SOL     OW22574   1.897   0.400   8.940
 3649SOL    HW122575   1.989   0.405   8.965
 3649SOL    HW222576   1.875   0.488   8.908
 3650SOL     OW22577   3.971   0.278   2.741
 3650SOL    HW122578   3.912   0.342   2.702
 3650SOL    HW222579   4.058   0.302   2.708
 3651SOL     OW22580   3.514   0.669   6.080
 3651SOL    HW122581   3.562   0.620   6.014
 3651SOL    HW222582   3.426   0.679   6.043
 3652SOL     OW22583   3.330   3.136  28.020
 3652SOL    HW122584   3.276   3.058  28.005
 3652SOL    HW222585   3.340   3.176  27.934
 3653SOL     OW22586   2.167   2.652  12.031
 3653SOL    HW122587   2.173   2.743  12.002
 3653SOL    HW222588   2.143   2.658  12.124
 3654SOL     OW22589   0.731   4.252   0.216
 3654SOL    HW122590   0.710   4.226   0.126
 3654SOL    HW222591   0.711   4.174   0.268
 3655SOL     OW22592   2.966   4.329   1.600
 3655SOL    HW122593   2.884   4.288   1.573
 3655SOL    HW222594   2.952   4.355   1.691
 3656SOL     OW22595   1.844   3.854   4.198
 3656SOL    HW122596   1.918   3.804   4.232
 3656SOL    HW222597   1.840   3.832   4.105
 3657SOL     OW22598   0.109   3.182  21.405
 3657SOL    HW122599   0.127   3.102  21.455
 3657SOL    HW222600   0.061   3.151  21.328
 3658SOL     OW22601   4.219   3.223   8.742
 3658SOL    HW122602   4.258   3.300   8.700
 3658SOL    HW222603   4.282   3.198   8.809
 3659SOL     OW22604   0.696   4.149  28.365
 3659SOL    HW122605   0.690   4.146  28.269
 3659SOL    HW222606   0.723   4.239  28.384
 3660SOL     OW22607   4.726   2.080  23.335
 3660SOL    HW122608   4.771   2.085  23.250
 3660SOL    HW222609   4.723   2.170  23.366
 3661SOL     OW22610   2.819   2.323  20.694
 3661SOL    HW122611   2.862   2.285  20.771
 3661SOL    HW222612   2.755   2.385  20.730
 3662SOL     OW22613   1.998   0.393  22.723
 3662SOL    HW122614   2.004   0.382  22.818
 3662SOL    HW222615   2.085   0.370  22.691
 3663SOL     OW22616   2.789   1.859  26.257
 3663SOL    HW122617   2.780   1.912  26.336
 3663SOL    HW222618   2.773   1.769  26.286
 3664SOL     OW22619   0.849   3.317  19.179
 3664SOL    HW122620   0.906   3.379  19.134
 3664SOL    HW222621   0.886   3.231  19.160
 3665SOL     OW22622   4.645   3.698   2.015
 3665SOL    HW122623   4.606   3.617   1.983
 3665SOL    HW222624   4.697   3.730   1.941
 3666SOL     OW22625   0.900   3.839  10.037
 3666SOL    HW122626   0.950   3.769  10.080
 3666SOL    HW222627   0.955   3.865   9.963
 3667SOL     OW22628   3.545   2.740  24.058
 3667SOL    HW122629   3.450   2.749  24.052
 3667SOL    HW222630   3.574   2.742  23.967
 3668SOL     OW22631   0.706   4.515  22.711
 3668SOL    HW122632   0.743   4.518  22.799
 3668SOL    HW222633   0.678   4.605  22.694
 3669SOL     OW22634   3.728   0.422   3.494
 3669SOL    HW122635   3.679   0.501   3.517
 3669SOL    HW222636   3.664   0.367   3.449
 3670SOL     OW22637   2.676   1.130  22.353
 3670SOL    HW122638   2.653   1.116  22.261
 3670SOL    HW222639   2.673   1.043  22.392
 3671SOL     OW22640   4.507   4.664   4.057
 3671SOL    HW122641   4.522   4.742   4.110
 3671SOL    HW222642   4.531   4.591   4.114
 3672SOL     OW22643   1.353   4.186   3.695
 3672SOL    HW122644   1.361   4.226   3.781
 3672SOL    HW222645   1.420   4.117   3.694
 3673SOL     OW22646   1.855   0.272  22.518
 3673SOL    HW122647   1.921   0.300  22.581
 3673SOL    HW222648   1.793   0.221  22.570
 3674SOL     OW22649   0.514   4.363  20.057
 3674SOL    HW122650   0.431   4.394  20.021
 3674SOL    HW222651   0.571   4.440  20.056
 3675SOL     OW22652   0.222   3.027   2.001
 3675SOL    HW122653   0.170   2.959   1.959
 3675SOL    HW222654   0.246   3.086   1.930
 3676SOL     OW22655   4.120   4.023  10.864
 3676SOL    HW122656   4.070   4.066  10.933
 3676SOL    HW222657   4.067   3.947  10.840
 3677SOL     OW22658   3.933   3.064  24.835
 3677SOL    HW122659   3.957   3.051  24.927
 3677SOL    HW222660   3.964   3.152  24.815
 3678SOL     OW22661   4.411   1.275  27.275
 3678SOL    HW122662   4.452   1.323  27.347
 3678SOL    HW222663   4.366   1.202  27.317
 3679SOL     OW22664   2.595   0.584   8.610
 3679SOL    HW122665   2.557   0.672   8.616
 3679SOL    HW222666   2.682   0.598   8.572
 3680SOL     OW22667   1.846   0.504  27.431
 3680SOL    HW122668   1.785   0.532  27.499
 3680SOL    HW222669   1.920   0.564  27.439
 3681SOL     OW22670   2.628   3.784   8.130
 3681SOL    HW122671   2.587   3.862   8.093
 3681SOL    HW222672   2.721   3.806   8.136
 3682SOL     OW22673   1.838   3.724  10.822
 3682SOL    HW122674   1.932   3.709  10.815
 3682SOL    HW222675   1.828   3.818  10.810
 3683SOL     OW22676   4.340   3.254   6.113
 3683SOL    HW122677   4.261   3.201   6.119
 3683SOL    HW222678   4.358   3.281   6.203
 3684SOL     OW22679   2.691   2.077   1.641
 3684SOL    HW122680   2.732   2.157   1.608
 3684SOL    HW222681   2.597   2.090   1.628
 3685SOL     OW22682   0.197   1.262   9.488
 3685SOL    HW122683   0.204   1.354   9.515
 3685SOL    HW222684   0.103   1.246   9.480
 3686SOL     OW22685   0.930   3.117  19.917
 3686SOL    HW122686   0.892   3.197  19.880
 3686SOL    HW222687   1.023   3.136  19.926
 3687SOL     OW22688   4.709   2.310   9.487
 3687SOL    HW122689   4.646   2.239   9.501
 3687SOL    HW222690   4.686   2.375   9.554
 3688SOL     OW22691   0.529   2.192   6.861
 3688SOL    HW122692   0.448   2.158   6.823
 3688SOL    HW222693   0.570   2.116   6.902
 3689SOL     OW22694   3.829   4.191   0.641
 3689SOL    HW122695   3.766   4.149   0.583
 3689SOL    HW222696   3.876   4.252   0.585
 3690SOL     OW22697   3.627   2.577  24.259
 3690SOL    HW122698   3.594   2.629  24.186
 3690SOL    HW222699   3.713   2.547  24.230
 3691SOL     OW22700   0.149   4.077  26.115
 3691SOL    HW122701   0.188   4.135  26.050
 3691SOL    HW222702   0.122   4.000  26.066
 3692SOL     OW22703   2.306   1.773   6.666
 3692SOL    HW122704   2.335   1.687   6.635
 3692SOL    HW222705   2.347   1.782   6.752
 3693SOL     OW22706   3.899   4.292   7.688
 3693SOL    HW122707   3.843   4.367   7.709
 3693SOL    HW222708   3.899   4.289   7.592
 3694SOL     OW22709   3.337   0.170  22.485
 3694SOL    HW122710   3.432   0.173  22.494
 3694SOL    HW222711   3.322   0.167  22.390
 3695SOL     OW22712   3.214   0.146   1.800
 3695SOL    HW122713   3.155   0.220   1.815
 3695SOL    HW222714   3.299   0.177   1.832
 3696SOL     OW22715   1.400   2.233   1.037
 3696SOL    HW122716   1.334   2.213   1.103
 3696SOL    HW222717   1.387   2.326   1.017
 3697SOL     OW22718   4.327   4.023  24.302
 3697SOL    HW122719   4.263   4.062  24.361
 3697SOL    HW222720   4.397   4.088  24.296
 3698SOL     OW22721   0.650   0.807   2.422
 3698SOL    HW122722   0.677   0.718   2.402
 3698SOL    HW222723   0.722   0.862   2.391
 3699SOL     OW22724   1.802   0.784  24.647
 3699SOL    HW122725   1.836   0.852  24.705
 3699SOL    HW222726   1.760   0.721  24.706
 3700SOL     OW22727   3.030   0.894   7.378
 3700SOL    HW122728   3.051   0.987   7.372
 3700SOL    HW222729   3.043   0.873   7.470
 3701SOL     OW22730   2.430   3.602   9.895
 3701SOL    HW122731   2.378   3.667   9.942
 3701SOL    HW222732   2.498   3.576   9.957
 3702SOL     OW22733   2.678   0.721  20.916
 3702SOL    HW122734   2.755   0.664  20.912
 3702SOL    HW222735   2.672   0.759  20.828
 3703SOL     OW22736   3.628   4.178   5.982
 3703SOL    HW122737   3.718   4.148   5.997
 3703SOL    HW222738   3.581   4.100   5.952
 3704SOL     OW22739   0.837   3.345  19.499
 3704SOL    HW122740   0.824   3.346  19.404
 3704SOL    HW222741   0.800   3.262  19.528
 3705SOL     OW22742   2.210   2.938   9.201
 3705SOL    HW122743   2.218   3.030   9.228
 3705SOL    HW222744   2.289   2.921   9.150
 3706SOL     OW22745   4.317   4.517  27.420
 3706SOL    HW122746   4.352   4.568  27.493
 3706SOL    HW222747   4.285   4.583  27.358
 3707SOL     OW22748   4.341   0.548  22.031
 3707SOL    HW122749   4.410   0.517  21.972
 3707SOL    HW222750   4.384   0.612  22.087
 3708SOL     OW22751   1.067   4.658   8.665
 3708SOL    HW122752   1.135   4.659   8.598
 3708SOL    HW222753   1.012   4.582   8.643
 3709SOL     OW22754   0.374   3.907  11.148
 3709SOL    HW122755   0.280   3.893  11.153
 3709SOL    HW222756   0.409   3.866  11.227
 3710SOL     OW22757   1.242   4.779  20.345
 3710SOL    HW122758   1.159   4.757  20.302
 3710SOL    HW222759   1.308   4.730  20.297
 3711SOL     OW22760   0.469   1.117  21.739
 3711SOL    HW122761   0.521   1.197  21.733
 3711SOL    HW222762   0.378   1.147  21.745
 3712SOL     OW22763   3.116   2.754   3.073
 3712SOL    HW122764   3.129   2.661   3.089
 3712SOL    HW222765   3.069   2.757   2.989
 3713SOL     OW22766   2.042   2.473  19.592
 3713SOL    HW122767   1.984   2.536  19.634
 3713SOL    HW222768   2.036   2.493  19.499
 3714SOL     OW22769   3.313   1.375  10.193
 3714SOL    HW122770   3.333   1.361  10.286
 3714SOL    HW222771   3.219   1.357  10.186
 3715SOL     OW22772   2.409   2.449  20.236
 3715SOL    HW122773   2.377   2.377  20.181
 3715SOL    HW222774   2.504   2.446  20.226
 3716SOL     OW22775   1.458   4.355  24.117
 3716SOL    HW122776   1.410   4.411  24.179
 3716SOL    HW222777   1.391   4.322  24.058
 3717SOL     OW22778   3.236   1.854  25.932
 3717SOL    HW122779   3.287   1.847  25.851
 3717SOL    HW222780   3.245   1.768  25.973
 3718SOL     OW22781   1.782   4.019  10.451
 3718SOL    HW122782   1.792   4.033  10.357
 3718SOL    HW222783   1.718   4.084  10.478
 3719SOL     OW22784   1.301   3.280  22.221
 3719SOL    HW122785   1.233   3.214  22.205
 3719SOL    HW222786   1.353   3.243  22.292
 3720SOL     OW22787   2.599   3.387  21.507
 3720SOL    HW122788   2.677   3.412  21.457
 3720SOL    HW222789   2.621   3.302  21.544
 3721SOL     OW22790   1.663   0.586   1.612
 3721SOL    HW122791   1.633   0.670   1.577
 3721SOL    HW222792   1.588   0.551   1.660
 3722SOL     OW22793   1.362   1.310   2.148
 3722SOL    HW122794   1.382   1.257   2.225
 3722SOL    HW222795   1.447   1.324   2.106
 3723SOL     OW22796   2.815   1.615   1.798
 3723SOL    HW122797   2.783   1.641   1.884
 3723SOL    HW222798   2.746   1.643   1.738
 3724SOL     OW22799   0.298   0.695  28.371
 3724SOL    HW122800   0.214   0.663  28.337
 3724SOL    HW222801   0.285   0.789  28.380
 3725SOL     OW22802   0.044   4.734  25.368
 3725SOL    HW122803   0.052   4.780  25.284
 3725SOL    HW222804   4.771   0.011  25.422
 3726SOL     OW22805   1.253   1.098   4.591
 3726SOL    HW122806   1.256   1.033   4.521
 3726SOL    HW222807   1.275   1.049   4.670
 3727SOL     OW22808   4.538   1.487  27.755
 3727SOL    HW122809   4.524   1.528  27.670
 3727SOL    HW222810   4.631   1.466  27.756
 3728SOL     OW22811   4.535   3.413   2.844
 3728SOL    HW122812   4.479   3.408   2.922
 3728SOL    HW222813   4.623   3.430   2.879
 3729SOL     OW22814   4.588   1.273  25.526
 3729SOL    HW122815   4.538   1.318  25.594
 3729SOL    HW222816   4.523   1.222  25.478
 3730SOL     OW22817   3.482   0.006   4.822
 3730SOL    HW122818   3.533   0.060   4.761
 3730SOL    HW222819   3.502   0.043   4.908
 3731SOL     OW22820   0.709   2.740  22.187
 3731SOL    HW122821   0.755   2.824  22.180
 3731SOL    HW222822   0.660   2.733  22.105
 3732SOL     OW22823   2.356   1.600  18.391
 3732SOL    HW122824   2.314   1.681  18.419
 3732SOL    HW222825   2.328   1.535  18.455
 3733SOL     OW22826   4.504   1.338  23.013
 3733SOL    HW122827   4.521   1.301  23.100
 3733SOL    HW222828   4.450   1.415  23.030
 3734SOL     OW22829   2.686   4.720  28.419
 3734SOL    HW122830   2.611   4.771  28.450
 3734SOL    HW222831   2.650   4.663  28.351
 3735SOL     OW22832   4.335   1.002  16.905
 3735SOL    HW122833   4.335   0.973  16.814
 3735SOL    HW222834   4.408   0.955  16.945
 3736SOL     OW22835   3.014   3.920  22.685
 3736SOL    HW122836   2.927   3.887  22.663
 3736SOL    HW222837   3.009   4.014  22.669
 3737SOL     OW22838   0.347   1.541  18.282
 3737SOL    HW122839   0.441   1.560  18.288
 3737SOL    HW222840   0.310   1.579  18.362
 3738SOL     OW22841   2.744   0.906  27.443
 3738SOL    HW122842   2.835   0.894  27.415
 3738SOL    HW222843   2.751   0.943  27.531
 3739SOL     OW22844   1.703   0.244  19.179
 3739SOL    HW122845   1.634   0.218  19.118
 3739SOL    HW222846   1.784   0.235  19.129
 3740SOL     OW22847   4.290   2.877   2.215
 3740SOL    HW122848   4.269   2.966   2.244
 3740SOL    HW222849   4.363   2.851   2.271
 3741SOL     OW22850   1.008   1.107   0.715
 3741SOL    HW122851   0.978   1.023   0.679
 3741SOL    HW222852   1.071   1.139   0.650
 3742SOL     OW22853   1.213   2.101  17.458
 3742SOL    HW122854   1.301   2.069  17.439
 3742SOL    HW222855   1.204   2.092  17.553
 3743SOL     OW22856   3.364   3.555  20.594
 3743SOL    HW122857   3.459   3.552  20.585
 3743SOL    HW222858   3.331   3.549  20.504
 3744SOL     OW22859   3.357   4.321  24.607
 3744SOL    HW122860   3.448   4.320  24.638
 3744SOL    HW222861   3.330   4.229  24.611
 3745SOL     OW22862   3.969   0.212   0.060
 3745SOL    HW122863   3.877   0.230   0.077
 3745SOL    HW222864   3.974   0.203  28.487
 3746SOL     OW22865   3.613   4.358   6.184
 3746SOL    HW122866   3.613   4.308   6.102
 3746SOL    HW222867   3.522   4.385   6.195
 3747SOL     OW22868   0.579   0.784  24.045
 3747SOL    HW122869   0.495   0.828  24.034
 3747SOL    HW222870   0.565   0.725  24.119
 3748SOL     OW22871   3.600   0.056  10.443
 3748SOL    HW122872   3.661   0.082  10.512
 3748SOL    HW222873   3.515   0.054  10.487
 3749SOL     OW22874   4.573   4.438  21.854
 3749SOL    HW122875   4.654   4.388  21.847
 3749SOL    HW222876   4.504   4.372  21.854
 3750SOL     OW22877   0.641   0.833   3.408
 3750SOL    HW122878   0.620   0.748   3.448
 3750SOL    HW222879   0.567   0.889   3.432
 3751SOL     OW22880   2.482   4.660   8.010
 3751SOL    HW122881   2.399   4.615   8.023
 3751SOL    HW222882   2.490   4.718   8.085
 3752SOL     OW22883   0.153   0.330  20.612
 3752SOL    HW122884   0.185   0.248  20.574
 3752SOL    HW222885   0.229   0.389  20.610
 3753SOL     OW22886   1.728   1.166  27.673
 3753SOL    HW122887   1.819   1.172  27.643
 3753SOL    HW222888   1.675   1.180  27.594
 3754SOL     OW22889   0.608   0.348   7.574
 3754SOL    HW122890   0.687   0.302   7.546
 3754SOL    HW222891   0.623   0.439   7.549
 3755SOL     OW22892   0.070   0.020  27.667
 3755SOL    HW122893   0.163   4.780  27.676
 3755SOL    HW222894   0.060   0.102  27.715
 3756SOL     OW22895   4.690   3.942  23.100
 3756SOL    HW122896   4.622   3.876  23.089
 3756SOL    HW222897   4.680   3.973  23.190
 3757SOL     OW22898   2.770   3.502   2.012
 3757SOL    HW122899   2.762   3.421   1.961
 3757SOL    HW222900   2.699   3.557   1.979
 3758SOL     OW22901   2.472   1.928  23.850
 3758SOL    HW122902   2.557   1.926  23.807
 3758SOL    HW222903   2.489   1.897  23.939
 3759SOL     OW22904   0.157   0.336   5.304
 3759SOL    HW122905   0.239   0.353   5.350
 3759SOL    HW222906   0.106   0.416   5.316
 3760SOL     OW22907   1.459   1.971  26.909
 3760SOL    HW122908   1.459   2.008  26.997
 3760SOL    HW222909   1.432   1.880  26.921
 3761SOL     OW22910   1.048   3.366  10.807
 3761SOL    HW122911   1.031   3.440  10.866
 3761SOL    HW222912   1.030   3.401  10.720
 3762SOL     OW22913   4.569   4.301  25.482
 3762SOL    HW122914   4.483   4.260  25.488
 3762SOL    HW222915   4.622   4.238  25.433
 3763SOL     OW22916   4.373   1.581   3.317
 3763SOL    HW122917   4.403   1.522   3.248
 3763SOL    HW222918   4.280   1.595   3.298
 3764SOL     OW22919   2.905   4.419   0.207
 3764SOL    HW122920   2.864   4.333   0.215
 3764SOL    HW222921   2.854   4.464   0.139
 3765SOL     OW22922   3.694   0.261   0.076
 3765SOL    HW122923   3.633   0.297   0.012
 3765SOL    HW222924   3.646   0.264   0.159
 3766SOL     OW22925   3.841   2.075  23.506
 3766SOL    HW122926   3.789   2.027  23.571
 3766SOL    HW222927   3.820   2.034  23.422
 3767SOL     OW22928   4.031   3.478   0.042
 3767SOL    HW122929   4.073   3.535   0.106
 3767SOL    HW222930   3.972   3.423   0.094
 3768SOL     OW22931   1.522   3.452   6.610
 3768SOL    HW122932   1.602   3.494   6.641
 3768SOL    HW222933   1.493   3.508   6.538
 3769SOL     OW22934   1.508   4.382  21.704
 3769SOL    HW122935   1.471   4.409  21.788
 3769SOL    HW222936   1.455   4.428  21.639
 3770SOL     OW22937   3.469   2.647   7.061
 3770SOL    HW122938   3.461   2.680   6.971
 3770SOL    HW222939   3.551   2.598   7.061
 3771SOL     OW22940   4.541   0.960  11.084
 3771SOL    HW122941   4.559   1.039  11.034
 3771SOL    HW222942   4.627   0.921  11.099
 3772SOL     OW22943   1.309   0.676  22.502
 3772SOL    HW122944   1.257   0.657  22.580
 3772SOL    HW222945   1.394   0.637  22.519
 3773SOL     OW22946   2.058   3.565   4.917
 3773SOL    HW122947   1.988   3.556   4.982
 3773SOL    HW222948   2.091   3.476   4.906
 3774SOL     OW22949   0.118   4.688  27.951
 3774SOL    HW122950   0.029   4.656  27.936
 3774SOL    HW222951   0.166   4.661  27.873
 3775SOL     OW22952   3.680   4.524  11.682
 3775SOL    HW122953   3.595   4.540  11.723
 3775SOL    HW222954   3.741   4.579  11.731
 3776SOL     OW22955   4.150   0.074  21.351
 3776SOL    HW122956   4.059   0.104  21.353
 3776SOL    HW222957   4.156   0.023  21.271
 3777SOL     OW22958   3.847   0.385   1.175
 3777SOL    HW122959   3.864   0.291   1.172
 3777SOL    HW222960   3.892   0.415   1.254
 3778SOL     OW22961   0.184   1.663  24.910
 3778SOL    HW122962   0.102   1.678  24.863
 3778SOL    HW222963   0.252   1.686  24.847
 3779SOL     OW22964   3.567   3.324  11.360
 3779SOL    HW122965   3.507   3.363  11.296
 3779SOL    HW222966   3.539   3.360  11.444
 3780SOL     OW22967   3.078   4.014  25.413
 3780SOL    HW122968   3.032   4.017  25.497
 3780SOL    HW222969   3.161   4.058  25.430
 3781SOL     OW22970   4.301   1.388   5.673
 3781SOL    HW122971   4.387   1.359   5.643
 3781SOL    HW222972   4.247   1.309   5.668
 3782SOL     OW22973   4.078   4.677   2.127
 3782SOL    HW122974   3.995   4.639   2.154
 3782SOL    HW222975   4.118   4.610   2.072
 3783SOL     OW22976   4.665   1.484   5.268
 3783SOL    HW122977   4.623   1.415   5.319
 3783SOL    HW222978   4.696   1.440   5.189
 3784SOL     OW22979   0.277   2.894  23.097
 3784SOL    HW122980   0.366   2.903  23.131
 3784SOL    HW222981   0.240   2.982  23.101
 3785SOL     OW22982   0.275   4.124  22.911
 3785SOL    HW122983   0.329   4.084  22.979
 3785SOL    HW222984   0.325   4.201  22.883
 3786SOL     OW22985   0.429   3.695  24.384
 3786SOL    HW122986   0.376   3.732  24.454
 3786SOL    HW222987   0.367   3.679  24.313
 3787SOL     OW22988   3.224   4.172   5.038
 3787SOL    HW122989   3.300   4.149   5.092
 3787SOL    HW222990   3.234   4.266   5.022
 3788SOL     OW22991   0.715   3.248   3.368
 3788SOL    HW122992   0.722   3.278   3.277
 3788SOL    HW222993   0.776   3.304   3.416
 3789SOL     OW22994   0.684   1.460   1.183
 3789SOL    HW122995   0.750   1.436   1.249
 3789SOL    HW222996   0.666   1.552   1.200
 3790SOL     OW22997   3.741   1.320  21.218
 3790SOL    HW122998   3.734   1.229  21.189
 3790SOL    HW222999   3.832   1.345  21.200
 3791SOL     OW23000   4.340   2.127  23.524
 3791SOL    HW123001   4.376   2.114  23.612
 3791SOL    HW223002   4.254   2.085  23.527
 3792SOL     OW23003   1.574   4.740   3.910
 3792SOL    HW123004   1.527   4.659   3.891
 3792SOL    HW223005   1.538   0.023   3.849
 3793SOL     OW23006   2.771   0.119  28.025
 3793SOL    HW123007   2.724   0.201  28.013
 3793SOL    HW223008   2.705   0.058  28.058
 3794SOL     OW23009   3.789   4.271   1.042
 3794SOL    HW123010   3.833   4.336   0.987
 3794SOL    HW223011   3.719   4.320   1.086
 3795SOL     OW23012   3.521   1.869  24.298
 3795SOL    HW123013   3.574   1.927  24.243
 3795SOL    HW223014   3.431   1.883  24.269
 3796SOL     OW23015   1.311   1.023  26.854
 3796SOL    HW123016   1.399   1.060  26.851
 3796SOL    HW223017   1.321   0.942  26.904
 3797SOL     OW23018   0.712   0.914  23.510
 3797SOL    HW123019   0.697   1.008  23.512
 3797SOL    HW223020   0.633   0.876  23.550
 3798SOL     OW23021   0.921   1.944  11.043
 3798SOL    HW123022   0.934   1.974  11.133
 3798SOL    HW223023   0.896   2.023  10.995
 3799SOL     OW23024   1.035   4.440   4.689
 3799SOL    HW123025   1.073   4.523   4.719
 3799SOL    HW223026   0.951   4.465   4.651
 3800SOL     OW23027   2.051   4.677  22.997
 3800SOL    HW123028   2.086   4.620  23.066
 3800SOL    HW223029   2.125   4.689  22.937
 3801SOL     OW23030   2.927   1.933  24.932
 3801SOL    HW123031   2.854   1.875  24.953
 3801SOL    HW223032   3.004   1.877  24.935
 3802SOL     OW23033   3.595   2.324  24.043
 3802SOL    HW123034   3.616   2.388  23.975
 3802SOL    HW223035   3.675   2.317  24.095
 3803SOL     OW23036   1.940   1.176  25.986
 3803SOL    HW123037   2.017   1.152  25.934
 3803SOL    HW223038   1.942   1.116  26.060
 3804SOL     OW23039   3.741   1.554  26.545
 3804SOL    HW123040   3.819   1.557  26.600
 3804SOL    HW223041   3.689   1.482  26.581
 3805SOL     OW23042   1.862   1.984  21.494
 3805SOL    HW123043   1.908   1.932  21.428
 3805SOL    HW223044   1.849   2.069  21.453
 3806SOL     OW23045   4.303   1.535   6.623
 3806SOL    HW123046   4.322   1.615   6.574
 3806SOL    HW223047   4.237   1.561   6.687
 3807SOL     OW23048   1.167   2.337  27.013
 3807SOL    HW123049   1.095   2.341  26.950
 3807SOL    HW223050   1.243   2.312  26.961
 3808SOL     OW23051   1.890   1.670  24.535
 3808SOL    HW123052   1.866   1.717  24.615
 3808SOL    HW223053   1.928   1.588  24.566
 3809SOL     OW23054   1.662   4.167   8.137
 3809SOL    HW123055   1.641   4.122   8.219
 3809SOL    HW223056   1.627   4.109   8.069
 3810SOL     OW23057   2.122   4.692   8.521
 3810SOL    HW123058   2.031   4.710   8.497
 3810SOL    HW223059   2.172   4.762   8.479
 3811SOL     OW23060   0.704   4.403  24.424
 3811SOL    HW123061   0.658   4.487  24.430
 3811SOL    HW223062   0.664   4.349  24.493
 3812SOL     OW23063   2.002   2.901  20.582
 3812SOL    HW123064   2.085   2.886  20.628
 3812SOL    HW223065   1.940   2.925  20.651
 3813SOL     OW23066   2.791   2.589  25.456
 3813SOL    HW123067   2.850   2.523  25.420
 3813SOL    HW223068   2.722   2.598  25.390
 3814SOL     OW23069   4.616   4.502  22.358
 3814SOL    HW123070   4.620   4.521  22.264
 3814SOL    HW223071   4.537   4.547  22.388
 3815SOL     OW23072   4.092   0.522   8.167
 3815SOL    HW123073   4.105   0.485   8.254
 3815SOL    HW223074   3.997   0.520   8.153
 3816SOL     OW23075   3.237   3.567   9.477
 3816SOL    HW123076   3.259   3.578   9.569
 3816SOL    HW223077   3.171   3.498   9.477
 3817SOL     OW23078   0.576   3.396  26.229
 3817SOL    HW123079   0.561   3.441  26.312
 3817SOL    HW223080   0.505   3.332  26.223
 3818SOL     OW23081   2.208   2.758  19.743
 3818SOL    HW123082   2.262   2.833  19.717
 3818SOL    HW223083   2.213   2.698  19.669
 3819SOL     OW23084   1.553   3.671  10.584
 3819SOL    HW123085   1.553   3.690  10.490
 3819SOL    HW223086   1.579   3.753  10.625
 3820SOL     OW23087   2.957   0.517   6.744
 3820SOL    HW123088   3.026   0.573   6.778
 3820SOL    HW223089   2.884   0.528   6.805
 3821SOL     OW23090   1.788   0.183   4.562
 3821SOL    HW123091   1.771   0.222   4.476
 3821SOL    HW223092   1.867   0.228   4.593
 3822SOL     OW23093   2.862   2.100  21.322
 3822SOL    HW123094   2.904   2.186  21.313
 3822SOL    HW223095   2.919   2.040  21.275
 3823SOL     OW23096   2.668   4.446   9.432
 3823SOL    HW123097   2.712   4.391   9.497
 3823SOL    HW223098   2.575   4.430   9.446
 3824SOL     OW23099   0.236   4.444  25.227
 3824SOL    HW123100   0.293   4.374  25.258
 3824SOL    HW223101   0.159   4.438  25.284
 3825SOL     OW23102   2.816   2.597  21.137
 3825SOL    HW123103   2.887   2.657  21.114
 3825SOL    HW223104   2.778   2.635  21.216
 3826SOL     OW23105   2.982   0.987  21.781
 3826SOL    HW123106   2.917   1.005  21.713
 3826SOL    HW223107   3.025   1.071  21.796
 3827SOL     OW23108   3.413   0.954  25.679
 3827SOL    HW123109   3.482   0.903  25.722
 3827SOL    HW223110   3.368   0.891  25.622
 3828SOL     OW23111   2.898   1.817  23.360
 3828SOL    HW123112   2.883   1.725  23.382
 3828SOL    HW223113   2.970   1.815  23.298
 3829SOL     OW23114   4.658   1.890   0.164
 3829SOL    HW123115   4.644   1.955   0.233
 3829SOL    HW223116   4.727   1.833   0.199
 3830SOL     OW23117   1.152   0.802   2.496
 3830SOL    HW123118   1.098   0.743   2.549
 3830SOL    HW223119   1.137   0.889   2.534
 3831SOL     OW23120   3.209   4.523   9.104
 3831SOL    HW123121   3.235   4.562   9.020
 3831SOL    HW223122   3.292   4.508   9.150
 3832SOL     OW23123   0.489   2.508   5.002
 3832SOL    HW123124   0.581   2.529   4.986
 3832SOL    HW223125   0.464   2.454   4.927
 3833SOL     OW23126   0.086   3.481   7.517
 3833SOL    HW123127   0.054   3.564   7.483
 3833SOL    HW223128   0.009   3.439   7.554
 3834SOL     OW23129   3.264   0.543  22.957
 3834SOL    HW123130   3.210   0.619  22.937
 3834SOL    HW223131   3.214   0.468  22.925
 3835SOL     OW23132   1.195   2.083   4.779
 3835SOL    HW123133   1.180   2.168   4.738
 3835SOL    HW223134   1.138   2.084   4.856
 3836SOL     OW23135   4.427   2.453  21.223
 3836SOL    HW123136   4.458   2.371  21.262
 3836SOL    HW223137   4.347   2.473  21.271
 3837SOL     OW23138   3.933   3.981   0.803
 3837SOL    HW123139   3.890   4.058   0.766
 3837SOL    HW223140   4.015   4.014   0.838
 3838SOL     OW23141   2.598   0.140  19.043
 3838SOL    HW123142   2.633   0.198  18.975
 3838SOL    HW223143   2.663   0.070  19.051
 3839SOL     OW23144   0.718   0.382  20.325
 3839SOL    HW123145   0.715   0.295  20.364
 3839SOL    HW223146   0.636   0.389  20.276
 3840SOL     OW23147   4.728   4.485  19.932
 3840SOL    HW123148   0.011   4.463  19.999
 3840SOL    HW223149   4.698   4.400  19.899
 3841SOL     OW23150   1.167   2.305   5.528
 3841SOL    HW123151   1.093   2.290   5.587
 3841SOL    HW223152   1.169   2.400   5.515
 3842SOL     OW23153   3.605   0.227  23.996
 3842SOL    HW123154   3.692   0.263  24.014
 3842SOL    HW223155   3.613   0.134  24.019
 3843SOL     OW23156   0.873   4.154   3.763
 3843SOL    HW123157   0.780   4.175   3.764
 3843SOL    HW223158   0.911   4.217   3.702
 3844SOL     OW23159   1.489   3.544   4.127
 3844SOL    HW123160   1.524   3.504   4.207
 3844SOL    HW223161   1.398   3.564   4.148
 3845SOL     OW23162   1.283   2.584   9.319
 3845SOL    HW123163   1.321   2.496   9.322
 3845SOL    HW223164   1.232   2.592   9.400
 3846SOL     OW23165   4.223   3.458  26.001
 3846SOL    HW123166   4.241   3.552  26.002
 3846SOL    HW223167   4.219   3.433  26.093
 3847SOL     OW23168   4.685   4.651   3.430
 3847SOL    HW123169   4.639   4.728   3.395
 3847SOL    HW223170   4.615   4.589   3.450
 3848SOL     OW23171   4.032   4.103   0.329
 3848SOL    HW123172   3.987   4.029   0.370
 3848SOL    HW223173   3.987   4.180   0.363
 3849SOL     OW23174   3.075   2.898  19.389
 3849SOL    HW123175   3.132   2.912  19.313
 3849SOL    HW223176   3.012   2.832  19.360
 3850SOL     OW23177   4.102   0.676   1.679
 3850SOL    HW123178   4.094   0.764   1.643
 3850SOL    HW223179   4.044   0.622   1.625
 3851SOL     OW23180   2.140   1.393  23.335
 3851SOL    HW123181   2.126   1.337  23.258
 3851SOL    HW223182   2.097   1.476  23.312
 3852SOL     OW23183   0.146   3.204   8.208
 3852SOL    HW123184   0.127   3.180   8.117
 3852SOL    HW223185   0.209   3.275   8.201
 3853SOL     OW23186   0.975   0.358  23.857
 3853SOL    HW123187   0.976   0.421  23.785
 3853SOL    HW223188   1.033   0.395  23.923
 3854SOL     OW23189   0.037   3.465   7.120
 3854SOL    HW123190   0.075   3.521   7.188
 3854SOL    HW223191   4.740   3.512   7.091
 3855SOL     OW23192   4.245   0.072   8.826
 3855SOL    HW123193   4.313   0.023   8.871
 3855SOL    HW223194   4.167   0.017   8.833
 3856SOL     OW23195   2.049   1.289   3.149
 3856SOL    HW123196   2.096   1.257   3.226
 3856SOL    HW223197   2.088   1.374   3.131
 3857SOL     OW23198   1.444   3.434   5.019
 3857SOL    HW123199   1.352   3.411   5.009
 3857SOL    HW223200   1.465   3.485   4.940
 3858SOL     OW23201   1.446   0.737   2.751
 3858SOL    HW123202   1.459   0.774   2.664
 3858SOL    HW223203   1.385   0.797   2.794
 3859SOL     OW23204   2.521   0.991  23.410
 3859SOL    HW123205   2.466   1.001  23.488
 3859SOL    HW223206   2.542   1.080  23.383
 3860SOL     OW23207   1.798   4.631   0.468
 3860SOL    HW123208   1.825   4.607   0.556
 3860SOL    HW223209   1.853   4.578   0.410
 3861SOL     OW23210   3.990   3.667  25.814
 3861SOL    HW123211   3.925   3.597  25.823
 3861SOL    HW223212   4.000   3.702  25.902
 3862SOL     OW23213   2.948   4.067   0.931
 3862SOL    HW123214   2.902   4.150   0.924
 3862SOL    HW223215   2.972   4.061   1.023
 3863SOL     OW23216   3.165   1.933  20.048
 3863SOL    HW123217   3.131   1.867  20.109
 3863SOL    HW223218   3.193   2.005  20.104
 3864SOL     OW23219   3.228   0.667  27.654
 3864SOL    HW123220   3.201   0.758  27.668
 3864SOL    HW223221   3.293   0.672  27.583
 3865SOL     OW23222   0.137   4.775  21.530
 3865SOL    HW123223   0.124   0.058  21.460
 3865SOL    HW223224   0.207   4.718  21.498
 3866SOL     OW23225   2.844   2.231   1.224
 3866SOL    HW123226   2.913   2.221   1.290
 3866SOL    HW223227   2.881   2.292   1.160
 3867SOL     OW23228   1.704   3.385   0.011
 3867SOL    HW123229   1.681   3.295  28.511
 3867SOL    HW223230   1.705   3.386   0.107
 3868SOL     OW23231   1.558   4.430   1.544
 3868SOL    HW123232   1.564   4.355   1.484
 3868SOL    HW223233   1.550   4.506   1.486
 3869SOL     OW23234   0.098   0.761   9.033
 3869SOL    HW123235   0.087   0.797   8.945
 3869SOL    HW223236   0.181   0.798   9.063
 3870SOL     OW23237   0.004   3.432   5.364
 3870SOL    HW123238   0.050   3.505   5.322
 3870SOL    HW223239   0.052   3.417   5.445
 3871SOL     OW23240   2.326   4.421  11.095
 3871SOL    HW123241   2.235   4.449  11.105
 3871SOL    HW223242   2.357   4.406  11.184
 3872SOL     OW23243   3.357   2.555  10.489
 3872SOL    HW123244   3.443   2.575  10.526
 3872SOL    HW223245   3.295   2.578  10.559
 3873SOL     OW23246   2.899   2.173   9.780
 3873SOL    HW123247   2.870   2.150   9.692
 3873SOL    HW223248   2.995   2.168   9.775
 3874SOL     OW23249   1.326   1.142  20.816
 3874SOL    HW123250   1.376   1.220  20.840
 3874SOL    HW223251   1.279   1.118  20.896
 3875SOL     OW23252   2.508   0.791  26.676
 3875SOL    HW123253   2.425   0.770  26.719
 3875SOL    HW223254   2.574   0.776  26.744
 3876SOL     OW23255   0.306   2.578  22.390
 3876SOL    HW123256   0.324   2.550  22.300
 3876SOL    HW223257   0.365   2.652  22.404
 3877SOL     OW23258   2.356   1.959  22.429
 3877SOL    HW123259   2.362   1.885  22.489
 3877SOL    HW223260   2.421   2.021  22.461
 3878SOL     OW23261   1.611   1.145  19.080
 3878SOL    HW123262   1.543   1.133  19.014
 3878SOL    HW223263   1.691   1.162  19.029
 3879SOL     OW23264   0.771   3.269  27.378
 3879SOL    HW123265   0.815   3.235  27.456
 3879SOL    HW223266   0.678   3.268  27.400
 3880SOL     OW23267   2.154   0.076   3.452
 3880SOL    HW123268   2.090   0.145   3.436
 3880SOL    HW223269   2.105   4.776   3.441
 3881SOL     OW23270   3.914   1.436  10.366
 3881SOL    HW123271   3.940   1.344  10.375
 3881SOL    HW223272   3.876   1.459  10.451
 3882SOL     OW23273   1.847   1.027   1.235
 3882SOL    HW123274   1.816   0.945   1.274
 3882SOL    HW223275   1.909   1.000   1.167
 3883SOL     OW23276   2.309   2.953  21.431
 3883SOL    HW123277   2.273   2.957  21.520
 3883SOL    HW223278   2.232   2.948  21.374
 3884SOL     OW23279   0.283   1.855  26.435
 3884SOL    HW123280   0.307   1.871  26.526
 3884SOL    HW223281   0.364   1.869  26.386
 3885SOL     OW23282   0.310   2.740  27.734
 3885SOL    HW123283   0.307   2.683  27.811
 3885SOL    HW223284   0.242   2.806  27.751
 3886SOL     OW23285   2.583   0.114   3.058
 3886SOL    HW123286   2.525   0.180   3.096
 3886SOL    HW223287   2.664   0.121   3.108
 3887SOL     OW23288   2.072   3.859  11.577
 3887SOL    HW123289   2.166   3.874  11.567
 3887SOL    HW223290   2.065   3.765  11.595
 3888SOL     OW23291   0.366   2.678   8.926
 3888SOL    HW123292   0.395   2.613   8.861
 3888SOL    HW223293   0.394   2.642   9.010
 3889SOL     OW23294   3.572   2.685   4.672
 3889SOL    HW123295   3.565   2.766   4.723
 3889SOL    HW223296   3.647   2.639   4.710
 3890SOL     OW23297   2.574   2.569  24.495
 3890SOL    HW123298   2.543   2.586  24.584
 3890SOL    HW223299   2.545   2.480  24.476
 3891SOL     OW23300   1.200   0.593   3.421
 3891SOL    HW123301   1.143   0.585   3.345
 3891SOL    HW223302   1.171   0.673   3.464
 3892SOL     OW23303   3.249   0.150   6.394
 3892SOL    HW123304   3.305   0.073   6.397
 3892SOL    HW223305   3.190   0.135   6.320
 3893SOL     OW23306   2.538   1.979   2.683
 3893SOL    HW123307   2.492   1.908   2.728
 3893SOL    HW223308   2.521   2.056   2.737
 3894SOL     OW23309   0.792   0.607   7.090
 3894SOL    HW123310   0.777   0.595   6.996
 3894SOL    HW223311   0.755   0.693   7.110
 3895SOL     OW23312   2.328   3.959  22.372
 3895SOL    HW123313   2.345   3.904  22.449
 3895SOL    HW223314   2.409   4.008  22.360
 3896SOL     OW23315   2.053   1.475   6.263
 3896SOL    HW123316   1.978   1.454   6.319
 3896SOL    HW223317   2.121   1.414   6.291
 3897SOL     OW23318   0.321   1.993   4.562
 3897SOL    HW123319   0.343   2.083   4.585
 3897SOL    HW223320   0.378   1.940   4.617
 3898SOL     OW23321   1.244   0.095   7.143
 3898SOL    HW123322   1.323   0.040   7.141
 3898SOL    HW223323   1.185   0.049   7.202
 3899SOL     OW23324   4.544   4.096  10.319
 3899SOL    HW123325   4.582   4.164  10.374
 3899SOL    HW223326   4.451   4.096  10.341
 3900SOL     OW23327   2.553   0.107  23.045
 3900SOL    HW123328   2.542   0.107  23.140
 3900SOL    HW223329   2.639   0.146  23.030
 3901SOL     OW23330   2.502   3.625  26.877
 3901SOL    HW123331   2.504   3.718  26.899
 3901SOL    HW223332   2.585   3.591  26.910
 3902SOL     OW23333   2.325   3.913   5.148
 3902SOL    HW123334   2.298   3.896   5.058
 3902SOL    HW223335   2.349   4.006   5.149
 3903SOL     OW23336   1.705   2.702   5.430
 3903SOL    HW123337   1.785   2.688   5.380
 3903SOL    HW223338   1.661   2.775   5.386
 3904SOL     OW23339   0.184   1.179   2.162
 3904SOL    HW123340   0.132   1.260   2.164
 3904SOL    HW223341   0.215   1.173   2.072
 3905SOL     OW23342   3.678   4.110   7.737
 3905SOL    HW123343   3.746   4.172   7.763
 3905SOL    HW223344   3.690   4.035   7.795
 3906SOL     OW23345   1.702   0.298   2.696
 3906SOL    HW123346   1.635   0.367   2.696
 3906SOL    HW223347   1.652   0.216   2.691
 3907SOL     OW23348   1.903   3.161  21.535
 3907SOL    HW123349   1.914   3.250  21.502
 3907SOL    HW223350   1.831   3.168  21.598
 3908SOL     OW23351   4.483   1.952   0.895
 3908SOL    HW123352   4.575   1.970   0.916
 3908SOL    HW223353   4.487   1.887   0.825
 3909SOL     OW23354   1.847   3.685  20.604
 3909SOL    HW123355   1.756   3.699  20.579
 3909SOL    HW223356   1.885   3.640  20.529
 3910SOL     OW23357   4.126   4.620   4.256
 3910SOL    HW123358   4.210   4.658   4.282
 3910SOL    HW223359   4.150   4.545   4.201
 3911SOL     OW23360   1.686   1.660   1.684
 3911SOL    HW123361   1.705   1.566   1.684
 3911SOL    HW223362   1.769   1.701   1.660
 3912SOL     OW23363   4.694   2.295  25.015
 3912SOL    HW123364   4.707   2.202  25.035
 3912SOL    HW223365   4.670   2.334  25.099
 3913SOL     OW23366   3.195   0.566   8.850
 3913SOL    HW123367   3.265   0.548   8.788
 3913SOL    HW223368   3.212   0.655   8.881
 3914SOL     OW23369   2.491   1.531   9.770
 3914SOL    HW123370   2.420   1.483   9.812
 3914SOL    HW223371   2.451   1.614   9.743
 3915SOL     OW23372   1.361   4.206  27.177
 3915SOL    HW123373   1.322   4.293  27.170
 3915SOL    HW223374   1.371   4.191  27.271
 3916SOL     OW23375   0.853   4.511  22.451
 3916SOL    HW123376   0.897   4.426  22.443
 3916SOL    HW223377   0.797   4.502  22.528
 3917SOL     OW23378   1.935   0.763  21.376
 3917SOL    HW123379   1.982   0.830  21.325
 3917SOL    HW223380   1.960   0.680  21.335
 3918SOL     OW23381   4.213   2.591  10.647
 3918SOL    HW123382   4.171   2.621  10.566
 3918SOL    HW223383   4.306   2.583  10.625
 3919SOL     OW23384   2.380   1.047  20.051
 3919SOL    HW123385   2.409   1.131  20.086
 3919SOL    HW223386   2.300   1.067  20.002
 3920SOL     OW23387   1.599   2.107  26.694
 3920SOL    HW123388   1.540   2.059  26.753
 3920SOL    HW223389   1.655   2.158  26.752
 3921SOL     OW23390   4.256   0.875   2.810
 3921SOL    HW123391   4.309   0.827   2.747
 3921SOL    HW223392   4.221   0.808   2.869
 3922SOL     OW23393   0.056   1.340   2.647
 3922SOL    HW123394   0.083   1.403   2.581
 3922SOL    HW223395   4.754   1.304   2.614
 3923SOL     OW23396   0.278   3.779  22.889
 3923SOL    HW123397   0.204   3.778  22.949
 3923SOL    HW223398   0.255   3.844  22.823
 3924SOL     OW23399   3.126   3.793  17.398
 3924SOL    HW123400   3.100   3.734  17.469
 3924SOL    HW223401   3.050   3.796  17.340
 3925SOL     OW23402   2.881   0.919   6.080
 3925SOL    HW123403   2.907   1.011   6.079
 3925SOL    HW223404   2.803   0.916   6.024
 3926SOL     OW23405   1.320   2.093   1.293
 3926SOL    HW123406   1.382   2.022   1.311
 3926SOL    HW223407   1.245   2.049   1.253
 3927SOL     OW23408   3.188   0.101  19.399
 3927SOL    HW123409   3.203   0.191  19.370
 3927SOL    HW223410   3.169   0.109  19.493
 3928SOL     OW23411   3.950   2.251  19.656
 3928SOL    HW123412   3.873   2.303  19.680
 3928SOL    HW223413   3.938   2.232  19.563
 3929SOL     OW23414   0.037   0.493  19.919
 3929SOL    HW123415   0.057   0.520  20.009
 3929SOL    HW223416   0.099   0.422  19.901
 3930SOL     OW23417   3.332   3.524   7.446
 3930SOL    HW123418   3.289   3.565   7.371
 3930SOL    HW223419   3.355   3.436   7.416
 3931SOL     OW23420   2.850   2.110  23.150
 3931SOL    HW123421   2.941   2.104  23.178
 3931SOL    HW223422   2.799   2.094  23.230
 3932SOL     OW23423   0.750   0.298  24.741
 3932SOL    HW123424   0.777   0.382  24.704
 3932SOL    HW223425   0.811   0.284  24.814
 3933SOL     OW23426   4.780   1.340  26.802
 3933SOL    HW123427   4.719   1.268  26.818
 3933SOL    HW223428   0.074   1.299  26.759
 3934SOL     OW23429   0.113   4.516  24.938
 3934SOL    HW123430   0.138   4.474  25.021
 3934SOL    HW223431   0.026   4.482  24.919
 3935SOL     OW23432   1.180   1.639  19.809
 3935SOL    HW123433   1.191   1.545  19.796
 3935SOL    HW223434   1.085   1.653  19.805
 3936SOL     OW23435   1.418   2.126  27.785
 3936SOL    HW123436   1.359   2.201  27.775
 3936SOL    HW223437   1.505   2.165  27.793
 3937SOL     OW23438   2.443   4.524  18.561
 3937SOL    HW123439   2.375   4.546  18.498
 3937SOL    HW223440   2.452   4.429  18.554
 3938SOL     OW23441   0.787   3.079  23.704
 3938SOL    HW123442   0.736   3.026  23.765
 3938SOL    HW223443   0.871   3.091  23.748
 3939SOL     OW23444   0.789   2.232  23.550
 3939SOL    HW123445   0.810   2.139  23.552
 3939SOL    HW223446   0.774   2.255  23.642
 3940SOL     OW23447   2.869   3.139   9.714
 3940SOL    HW123448   2.855   3.112   9.623
 3940SOL    HW223449   2.842   3.064   9.766
 3941SOL     OW23450   1.769   3.694   9.297
 3941SOL    HW123451   1.678   3.664   9.306
 3941SOL    HW223452   1.767   3.785   9.325
 3942SOL     OW23453   2.864   3.027   1.632
 3942SOL    HW123454   2.849   3.121   1.641
 3942SOL    HW223455   2.843   2.991   1.718
 3943SOL     OW23456   1.035   3.155  27.495
 3943SOL    HW123457   1.009   3.098  27.568
 3943SOL    HW223458   1.113   3.200  27.526
 3944SOL     OW23459   3.642   4.750  24.076
 3944SOL    HW123460   3.615   4.719  24.162
 3944SOL    HW223461   3.677   4.672  24.032
 3945SOL     OW23462   0.441   0.366   1.605
 3945SOL    HW123463   0.409   0.367   1.515
 3945SOL    HW223464   0.497   0.289   1.610
 3946SOL     OW23465   3.082   0.222  21.627
 3946SOL    HW123466   3.039   0.196  21.708
 3946SOL    HW223467   3.151   0.283  21.655
 3947SOL     OW23468   1.388   2.326   9.341
 3947SOL    HW123469   1.330   2.250   9.336
 3947SOL    HW223470   1.448   2.306   9.413
 3948SOL     OW23471   3.815   0.019  20.231
 3948SOL    HW123472   3.908   0.008  20.213
 3948SOL    HW223473   3.797   0.111  20.212
 3949SOL     OW23474   1.816   4.703   2.693
 3949SOL    HW123475   1.732   4.678   2.655
 3949SOL    HW223476   1.803   4.696   2.788
 3950SOL     OW23477   3.999   3.576   6.326
 3950SOL    HW123478   4.006   3.638   6.254
 3950SOL    HW223479   3.937   3.616   6.387
 3951SOL     OW23480   1.974   1.005  25.228
 3951SOL    HW123481   1.997   1.086  25.182
 3951SOL    HW223482   1.878   1.002  25.224
 3952SOL     OW23483   1.686   2.103   0.855
 3952SOL    HW123484   1.622   2.172   0.838
 3952SOL    HW223485   1.654   2.059   0.934
 3953SOL     OW23486   2.886   2.696  23.303
 3953SOL    HW123487   2.934   2.713  23.222
 3953SOL    HW223488   2.797   2.727  23.285
 3954SOL     OW23489   1.441   1.856  27.265
 3954SOL    HW123490   1.434   1.764  27.241
 3954SOL    HW223491   1.379   1.866  27.337
 3955SOL     OW23492   0.463   3.847  22.524
 3955SOL    HW123493   0.520   3.784  22.479
 3955SOL    HW223494   0.387   3.856  22.467
 3956SOL     OW23495   4.775   0.149   1.156
 3956SOL    HW123496   0.008   0.090   1.230
 3956SOL    HW223497   4.686   0.182   1.168
 3957SOL     OW23498   2.482   0.354   8.226
 3957SOL    HW123499   2.405   0.407   8.247
 3957SOL    HW223500   2.551   0.389   8.283
 3958SOL     OW23501   2.138   4.070  19.714
 3958SOL    HW123502   2.072   4.129  19.751
 3958SOL    HW223503   2.202   4.059  19.784
 3959SOL     OW23504   1.623   4.481   6.759
 3959SOL    HW123505   1.584   4.476   6.672
 3959SOL    HW223506   1.622   4.391   6.791
 3960SOL     OW23507   4.687   0.409   8.804
 3960SOL    HW123508   4.724   0.326   8.774
 3960SOL    HW223509   4.739   0.432   8.881
 3961SOL     OW23510   0.569   3.874  27.288
 3961SOL    HW123511   0.569   3.789  27.332
 3961SOL    HW223512   0.511   3.861  27.212
 3962SOL     OW23513   1.037   4.196   7.875
 3962SOL    HW123514   1.052   4.289   7.856
 3962SOL    HW223515   1.052   4.188   7.969
 3963SOL     OW23516   0.274   0.189  25.986
 3963SOL    HW123517   0.236   0.116  25.937
 3963SOL    HW223518   0.238   0.180  26.074
 3964SOL     OW23519   1.991   0.589  10.813
 3964SOL    HW123520   2.081   0.558  10.824
 3964SOL    HW223521   1.949   0.574  10.898
 3965SOL     OW23522   2.181   3.572  10.222
 3965SOL    HW123523   2.094   3.551  10.255
 3965SOL    HW223524   2.173   3.563  10.127
 3966SOL     OW23525   0.965   0.242  24.956
 3966SOL    HW123526   0.986   0.159  24.913
 3966SOL    HW223527   0.980   0.225  25.049
 3967SOL     OW23528   1.526   1.722   7.771
 3967SOL    HW123529   1.540   1.800   7.825
 3967SOL    HW223530   1.611   1.679   7.768
 3968SOL     OW23531   2.713   2.369  28.437
 3968SOL    HW123532   2.745   2.446  28.390
 3968SOL    HW223533   2.748   2.379   0.003
 3969SOL     OW23534   1.322   1.110  27.183
 3969SOL    HW123535   1.259   1.070  27.122
 3969SOL    HW223536   1.405   1.067  27.163
 3970SOL     OW23537   4.381   1.984  27.018
 3970SOL    HW123538   4.446   1.979  27.088
 3970SOL    HW223539   4.328   1.905  27.028
 3971SOL     OW23540   3.301   1.821  28.500
 3971SOL    HW123541   3.312   1.908  28.461
 3971SOL    HW223542   3.272   1.766  28.427
 3972SOL     OW23543   3.603   2.939  24.538
 3972SOL    HW123544   3.517   2.933  24.496
 3972SOL    HW223545   3.665   2.911  24.470
 3973SOL     OW23546   4.706   0.453  13.205
 3973SOL    HW123547   4.720   0.535  13.158
 3973SOL    HW223548   4.767   0.456  13.279
 3974SOL     OW23549   3.933   1.277   2.338
 3974SOL    HW123550   4.002   1.286   2.272
 3974SOL    HW223551   3.901   1.366   2.351
 3975SOL     OW23552   0.727   2.007  19.337
 3975SOL    HW123553   0.695   1.968  19.418
 3975SOL    HW223554   0.651   2.008  19.279
 3976SOL     OW23555   1.977   0.745  20.811
 3976SOL    HW123556   2.001   0.748  20.718
 3976SOL    HW223557   1.977   0.837  20.838
 3977SOL     OW23558   3.165   4.162   8.374
 3977SOL    HW123559   3.243   4.108   8.358
 3977SOL    HW223560   3.177   4.238   8.317
 3978SOL     OW23561   0.070   2.461  20.047
 3978SOL    HW123562   0.117   2.450  19.964
 3978SOL    HW223563   0.086   2.380  20.095
 3979SOL     OW23564   4.093   1.161  19.997
 3979SOL    HW123565   4.155   1.103  19.952
 3979SOL    HW223566   4.038   1.197  19.927
 3980SOL     OW23567   3.215   3.889   7.105
 3980SOL    HW123568   3.237   3.929   7.189
 3980SOL    HW223569   3.132   3.930   7.080
 3981SOL     OW23570   3.273   0.674   9.550
 3981SOL    HW123571   3.248   0.630   9.469
 3981SOL    HW223572   3.210   0.746   9.558
 3982SOL     OW23573   3.119   2.052   3.848
 3982SOL    HW123574   3.169   2.013   3.920
 3982SOL    HW223575   3.161   2.019   3.769
 3983SOL     OW23576   1.980   4.781   5.880
 3983SOL    HW123577   2.045   4.715   5.854
 3983SOL    HW223578   1.953   0.041   5.798
 3984SOL     OW23579   3.216   0.912   9.123
 3984SOL    HW123580   3.203   0.884   9.033
 3984SOL    HW223581   3.130   0.943   9.152
 3985SOL     OW23582   4.514   2.833   4.227
 3985SOL    HW123583   4.503   2.763   4.291
 3985SOL    HW223584   4.590   2.807   4.175
 3986SOL     OW23585   3.451   2.198  21.634
 3986SOL    HW123586   3.519   2.170  21.572
 3986SOL    HW223587   3.444   2.125  21.696
 3987SOL     OW23588   1.559   2.410  26.852
 3987SOL    HW123589   1.485   2.363  26.813
 3987SOL    HW223590   1.630   2.346  26.853
 3988SOL     OW23591   0.271   3.369  19.877
 3988SOL    HW123592   0.210   3.296  19.878
 3988SOL    HW223593   0.238   3.427  19.808
 3989SOL     OW23594   3.827   1.409  20.016
 3989SOL    HW123595   3.771   1.415  19.938
 3989SOL    HW223596   3.806   1.324  20.054
 3990SOL     OW23597   1.684   1.634  10.742
 3990SOL    HW123598   1.678   1.546  10.780
 3990SOL    HW223599   1.764   1.670  10.779
 3991SOL     OW23600   0.431   0.781   4.568
 3991SOL    HW123601   0.462   0.715   4.506
 3991SOL    HW223602   0.474   0.862   4.540
 3992SOL     OW23603   0.576   1.415  18.767
 3992SOL    HW123604   0.525   1.382  18.841
 3992SOL    HW223605   0.653   1.455  18.807
 3993SOL     OW23606   0.718   0.878  25.068
 3993SOL    HW123607   0.741   0.969  25.087
 3993SOL    HW223608   0.625   0.872  25.088
 3994SOL     OW23609   1.360   4.018  25.511
 3994SOL    HW123610   1.353   4.097  25.457
 3994SOL    HW223611   1.317   3.950  25.459
 3995SOL     OW23612   0.108   0.958   3.772
 3995SOL    HW123613   0.188   0.930   3.817
 3995SOL    HW223614   0.047   0.885   3.784
 3996SOL     OW23615   4.412   0.131   4.981
 3996SOL    HW123616   4.438   0.042   5.006
 3996SOL    HW223617   4.488   0.185   5.002
 3997SOL     OW23618   2.552   0.424   1.919
 3997SOL    HW123619   2.471   0.402   1.965
 3997SOL    HW223620   2.612   0.352   1.940
 3998SOL     OW23621   3.812   4.031  27.839
 3998SOL    HW123622   3.796   4.020  27.933
 3998SOL    HW223623   3.875   4.103  27.834
 3999SOL     OW23624   0.749   2.438  27.843
 3999SOL    HW123625   0.698   2.396  27.913
 3999SOL    HW223626   0.706   2.522  27.829
 4000SOL     OW23627   4.115   3.304  24.893
 4000SOL    HW123628   4.095   3.322  24.801
 4000SOL    HW223629   4.183   3.367  24.916
 4001SOL     OW23630   0.102   4.607   1.783
 4001SOL    HW123631   0.029   4.593   1.843
 4001SOL    HW223632   0.068   4.581   1.697
 4002SOL     OW23633   4.080   4.748  20.229
 4002SOL    HW123634   4.127   4.715  20.152
 4002SOL    HW223635   4.077   4.674  20.289
 4003SOL     OW23636   3.231   2.679   4.736
 4003SOL    HW123637   3.300   2.628   4.694
 4003SOL    HW223638   3.181   2.615   4.787
 4004SOL     OW23639   2.975   1.151   3.670
 4004SOL    HW123640   2.889   1.190   3.652
 4004SOL    HW223641   2.957   1.058   3.683
 4005SOL     OW23642   1.730   2.342  25.857
 4005SOL    HW123643   1.731   2.434  25.832
 4005SOL    HW223644   1.646   2.329  25.901
 4006SOL     OW23645   4.137   1.566  26.499
 4006SOL    HW123646   4.232   1.574  26.490
 4006SOL    HW223647   4.101   1.619  26.428
 4007SOL     OW23648   2.216   1.635   2.171
 4007SOL    HW123649   2.255   1.645   2.084
 4007SOL    HW223650   2.235   1.717   2.216
 4008SOL     OW23651   1.816   3.452  24.055
 4008SOL    HW123652   1.895   3.420  24.011
 4008SOL    HW223653   1.744   3.425  23.998
 4009SOL     OW23654   3.652   1.232   2.485
 4009SOL    HW123655   3.615   1.316   2.457
 4009SOL    HW223656   3.722   1.214   2.422
 4010SOL     OW23657   2.380   4.536  25.059
 4010SOL    HW123658   2.408   4.445  25.047
 4010SOL    HW223659   2.307   4.546  24.998
 4011SOL     OW23660   2.635   0.118   1.911
 4011SOL    HW123661   2.695   0.127   1.985
 4011SOL    HW223662   2.577   0.045   1.935
 4012SOL     OW23663   1.949   3.436  20.102
 4012SOL    HW123664   1.873   3.379  20.111
 4012SOL    HW223665   1.990   3.408  20.020
 4013SOL     OW23666   3.203   0.827  11.042
 4013SOL    HW123667   3.240   0.861  11.124
 4013SOL    HW223668   3.206   0.902  10.982
 4014SOL     OW23669   2.649   0.489  22.390
 4014SOL    HW123670   2.602   0.428  22.334
 4014SOL    HW223671   2.733   0.446  22.407
 4015SOL     OW23672   0.547   2.352  23.451
 4015SOL    HW123673   0.621   2.294  23.469
 4015SOL    HW223674   0.545   2.412  23.526
 4016SOL     OW23675   3.713   0.427   1.449
 4016SOL    HW123676   3.635   0.372   1.443
 4016SOL    HW223677   3.683   0.514   1.424
 4017SOL     OW23678   3.509   0.273   0.645
 4017SOL    HW123679   3.485   0.315   0.728
 4017SOL    HW223680   3.444   0.204   0.633
 4018SOL     OW23681   0.215   2.409  27.665
 4018SOL    HW123682   0.281   2.427  27.598
 4018SOL    HW223683   0.243   2.461  27.741
 4019SOL     OW23684   1.507   2.790   6.298
 4019SOL    HW123685   1.541   2.768   6.211
 4019SOL    HW223686   1.462   2.874   6.286
 4020SOL     OW23687   3.477   2.757  28.332
 4020SOL    HW123688   3.431   2.749  28.248
 4020SOL    HW223689   3.471   2.850  28.353
 4021SOL     OW23690   2.893   3.581   7.029
 4021SOL    HW123691   2.885   3.486   7.034
 4021SOL    HW223692   2.808   3.611   6.996
 4022SOL     OW23693   3.937   4.639  24.620
 4022SOL    HW123694   3.959   4.612  24.709
 4022SOL    HW223695   3.916   4.732  24.627
 4023SOL     OW23696   2.944   0.741  11.133
 4023SOL    HW123697   2.905   0.823  11.103
 4023SOL    HW223698   2.894   0.718  11.212
 4024SOL     OW23699   0.686   2.010  20.257
 4024SOL    HW123700   0.591   2.006  20.247
 4024SOL    HW223701   0.718   2.041  20.172
 4025SOL     OW23702   2.495   4.772  27.442
 4025SOL    HW123703   2.422   4.725  27.482
 4025SOL    HW223704   2.573   4.737  27.486
 4026SOL     OW23705   3.983   0.035  18.394
 4026SOL    HW123706   4.052   4.755  18.421
 4026SOL    HW223707   3.909   4.760  18.370
 4027SOL     OW23708   0.747   0.189   5.998
 4027SOL    HW123709   0.750   0.145   5.913
 4027SOL    HW223710   0.695   0.130   6.053
 4028SOL     OW23711   3.492   1.839  26.290
 4028SOL    HW123712   3.516   1.751  26.260
 4028SOL    HW223713   3.510   1.838  26.384
 4029SOL     OW23714   2.287   2.191  22.993
 4029SOL    HW123715   2.316   2.151  23.075
 4029SOL    HW223716   2.331   2.140  22.925
 4030SOL     OW23717   0.084   0.985  26.830
 4030SOL    HW123718   0.114   1.050  26.766
 4030SOL    HW223719   0.010   0.942  26.788
 4031SOL     OW23720   3.385   3.266   5.380
 4031SOL    HW123721   3.447   3.282   5.451
 4031SOL    HW223722   3.309   3.227   5.423
 4032SOL     OW23723   1.265   0.859   7.537
 4032SOL    HW123724   1.324   0.801   7.585
 4032SOL    HW223725   1.323   0.921   7.493
 4033SOL     OW23726   2.454   0.170   1.550
 4033SOL    HW123727   2.421   0.254   1.518
 4033SOL    HW223728   2.405   0.154   1.631
 4034SOL     OW23729   2.074   0.520   3.152
 4034SOL    HW123730   2.030   0.603   3.169
 4034SOL    HW223731   2.015   0.473   3.093
 4035SOL     OW23732   3.911   2.553  18.069
 4035SOL    HW123733   3.917   2.624  18.005
 4035SOL    HW223734   3.825   2.563  18.109
 4036SOL     OW23735   1.295   2.515  21.903
 4036SOL    HW123736   1.364   2.495  21.840
 4036SOL    HW223737   1.224   2.454  21.881
 4037SOL     OW23738   3.114   2.695  22.249
 4037SOL    HW123739   3.028   2.735  22.238
 4037SOL    HW223740   3.143   2.674  22.160
 4038SOL     OW23741   3.598   2.163  19.781
 4038SOL    HW123742   3.509   2.146  19.813
 4038SOL    HW223743   3.651   2.095  19.823
 4039SOL     OW23744   2.084   1.746  21.669
 4039SOL    HW123745   2.057   1.770  21.580
 4039SOL    HW223746   2.032   1.669  21.690
 4040SOL     OW23747   1.591   3.417   0.622
 4040SOL    HW123748   1.681   3.388   0.638
 4040SOL    HW223749   1.545   3.337   0.595
 4041SOL     OW23750   0.092   0.167  25.737
 4041SOL    HW123751   0.078   0.094  25.797
 4041SOL    HW223752   0.165   0.139  25.682
 4042SOL     OW23753   2.219   3.245   7.457
 4042SOL    HW123754   2.184   3.175   7.512
 4042SOL    HW223755   2.313   3.246   7.476
 4043SOL     OW23756   2.273   2.647  27.144
 4043SOL    HW123757   2.349   2.691  27.183
 4043SOL    HW223758   2.215   2.629  27.218
 4044SOL     OW23759   3.173   0.623  11.250
 4044SOL    HW123760   3.167   0.678  11.328
 4044SOL    HW223761   3.238   0.556  11.272
 4045SOL     OW23762   0.997   1.903  21.785
 4045SOL    HW123763   0.930   1.843  21.753
 4045SOL    HW223764   1.075   1.849  21.793
 4046SOL     OW23765   1.299   4.023   2.707
 4046SOL    HW123766   1.338   3.991   2.788
 4046SOL    HW223767   1.329   3.961   2.640
 4047SOL     OW23768   4.241   1.456  23.370
 4047SOL    HW123769   4.323   1.491  23.335
 4047SOL    HW223770   4.252   1.457  23.465
 4048SOL     OW23771   4.602   0.298   3.800
 4048SOL    HW123772   4.639   0.241   3.732
 4048SOL    HW223773   4.678   0.328   3.850
 4049SOL     OW23774   0.792   2.605  20.685
 4049SOL    HW123775   0.851   2.563  20.747
 4049SOL    HW223776   0.720   2.639  20.739
 4050SOL     OW23777   3.480   1.407   5.612
 4050SOL    HW123778   3.456   1.320   5.643
 4050SOL    HW223779   3.486   1.398   5.517
 4051SOL     OW23780   1.267   4.478  20.952
 4051SOL    HW123781   1.303   4.565  20.969
 4051SOL    HW223782   1.321   4.443  20.882
 4052SOL     OW23783   4.303   0.925  20.336
 4052SOL    HW123784   4.278   0.876  20.258
 4052SOL    HW223785   4.398   0.917  20.340
 4053SOL     OW23786   2.016   3.127   0.624
 4053SOL    HW123787   2.105   3.121   0.658
 4053SOL    HW223788   2.008   3.052   0.565
 4054SOL     OW23789   2.615   2.154   4.793
 4054SOL    HW123790   2.565   2.105   4.859
 4054SOL    HW223791   2.616   2.097   4.716
 4055SOL     OW23792   1.081   4.199  23.730
 4055SOL    HW123793   1.152   4.235  23.677
 4055SOL    HW223794   1.060   4.115  23.689
 4056SOL     OW23795   4.064   1.933  16.880
 4056SOL    HW123796   4.112   1.888  16.950
 4056SOL    HW223797   4.113   1.913  16.800
 4057SOL     OW23798   1.578   3.838  28.367
 4057SOL    HW123799   1.658   3.865  28.322
 4057SOL    HW223800   1.608   3.808  28.453
 4058SOL     OW23801   0.292   1.305  25.654
 4058SOL    HW123802   0.238   1.272  25.582
 4058SOL    HW223803   0.325   1.226  25.697
 4059SOL     OW23804   1.008   3.000  24.726
 4059SOL    HW123805   1.014   3.074  24.786
 4059SOL    HW223806   1.091   3.001  24.679
 4060SOL     OW23807   3.046   0.278  28.521
 4060SOL    HW123808   3.000   0.202  28.486
 4060SOL    HW223809   3.005   0.353  28.477
 4061SOL     OW23810   4.054   4.183  21.754
 4061SOL    HW123811   3.992   4.173  21.827
 4061SOL    HW223812   4.112   4.107  21.761
 4062SOL     OW23813   1.942   1.299  22.065
 4062SOL    HW123814   1.899   1.319  22.148
 4062SOL    HW223815   1.951   1.204  22.064
 4063SOL     OW23816   3.052   1.458   6.447
 4063SOL    HW123817   3.136   1.493   6.418
 4063SOL    HW223818   3.015   1.416   6.369
 4064SOL     OW23819   0.430   1.220   8.531
 4064SOL    HW123820   0.500   1.208   8.467
 4064SOL    HW223821   0.463   1.288   8.590
 4065SOL     OW23822   3.115   2.362  20.081
 4065SOL    HW123823   3.127   2.433  20.144
 4065SOL    HW223824   3.172   2.292  20.113
 4066SOL     OW23825   0.134   3.356  27.344
 4066SOL    HW123826   0.079   3.316  27.277
 4066SOL    HW223827   0.105   3.317  27.426
 4067SOL     OW23828   3.515   3.711  22.634
 4067SOL    HW123829   3.431   3.756  22.628
 4067SOL    HW223830   3.509   3.659  22.714
 4068SOL     OW23831   3.311   3.966   2.386
 4068SOL    HW123832   3.403   3.988   2.397
 4068SOL    HW223833   3.311   3.896   2.321
 4069SOL     OW23834   1.795   1.860   0.718
 4069SOL    HW123835   1.739   1.932   0.747
 4069SOL    HW223836   1.778   1.852   0.624
 4070SOL     OW23837   1.615   0.393   8.472
 4070SOL    HW123838   1.557   0.406   8.547
 4070SOL    HW223839   1.616   0.478   8.428
 4071SOL     OW23840   2.220   0.307  17.787
 4071SOL    HW123841   2.162   0.376  17.755
 4071SOL    HW223842   2.261   0.271  17.708
 4072SOL     OW23843   1.132   3.493  23.178
 4072SOL    HW123844   1.104   3.441  23.102
 4072SOL    HW223845   1.183   3.432  23.231
 4073SOL     OW23846   0.809   1.030  11.206
 4073SOL    HW123847   0.838   1.060  11.292
 4073SOL    HW223848   0.790   1.111  11.158
 4074SOL     OW23849   1.929   0.859  24.140
 4074SOL    HW123850   1.942   0.785  24.081
 4074SOL    HW223851   2.014   0.872  24.181
 4075SOL     OW23852   4.015   0.608   0.743
 4075SOL    HW123853   3.942   0.662   0.713
 4075SOL    HW223854   4.079   0.613   0.672
 4076SOL     OW23855   1.649   1.013  27.275
 4076SOL    HW123856   1.630   0.920  27.267
 4076SOL    HW223857   1.745   1.019  27.273
 4077SOL     OW23858   3.042   3.959   9.654
 4077SOL    HW123859   3.095   4.037   9.634
 4077SOL    HW223860   3.102   3.901   9.701
 4078SOL     OW23861   2.497   0.248   9.846
 4078SOL    HW123862   2.428   0.286   9.900
 4078SOL    HW223863   2.512   0.162   9.884
 4079SOL     OW23864   3.859   3.931  21.514
 4079SOL    HW123865   3.842   3.941  21.608
 4079SOL    HW223866   3.901   3.846  21.506
 4080SOL     OW23867   3.325   1.249   3.325
 4080SOL    HW123868   3.251   1.201   3.363
 4080SOL    HW223869   3.374   1.281   3.401
 4081SOL     OW23870   3.097   1.819   6.418
 4081SOL    HW123871   3.116   1.862   6.501
 4081SOL    HW223872   3.140   1.874   6.352
 4082SOL     OW23873   4.268   3.686   1.255
 4082SOL    HW123874   4.262   3.756   1.190
 4082SOL    HW223875   4.301   3.729   1.334
 4083SOL     OW23876   3.849   1.804  22.617
 4083SOL    HW123877   3.881   1.893  22.602
 4083SOL    HW223878   3.928   1.752  22.632
 4084SOL     OW23879   4.352   3.247   1.870
 4084SOL    HW123880   4.393   3.304   1.935
 4084SOL    HW223881   4.377   3.159   1.896
 4085SOL     OW23882   3.480   1.659  22.896
 4085SOL    HW123883   3.504   1.737  22.846
 4085SOL    HW223884   3.448   1.597  22.830
 4086SOL     OW23885   3.506   2.921  10.308
 4086SOL    HW123886   3.471   3.009  10.291
 4086SOL    HW223887   3.510   2.915  10.403
 4087SOL     OW23888   1.279   0.527   1.421
 4087SOL    HW123889   1.255   0.602   1.366
 4087SOL    HW223890   1.225   0.455   1.387
 4088SOL     OW23891   4.524   0.815  20.072
 4088SOL    HW123892   4.434   0.782  20.076
 4088SOL    HW223893   4.533   0.871  20.149
 4089SOL     OW23894   4.071   2.824   9.684
 4089SOL    HW123895   4.071   2.878   9.763
 4089SOL    HW223896   4.016   2.871   9.622
 4090SOL     OW23897   2.300   2.447  22.045
 4090SOL    HW123898   2.295   2.497  21.964
 4090SOL    HW223899   2.222   2.391  22.044
 4091SOL     OW23900   4.738   4.479   8.635
 4091SOL    HW123901   4.773   4.467   8.547
 4091SOL    HW223902   0.009   4.550   8.672
 4092SOL     OW23903   2.671   4.352  23.946
 4092SOL    HW123904   2.700   4.297  23.873
 4092SOL    HW223905   2.588   4.389  23.916
 4093SOL     OW23906   3.100   1.589  26.293
 4093SOL    HW123907   3.147   1.600  26.211
 4093SOL    HW223908   3.107   1.495  26.312
 4094SOL     OW23909   2.079   0.962   9.505
 4094SOL    HW123910   2.121   0.998   9.583
 4094SOL    HW223911   2.019   1.031   9.476
 4095SOL     OW23912   3.918   4.148   2.171
 4095SOL    HW123913   3.946   4.155   2.262
 4095SOL    HW223914   3.951   4.228   2.130
 4096SOL     OW23915   0.041   3.660  24.205
 4096SOL    HW123916   4.745   3.620  24.246
 4096SOL    HW223917   0.039   3.751  24.233
 4097SOL     OW23918   1.811   2.671   1.739
 4097SOL    HW123919   1.824   2.732   1.667
 4097SOL    HW223920   1.717   2.654   1.740
 4098SOL     OW23921   0.101   0.198   7.517
 4098SOL    HW123922   0.078   0.136   7.447
 4098SOL    HW223923   0.186   0.233   7.491
 4099SOL     OW23924   1.418   1.517  23.204
 4099SOL    HW123925   1.359   1.580  23.162
 4099SOL    HW223926   1.375   1.496  23.287
 4100SOL     OW23927   1.614   1.817  24.993
 4100SOL    HW123928   1.615   1.872  25.071
 4100SOL    HW223929   1.620   1.728  25.027
 4101SOL     OW23930   1.053   0.577   0.597
 4101SOL    HW123931   1.039   0.611   0.509
 4101SOL    HW223932   1.143   0.600   0.617
 4102SOL     OW23933   4.682   2.670   3.078
 4102SOL    HW123934   4.661   2.702   3.166
 4102SOL    HW223935   4.659   2.577   3.080
 4103SOL     OW23936   4.038   3.871   3.576
 4103SOL    HW123937   4.017   3.913   3.492
 4103SOL    HW223938   4.133   3.863   3.575
 4104SOL     OW23939   3.692   2.514  23.860
 4104SOL    HW123940   3.650   2.593  23.827
 4104SOL    HW223941   3.786   2.531  23.851
 4105SOL     OW23942   4.739   2.769  19.627
 4105SOL    HW123943   4.658   2.720  19.644
 4105SOL    HW223944   4.740   2.780  19.532
 4106SOL     OW23945   3.930   1.532   5.727
 4106SOL    HW123946   3.993   1.548   5.656
 4106SOL    HW223947   3.881   1.455   5.699
 4107SOL     OW23948   3.850   1.551   1.243
 4107SOL    HW123949   3.885   1.490   1.308
 4107SOL    HW223950   3.755   1.549   1.257
 4108SOL     OW23951   3.885   3.159  21.830
 4108SOL    HW123952   3.826   3.142  21.904
 4108SOL    HW223953   3.920   3.073  21.807
 4109SOL     OW23954   2.466   1.976  25.295
 4109SOL    HW123955   2.397   2.024  25.249
 4109SOL    HW223956   2.503   1.918  25.229
 4110SOL     OW23957   3.810   4.264  19.352
 4110SOL    HW123958   3.894   4.244  19.311
 4110SOL    HW223959   3.799   4.197  19.419
 4111SOL     OW23960   0.031   0.056   3.846
 4111SOL    HW123961   0.119   0.068   3.809
 4111SOL    HW223962   0.040   4.763   3.906
 4112SOL     OW23963   2.922   2.541  23.825
 4112SOL    HW123964   3.017   2.529  23.828
 4112SOL    HW223965   2.897   2.559  23.916
 4113SOL     OW23966   3.158   0.669   4.442
 4113SOL    HW123967   3.134   0.690   4.352
 4113SOL    HW223968   3.074   0.653   4.486
 4114SOL     OW23969   2.726   1.551   8.491
 4114SOL    HW123970   2.647   1.534   8.439
 4114SOL    HW223971   2.796   1.559   8.426
 4115SOL     OW23972   0.010   2.136   0.724
 4115SOL    HW123973   4.703   2.113   0.693
 4115SOL    HW223974   0.066   2.068   0.687
 4116SOL     OW23975   3.824   4.442  21.398
 4116SOL    HW123976   3.840   4.348  21.408
 4116SOL    HW223977   3.829   4.477  21.487
 4117SOL     OW23978   2.662   3.835   4.719
 4117SOL    HW123979   2.610   3.777   4.775
 4117SOL    HW223980   2.617   3.919   4.723
 4118SOL     OW23981   3.536   2.603   0.946
 4118SOL    HW123982   3.574   2.642   1.025
 4118SOL    HW223983   3.595   2.629   0.875
 4119SOL     OW23984   1.486   3.831   4.657
 4119SOL    HW123985   1.541   3.823   4.579
 4119SOL    HW223986   1.470   3.925   4.665
 4120SOL     OW23987   4.492   0.327   5.269
 4120SOL    HW123988   4.410   0.368   5.242
 4120SOL    HW223989   4.560   0.376   5.223
 4121SOL     OW23990   2.550   0.132   6.192
 4121SOL    HW123991   2.634   0.088   6.178
 4121SOL    HW223992   2.492   0.096   6.125
 4122SOL     OW23993   4.148   2.677   2.668
 4122SOL    HW123994   4.226   2.722   2.699
 4122SOL    HW223995   4.129   2.718   2.583
 4123SOL     OW23996   2.150   4.529   7.146
 4123SOL    HW123997   2.072   4.574   7.112
 4123SOL    HW223998   2.145   4.542   7.241
 4124SOL     OW23999   2.355   4.350   7.910
 4124SOL    HW124000   2.312   4.305   7.838
 4124SOL    HW224001   2.442   4.371   7.877
 4125SOL     OW24002   2.295   2.565  20.986
 4125SOL    HW124003   2.339   2.618  21.052
 4125SOL    HW224004   2.277   2.626  20.914
 4126SOL     OW24005   2.239   4.037   7.791
 4126SOL    HW124006   2.144   4.031   7.783
 4126SOL    HW224007   2.264   4.107   7.730
 4127SOL     OW24008   4.005   2.574  28.327
 4127SOL    HW124009   4.050   2.498  28.364
 4127SOL    HW224010   3.947   2.604  28.397
 4128SOL     OW24011   3.215   0.050  20.855
 4128SOL    HW124012   3.149   4.761  20.849
 4128SOL    HW224013   3.208   0.097  20.772
 4129SOL     OW24014   1.492   0.280  12.772
 4129SOL    HW124015   1.490   0.376  12.774
 4129SOL    HW224016   1.444   0.254  12.851
 4130SOL     OW24017   1.519   2.981   1.512
 4130SOL    HW124018   1.595   3.015   1.464
 4130SOL    HW224019   1.462   2.944   1.444
 4131SOL     OW24020   0.441   0.617  25.683
 4131SOL    HW124021   0.477   0.651  25.765
 4131SOL    HW224022   0.384   0.545  25.710
 4132SOL     OW24023   3.919   0.036  22.334
 4132SOL    HW124024   3.950   0.117  22.294
 4132SOL    HW224025   3.915   4.754  22.262
 4133SOL     OW24026   3.559   2.672  27.536
 4133SOL    HW124027   3.501   2.736  27.496
 4133SOL    HW224028   3.538   2.675  27.629
 4134SOL     OW24029   2.746   4.478  23.571
 4134SOL    HW124030   2.730   4.442  23.484
 4134SOL    HW224031   2.827   4.528  23.562
 4135SOL     OW24032   4.366   4.253   0.847
 4135SOL    HW124033   4.429   4.184   0.867
 4135SOL    HW224034   4.417   4.319   0.801
 4136SOL     OW24035   0.632   3.884   4.680
 4136SOL    HW124036   0.636   3.912   4.772
 4136SOL    HW224037   0.591   3.958   4.634
 4137SOL     OW24038   1.551   3.684   9.597
 4137SOL    HW124039   1.612   3.625   9.641
 4137SOL    HW224040   1.540   3.646   9.510
 4138SOL     OW24041   3.371   2.461  22.414
 4138SOL    HW124042   3.291   2.410  22.423
 4138SOL    HW224043   3.348   2.548  22.447
 4139SOL     OW24044   0.955   1.151  21.338
 4139SOL    HW124045   0.981   1.242  21.352
 4139SOL    HW224046   0.908   1.152  21.255
 4140SOL     OW24047   3.640   0.484   5.270
 4140SOL    HW124048   3.585   0.499   5.347
 4140SOL    HW224049   3.579   0.483   5.197
 4141SOL     OW24050   3.773   0.928  28.190
 4141SOL    HW124051   3.833   0.882  28.248
 4141SOL    HW224052   3.687   0.892  28.211
 4142SOL     OW24053   1.702   0.272   4.318
 4142SOL    HW124054   1.610   0.274   4.342
 4142SOL    HW224055   1.706   0.210   4.245
 4143SOL     OW24056   1.188   1.863   1.567
 4143SOL    HW124057   1.139   1.931   1.613
 4143SOL    HW224058   1.126   1.829   1.502
 4144SOL     OW24059   0.426   2.999  26.414
 4144SOL    HW124060   0.508   3.002  26.463
 4144SOL    HW224061   0.370   3.063  26.458
 4145SOL     OW24062   2.738   2.312  21.102
 4145SOL    HW124063   2.691   2.305  21.185
 4145SOL    HW224064   2.725   2.403  21.075
 4146SOL     OW24065   0.941   0.238   5.654
 4146SOL    HW124066   0.995   0.279   5.721
 4146SOL    HW224067   0.998   0.172   5.614
 4147SOL     OW24068   1.494   3.512   3.195
 4147SOL    HW124069   1.424   3.490   3.257
 4147SOL    HW224070   1.508   3.432   3.144
 4148SOL     OW24071   3.437   3.716  20.821
 4148SOL    HW124072   3.388   3.709  20.739
 4148SOL    HW224073   3.477   3.630  20.832
 4149SOL     OW24074   0.632   2.500  28.501
 4149SOL    HW124075   0.715   2.484   0.024
 4149SOL    HW224076   0.651   2.571  28.440
 4150SOL     OW24077   1.688   2.791  27.212
 4150SOL    HW124078   1.643   2.719  27.167
 4150SOL    HW224079   1.696   2.761  27.303
 4151SOL     OW24080   2.493   3.365  18.973
 4151SOL    HW124081   2.522   3.431  18.910
 4151SOL    HW224082   2.482   3.286  18.921
 4152SOL     OW24083   0.147   0.470  20.923
 4152SOL    HW124084   0.225   0.457  20.977
 4152SOL    HW224085   0.081   0.412  20.961
 4153SOL     OW24086   2.246   3.078  18.968
 4153SOL    HW124087   2.203   2.993  18.958
 4153SOL    HW224088   2.302   3.086  18.891
 4154SOL     OW24089   4.746   4.620   2.294
 4154SOL    HW124090   0.013   4.575   2.364
 4154SOL    HW224091   4.679   4.670   2.339
 4155SOL     OW24092   2.991   1.458   9.757
 4155SOL    HW124093   3.047   1.497   9.824
 4155SOL    HW224094   3.044   1.462   9.677
 4156SOL     OW24095   0.488   1.770   6.369
 4156SOL    HW124096   0.571   1.786   6.413
 4156SOL    HW224097   0.444   1.704   6.423
 4157SOL     OW24098   3.714   0.205   8.297
 4157SOL    HW124099   3.768   0.137   8.337
 4157SOL    HW224100   3.647   0.157   8.249
 4158SOL     OW24101   1.794   2.179   4.321
 4158SOL    HW124102   1.800   2.180   4.226
 4158SOL    HW224103   1.817   2.089   4.346
 4159SOL     OW24104   1.398   3.443  28.070
 4159SOL    HW124105   1.405   3.525  28.020
 4159SOL    HW224106   1.487   3.426  28.099
 4160SOL     OW24107   1.740   1.489   8.417
 4160SOL    HW124108   1.749   1.520   8.327
 4160SOL    HW224109   1.706   1.565   8.465
 4161SOL     OW24110   4.085   3.327  23.711
 4161SOL    HW124111   4.099   3.421  23.719
 4161SOL    HW224112   4.104   3.293  23.798
 4162SOL     OW24113   1.490   1.843  22.421
 4162SOL    HW124114   1.573   1.888  22.407
 4162SOL    HW224115   1.427   1.913  22.435
 4163SOL     OW24116   2.424   2.588   4.901
 4163SOL    HW124117   2.456   2.666   4.856
 4163SOL    HW224118   2.483   2.518   4.873
 4164SOL     OW24119   4.157   2.561  17.779
 4164SOL    HW124120   4.187   2.533  17.865
 4164SOL    HW224121   4.192   2.496  17.719
 4165SOL     OW24122   0.157   2.353   3.725
 4165SOL    HW124123   0.169   2.448   3.730
 4165SOL    HW224124   0.234   2.316   3.769
 4166SOL     OW24125   2.587   0.428   6.715
 4166SOL    HW124126   2.549   0.494   6.657
 4166SOL    HW224127   2.621   0.361   6.656
 4167SOL     OW24128   1.235   2.010  26.761
 4167SOL    HW124129   1.197   1.922  26.762
 4167SOL    HW224130   1.321   1.999  26.803
 4168SOL     OW24131   1.416   0.268   4.299
 4168SOL    HW124132   1.342   0.281   4.239
 4168SOL    HW224133   1.375   0.247   4.383
 4169SOL     OW24134   0.497   1.267  22.292
 4169SOL    HW124135   0.427   1.264  22.227
 4169SOL    HW224136   0.571   1.223  22.250
 4170SOL     OW24137   4.740   0.493  22.585
 4170SOL    HW124138   4.694   0.517  22.505
 4170SOL    HW224139   4.671   0.471  22.647
 4171SOL     OW24140   4.092   0.434   7.885
 4171SOL    HW124141   4.086   0.464   7.976
 4171SOL    HW224142   4.181   0.457   7.857
 4172SOL     OW24143   0.329   4.081  20.258
 4172SOL    HW124144   0.424   4.071  20.253
 4172SOL    HW224145   0.300   4.086  20.167
 4173SOL     OW24146   0.785   4.605   3.142
 4173SOL    HW124147   0.821   4.563   3.064
 4173SOL    HW224148   0.724   4.671   3.108
 4174SOL     OW24149   0.401   0.731  26.756
 4174SOL    HW124150   0.431   0.819  26.731
 4174SOL    HW224151   0.415   0.678  26.678
 4175SOL     OW24152   0.014   0.963   7.022
 4175SOL    HW124153   4.720   1.002   7.066
 4175SOL    HW224154   4.757   0.910   6.952
 4176SOL     OW24155   4.632   2.902  27.717
 4176SOL    HW124156   4.634   2.962  27.792
 4176SOL    HW224157   4.612   2.817  27.755
 4177SOL     OW24158   0.929   3.608   1.052
 4177SOL    HW124159   1.005   3.550   1.044
 4177SOL    HW224160   0.889   3.583   1.135
 4178SOL     OW24161   0.326   4.418  19.586
 4178SOL    HW124162   0.367   4.335  19.609
 4178SOL    HW224163   0.289   4.450  19.668
 4179SOL     OW24164   1.930   2.313   4.783
 4179SOL    HW124165   2.000   2.256   4.751
 4179SOL    HW224166   1.899   2.271   4.863
 4180SOL     OW24167   1.746   3.300   1.376
 4180SOL    HW124168   1.801   3.336   1.306
 4180SOL    HW224169   1.733   3.373   1.436
 4181SOL     OW24170   1.869   3.037  11.508
 4181SOL    HW124171   1.791   2.986  11.530
 4181SOL    HW224172   1.930   2.973  11.472
 4182SOL     OW24173   1.774   4.573  27.186
 4182SOL    HW124174   1.780   4.660  27.147
 4182SOL    HW224175   1.693   4.575  27.237
 4183SOL     OW24176   4.258   3.511   7.481
 4183SOL    HW124177   4.336   3.493   7.429
 4183SOL    HW224178   4.236   3.427   7.521
 4184SOL     OW24179   1.786   2.284   9.116
 4184SOL    HW124180   1.820   2.372   9.103
 4184SOL    HW224181   1.864   2.229   9.124
 4185SOL     OW24182   3.167   1.814  22.997
 4185SOL    HW124183   3.205   1.901  23.005
 4185SOL    HW224184   3.230   1.765  22.944
 4186SOL     OW24185   2.914   0.925  27.709
 4186SOL    HW124186   3.007   0.904  27.697
 4186SOL    HW224187   2.872   0.841  27.725
 4187SOL     OW24188   4.401   2.360   5.497
 4187SOL    HW124189   4.363   2.408   5.570
 4187SOL    HW224190   4.495   2.379   5.502
 4188SOL     OW24191   2.047   4.463   2.922
 4188SOL    HW124192   1.995   4.468   3.002
 4188SOL    HW224193   2.136   4.448   2.953
 4189SOL     OW24194   3.173   1.882   5.352
 4189SOL    HW124195   3.229   1.921   5.285
 4189SOL    HW224196   3.156   1.954   5.413
 4190SOL     OW24197   0.108   0.985   8.238
 4190SOL    HW124198   0.045   1.045   8.198
 4190SOL    HW224199   0.193   1.015   8.207
 4191SOL     OW24200   3.051   1.661   4.546
 4191SOL    HW124201   3.080   1.738   4.596
 4191SOL    HW224202   3.132   1.614   4.525
 4192SOL     OW24203   2.886   1.015   0.815
 4192SOL    HW124204   2.952   1.051   0.874
 4192SOL    HW224205   2.899   0.920   0.821
 4193SOL     OW24206   3.175   3.959   5.474
 4193SOL    HW124207   3.231   3.957   5.396
 4193SOL    HW224208   3.096   4.004   5.446
 4194SOL     OW24209   4.203   4.271   0.615
 4194SOL    HW124210   4.248   4.347   0.578
 4194SOL    HW224211   4.243   4.258   0.701
 4195SOL     OW24212   2.935   0.770  24.411
 4195SOL    HW124213   2.858   0.796  24.462
 4195SOL    HW224214   2.900   0.745  24.325
 4196SOL     OW24215   4.479   1.224   8.039
 4196SOL    HW124216   4.483   1.257   7.949
 4196SOL    HW224217   4.393   1.252   8.071
 4197SOL     OW24218   2.544   0.113   3.787
 4197SOL    HW124219   2.610   0.069   3.733
 4197SOL    HW224220   2.464   0.110   3.734
 4198SOL     OW24221   4.195   3.790  25.319
 4198SOL    HW124222   4.244   3.755  25.394
 4198SOL    HW224223   4.262   3.832  25.264
 4199SOL     OW24224   2.400   0.511  27.713
 4199SOL    HW124225   2.404   0.487  27.620
 4199SOL    HW224226   2.315   0.555  27.723
 4200SOL     OW24227   3.480   4.090  21.656
 4200SOL    HW124228   3.561   4.059  21.697
 4200SOL    HW224229   3.432   4.010  21.633
 4201SOL     OW24230   0.638   0.901   1.388
 4201SOL    HW124231   0.688   0.947   1.321
 4201SOL    HW224232   0.636   0.810   1.359
 4202SOL     OW24233   2.819   3.159  24.517
 4202SOL    HW124234   2.802   3.181  24.425
 4202SOL    HW224235   2.896   3.211  24.540
 4203SOL     OW24236   2.307   1.575  24.622
 4203SOL    HW124237   2.390   1.615  24.646
 4203SOL    HW224238   2.265   1.554  24.705
 4204SOL     OW24239   3.092   0.620  21.539
 4204SOL    HW124240   3.024   0.664  21.488
 4204SOL    HW224241   3.063   0.629  21.630
 4205SOL     OW24242   2.108   2.671  12.306
 4205SOL    HW124243   2.092   2.627  12.389
 4205SOL    HW224244   2.180   2.732  12.324
 4206SOL     OW24245   0.647   4.211  20.700
 4206SOL    HW124246   0.645   4.125  20.658
 4206SOL    HW224247   0.694   4.197  20.782
 4207SOL     OW24248   3.887   3.144  27.573
 4207SOL    HW124249   3.792   3.135  27.568
 4207SOL    HW224250   3.918   3.055  27.591
 4208SOL     OW24251   0.977   2.967   0.718
 4208SOL    HW124252   0.943   2.893   0.769
 4208SOL    HW224253   0.899   3.018   0.695
 4209SOL     OW24254   4.061   3.440  25.609
 4209SOL    HW124255   3.984   3.487  25.642
 4209SOL    HW224256   4.043   3.429  25.516
 4210SOL     OW24257   1.933   2.451  26.523
 4210SOL    HW124258   1.907   2.359  26.514
 4210SOL    HW224259   1.885   2.497  26.455
 4211SOL     OW24260   2.201   1.942  28.514
 4211SOL    HW124261   2.242   1.960  28.429
 4211SOL    HW224262   2.186   1.848  28.514
 4212SOL     OW24263   3.306   1.090  20.217
 4212SOL    HW124264   3.358   1.168  20.197
 4212SOL    HW224265   3.370   1.026  20.247
 4213SOL     OW24266   2.922   3.379  27.657
 4213SOL    HW124267   2.829   3.359  27.649
 4213SOL    HW224268   2.947   3.409  27.570
 4214SOL     OW24269   3.107   0.804  20.534
 4214SOL    HW124270   3.177   0.850  20.581
 4214SOL    HW224271   3.088   0.727  20.588
 4215SOL     OW24272   2.416   0.482  26.703
 4215SOL    HW124273   2.336   0.489  26.651
 4215SOL    HW224274   2.486   0.473  26.638
 4216SOL     OW24275   1.974   3.535   0.227
 4216SOL    HW124276   1.900   3.553   0.169
 4216SOL    HW224277   1.948   3.458   0.277
 4217SOL     OW24278   3.173   0.450  27.441
 4217SOL    HW124279   3.144   0.468  27.530
 4217SOL    HW224280   3.175   0.536  27.398
 4218SOL     OW24281   3.545   2.311  26.939
 4218SOL    HW124282   3.637   2.339  26.937
 4218SOL    HW224283   3.495   2.392  26.931
 4219SOL     OW24284   0.701   2.165  24.354
 4219SOL    HW124285   0.779   2.113  24.374
 4219SOL    HW224286   0.671   2.132  24.269
 4220SOL     OW24287   4.196   3.121   2.294
 4220SOL    HW124288   4.183   3.189   2.360
 4220SOL    HW224289   4.206   3.169   2.212
 4221SOL     OW24290   1.354   2.748   2.484
 4221SOL    HW124291   1.359   2.795   2.567
 4221SOL    HW224292   1.443   2.717   2.468
 4222SOL     OW24293   2.262   4.402  26.448
 4222SOL    HW124294   2.224   4.334  26.504
 4222SOL    HW224295   2.248   4.370  26.359
 4223SOL     OW24296   3.468   4.230   6.587
 4223SOL    HW124297   3.494   4.317   6.617
 4223SOL    HW224298   3.380   4.242   6.550
 4224SOL     OW24299   4.240   1.144  28.020
 4224SOL    HW124300   4.159   1.195  28.019
 4224SOL    HW224301   4.299   1.191  27.962
 4225SOL     OW24302   3.256   0.475  20.462
 4225SOL    HW124303   3.243   0.399  20.405
 4225SOL    HW224304   3.184   0.534  20.441
 4226SOL     OW24305   1.891   1.955   5.318
 4226SOL    HW124306   1.960   2.002   5.271
 4226SOL    HW224307   1.842   2.024   5.363
 4227SOL     OW24308   3.371   2.328  13.065
 4227SOL    HW124309   3.277   2.314  13.055
 4227SOL    HW224310   3.379   2.417  13.100
 4228SOL     OW24311   0.962   1.335  10.179
 4228SOL    HW124312   0.955   1.250  10.223
 4228SOL    HW224313   0.986   1.396  10.248
 4229SOL     OW24314   2.870   0.694   9.512
 4229SOL    HW124315   2.810   0.642   9.566
 4229SOL    HW224316   2.917   0.630   9.459
 4230SOL     OW24317   1.915   4.500   4.966
 4230SOL    HW124318   1.840   4.528   4.914
 4230SOL    HW224319   1.877   4.449   5.038
 4231SOL     OW24320   3.522   4.290   7.629
 4231SOL    HW124321   3.561   4.207   7.655
 4231SOL    HW224322   3.585   4.356   7.656
 4232SOL     OW24323   1.451   0.155   8.520
 4232SOL    HW124324   1.533   0.204   8.509
 4232SOL    HW224325   1.399   0.177   8.443
 4233SOL     OW24326   4.537   3.628   7.375
 4233SOL    HW124327   4.500   3.541   7.363
 4233SOL    HW224328   4.473   3.687   7.336
 4234SOL     OW24329   1.979   2.917  21.424
 4234SOL    HW124330   1.943   2.997  21.461
 4234SOL    HW224331   1.970   2.852  21.494
 4235SOL     OW24332   1.858   0.848  24.999
 4235SOL    HW124333   1.925   0.880  24.939
 4235SOL    HW224334   1.900   0.775  25.044
 4236SOL     OW24335   3.884   3.949  26.901
 4236SOL    HW124336   3.870   3.971  26.809
 4236SOL    HW224337   3.888   4.034  26.945
 4237SOL     OW24338   1.393   0.211  19.843
 4237SOL    HW124339   1.396   0.274  19.771
 4237SOL    HW224340   1.444   0.137  19.812
 4238SOL     OW24341   4.734   4.740   5.115
 4238SOL    HW124342   4.662   0.008   5.154
 4238SOL    HW224343   4.757   0.008   5.036
 4239SOL     OW24344   3.108   1.874  23.557
 4239SOL    HW124345   3.048   1.884  23.483
 4239SOL    HW224346   3.100   1.956  23.606
 4240SOL     OW24347   3.451   1.766   7.674
 4240SOL    HW124348   3.431   1.848   7.719
 4240SOL    HW224349   3.511   1.720   7.732
 4241SOL     OW24350   3.919   4.384  23.816
 4241SOL    HW124351   3.900   4.372  23.909
 4241SOL    HW224352   3.991   4.447  23.814
 4242SOL     OW24353   0.562   3.726   0.872
 4242SOL    HW124354   0.580   3.725   0.778
 4242SOL    HW224355   0.639   3.684   0.912
 4243SOL     OW24356   3.131   1.340  24.443
 4243SOL    HW124357   3.114   1.414  24.385
 4243SOL    HW224358   3.045   1.312  24.473
 4244SOL     OW24359   2.421   0.387   8.628
 4244SOL    HW124360   2.479   0.313   8.609
 4244SOL    HW224361   2.479   0.463   8.632
 4245SOL     OW24362   0.300   1.980   6.462
 4245SOL    HW124363   0.214   1.938   6.472
 4245SOL    HW224364   0.355   1.913   6.420
 4246SOL     OW24365   0.799   4.386  28.478
 4246SOL    HW124366   0.881   4.357  28.517
 4246SOL    HW224367   0.806   4.481  28.473
 4247SOL     OW24368   3.780   0.745   2.893
 4247SOL    HW124369   3.837   0.668   2.896
 4247SOL    HW224370   3.711   0.726   2.957
 4248SOL     OW24371   1.832   2.543   3.313
 4248SOL    HW124372   1.900   2.608   3.331
 4248SOL    HW224373   1.872   2.459   3.336
 4249SOL     OW24374   2.687   1.168  25.474
 4249SOL    HW124375   2.594   1.147  25.483
 4249SOL    HW224376   2.714   1.120  25.396
 4250SOL     OW24377   4.268   1.016  23.987
 4250SOL    HW124378   4.186   1.027  23.939
 4250SOL    HW224379   4.241   1.004  24.078
 4251SOL     OW24380   4.599   3.856   2.688
 4251SOL    HW124381   4.528   3.845   2.751
 4251SOL    HW224382   4.659   3.918   2.730
 4252SOL     OW24383   0.901   0.549   7.331
 4252SOL    HW124384   0.952   0.630   7.333
 4252SOL    HW224385   0.863   0.547   7.243
 4253SOL     OW24386   3.349   2.611   2.776
 4253SOL    HW124387   3.306   2.556   2.841
 4253SOL    HW224388   3.381   2.549   2.710
 4254SOL     OW24389   3.834   0.241  23.560
 4254SOL    HW124390   3.777   0.294  23.616
 4254SOL    HW224391   3.779   0.167  23.533
 4255SOL     OW24392   4.133   1.730  19.273
 4255SOL    HW124393   4.144   1.740  19.368
 4255SOL    HW224394   4.095   1.643  19.262
 4256SOL     OW24395   4.036   0.316   5.307
 4256SOL    HW124396   4.104   0.365   5.261
 4256SOL    HW224397   3.958   0.325   5.251
 4257SOL     OW24398   3.741   1.507   7.048
 4257SOL    HW124399   3.669   1.447   7.030
 4257SOL    HW224400   3.713   1.557   7.124
 4258SOL     OW24401   3.106   2.339   6.301
 4258SOL    HW124402   3.155   2.385   6.233
 4258SOL    HW224403   3.015   2.365   6.287
 4259SOL     OW24404   4.179   0.651  19.556
 4259SOL    HW124405   4.128   0.671  19.634
 4259SOL    HW224406   4.164   0.726  19.498
 4260SOL     OW24407   3.825   3.415  22.697
 4260SOL    HW124408   3.738   3.435  22.663
 4260SOL    HW224409   3.843   3.484  22.760
 4261SOL     OW24410   1.731   3.213  22.586
 4261SOL    HW124411   1.738   3.290  22.642
 4261SOL    HW224412   1.813   3.211  22.537
 4262SOL     OW24413   1.559   0.386  26.737
 4262SOL    HW124414   1.522   0.473  26.721
 4262SOL    HW224415   1.532   0.334  26.661
 4263SOL     OW24416   4.140   3.734  20.975
 4263SOL    HW124417   4.065   3.715  20.919
 4263SOL    HW224418   4.138   3.829  20.987
 4264SOL     OW24419   3.974   3.990  23.608
 4264SOL    HW124420   3.931   4.041  23.677
 4264SOL    HW224421   3.903   3.968  23.547
 4265SOL     OW24422   3.019   2.778  21.113
 4265SOL    HW124423   3.097   2.723  21.100
 4265SOL    HW224424   3.006   2.822  21.029
 4266SOL     OW24425   4.730   1.197   3.748
 4266SOL    HW124426   0.028   1.146   3.728
 4266SOL    HW224427   4.662   1.160   3.691
 4267SOL     OW24428   4.123   2.381   0.364
 4267SOL    HW124429   4.124   2.388   0.459
 4267SOL    HW224430   4.031   2.390   0.340
 4268SOL     OW24431   4.154   2.233  28.262
 4268SOL    HW124432   4.063   2.259  28.251
 4268SOL    HW224433   4.164   2.218  28.356
 4269SOL     OW24434   1.914   1.398  23.568
 4269SOL    HW124435   1.872   1.468  23.618
 4269SOL    HW224436   2.005   1.425  23.561
 4270SOL     OW24437   2.341   1.647  20.520
 4270SOL    HW124438   2.355   1.553  20.526
 4270SOL    HW224439   2.316   1.674  20.609
 4271SOL     OW24440   1.936   3.617  23.123
 4271SOL    HW124441   2.022   3.590  23.155
 4271SOL    HW224442   1.939   3.713  23.123
 4272SOL     OW24443   0.056   2.851  22.569
 4272SOL    HW124444   0.123   2.823  22.631
 4272SOL    HW224445   0.104   2.902  22.503
 4273SOL     OW24446   3.784   3.264   4.959
 4273SOL    HW124447   3.767   3.260   5.053
 4273SOL    HW224448   3.879   3.266   4.951
 4274SOL     OW24449   2.691   1.530  27.494
 4274SOL    HW124450   2.753   1.482  27.439
 4274SOL    HW224451   2.746   1.589  27.546
 4275SOL     OW24452   0.017   1.144  23.314
 4275SOL    HW124453   4.718   1.110  23.355
 4275SOL    HW224454   0.076   1.069  23.312
 4276SOL     OW24455   1.265   1.051  24.060
 4276SOL    HW124456   1.340   1.002  24.025
 4276SOL    HW224457   1.267   1.135  24.014
 4277SOL     OW24458   0.566   3.748   5.352
 4277SOL    HW124459   0.658   3.758   5.327
 4277SOL    HW224460   0.542   3.833   5.389
 4278SOL     OW24461   2.155   3.296   1.851
 4278SOL    HW124462   2.219   3.260   1.912
 4278SOL    HW224463   2.207   3.326   1.777
 4279SOL     OW24464   0.700   4.195  11.804
 4279SOL    HW124465   0.708   4.101  11.820
 4279SOL    HW224466   0.606   4.210  11.797
 4280SOL     OW24467   0.477   0.851  27.571
 4280SOL    HW124468   0.566   0.849  27.606
 4280SOL    HW224469   0.472   0.775  27.513
 4281SOL     OW24470   1.525   3.585  20.113
 4281SOL    HW124471   1.612   3.624  20.102
 4281SOL    HW224472   1.475   3.619  20.039
 4282SOL     OW24473   2.327   0.423   9.080
 4282SOL    HW124474   2.276   0.485   9.028
 4282SOL    HW224475   2.337   0.466   9.165
 4283SOL     OW24476   4.517   0.967   2.649
 4283SOL    HW124477   4.562   0.920   2.719
 4283SOL    HW224478   4.487   0.898   2.590
 4284SOL     OW24479   4.248   0.891   1.920
 4284SOL    HW124480   4.258   0.834   1.996
 4284SOL    HW224481   4.336   0.899   1.884
 4285SOL     OW24482   3.570   0.219  25.659
 4285SOL    HW124483   3.515   0.267  25.596
 4285SOL    HW224484   3.542   0.128  25.650
 4286SOL     OW24485   4.615   1.949  10.134
 4286SOL    HW124486   4.600   1.890  10.208
 4286SOL    HW224487   4.533   1.997  10.125
 4287SOL     OW24488   2.126   3.999   9.660
 4287SOL    HW124489   2.209   3.981   9.704
 4287SOL    HW224490   2.062   4.004   9.731
 4288SOL     OW24491   0.728   0.402  25.457
 4288SOL    HW124492   0.674   0.408  25.378
 4288SOL    HW224493   0.780   0.323  25.445
 4289SOL     OW24494   1.958   0.448   4.855
 4289SOL    HW124495   1.900   0.524   4.852
 4289SOL    HW224496   1.958   0.422   4.947
 4290SOL     OW24497   1.225   1.285   0.790
 4290SOL    HW124498   1.212   1.291   0.695
 4290SOL    HW224499   1.141   1.311   0.827
 4291SOL     OW24500   2.555   1.648  24.692
 4291SOL    HW124501   2.648   1.628  24.686
 4291SOL    HW224502   2.540   1.716  24.626
 4292SOL     OW24503   2.178   2.785   8.425
 4292SOL    HW124504   2.187   2.860   8.483
 4292SOL    HW224505   2.257   2.733   8.442
 4293SOL     OW24506   0.289   2.474   1.626
 4293SOL    HW124507   0.308   2.476   1.720
 4293SOL    HW224508   0.372   2.496   1.584
 4294SOL     OW24509   0.313   0.924  24.038
 4294SOL    HW124510   0.263   0.916  23.957
 4294SOL    HW224511   0.383   0.985  24.016
 4295SOL     OW24512   3.504   3.126  22.629
 4295SOL    HW124513   3.495   3.141  22.535
 4295SOL    HW224514   3.507   3.031  22.638
 4296SOL     OW24515   0.834   2.861  25.191
 4296SOL    HW124516   0.771   2.792  25.212
 4296SOL    HW224517   0.916   2.815  25.174
 4297SOL     OW24518   4.099   2.991   0.126
 4297SOL    HW124519   4.154   3.024   0.055
 4297SOL    HW224520   4.128   2.901   0.140
 4298SOL     OW24521   0.846   1.550  22.581
 4298SOL    HW124522   0.771   1.595  22.621
 4298SOL    HW224523   0.855   1.469  22.631
 4299SOL     OW24524   0.621   0.156  20.481
 4299SOL    HW124525   0.612   0.084  20.544
 4299SOL    HW224526   0.578   0.230  20.524
 4300SOL     OW24527   2.785   1.395   2.093
 4300SOL    HW124528   2.839   1.346   2.155
 4300SOL    HW224529   2.831   1.478   2.082
 4301SOL     OW24530   1.819   4.191  26.370
 4301SOL    HW124531   1.828   4.259  26.303
 4301SOL    HW224532   1.781   4.236  26.445
 4302SOL     OW24533   3.428   2.855   5.400
 4302SOL    HW124534   3.359   2.888   5.458
 4302SOL    HW224535   3.462   2.778   5.445
 4303SOL     OW24536   0.084   2.901  19.808
 4303SOL    HW124537   0.066   2.826  19.751
 4303SOL    HW224538   0.098   2.862  19.894
 4304SOL     OW24539   2.355   1.974  25.553
 4304SOL    HW124540   2.391   1.953  25.467
 4304SOL    HW224541   2.408   1.922  25.614
 4305SOL     OW24542   0.625   4.584  23.793
 4305SOL    HW124543   0.614   4.665  23.743
 4305SOL    HW224544   0.718   4.562  23.783
 4306SOL     OW24545   1.247   3.710   9.614
 4306SOL    HW124546   1.273   3.787   9.563
 4306SOL    HW224547   1.326   3.686   9.663
 4307SOL     OW24548   1.210   2.659  22.792
 4307SOL    HW124549   1.266   2.698  22.859
 4307SOL    HW224550   1.126   2.645  22.836
 4308SOL     OW24551   3.702   0.550  20.128
 4308SOL    HW124552   3.765   0.537  20.199
 4308SOL    HW224553   3.626   0.590  20.170
 4309SOL     OW24554   2.702   1.294  22.822
 4309SOL    HW124555   2.690   1.252  22.907
 4309SOL    HW224556   2.615   1.293  22.783
 4310SOL     OW24557   0.974   1.239  28.310
 4310SOL    HW124558   0.914   1.173  28.275
 4310SOL    HW224559   1.048   1.189  28.344
 4311SOL     OW24560   1.260   0.740  22.779
 4311SOL    HW124561   1.191   0.761  22.842
 4311SOL    HW224562   1.252   0.646  22.765
 4312SOL     OW24563   4.383   0.488   0.575
 4312SOL    HW124564   4.350   0.428   0.508
 4312SOL    HW224565   4.440   0.434   0.629
 4313SOL     OW24566   3.768   1.079  23.023
 4313SOL    HW124567   3.756   0.993  22.983
 4313SOL    HW224568   3.719   1.074  23.105
 4314SOL     OW24569   3.737   0.492   7.955
 4314SOL    HW124570   3.778   0.479   8.041
 4314SOL    HW224571   3.705   0.405   7.931
 4315SOL     OW24572   0.779   0.349  10.496
 4315SOL    HW124573   0.862   0.389  10.523
 4315SOL    HW224574   0.748   0.303  10.574
 4316SOL     OW24575   1.203   3.028  24.440
 4316SOL    HW124576   1.238   2.956  24.493
 4316SOL    HW224577   1.247   3.019  24.355
 4317SOL     OW24578   1.852   1.774  25.484
 4317SOL    HW124579   1.826   1.682  25.480
 4317SOL    HW224580   1.770   1.822  25.478
 4318SOL     OW24581   0.958   0.923   9.269
 4318SOL    HW124582   1.021   0.965   9.328
 4318SOL    HW224583   1.006   0.850   9.231
 4319SOL     OW24584   1.300   3.379  28.331
 4319SOL    HW124585   1.357   3.305  28.352
 4319SOL    HW224586   1.345   3.424  28.260
 4320SOL     OW24587   1.490   0.859   7.131
 4320SOL    HW124588   1.430   0.916   7.083
 4320SOL    HW224589   1.445   0.774   7.135
 4321SOL     OW24590   4.730   2.535   6.048
 4321SOL    HW124591   0.027   2.480   6.051
 4321SOL    HW224592   4.667   2.490   6.104
 4322SOL     OW24593   3.552   0.007  25.326
 4322SOL    HW124594   3.494   0.069  25.369
 4322SOL    HW224595   3.562   0.042  25.237
 4323SOL     OW24596   3.841   0.571  23.828
 4323SOL    HW124597   3.846   0.630  23.753
 4323SOL    HW224598   3.800   0.492  23.793
 4324SOL     OW24599   0.651   0.585  10.680
 4324SOL    HW124600   0.561   0.556  10.698
 4324SOL    HW224601   0.694   0.583  10.765
 4325SOL     OW24602   4.671   2.378  25.297
 4325SOL    HW124603   4.600   2.334  25.344
 4325SOL    HW224604   4.696   2.451  25.353
 4326SOL     OW24605   4.704   3.111   2.829
 4326SOL    HW124606   4.699   3.041   2.764
 4326SOL    HW224607   4.615   3.146   2.833
 4327SOL     OW24608   4.554   1.037   7.839
 4327SOL    HW124609   4.530   1.080   7.921
 4327SOL    HW224610   4.479   1.051   7.782
 4328SOL     OW24611   4.450   0.925   2.371
 4328SOL    HW124612   4.426   1.009   2.411
 4328SOL    HW224613   4.481   0.949   2.284
 4329SOL     OW24614   1.703   4.370   4.632
 4329SOL    HW124615   1.740   4.416   4.557
 4329SOL    HW224616   1.749   4.286   4.634
 4330SOL     OW24617   1.594   4.615   4.494
 4330SOL    HW124618   1.537   4.673   4.544
 4330SOL    HW224619   1.683   4.639   4.522
 4331SOL     OW24620   0.982   3.344  25.655
 4331SOL    HW124621   1.001   3.347  25.561
 4331SOL    HW224622   1.007   3.255  25.681
 4332SOL     OW24623   3.349   1.227  24.571
 4332SOL    HW124624   3.282   1.250  24.507
 4332SOL    HW224625   3.341   1.294  24.639
 4333SOL     OW24626   1.166   3.278  23.408
 4333SOL    HW124627   1.111   3.200  23.405
 4333SOL    HW224628   1.129   3.331  23.478
 4334SOL     OW24629   2.271   2.499   0.964
 4334SOL    HW124630   2.342   2.550   1.003
 4334SOL    HW224631   2.213   2.479   1.037
 4335SOL     OW24632   0.088   3.089  23.119
 4335SOL    HW124633   0.028   3.118  23.050
 4335SOL    HW224634   0.100   3.166  23.174
 4336SOL     OW24635   0.595   3.298  24.864
 4336SOL    HW124636   0.553   3.382  24.883
 4336SOL    HW224637   0.610   3.299  24.770
 4337SOL     OW24638   0.875   3.065  25.401
 4337SOL    HW124639   0.858   3.003  25.330
 4337SOL    HW224640   0.949   3.028  25.448
 4338SOL     OW24641   0.222   2.720  21.915
 4338SOL    HW124642   0.185   2.689  21.832
 4338SOL    HW224643   0.303   2.764  21.891
 4339SOL     OW24644   4.306   4.519   3.335
 4339SOL    HW124645   4.212   4.504   3.338
 4339SOL    HW224646   4.316   4.612   3.354
 4340SOL     OW24647   1.433   3.677   8.584
 4340SOL    HW124648   1.493   3.605   8.564
 4340SOL    HW224649   1.487   3.741   8.631
 4341SOL     OW24650   3.588   2.954  25.356
 4341SOL    HW124651   3.628   2.895  25.292
 4341SOL    HW224652   3.614   3.042  25.327
 4342SOL     OW24653   1.173   0.885   3.238
 4342SOL    HW124654   1.142   0.974   3.258
 4342SOL    HW224655   1.150   0.834   3.316
 4343SOL     OW24656   0.611   2.052   0.270
 4343SOL    HW124657   0.590   2.016   0.184
 4343SOL    HW224658   0.683   1.998   0.302
 4344SOL     OW24659   0.651   0.371  23.512
 4344SOL    HW124660   0.652   0.285  23.470
 4344SOL    HW224661   0.608   0.356  23.596
 4345SOL     OW24662   0.150   1.213  23.073
 4345SOL    HW124663   0.097   1.180  23.145
 4345SOL    HW224664   0.118   1.167  22.996
 4346SOL     OW24665   1.648   1.747   4.629
 4346SOL    HW124666   1.686   1.819   4.578
 4346SOL    HW224667   1.704   1.741   4.707
 4347SOL     OW24668   2.376   2.354   7.574
 4347SOL    HW124669   2.321   2.283   7.606
 4347SOL    HW224670   2.329   2.434   7.599
 4348SOL     OW24671   1.599   2.539   1.005
 4348SOL    HW124672   1.597   2.618   1.059
 4348SOL    HW224673   1.531   2.553   0.940
 4349SOL     OW24674   2.945   2.214   0.051
 4349SOL    HW124675   2.882   2.277   0.087
 4349SOL    HW224676   2.891   2.142   0.018
 4350SOL     OW24677   4.439   0.487  26.709
 4350SOL    HW124678   4.458   0.415  26.649
 4350SOL    HW224679   4.351   0.516  26.684
 4351SOL     OW24680   1.973   0.937   5.871
 4351SOL    HW124681   2.028   1.015   5.877
 4351SOL    HW224682   1.897   0.965   5.819
 4352SOL     OW24683   2.954   3.058  11.653
 4352SOL    HW124684   3.009   2.995  11.700
 4352SOL    HW224685   3.002   3.141  11.659
 4353SOL     OW24686   1.790   3.095  28.237
 4353SOL    HW124687   1.799   3.060  28.325
 4353SOL    HW224688   1.862   3.056  28.188
 4354SOL     OW24689   2.763   4.169  10.610
 4354SOL    HW124690   2.843   4.142  10.655
 4354SOL    HW224691   2.703   4.194  10.680
 4355SOL     OW24692   2.639   0.266  26.587
 4355SOL    HW124693   2.612   0.174  26.588
 4355SOL    HW224694   2.706   0.272  26.655
 4356SOL     OW24695   2.706   2.466   0.538
 4356SOL    HW124696   2.629   2.436   0.490
 4356SOL    HW224697   2.676   2.543   0.586
 4357SOL     OW24698   4.097   3.351  17.274
 4357SOL    HW124699   4.160   3.416  17.305
 4357SOL    HW224700   4.022   3.403  17.245
 4358SOL     OW24701   1.326   0.116  11.234
 4358SOL    HW124702   1.375   0.118  11.316
 4358SOL    HW224703   1.393   0.104  11.167
 4359SOL     OW24704   1.463   1.476  11.403
 4359SOL    HW124705   1.515   1.556  11.393
 4359SOL    HW224706   1.406   1.494  11.477
 4360SOL     OW24707   0.596   4.281  25.588
 4360SOL    HW124708   0.667   4.235  25.633
 4360SOL    HW224709   0.636   4.362  25.556
 4361SOL     OW24710   0.318   1.298  25.095
 4361SOL    HW124711   0.367   1.216  25.104
 4361SOL    HW224712   0.259   1.299  25.170
 4362SOL     OW24713   2.392   0.852   0.658
 4362SOL    HW124714   2.409   0.879   0.568
 4362SOL    HW224715   2.410   0.758   0.658
 4363SOL     OW24716   3.688   2.582  18.258
 4363SOL    HW124717   3.640   2.664  18.272
 4363SOL    HW224718   3.619   2.516  18.248
 4364SOL     OW24719   1.837   0.151  22.273
 4364SOL    HW124720   1.845   0.200  22.355
 4364SOL    HW224721   1.897   0.077  22.283
 4365SOL     OW24722   3.575   2.299   4.375
 4365SOL    HW124723   3.643   2.364   4.355
 4365SOL    HW224724   3.545   2.269   4.289
 4366SOL     OW24725   4.181   2.314   5.909
 4366SOL    HW124726   4.164   2.225   5.939
 4366SOL    HW224727   4.167   2.310   5.814
 4367SOL     OW24728   3.084   1.951  21.162
 4367SOL    HW124729   3.126   1.967  21.078
 4367SOL    HW224730   3.002   1.907  21.140
 4368SOL     OW24731   3.749   4.329   3.201
 4368SOL    HW124732   3.790   4.343   3.116
 4368SOL    HW224733   3.668   4.381   3.197
 4369SOL     OW24734   3.445   4.552   2.493
 4369SOL    HW124735   3.424   4.640   2.462
 4369SOL    HW224736   3.533   4.536   2.460
 4370SOL     OW24737   4.461   3.641  10.399
 4370SOL    HW124738   4.423   3.710  10.344
 4370SOL    HW224739   4.397   3.628  10.469
 4371SOL     OW24740   2.636   3.175   0.579
 4371SOL    HW124741   2.640   3.080   0.568
 4371SOL    HW224742   2.725   3.201   0.602
 4372SOL     OW24743   0.666   0.160   9.817
 4372SOL    HW124744   0.700   0.093   9.876
 4372SOL    HW224745   0.573   0.141   9.809
 4373SOL     OW24746   2.627   0.493   4.328
 4373SOL    HW124747   2.695   0.431   4.302
 4373SOL    HW224748   2.625   0.488   4.424
 4374SOL     OW24749   0.011   3.495   6.572
 4374SOL    HW124750   4.779   3.498   6.667
 4374SOL    HW224751   0.025   3.402   6.552
 4375SOL     OW24752   3.822   4.005   3.666
 4375SOL    HW124753   3.911   3.974   3.646
 4375SOL    HW224754   3.765   3.934   3.636
 4376SOL     OW24755   1.066   2.734  25.946
 4376SOL    HW124756   1.096   2.678  25.875
 4376SOL    HW224757   1.141   2.741  26.005
 4377SOL     OW24758   2.613   4.063   9.671
 4377SOL    HW124759   2.590   4.009   9.596
 4377SOL    HW224760   2.548   4.041   9.738
 4378SOL     OW24761   2.120   1.918   6.299
 4378SOL    HW124762   2.206   1.889   6.269
 4378SOL    HW224763   2.103   1.997   6.247
 4379SOL     OW24764   3.783   3.663  16.219
 4379SOL    HW124765   3.853   3.654  16.154
 4379SOL    HW224766   3.793   3.752  16.253
 4380SOL     OW24767   4.265   1.246   1.503
 4380SOL    HW124768   4.278   1.177   1.568
 4380SOL    HW224769   4.326   1.315   1.529
 4381SOL     OW24770   4.418   3.156  19.954
 4381SOL    HW124771   4.441   3.125  20.042
 4381SOL    HW224772   4.433   3.080  19.897
 4382SOL     OW24773   3.596   1.208   1.644
 4382SOL    HW124774   3.664   1.192   1.578
 4382SOL    HW224775   3.626   1.160   1.721
 4383SOL     OW24776   3.673   4.111   4.303
 4383SOL    HW124777   3.618   4.084   4.230
 4383SOL    HW224778   3.617   4.103   4.380
 4384SOL     OW24779   1.355   1.627   8.872
 4384SOL    HW124780   1.372   1.679   8.950
 4384SOL    HW224781   1.298   1.556   8.902
 4385SOL     OW24782   3.931   0.426  11.836
 4385SOL    HW124783   3.934   0.377  11.754
 4385SOL    HW224784   3.881   0.505  11.816
 4386SOL     OW24785   1.495   0.333   3.335
 4386SOL    HW124786   1.486   0.267   3.267
 4386SOL    HW224787   1.586   0.325   3.363
 4387SOL     OW24788   1.051   0.827  22.993
 4387SOL    HW124789   1.031   0.919  23.008
 4387SOL    HW224790   0.990   0.800  22.924
 4388SOL     OW24791   0.373   0.631  20.113
 4388SOL    HW124792   0.411   0.573  20.047
 4388SOL    HW224793   0.433   0.625  20.188
 4389SOL     OW24794   3.586   2.901  20.409
 4389SOL    HW124795   3.604   2.857  20.492
 4389SOL    HW224796   3.607   2.836  20.342
 4390SOL     OW24797   4.166   4.240   3.265
 4390SOL    HW124798   4.133   4.267   3.179
 4390SOL    HW224799   4.119   4.296   3.327
 4391SOL     OW24800   3.313   1.674   2.080
 4391SOL    HW124801   3.386   1.723   2.118
 4391SOL    HW224802   3.293   1.720   1.999
 4392SOL     OW24803   4.373   2.846  11.128
 4392SOL    HW124804   4.318   2.849  11.206
 4392SOL    HW224805   4.447   2.902  11.149
 4393SOL     OW24806   0.651   3.197  26.732
 4393SOL    HW124807   0.566   3.191  26.776
 4393SOL    HW224808   0.668   3.108  26.701
 4394SOL     OW24809   1.568   2.580  27.105
 4394SOL    HW124810   1.576   2.527  27.026
 4394SOL    HW224811   1.517   2.526  27.165
 4395SOL     OW24812   2.964   3.105   6.926
 4395SOL    HW124813   3.001   3.029   6.971
 4395SOL    HW224814   2.924   3.157   6.996
 4396SOL     OW24815   1.695   0.103  26.298
 4396SOL    HW124816   1.745   0.185  26.295
 4396SOL    HW224817   1.615   0.122  26.250
 4397SOL     OW24818   0.110   1.264   5.701
 4397SOL    HW124819   0.112   1.275   5.796
 4397SOL    HW224820   0.018   1.250   5.680
 4398SOL     OW24821   0.609   3.733  26.405
 4398SOL    HW124822   0.524   3.701  26.374
 4398SOL    HW224823   0.656   3.758  26.326
 4399SOL     OW24824   4.667   0.590  22.315
 4399SOL    HW124825   4.644   0.659  22.253
 4399SOL    HW224826   4.702   0.519  22.261
 4400SOL     OW24827   2.179   2.921  27.273
 4400SOL    HW124828   2.161   2.906  27.180
 4400SOL    HW224829   2.270   2.952  27.275
 4401SOL     OW24830   4.701   2.961   3.799
 4401SOL    HW124831   4.761   3.026   3.836
 4401SOL    HW224832   4.717   2.964   3.705
 4402SOL     OW24833   1.520   1.364  23.973
 4402SOL    HW124834   1.552   1.445  24.013
 4402SOL    HW224835   1.545   1.296  24.035
 4403SOL     OW24836   1.285   1.508   3.772
 4403SOL    HW124837   1.378   1.495   3.751
 4403SOL    HW224838   1.264   1.593   3.734
 4404SOL     OW24839   2.774   3.749   9.202
 4404SOL    HW124840   2.824   3.671   9.176
 4404SOL    HW224841   2.786   3.754   9.297
 4405SOL     OW24842   1.742   0.235   5.011
 4405SOL    HW124843   1.813   0.175   5.033
 4405SOL    HW224844   1.780   0.322   5.023
 4406SOL     OW24845   0.230   0.276  24.174
 4406SOL    HW124846   0.200   0.346  24.232
 4406SOL    HW224847   0.226   0.197  24.227
 4407SOL     OW24848   0.328   2.682  11.494
 4407SOL    HW124849   0.294   2.725  11.572
 4407SOL    HW224850   0.288   2.595  11.495
 4408SOL     OW24851   3.624   2.915   2.242
 4408SOL    HW124852   3.655   2.833   2.279
 4408SOL    HW224853   3.559   2.947   2.304
 4409SOL     OW24854   4.123   3.716   7.577
 4409SOL    HW124855   4.172   3.641   7.543
 4409SOL    HW224856   4.051   3.727   7.515
 4410SOL     OW24857   4.057   3.054   0.944
 4410SOL    HW124858   4.110   3.045   1.023
 4410SOL    HW224859   4.032   3.146   0.942
 4411SOL     OW24860   0.434   3.582  25.604
 4411SOL    HW124861   0.408   3.499  25.643
 4411SOL    HW224862   0.509   3.560  25.549
 4412SOL     OW24863   0.381   2.447   7.513
 4412SOL    HW124864   0.476   2.459   7.509
 4412SOL    HW224865   0.366   2.396   7.592
 4413SOL     OW24866   2.736   1.347   0.564
 4413SOL    HW124867   2.794   1.352   0.640
 4413SOL    HW224868   2.724   1.253   0.549
 4414SOL     OW24869   2.757   0.514   3.307
 4414SOL    HW124870   2.675   0.476   3.339
 4414SOL    HW224871   2.740   0.608   3.306
 4415SOL     OW24872   0.381   0.006  23.085
 4415SOL    HW124873   0.430   0.088  23.089
 4415SOL    HW224874   0.374   4.759  23.176
 4416SOL     OW24875   4.457   0.240  24.710
 4416SOL    HW124876   4.471   0.187  24.789
 4416SOL    HW224877   4.382   0.200  24.667
 4417SOL     OW24878   3.001   3.489   2.521
 4417SOL    HW124879   2.962   3.525   2.601
 4417SOL    HW224880   2.937   3.425   2.490
 4418SOL     OW24881   4.228   3.882   7.791
 4418SOL    HW124882   4.299   3.908   7.732
 4418SOL    HW224883   4.171   3.828   7.737
 4419SOL     OW24884   1.796   1.069   1.928
 4419SOL    HW124885   1.869   1.102   1.981
 4419SOL    HW224886   1.823   0.982   1.900
 4420SOL     OW24887   3.205   1.962   6.218
 4420SOL    HW124888   3.136   2.014   6.177
 4420SOL    HW224889   3.283   1.980   6.166
 4421SOL     OW24890   0.421   2.849   5.373
 4421SOL    HW124891   0.447   2.901   5.449
 4421SOL    HW224892   0.428   2.909   5.299
 4422SOL     OW24893   0.034   2.184  23.839
 4422SOL    HW124894   4.724   2.193  23.809
 4422SOL    HW224895   0.064   2.274  23.853
 4423SOL     OW24896   2.124   0.244  23.939
 4423SOL    HW124897   2.170   0.261  24.021
 4423SOL    HW224898   2.164   0.164  23.905
 4424SOL     OW24899   3.270   1.470  19.397
 4424SOL    HW124900   3.237   1.518  19.473
 4424SOL    HW224901   3.231   1.383  19.405
 4425SOL     OW24902   3.589   2.587  17.379
 4425SOL    HW124903   3.648   2.558  17.309
 4425SOL    HW224904   3.626   2.670  17.409
 4426SOL     OW24905   3.298   3.854  26.029
 4426SOL    HW124906   3.256   3.830  25.946
 4426SOL    HW224907   3.312   3.948  26.022
 4427SOL     OW24908   0.133   1.399   3.044
 4427SOL    HW124909   0.118   1.323   3.100
 4427SOL    HW224910   0.195   1.453   3.093
 4428SOL     OW24911   0.106   2.218  20.187
 4428SOL    HW124912   0.173   2.184  20.246
 4428SOL    HW224913   0.036   2.153  20.190
 4429SOL     OW24914   1.005   0.458  25.773
 4429SOL    HW124915   0.924   0.454  25.723
 4429SOL    HW224916   1.001   0.383  25.832
 4430SOL     OW24917   1.532   3.997  21.753
 4430SOL    HW124918   1.605   4.058  21.764
 4430SOL    HW224919   1.495   4.019  21.667
 4431SOL     OW24920   0.222   0.097   5.183
 4431SOL    HW124921   0.183   0.172   5.229
 4431SOL    HW224922   0.152   0.032   5.180
 4432SOL     OW24923   0.949   0.736  28.248
 4432SOL    HW124924   1.017   0.669  28.255
 4432SOL    HW224925   0.868   0.686  28.234
 4433SOL     OW24926   3.211   1.864  12.618
 4433SOL    HW124927   3.245   1.938  12.568
 4433SOL    HW224928   3.149   1.903  12.680
 4434SOL     OW24929   0.915   4.088   9.147
 4434SOL    HW124930   0.981   4.140   9.100
 4434SOL    HW224931   0.862   4.049   9.078
 4435SOL     OW24932   3.008   2.324  21.240
 4435SOL    HW124933   3.064   2.401  21.253
 4435SOL    HW224934   2.953   2.347  21.165
 4436SOL     OW24935   2.552   2.980   4.094
 4436SOL    HW124936   2.618   2.978   4.025
 4436SOL    HW224937   2.590   3.035   4.162
 4437SOL     OW24938   4.244   4.319   8.450
 4437SOL    HW124939   4.162   4.270   8.454
 4437SOL    HW224940   4.295   4.274   8.383
 4438SOL     OW24941   3.820   1.165  19.003
 4438SOL    HW124942   3.899   1.120  19.033
 4438SOL    HW224943   3.793   1.116  18.925
 4439SOL     OW24944   4.465   0.192  18.917
 4439SOL    HW124945   4.408   0.214  18.843
 4439SOL    HW224946   4.412   0.212  18.994
 4440SOL     OW24947   1.126   0.149   5.119
 4440SOL    HW124948   1.154   0.189   5.037
 4440SOL    HW224949   1.033   0.129   5.106
 4441SOL     OW24950   0.199   4.674   0.162
 4441SOL    HW124951   0.238   4.635   0.240
 4441SOL    HW224952   0.254   4.750   0.143
 4442SOL     OW24953   1.735   3.404  21.502
 4442SOL    HW124954   1.673   3.438  21.437
 4442SOL    HW224955   1.687   3.408  21.585
 4443SOL     OW24956   2.118   2.275   2.056
 4443SOL    HW124957   2.040   2.326   2.035
 4443SOL    HW224958   2.111   2.197   2.002
 4444SOL     OW24959   1.324   0.387   0.510
 4444SOL    HW124960   1.406   0.338   0.506
 4444SOL    HW224961   1.326   0.429   0.596
 4445SOL     OW24962   3.948   0.699  17.542
 4445SOL    HW124963   4.033   0.667  17.511
 4445SOL    HW224964   3.884   0.655  17.487
 4446SOL     OW24965   3.553   1.512  11.323
 4446SOL    HW124966   3.526   1.427  11.359
 4446SOL    HW224967   3.577   1.564  11.400
 4447SOL     OW24968   2.606   4.692  19.843
 4447SOL    HW124969   2.679   4.642  19.808
 4447SOL    HW224970   2.539   4.688  19.775
 4448SOL     OW24971   1.574   0.512   9.660
 4448SOL    HW124972   1.554   0.573   9.732
 4448SOL    HW224973   1.492   0.506   9.611
 4449SOL     OW24974   1.009   4.660  21.096
 4449SOL    HW124975   1.045   4.652  21.184
 4449SOL    HW224976   1.038   4.746  21.066
 4450SOL     OW24977   4.038   2.482  21.984
 4450SOL    HW124978   4.012   2.571  22.008
 4450SOL    HW224979   3.965   2.427  22.013
 4451SOL     OW24980   1.526   3.142   4.716
 4451SOL    HW124981   1.430   3.136   4.717
 4451SOL    HW224982   1.552   3.132   4.808
 4452SOL     OW24983   1.974   3.715   8.348
 4452SOL    HW124984   2.002   3.624   8.347
 4452SOL    HW224985   2.054   3.765   8.335
 4453SOL     OW24986   0.195   1.807  17.735
 4453SOL    HW124987   0.289   1.818  17.723
 4453SOL    HW224988   0.156   1.863  17.668
 4454SOL     OW24989   3.729   2.662   8.561
 4454SOL    HW124990   3.777   2.616   8.630
 4454SOL    HW224991   3.723   2.599   8.489
 4455SOL     OW24992   0.872   1.320   5.462
 4455SOL    HW124993   0.788   1.277   5.476
 4455SOL    HW224994   0.875   1.337   5.368
 4456SOL     OW24995   4.720   0.086   6.383
 4456SOL    HW124996   0.017   0.034   6.361
 4456SOL    HW224997   4.674   0.097   6.300
 4457SOL     OW24998   3.969   2.479  26.747
 4457SOL    HW124999   4.027   2.440  26.681
 4457SOL    HW225000   4.004   2.567  26.761
 4458SOL     OW25001   0.011   4.730   8.376
 4458SOL    HW125002   4.703   4.753   8.349
 4458SOL    HW225003   0.059   0.032   8.375
 4459SOL     OW25004   2.154   3.205   5.794
 4459SOL    HW125005   2.098   3.274   5.758
 4459SOL    HW225006   2.200   3.169   5.718
 4460SOL     OW25007   4.607   3.614   1.162
 4460SOL    HW125008   4.552   3.610   1.240
 4460SOL    HW225009   4.695   3.633   1.196
 4461SOL     OW25010   1.271   1.848   4.632
 4461SOL    HW125011   1.314   1.818   4.712
 4461SOL    HW225012   1.219   1.924   4.660
 4462SOL     OW25013   2.566   4.255   3.768
 4462SOL    HW125014   2.565   4.306   3.687
 4462SOL    HW225015   2.657   4.257   3.797
 4463SOL     OW25016   0.408   2.388  10.853
 4463SOL    HW125017   0.338   2.323  10.857
 4463SOL    HW225018   0.363   2.472  10.855
 4464SOL     OW25019   0.493   2.120   9.043
 4464SOL    HW125020   0.430   2.192   9.035
 4464SOL    HW225021   0.555   2.135   8.971
 4465SOL     OW25022   4.505   3.516   5.005
 4465SOL    HW125023   4.445   3.492   4.935
 4465SOL    HW225024   4.456   3.579   5.058
 4466SOL     OW25025   3.818   0.315  20.921
 4466SOL    HW125026   3.826   0.395  20.869
 4466SOL    HW225027   3.753   0.263  20.874
 4467SOL     OW25028   0.847   1.263   8.173
 4467SOL    HW125029   0.877   1.236   8.086
 4467SOL    HW225030   0.834   1.358   8.166
 4468SOL     OW25031   4.242   1.697   3.897
 4468SOL    HW125032   4.201   1.632   3.954
 4468SOL    HW225033   4.333   1.701   3.928
 4469SOL     OW25034   2.001   4.515   2.640
 4469SOL    HW125035   2.004   4.487   2.731
 4469SOL    HW225036   1.923   4.570   2.634
 4470SOL     OW25037   2.525   0.919   4.226
 4470SOL    HW125038   2.493   0.973   4.154
 4470SOL    HW225039   2.447   0.873   4.258
 4471SOL     OW25040   2.336   1.828   6.176
 4471SOL    HW125041   2.424   1.865   6.187
 4471SOL    HW225042   2.350   1.733   6.173
 4472SOL     OW25043   4.133   1.893   3.072
 4472SOL    HW125044   4.119   1.873   2.979
 4472SOL    HW225045   4.186   1.972   3.071
 4473SOL     OW25046   3.956   0.869   1.868
 4473SOL    HW125047   4.051   0.880   1.871
 4473SOL    HW225048   3.927   0.893   1.956
 4474SOL     OW25049   0.615   2.110  28.065
 4474SOL    HW125050   0.606   2.202  28.039
 4474SOL    HW225051   0.639   2.114  28.158
 4475SOL     OW25052   0.931   1.574  22.056
 4475SOL    HW125053   0.912   1.480  22.051
 4475SOL    HW225054   0.913   1.597  22.147
 4476SOL     OW25055   1.015   0.363   0.360
 4476SOL    HW125056   0.999   0.406   0.444
 4476SOL    HW225057   1.098   0.318   0.372
 4477SOL     OW25058   3.565   4.250  27.115
 4477SOL    HW125059   3.558   4.302  27.195
 4477SOL    HW225060   3.644   4.197  27.128
 4478SOL     OW25061   2.483   2.224  26.598
 4478SOL    HW125062   2.532   2.221  26.680
 4478SOL    HW225063   2.414   2.288  26.614
 4479SOL     OW25064   1.819   4.574   8.848
 4479SOL    HW125065   1.796   4.574   8.755
 4479SOL    HW225066   1.914   4.580   8.849
 4480SOL     OW25067   1.356   4.605   4.119
 4480SOL    HW125068   1.437   4.579   4.163
 4480SOL    HW225069   1.369   4.582   4.027
 4481SOL     OW25070   1.649   1.516  20.633
 4481SOL    HW125071   1.688   1.599  20.662
 4481SOL    HW225072   1.659   1.517  20.538
 4482SOL     OW25073   4.666   2.462   2.128
 4482SOL    HW125074   4.573   2.456   2.108
 4482SOL    HW225075   4.707   2.396   2.073
 4483SOL     OW25076   3.638   2.036   6.624
 4483SOL    HW125077   3.618   2.113   6.571
 4483SOL    HW225078   3.616   2.062   6.713
 4484SOL     OW25079   2.422   1.388   0.091
 4484SOL    HW125080   2.459   1.450   0.154
 4484SOL    HW225081   2.498   1.344   0.053
 4485SOL     OW25082   2.986   2.704   5.982
 4485SOL    HW125083   2.935   2.634   6.022
 4485SOL    HW225084   2.970   2.780   6.038
 4486SOL     OW25085   1.088   3.775   6.891
 4486SOL    HW125086   1.160   3.759   6.830
 4486SOL    HW225087   1.076   3.691   6.935
 4487SOL     OW25088   2.921   0.046   9.648
 4487SOL    HW125089   2.884   0.027   9.562
 4487SOL    HW225090   2.876   4.768   9.708
 4488SOL     OW25091   1.553   3.731  20.581
 4488SOL    HW125092   1.491   3.802  20.565
 4488SOL    HW225093   1.522   3.691  20.662
 4489SOL     OW25094   0.161   3.525  22.309
 4489SOL    HW125095   0.214   3.468  22.254
 4489SOL    HW225096   0.071   3.497  22.293
 4490SOL     OW25097   3.727   0.271   4.731
 4490SOL    HW125098   3.639   0.276   4.693
 4490SOL    HW225099   3.733   0.347   4.788
 4491SOL     OW25100   1.580   3.134  28.056
 4491SOL    HW125101   1.611   3.198  28.121
 4491SOL    HW225102   1.630   3.055  28.075
 4492SOL     OW25103   4.343   2.314  20.507
 4492SOL    HW125104   4.289   2.358  20.573
 4492SOL    HW225105   4.395   2.251  20.556
 4493SOL     OW25106   4.292   1.323  25.954
 4493SOL    HW125107   4.317   1.412  25.929
 4493SOL    HW225108   4.310   1.271  25.876
 4494SOL     OW25109   4.189   1.485   7.180
 4494SOL    HW125110   4.127   1.438   7.123
 4494SOL    HW225111   4.138   1.506   7.258
 4495SOL     OW25112   0.827   3.848  10.822
 4495SOL    HW125113   0.851   3.762  10.789
 4495SOL    HW225114   0.777   3.830  10.902
 4496SOL     OW25115   1.514   1.945   5.197
 4496SOL    HW125116   1.595   1.934   5.148
 4496SOL    HW225117   1.447   1.907   5.141
 4497SOL     OW25118   1.187   2.020  18.259
 4497SOL    HW125119   1.269   2.068  18.246
 4497SOL    HW225120   1.124   2.065  18.202
 4498SOL     OW25121   2.563   3.670   3.566
 4498SOL    HW125122   2.487   3.612   3.572
 4498SOL    HW225123   2.590   3.683   3.657
 4499SOL     OW25124   2.867   4.550  24.073
 4499SOL    HW125125   2.821   4.547  23.989
 4499SOL    HW225126   2.798   4.538  24.138
 4500SOL     OW25127   4.348   0.087   6.324
 4500SOL    HW125128   4.384   0.070   6.411
 4500SOL    HW225129   4.294   0.011   6.305
 4501SOL     OW25130   1.918   0.478   9.841
 4501SOL    HW125131   1.911   0.510   9.931
 4501SOL    HW225132   2.003   0.510   9.810
 4502SOL     OW25133   2.182   4.389   1.393
 4502SOL    HW125134   2.202   4.451   1.463
 4502SOL    HW225135   2.091   4.408   1.370
 4503SOL     OW25136   1.841   4.490   3.753
 4503SOL    HW125137   1.781   4.464   3.823
 4503SOL    HW225138   1.848   4.585   3.761
 4504SOL     OW25139   2.515   0.248  22.575
 4504SOL    HW125140   2.552   0.261  22.663
 4504SOL    HW225141   2.538   0.328  22.528
 4505SOL     OW25142   2.101   2.500  27.380
 4505SOL    HW125143   2.046   2.569  27.344
 4505SOL    HW225144   2.108   2.520  27.473
 4506SOL     OW25145   3.483   4.777   5.802
 4506SOL    HW125146   3.405   0.002   5.857
 4506SOL    HW225147   3.451   4.744   5.718
 4507SOL     OW25148   2.061   2.403  26.220
 4507SOL    HW125149   1.997   2.336  26.197
 4507SOL    HW225150   2.050   2.471  26.154
 4508SOL     OW25151   1.189   4.688   8.411
 4508SOL    HW125152   1.225   4.766   8.368
 4508SOL    HW225153   1.250   4.618   8.387
 4509SOL     OW25154   0.766   3.191   8.952
 4509SOL    HW125155   0.677   3.197   8.986
 4509SOL    HW225156   0.760   3.125   8.883
 4510SOL     OW25157   0.736   1.830   6.747
 4510SOL    HW125158   0.830   1.847   6.757
 4510SOL    HW225159   0.719   1.847   6.654
 4511SOL     OW25160   4.235   1.375   2.664
 4511SOL    HW125161   4.180   1.317   2.717
 4511SOL    HW225162   4.175   1.411   2.598
 4512SOL     OW25163   0.631   4.540   5.692
 4512SOL    HW125164   0.546   4.540   5.647
 4512SOL    HW225165   0.610   4.517   5.782
 4513SOL     OW25166   1.886   1.129   9.435
 4513SOL    HW125167   1.811   1.102   9.383
 4513SOL    HW225168   1.851   1.140   9.524
 4514SOL     OW25169   2.331   3.933  19.868
 4514SOL    HW125170   2.309   3.939  19.961
 4514SOL    HW225171   2.333   3.839  19.850
 4515SOL     OW25172   2.382   2.772   4.002
 4515SOL    HW125173   2.356   2.748   4.091
 4515SOL    HW225174   2.448   2.840   4.014
 4516SOL     OW25175   1.606   2.213  22.231
 4516SOL    HW125176   1.521   2.217  22.274
 4516SOL    HW225177   1.586   2.190  22.140
 4517SOL     OW25178   2.452   0.047  24.515
 4517SOL    HW125179   2.421   0.119  24.461
 4517SOL    HW225180   2.372   0.001  24.541
 4518SOL     OW25181   4.118   3.312   9.557
 4518SOL    HW125182   4.192   3.346   9.506
 4518SOL    HW225183   4.050   3.294   9.492
 4519SOL     OW25184   1.441   4.113  21.473
 4519SOL    HW125185   1.415   4.203  21.452
 4519SOL    HW225186   1.370   4.079  21.527
 4520SOL     OW25187   3.316   0.474   6.177
 4520SOL    HW125188   3.350   0.397   6.131
 4520SOL    HW225189   3.391   0.508   6.225
 4521SOL     OW25190   4.232   0.949  10.202
 4521SOL    HW125191   4.262   0.865  10.166
 4521SOL    HW225192   4.304   1.010  10.184
 4522SOL     OW25193   2.386   3.307   9.151
 4522SOL    HW125194   2.334   3.368   9.099
 4522SOL    HW225195   2.323   3.244   9.185
 4523SOL     OW25196   2.681   4.289   1.965
 4523SOL    HW125197   2.595   4.265   1.932
 4523SOL    HW225198   2.725   4.330   1.891
 4524SOL     OW25199   0.330   2.877   2.936
 4524SOL    HW125200   0.295   2.843   2.854
 4524SOL    HW225201   0.286   2.825   3.004
 4525SOL     OW25202   1.763   1.749  20.541
 4525SOL    HW125203   1.834   1.813  20.543
 4525SOL    HW225204   1.692   1.793  20.494
 4526SOL     OW25205   3.371   0.118  22.776
 4526SOL    HW125206   3.420   0.063  22.714
 4526SOL    HW225207   3.421   0.112  22.857
 4527SOL     OW25208   1.482   2.099  22.000
 4527SOL    HW125209   1.412   2.128  21.941
 4527SOL    HW225210   1.442   2.030  22.053
 4528SOL     OW25211   3.313   2.193  11.050
 4528SOL    HW125212   3.289   2.104  11.077
 4528SOL    HW225213   3.230   2.240  11.045
 4529SOL     OW25214   3.572   1.672  11.545
 4529SOL    HW125215   3.628   1.737  11.501
 4529SOL    HW225216   3.483   1.707  11.537
 4530SOL     OW25217   0.391   2.819   4.718
 4530SOL    HW125218   0.383   2.786   4.807
 4530SOL    HW225219   0.358   2.748   4.663
 4531SOL     OW25220   2.377   0.695   5.467
 4531SOL    HW125221   2.296   0.698   5.416
 4531SOL    HW225222   2.350   0.661   5.552
 4532SOL     OW25223   3.860   0.611   9.008
 4532SOL    HW125224   3.935   0.636   8.954
 4532SOL    HW225225   3.809   0.692   9.017
 4533SOL     OW25226   2.358   3.354  24.984
 4533SOL    HW125227   2.364   3.276  25.039
 4533SOL    HW225228   2.380   3.324  24.896
 4534SOL     OW25229   2.082   1.057   6.783
 4534SOL    HW125230   2.057   1.065   6.691
 4534SOL    HW225231   2.169   1.017   6.780
 4535SOL     OW25232   2.866   4.552   5.976
 4535SOL    HW125233   2.841   4.553   6.069
 4535SOL    HW225234   2.788   4.520   5.931
 4536SOL     OW25235   0.933   1.469  24.354
 4536SOL    HW125236   0.846   1.480  24.316
 4536SOL    HW225237   0.937   1.534  24.424
 4537SOL     OW25238   1.613   4.685   1.133
 4537SOL    HW125239   1.703   4.685   1.100
 4537SOL    HW225240   1.579   4.599   1.109
 4538SOL     OW25241   2.079   3.691   3.842
 4538SOL    HW125242   2.136   3.741   3.784
 4538SOL    HW225243   2.138   3.631   3.888
 4539SOL     OW25244   3.093   4.486   9.949
 4539SOL    HW125245   3.140   4.529   9.877
 4539SOL    HW225246   3.012   4.537   9.958
 4540SOL     OW25247   3.432   2.299   6.213
 4540SOL    HW125248   3.474   2.217   6.188
 4540SOL    HW225249   3.383   2.278   6.292
 4541SOL     OW25250   4.510   3.926   4.558
 4541SOL    HW125251   4.542   3.838   4.579
 4541SOL    HW225252   4.438   3.940   4.619
 4542SOL     OW25253   3.235   3.572  21.254
 4542SOL    HW125254   3.217   3.532  21.339
 4542SOL    HW225255   3.330   3.569  21.245
 4543SOL     OW25256   0.636   3.156  25.490
 4543SOL    HW125257   0.725   3.122  25.487
 4543SOL    HW225258   0.580   3.079  25.478
 4544SOL     OW25259   2.266   1.255   8.257
 4544SOL    HW125260   2.306   1.319   8.198
 4544SOL    HW225261   2.207   1.205   8.201
 4545SOL     OW25262   3.271   0.668   2.278
 4545SOL    HW125263   3.276   0.726   2.202
 4545SOL    HW225264   3.326   0.710   2.344
 4546SOL     OW25265   3.611   2.659   8.987
 4546SOL    HW125266   3.679   2.685   8.925
 4546SOL    HW225267   3.580   2.574   8.955
 4547SOL     OW25268   4.241   2.509  21.493
 4547SOL    HW125269   4.244   2.420  21.459
 4547SOL    HW225270   4.176   2.506  21.563
 4548SOL     OW25271   2.766   0.671  26.733
 4548SOL    HW125272   2.730   0.607  26.671
 4548SOL    HW225273   2.823   0.620  26.790
 4549SOL     OW25274   1.690   4.264  26.588
 4549SOL    HW125275   1.677   4.356  26.611
 4549SOL    HW225276   1.714   4.222  26.670
 4550SOL     OW25277   4.759   3.792   8.716
 4550SOL    HW125278   4.684   3.789   8.656
 4550SOL    HW225279   0.042   3.733   8.677
 4551SOL     OW25280   1.160   3.479   4.966
 4551SOL    HW125281   1.189   3.551   4.910
 4551SOL    HW225282   1.167   3.514   5.055
 4552SOL     OW25283   3.270   1.214  20.955
 4552SOL    HW125284   3.175   1.201  20.957
 4552SOL    HW225285   3.282   1.307  20.936
 4553SOL     OW25286   3.767   0.483  10.916
 4553SOL    HW125287   3.813   0.567  10.916
 4553SOL    HW225288   3.720   0.481  10.999
 4554SOL     OW25289   2.259   1.836   3.469
 4554SOL    HW125290   2.316   1.902   3.509
 4554SOL    HW225291   2.187   1.886   3.432
 4555SOL     OW25292   1.246   4.334  23.948
 4555SOL    HW125293   1.176   4.351  23.885
 4555SOL    HW225294   1.202   4.337  24.033
 4556SOL     OW25295   0.289   0.183   5.624
 4556SOL    HW125296   0.268   0.207   5.714
 4556SOL    HW225297   0.260   0.092   5.616
 4557SOL     OW25298   3.101   3.745   9.220
 4557SOL    HW125299   3.126   3.742   9.128
 4557SOL    HW225300   3.143   3.824   9.253
 4558SOL     OW25301   2.240   1.945  18.654
 4558SOL    HW125302   2.162   1.922  18.705
 4558SOL    HW225303   2.228   1.902  18.570
 4559SOL     OW25304   2.164   0.783   1.483
 4559SOL    HW125305   2.098   0.720   1.513
 4559SOL    HW225306   2.209   0.810   1.563
 4560SOL     OW25307   0.721   2.058  25.093
 4560SOL    HW125308   0.734   2.019  25.179
 4560SOL    HW225309   0.665   1.996  25.047
 4561SOL     OW25310   4.270   2.182  22.117
 4561SOL    HW125311   4.355   2.206  22.080
 4561SOL    HW225312   4.239   2.110  22.063
 4562SOL     OW25313   1.052   3.968  11.493
 4562SOL    HW125314   1.121   3.999  11.434
 4562SOL    HW225315   1.002   4.046  11.516
 4563SOL     OW25316   3.832   2.593  21.697
 4563SOL    HW125317   3.794   2.591  21.785
 4563SOL    HW225318   3.855   2.502  21.679
 4564SOL     OW25319   0.102   1.753   0.226
 4564SOL    HW125320   0.176   1.789   0.177
 4564SOL    HW225321   0.139   1.679   0.274
 4565SOL     OW25322   3.972   2.742  11.464
 4565SOL    HW125323   4.032   2.673  11.491
 4565SOL    HW225324   3.889   2.720  11.506
 4566SOL     OW25325   2.415   2.570  12.240
 4566SOL    HW125326   2.426   2.574  12.335
 4566SOL    HW225327   2.351   2.500  12.226
 4567SOL     OW25328   2.909   4.265  19.836
 4567SOL    HW125329   2.880   4.347  19.796
 4567SOL    HW225330   2.977   4.233  19.777
 4568SOL     OW25331   0.768   4.021  23.749
 4568SOL    HW125332   0.689   3.974  23.777
 4568SOL    HW225333   0.788   3.985  23.662
 4569SOL     OW25334   0.936   3.155   0.316
 4569SOL    HW125335   0.867   3.091   0.298
 4569SOL    HW225336   0.931   3.169   0.411
 4570SOL     OW25337   3.447   4.630   0.123
 4570SOL    HW125338   3.529   4.665   0.159
 4570SOL    HW225339   3.414   4.571   0.191
 4571SOL     OW25340   2.520   1.329  24.185
 4571SOL    HW125341   2.500   1.419  24.210
 4571SOL    HW225342   2.440   1.298  24.142
 4572SOL     OW25343   1.894   4.492  28.184
 4572SOL    HW125344   1.913   4.586  28.186
 4572SOL    HW225345   1.857   4.473  28.270
 4573SOL     OW25346   2.320   3.875   6.108
 4573SOL    HW125347   2.281   3.819   6.175
 4573SOL    HW225348   2.400   3.830   6.083
 4574SOL     OW25349   1.403   4.182   3.321
 4574SOL    HW125350   1.437   4.271   3.326
 4574SOL    HW225351   1.320   4.186   3.368
 4575SOL     OW25352   0.389   3.847  26.939
 4575SOL    HW125353   0.363   3.792  26.865
 4575SOL    HW225354   0.341   3.812  27.014
 4576SOL     OW25355   4.012   4.393  20.159
 4576SOL    HW125356   3.950   4.322  20.176
 4576SOL    HW225357   4.037   4.382  20.067
 4577SOL     OW25358   1.742   1.926   8.960
 4577SOL    HW125359   1.768   1.905   9.050
 4577SOL    HW225360   1.779   1.855   8.908
 4578SOL     OW25361   0.230   2.867   7.244
 4578SOL    HW125362   0.188   2.850   7.328
 4578SOL    HW225363   0.268   2.783   7.219
 4579SOL     OW25364   2.472   4.677  19.025
 4579SOL    HW125365   2.520   4.760  19.017
 4579SOL    HW225366   2.508   4.622  18.956
 4580SOL     OW25367   2.695   1.154  10.663
 4580SOL    HW125368   2.700   1.168  10.757
 4580SOL    HW225369   2.607   1.183  10.638
 4581SOL     OW25370   3.352   1.608  10.910
 4581SOL    HW125371   3.402   1.634  10.987
 4581SOL    HW225372   3.386   1.663  10.840
 4582SOL     OW25373   4.068   3.923   5.601
 4582SOL    HW125374   4.023   3.922   5.686
 4582SOL    HW225375   4.002   3.954   5.539
 4583SOL     OW25376   3.141   1.669   5.568
 4583SOL    HW125377   3.134   1.745   5.509
 4583SOL    HW225378   3.052   1.635   5.573
 4584SOL     OW25379   2.566   3.158  11.163
 4584SOL    HW125380   2.646   3.210  11.174
 4584SOL    HW225381   2.558   3.109  11.245
 4585SOL     OW25382   0.301   3.136  25.572
 4585SOL    HW125383   0.343   3.217  25.601
 4585SOL    HW225384   0.360   3.067  25.602
 4586SOL     OW25385   4.242   2.373  18.624
 4586SOL    HW125386   4.324   2.375  18.674
 4586SOL    HW225387   4.264   2.410  18.539
 4587SOL     OW25388   0.716   0.510   1.390
 4587SOL    HW125389   0.728   0.483   1.299
 4587SOL    HW225390   0.647   0.576   1.386
 4588SOL     OW25391   1.797   2.749  12.916
 4588SOL    HW125392   1.731   2.732  12.984
 4588SOL    HW225393   1.809   2.844  12.917
 4589SOL     OW25394   2.571   0.666   9.654
 4589SOL    HW125395   2.603   0.579   9.631
 4589SOL    HW225396   2.531   0.655   9.740
 4590SOL     OW25397   0.301   4.453  28.363
 4590SOL    HW125398   0.213   4.445  28.399
 4590SOL    HW225399   0.296   4.410  28.278
 4591SOL     OW25400   3.288   4.474   8.303
 4591SOL    HW125401   3.310   4.543   8.366
 4591SOL    HW225402   3.373   4.437   8.278
 4592SOL     OW25403   2.865   0.389   7.281
 4592SOL    HW125404   2.913   0.399   7.199
 4592SOL    HW225405   2.869   0.295   7.299
 4593SOL     OW25406   2.221   0.805  12.814
 4593SOL    HW125407   2.203   0.839  12.902
 4593SOL    HW225408   2.248   0.882  12.764
 4594SOL     OW25409   2.050   0.000  11.658
 4594SOL    HW125410   2.053   4.700  11.608
 4594SOL    HW225411   2.054   0.069  11.592
 4595SOL     OW25412   2.193   0.228   7.850
 4595SOL    HW125413   2.197   0.321   7.829
 4595SOL    HW225414   2.099   0.208   7.852
 4596SOL     OW25415   3.800   2.350  13.418
 4596SOL    HW125416   3.802   2.397  13.334
 4596SOL    HW225417   3.732   2.283  13.406
 4597SOL     OW25418   2.103   0.303  12.823
 4597SOL    HW125419   2.068   0.306  12.912
 4597SOL    HW225420   2.165   0.376  12.819
 4598SOL     OW25421   3.483   2.477  12.131
 4598SOL    HW125422   3.487   2.422  12.053
 4598SOL    HW225423   3.521   2.423  12.200
 4599SOL     OW25424   2.236   1.636  13.266
 4599SOL    HW125425   2.235   1.732  13.267
 4599SOL    HW225426   2.240   1.611  13.358
 4600SOL     OW25427   1.611   2.664  12.317
 4600SOL    HW125428   1.583   2.745  12.358
 4600SOL    HW225429   1.591   2.596  12.381
 4601SOL     OW25430   4.421   0.194  12.771
 4601SOL    HW125431   4.411   0.163  12.681
 4601SOL    HW225432   4.332   0.211  12.800
 4602SOL     OW25433   2.648   0.841  13.331
 4602SOL    HW125434   2.742   0.843  13.312
 4602SOL    HW225435   2.622   0.933  13.333
 4603SOL     OW25436   3.388   3.513  12.862
 4603SOL    HW125437   3.376   3.607  12.851
 4603SOL    HW225438   3.472   3.504  12.908
 4604SOL     OW25439   2.482   4.338  12.671
 4604SOL    HW125440   2.422   4.263  12.671
 4604SOL    HW225441   2.565   4.303  12.703
 4605SOL     OW25442   2.623   1.773  11.889
 4605SOL    HW125443   2.587   1.705  11.832
 4605SOL    HW225444   2.562   1.776  11.963
 4606SOL     OW25445   1.935   0.802  11.381
 4606SOL    HW125446   1.963   0.856  11.455
 4606SOL    HW225447   1.975   0.842  11.304
 4607SOL     OW25448   2.084   1.731  11.987
 4607SOL    HW125449   2.151   1.666  12.007
 4607SOL    HW225450   2.010   1.707  12.043
 4608SOL     OW25451   3.021   1.664  12.645
 4608SOL    HW125452   3.050   1.620  12.725
 4608SOL    HW225453   3.089   1.729  12.628
 4609SOL     OW25454   3.335   3.090  12.532
 4609SOL    HW125455   3.364   3.004  12.564
 4609SOL    HW225456   3.405   3.150  12.558
 4610SOL     OW25457   2.165   0.023  13.414
 4610SOL    HW125458   2.208   0.090  13.467
 4610SOL    HW225459   2.234   4.770  13.358
 4611SOL     OW25460   4.436   0.760  11.923
 4611SOL    HW125461   4.485   0.749  11.841
 4611SOL    HW225462   4.350   0.722  11.904
 4612SOL     OW25463   2.390   1.279  12.856
 4612SOL    HW125464   2.432   1.352  12.902
 4612SOL    HW225465   2.351   1.227  12.926
 4613SOL     OW25466   4.057   4.519  12.200
 4613SOL    HW125467   4.087   4.463  12.272
 4613SOL    HW225468   4.030   4.458  12.132
 4614SOL     OW25469   2.827   1.148  10.414
 4614SOL    HW125470   2.779   1.153  10.497
 4614SOL    HW225471   2.917   1.169  10.438
 4615SOL     OW25472   1.976   0.537  12.369
 4615SOL    HW125473   2.013   0.591  12.439
 4615SOL    HW225474   1.992   0.587  12.289
 4616SOL     OW25475   2.740   0.224  13.977
 4616SOL    HW125476   2.734   0.304  13.924
 4616SOL    HW225477   2.826   0.187  13.956
 4617SOL     OW25478   1.660   0.847  11.417
 4617SOL    HW125479   1.751   0.848  11.387
 4617SOL    HW225480   1.620   0.922  11.372
 4618SOL     OW25481   0.472   1.065  12.173
 4618SOL    HW125482   0.425   1.012  12.238
 4618SOL    HW225483   0.564   1.055  12.197
 4619SOL     OW25484   2.441   4.684  11.939
 4619SOL    HW125485   2.349   4.711  11.946
 4619SOL    HW225486   2.445   4.636  11.856
 4620SOL     OW25487   3.505   2.857  12.664
 4620SOL    HW125488   3.525   2.813  12.582
 4620SOL    HW225489   3.421   2.820  12.691
 4621SOL     OW25490   2.206   1.094  12.748
 4621SOL    HW125491   2.123   1.141  12.740
 4621SOL    HW225492   2.260   1.150  12.804
 4622SOL     OW25493   2.057   1.916  13.478
 4622SOL    HW125494   2.002   1.977  13.527
 4622SOL    HW225495   2.033   1.830  13.513
 4623SOL     OW25496   2.879   2.964  12.596
 4623SOL    HW125497   2.859   2.993  12.685
 4623SOL    HW225498   2.954   3.017  12.570
 4624SOL     OW25499   3.202   1.437  12.621
 4624SOL    HW125500   3.132   1.381  12.655
 4624SOL    HW225501   3.264   1.445  12.694
 4625SOL     OW25502   1.678   2.870  11.599
 4625SOL    HW125503   1.590   2.861  11.635
 4625SOL    HW225504   1.720   2.786  11.618
 4626SOL     OW25505   2.809   0.423  13.761
 4626SOL    HW125506   2.750   0.490  13.727
 4626SOL    HW225507   2.891   0.469  13.778
 4627SOL     OW25508   2.873   1.443  11.928
 4627SOL    HW125509   2.916   1.407  11.851
 4627SOL    HW225510   2.945   1.470  11.985
 4628SOL     OW25511   1.143   1.058  12.368
 4628SOL    HW125512   1.207   0.992  12.393
 4628SOL    HW225513   1.183   1.141  12.394
 4629SOL     OW25514   4.698   0.545  12.818
 4629SOL    HW125515   4.777   0.500  12.847
 4629SOL    HW225516   4.635   0.530  12.888
 4630SOL     OW25517   1.671   4.735  12.203
 4630SOL    HW125518   1.646   4.656  12.250
 4630SOL    HW225519   1.681   0.021  12.271
 4631SOL     OW25520   1.835   1.642  12.917
 4631SOL    HW125521   1.898   1.608  12.853
 4631SOL    HW225522   1.875   1.722  12.950
 4632SOL     OW25523   0.888   1.350  13.301
 4632SOL    HW125524   0.964   1.385  13.347
 4632SOL    HW225525   0.840   1.300  13.368
 4633SOL     OW25526   2.792   1.560  13.087
 4633SOL    HW125527   2.768   1.649  13.113
 4633SOL    HW225528   2.865   1.572  13.027
 4634SOL     OW25529   2.325   1.455  12.612
 4634SOL    HW125530   2.290   1.523  12.670
 4634SOL    HW225531   2.362   1.390  12.671
 4635SOL     OW25532   3.101   4.553  13.641
 4635SOL    HW125533   3.086   4.466  13.604
 4635SOL    HW225534   3.097   4.612  13.566
 4636SOL     OW25535   2.414   2.643  12.535
 4636SOL    HW125536   2.346   2.585  12.570
 4636SOL    HW225537   2.488   2.632  12.594
 4637SOL     OW25538   1.731   1.313  12.507
 4637SOL    HW125539   1.712   1.224  12.537
 4637SOL    HW225540   1.665   1.367  12.550
 4638SOL     OW25541   2.792   2.345  13.503
 4638SOL    HW125542   2.887   2.336  13.512
 4638SOL    HW225543   2.780   2.412  13.436
 4639SOL     OW25544   3.356   1.180  11.315
 4639SOL    HW125545   3.367   1.225  11.231
 4639SOL    HW225546   3.433   1.205  11.366
 4640SOL     OW25547   3.062   3.589  20.591
 4640SOL    HW125548   3.147   3.572  20.632
 4640SOL    HW225549   3.009   3.627  20.661
 4641SOL     OW25550   2.713   4.338  11.537
 4641SOL    HW125551   2.646   4.406  11.528
 4641SOL    HW225552   2.796   4.386  11.534
 4642SOL     OW25553   2.234   0.614  13.639
 4642SOL    HW125554   2.145   0.646  13.650
 4642SOL    HW225555   2.278   0.637  13.721
 4643SOL     OW25556   0.007   2.220   0.247
 4643SOL    HW125557   4.720   2.267   0.198
 4643SOL    HW225558   0.051   2.166   0.181
 4644SOL     OW25559   3.649   2.848  12.896
 4644SOL    HW125560   3.723   2.897  12.860
 4644SOL    HW225561   3.584   2.847  12.825
 4645SOL     OW25562   3.180   0.720  12.387
 4645SOL    HW125563   3.212   0.665  12.316
 4645SOL    HW225564   3.136   0.793  12.343
 4646SOL     OW25565   2.495   1.044  12.601
 4646SOL    HW125566   2.505   0.949  12.611
 4646SOL    HW225567   2.414   1.065  12.648
 4647SOL     OW25568   2.330   1.214  11.599
 4647SOL    HW125569   2.339   1.261  11.682
 4647SOL    HW225570   2.260   1.260  11.553
 4648SOL     OW25571   2.192   4.500  11.813
 4648SOL    HW125572   2.269   4.516  11.758
 4648SOL    HW225573   2.174   4.584  11.854
 4649SOL     OW25574   2.685   2.860   7.961
 4649SOL    HW125575   2.633   2.932   7.996
 4649SOL    HW225576   2.624   2.786   7.957
 4650SOL     OW25577   3.574   2.041  12.715
 4650SOL    HW125578   3.646   2.002  12.765
 4650SOL    HW225579   3.509   2.064  12.781
 4651SOL     OW25580   2.049   1.410  12.557
 4651SOL    HW125581   2.140   1.431  12.534
 4651SOL    HW225582   2.040   1.440  12.648
 4652SOL     OW25583   3.374   1.840  11.707
 4652SOL    HW125584   3.392   1.811  11.797
 4652SOL    HW225585   3.326   1.767  11.668
 4653SOL     OW25586   1.669   0.307  11.024
 4653SOL    HW125587   1.628   0.325  11.108
 4653SOL    HW225588   1.729   0.381  11.010
 4654SOL     OW25589   3.238   2.279   3.629
 4654SOL    HW125590   3.177   2.242   3.566
 4654SOL    HW225591   3.306   2.212   3.639
 4655SOL     OW25592   1.869   3.157   3.184
 4655SOL    HW125593   1.942   3.183   3.240
 4655SOL    HW225594   1.791   3.190   3.229
 4656SOL     OW25595   3.526   2.096  12.449
 4656SOL    HW125596   3.548   2.058  12.534
 4656SOL    HW225597   3.430   2.097  12.447
 4657SOL     OW25598   3.073   4.434  13.227
 4657SOL    HW125599   3.138   4.494  13.264
 4657SOL    HW225600   3.026   4.400  13.303
 4658SOL     OW25601   1.951   0.850  13.219
 4658SOL    HW125602   2.012   0.780  13.244
 4658SOL    HW225603   1.870   0.829  13.266
 4659SOL     OW25604   2.656   1.285  11.948
 4659SOL    HW125605   2.595   1.339  11.998
 4659SOL    HW225606   2.726   1.345  11.923
 4660SOL     OW25607   1.959   0.652  11.715
 4660SOL    HW125608   1.891   0.692  11.661
 4660SOL    HW225609   1.912   0.586  11.767
 4661SOL     OW25610   2.206   1.910  13.231
 4661SOL    HW125611   2.166   1.932  13.315
 4661SOL    HW225612   2.265   1.983  13.213
 4662SOL     OW25613   2.717   1.238  14.680
 4662SOL    HW125614   2.727   1.147  14.652
 4662SOL    HW225615   2.670   1.232  14.763
 4663SOL     OW25616   2.039   1.685  13.603
 4663SOL    HW125617   2.133   1.673  13.589
 4663SOL    HW225618   2.006   1.597  13.619
 4664SOL     OW25619   3.041   1.910  14.236
 4664SOL    HW125620   3.010   1.853  14.306
 4664SOL    HW225621   3.115   1.863  14.198
 4665SOL     OW25622   2.949   0.637  13.486
 4665SOL    HW125623   2.901   0.647  13.568
 4665SOL    HW225624   2.938   0.721  13.441
 4666SOL     OW25625   2.386   1.410  13.237
 4666SOL    HW125626   2.316   1.476  13.238
 4666SOL    HW225627   2.375   1.362  13.319
 4667SOL     OW25628   3.914   2.215  13.167
 4667SOL    HW125629   3.872   2.180  13.246
 4667SOL    HW225630   3.843   2.221  13.103
 4668SOL     OW25631   2.898   0.339  13.526
 4668SOL    HW125632   2.936   0.424  13.505
 4668SOL    HW225633   2.856   0.352  13.611
 4669SOL     OW25634   3.020   1.488  13.928
 4669SOL    HW125635   3.054   1.406  13.893
 4669SOL    HW225636   3.032   1.480  14.023
 4670SOL     OW25637   2.263   1.704  12.721
 4670SOL    HW125638   2.353   1.735  12.708
 4670SOL    HW225639   2.260   1.679  12.813
 4671SOL     OW25640   3.301   4.490  12.945
 4671SOL    HW125641   3.239   4.533  12.885
 4671SOL    HW225642   3.333   4.561  13.001
 4672SOL     OW25643   3.128   2.725  15.048
 4672SOL    HW125644   3.171   2.695  15.128
 4672SOL    HW225645   3.143   2.819  15.046
 4673SOL     OW25646   4.280   0.859  14.427
 4673SOL    HW125647   4.287   0.912  14.506
 4673SOL    HW225648   4.256   0.921  14.358
 4674SOL     OW25649   2.951   0.327  14.247
 4674SOL    HW125650   3.004   0.401  14.278
 4674SOL    HW225651   2.965   0.326  14.152
 4675SOL     OW25652   3.355   1.342  13.858
 4675SOL    HW125653   3.403   1.264  13.886
 4675SOL    HW225654   3.265   1.311  13.845
 4676SOL     OW25655   2.316   2.407  13.658
 4676SOL    HW125656   2.371   2.403  13.580
 4676SOL    HW225657   2.227   2.399  13.624
 4677SOL     OW25658   2.163   0.881  13.053
 4677SOL    HW125659   2.083   0.878  13.105
 4677SOL    HW225660   2.232   0.854  13.114
 4678SOL     OW25661   2.036   0.244  13.111
 4678SOL    HW125662   2.127   0.272  13.117
 4678SOL    HW225663   1.992   0.290  13.182
 4679SOL     OW25664   2.784   1.655  13.884
 4679SOL    HW125665   2.832   1.724  13.837
 4679SOL    HW225666   2.852   1.594  13.912
 4680SOL     OW25667   3.010   1.025  14.432
 4680SOL    HW125668   3.046   1.012  14.344
 4680SOL    HW225669   3.011   1.120  14.444
 4681SOL     OW25670   3.479   0.596  13.365
 4681SOL    HW125671   3.486   0.552  13.450
 4681SOL    HW225672   3.394   0.641  13.369
 4682SOL     OW25673   3.452   1.372  13.085
 4682SOL    HW125674   3.413   1.332  13.163
 4682SOL    HW225675   3.508   1.304  13.048
 4683SOL     OW25676   2.463   0.613  13.836
 4683SOL    HW125677   2.537   0.587  13.782
 4683SOL    HW225678   2.447   0.537  13.892
 4684SOL     OW25679   3.404   0.374  13.110
 4684SOL    HW125680   3.343   0.366  13.184
 4684SOL    HW225681   3.416   0.284  13.079
 4685SOL     OW25682   3.288   1.110  15.213
 4685SOL    HW125683   3.235   1.108  15.133
 4685SOL    HW225684   3.224   1.112  15.284
 4686SOL     OW25685   1.852   0.931  14.637
 4686SOL    HW125686   1.834   0.989  14.711
 4686SOL    HW225687   1.813   0.975  14.562
 4687SOL     OW25688   2.272   1.096  13.990
 4687SOL    HW125689   2.357   1.140  13.987
 4687SOL    HW225690   2.293   1.003  13.978
 4688SOL     OW25691   3.228   0.664  13.410
 4688SOL    HW125692   3.237   0.726  13.483
 4688SOL    HW225693   3.134   0.645  13.407
 4689SOL     OW25694   2.159   2.066  12.502
 4689SOL    HW125695   2.250   2.037  12.499
 4689SOL    HW225696   2.117   2.006  12.564
 4690SOL     OW25697   3.602   1.688  13.312
 4690SOL    HW125698   3.622   1.620  13.377
 4690SOL    HW225699   3.673   1.751  13.321
 4691SOL     OW25700   1.588   0.986  13.491
 4691SOL    HW125701   1.636   1.068  13.502
 4691SOL    HW225702   1.531   0.981  13.568
 4692SOL     OW25703   3.871   1.778  14.569
 4692SOL    HW125704   3.807   1.847  14.583
 4692SOL    HW225705   3.899   1.753  14.657
 4693SOL     OW25706   2.982   2.055  14.005
 4693SOL    HW125707   2.891   2.059  13.976
 4693SOL    HW225708   2.982   1.990  14.076
 4694SOL     OW25709   2.883   1.443  14.610
 4694SOL    HW125710   2.942   1.381  14.568
 4694SOL    HW225711   2.814   1.389  14.648
 4695SOL     OW25712   2.301   0.361  13.121
 4695SOL    HW125713   2.296   0.404  13.206
 4695SOL    HW225714   2.367   0.411  13.072
 4696SOL     OW25715   2.072   1.947  14.900
 4696SOL    HW125716   2.060   2.041  14.884
 4696SOL    HW225717   2.110   1.914  14.819
 4697SOL     OW25718   2.361   2.115  13.180
 4697SOL    HW125719   2.418   2.188  13.202
 4697SOL    HW225720   2.360   2.113  13.084
 4698SOL     OW25721   2.315   1.644  14.553
 4698SOL    HW125722   2.313   1.682  14.465
 4698SOL    HW225723   2.388   1.583  14.551
 4699SOL     OW25724   3.055   0.563  13.825
 4699SOL    HW125725   2.978   0.619  13.832
 4699SOL    HW225726   3.119   0.617  13.779
 4700SOL     OW25727   2.269   2.067  14.564
 4700SOL    HW125728   2.229   1.987  14.599
 4700SOL    HW225729   2.314   2.106  14.639
 4701SOL     OW25730   3.049   0.342  13.966
 4701SOL    HW125731   3.037   0.265  13.910
 4701SOL    HW225732   3.052   0.416  13.905
 4702SOL     OW25733   3.249   1.154  12.942
 4702SOL    HW125734   3.287   1.143  12.855
 4702SOL    HW225735   3.233   1.065  12.972
 4703SOL     OW25736   3.239   0.838  14.680
 4703SOL    HW125737   3.329   0.869  14.686
 4703SOL    HW225738   3.202   0.854  14.767
 4704SOL     OW25739   2.743   0.980  14.569
 4704SOL    HW125740   2.814   0.956  14.510
 4704SOL    HW225741   2.699   0.897  14.589
 4705SOL     OW25742   2.594   1.375  15.961
 4705SOL    HW125743   2.628   1.352  15.875
 4705SOL    HW225744   2.563   1.292  15.997
 4706SOL     OW25745   3.193   4.653  13.378
 4706SOL    HW125746   3.287   4.642  13.391
 4706SOL    HW225747   3.182   4.746  13.359
 4707SOL     OW25748   3.016   0.610  14.751
 4707SOL    HW125749   2.991   0.521  14.776
 4707SOL    HW225750   3.012   0.610  14.655
 4708SOL     OW25751   2.978   2.917  14.803
 4708SOL    HW125752   3.050   2.948  14.747
 4708SOL    HW225753   3.001   2.947  14.891
 4709SOL     OW25754   3.642   2.081  14.335
 4709SOL    HW125755   3.638   2.048  14.245
 4709SOL    HW225756   3.655   2.175  14.326
 4710SOL     OW25757   2.147   1.833  14.653
 4710SOL    HW125758   2.059   1.794  14.656
 4710SOL    HW225759   2.205   1.760  14.632
 4711SOL     OW25760   4.364   0.946   3.584
 4711SOL    HW125761   4.426   0.876   3.603
 4711SOL    HW225762   4.319   0.917   3.505
 4712SOL     OW25763   2.333   1.545  11.989
 4712SOL    HW125764   2.390   1.496  12.048
 4712SOL    HW225765   2.352   1.637  12.008
 4713SOL     OW25766   3.266   1.429  12.882
 4713SOL    HW125767   3.296   1.462  12.967
 4713SOL    HW225768   3.269   1.334  12.891
 4714SOL     OW25769   2.268   2.644  15.411
 4714SOL    HW125770   2.218   2.646  15.330
 4714SOL    HW225771   2.262   2.553  15.441
 4715SOL     OW25772   3.130   0.146  13.374
 4715SOL    HW125773   3.171   0.232  13.379
 4715SOL    HW225774   3.093   0.142  13.286
 4716SOL     OW25775   3.649   1.340  14.897
 4716SOL    HW125776   3.664   1.328  14.803
 4716SOL    HW225777   3.675   1.431  14.913
 4717SOL     OW25778   1.196   0.446  12.356
 4717SOL    HW125779   1.228   0.386  12.423
 4717SOL    HW225780   1.272   0.500  12.334
 4718SOL     OW25781   3.222   1.597  13.755
 4718SOL    HW125782   3.144   1.573  13.806
 4718SOL    HW225783   3.285   1.527  13.773
 4719SOL     OW25784   3.051   0.865  13.796
 4719SOL    HW125785   2.971   0.814  13.784
 4719SOL    HW225786   3.023   0.956  13.787
 4720SOL     OW25787   1.020   1.346  18.295
 4720SOL    HW125788   0.989   1.395  18.219
 4720SOL    HW225789   1.030   1.256  18.263
 4721SOL     OW25790   2.059   0.552  15.632
 4721SOL    HW125791   1.968   0.580  15.628
 4721SOL    HW225792   2.108   0.621  15.586
 4722SOL     OW25793   3.907   2.330  15.176
 4722SOL    HW125794   3.875   2.305  15.089
 4722SOL    HW225795   3.827   2.342  15.228
 4723SOL     OW25796   3.481   0.932  14.778
 4723SOL    HW125797   3.490   0.934  14.873
 4723SOL    HW225798   3.566   0.901  14.746
 4724SOL     OW25799   1.627   2.074  17.724
 4724SOL    HW125800   1.670   2.090  17.640
 4724SOL    HW225801   1.690   2.022  17.774
 4725SOL     OW25802   1.260   2.664  16.993
 4725SOL    HW125803   1.339   2.716  16.976
 4725SOL    HW225804   1.291   2.592  17.048
 4726SOL     OW25805   1.912   2.365  16.259
 4726SOL    HW125806   1.962   2.289  16.290
 4726SOL    HW225807   1.930   2.433  16.324
 4727SOL     OW25808   4.484   1.749  15.425
 4727SOL    HW125809   4.459   1.717  15.338
 4727SOL    HW225810   4.569   1.791  15.411
 4728SOL     OW25811   1.765   2.049  17.485
 4728SOL    HW125812   1.805   2.134  17.466
 4728SOL    HW225813   1.804   1.989  17.421
 4729SOL     OW25814   3.623   2.413  15.754
 4729SOL    HW125815   3.571   2.352  15.807
 4729SOL    HW225816   3.655   2.360  15.681
 4730SOL     OW25817   2.819   2.319  14.133
 4730SOL    HW125818   2.737   2.292  14.174
 4730SOL    HW225819   2.826   2.412  14.154
 4731SOL     OW25820   1.921   2.585  17.152
 4731SOL    HW125821   1.945   2.527  17.079
 4731SOL    HW225822   1.825   2.584  17.152
 4732SOL     OW25823   2.767   3.052  15.343
 4732SOL    HW125824   2.840   3.008  15.387
 4732SOL    HW225825   2.802   3.076  15.257
 4733SOL     OW25826   3.537   1.229  16.038
 4733SOL    HW125827   3.502   1.312  16.006
 4733SOL    HW225828   3.622   1.221  15.995
 4734SOL     OW25829   3.056   2.022  15.375
 4734SOL    HW125830   3.037   1.935  15.340
 4734SOL    HW225831   2.973   2.069  15.369
 4735SOL     OW25832   4.047   2.582  15.099
 4735SOL    HW125833   3.977   2.536  15.146
 4735SOL    HW225834   4.083   2.643  15.163
 4736SOL     OW25835   1.437   2.673  16.568
 4736SOL    HW125836   1.485   2.627  16.637
 4736SOL    HW225837   1.438   2.613  16.494
 4737SOL     OW25838   1.818   1.806  15.770
 4737SOL    HW125839   1.909   1.778  15.764
 4737SOL    HW225840   1.767   1.725  15.769
 4738SOL     OW25841   2.228   1.795  16.569
 4738SOL    HW125842   2.210   1.704  16.545
 4738SOL    HW225843   2.291   1.825  16.504
 4739SOL     OW25844   2.221   1.263  15.657
 4739SOL    HW125845   2.280   1.285  15.585
 4739SOL    HW225846   2.259   1.184  15.696
 4740SOL     OW25847   2.452   0.450  15.437
 4740SOL    HW125848   2.367   0.407  15.432
 4740SOL    HW225849   2.453   0.509  15.361
 4741SOL     OW25850   1.988   1.684  15.350
 4741SOL    HW125851   2.014   1.756  15.292
 4741SOL    HW225852   2.066   1.665  15.401
 4742SOL     OW25853   3.164   0.965  16.217
 4742SOL    HW125854   3.248   0.969  16.263
 4742SOL    HW225855   3.172   1.028  16.146
 4743SOL     OW25856   3.877   1.048  14.926
 4743SOL    HW125857   3.842   1.030  14.839
 4743SOL    HW225858   3.963   1.007  14.927
 4744SOL     OW25859   3.543   2.245  14.987
 4744SOL    HW125860   3.518   2.205  14.904
 4744SOL    HW225861   3.513   2.336  14.980
 4745SOL     OW25862   1.299   0.759  16.724
 4745SOL    HW125863   1.372   0.820  16.733
 4745SOL    HW225864   1.312   0.695  16.794
 4746SOL     OW25865   3.413   1.896  15.850
 4746SOL    HW125866   3.378   1.808  15.859
 4746SOL    HW225867   3.377   1.928  15.767
 4747SOL     OW25868   3.671   0.509  16.041
 4747SOL    HW125869   3.720   0.435  16.076
 4747SOL    HW225870   3.666   0.493  15.947
 4748SOL     OW25871   2.821   0.634  14.444
 4748SOL    HW125872   2.836   0.648  14.351
 4748SOL    HW225873   2.904   0.656  14.485
 4749SOL     OW25874   2.843   1.721  15.873
 4749SOL    HW125875   2.902   1.796  15.875
 4749SOL    HW225876   2.880   1.662  15.807
 4750SOL     OW25877   4.088   0.044  17.240
 4750SOL    HW125878   4.101   4.778  17.158
 4750SOL    HW225879   4.090   4.756  17.307
 4751SOL     OW25880   2.083   0.711  15.258
 4751SOL    HW125881   2.045   0.624  15.273
 4751SOL    HW225882   2.126   0.704  15.173
 4752SOL     OW25883   1.960   1.272  25.652
 4752SOL    HW125884   1.872   1.234  25.652
 4752SOL    HW225885   1.952   1.351  25.706
 4753SOL     OW25886   2.664   0.993  15.888
 4753SOL    HW125887   2.676   0.935  15.813
 4753SOL    HW225888   2.726   0.961  15.953
 4754SOL     OW25889   3.883   1.385  16.017
 4754SOL    HW125890   3.900   1.416  16.106
 4754SOL    HW225891   3.847   1.461  15.971
 4755SOL     OW25892   2.440   1.117  16.031
 4755SOL    HW125893   2.519   1.065  16.016
 4755SOL    HW225894   2.390   1.109  15.950
 4756SOL     OW25895   2.887   4.672  16.350
 4756SOL    HW125896   2.939   4.609  16.300
 4756SOL    HW225897   2.898   4.645  16.441
 4757SOL     OW25898   2.080   1.431  15.848
 4757SOL    HW125899   2.116   1.427  15.937
 4757SOL    HW225900   2.133   1.369  15.798
 4758SOL     OW25901   1.522   2.516  16.802
 4758SOL    HW125902   1.457   2.450  16.779
 4758SOL    HW225903   1.595   2.467  16.840
 4759SOL     OW25904   1.855   1.707  17.614
 4759SOL    HW125905   1.792   1.714  17.543
 4759SOL    HW225906   1.842   1.786  17.667
 4760SOL     OW25907   3.787   0.870  15.147
 4760SOL    HW125908   3.729   0.897  15.076
 4760SOL    HW225909   3.855   0.937  15.150
 4761SOL     OW25910   2.695   0.764  15.717
 4761SOL    HW125911   2.753   0.748  15.791
 4761SOL    HW225912   2.657   0.678  15.697
 4762SOL     OW25913   2.164   1.544  16.512
 4762SOL    HW125914   2.188   1.454  16.491
 4762SOL    HW225915   2.112   1.573  16.437
 4763SOL     OW25916   1.337   2.038  17.769
 4763SOL    HW125917   1.422   2.055  17.728
 4763SOL    HW225918   1.353   1.966  17.830
 4764SOL     OW25919   1.606   4.478  16.684
 4764SOL    HW125920   1.660   4.450  16.610
 4764SOL    HW225921   1.546   4.405  16.699
 4765SOL     OW25922   2.497   0.941  15.602
 4765SOL    HW125923   2.461   0.906  15.521
 4765SOL    HW225924   2.591   0.923  15.597
 4766SOL     OW25925   1.563   3.467  16.356
 4766SOL    HW125926   1.522   3.401  16.412
 4766SOL    HW225927   1.500   3.482  16.285
 4767SOL     OW25928   3.101   0.826  15.745
 4767SOL    HW125929   3.150   0.762  15.694
 4767SOL    HW225930   3.142   0.824  15.831
 4768SOL     OW25931   2.070   2.238  14.988
 4768SOL    HW125932   2.160   2.227  15.018
 4768SOL    HW225933   2.077   2.244  14.893
 4769SOL     OW25934   3.493   1.112  14.567
 4769SOL    HW125935   3.576   1.154  14.588
 4769SOL    HW225936   3.472   1.060  14.645
 4770SOL     OW25937   2.049   1.659  15.742
 4770SOL    HW125938   2.046   1.576  15.790
 4770SOL    HW225939   2.084   1.636  15.656
 4771SOL     OW25940   1.505   2.513  16.348
 4771SOL    HW125941   1.562   2.575  16.301
 4771SOL    HW225942   1.478   2.450  16.281
 4772SOL     OW25943   3.720   1.179  15.095
 4772SOL    HW125944   3.793   1.145  15.043
 4772SOL    HW225945   3.675   1.240  15.036
 4773SOL     OW25946   2.967   1.623  14.801
 4773SOL    HW125947   2.913   1.562  14.751
 4773SOL    HW225948   3.028   1.659  14.737
 4774SOL     OW25949   1.123   2.550  15.437
 4774SOL    HW125950   1.212   2.579  15.415
 4774SOL    HW225951   1.123   2.546  15.533
 4775SOL     OW25952   3.590   2.142  17.388
 4775SOL    HW125953   3.534   2.144  17.310
 4775SOL    HW225954   3.608   2.049  17.402
 4776SOL     OW25955   1.071   2.292  16.765
 4776SOL    HW125956   1.164   2.295  16.785
 4776SOL    HW225957   1.029   2.339  16.837
 4777SOL     OW25958   3.336   1.641  15.783
 4777SOL    HW125959   3.408   1.624  15.722
 4777SOL    HW225960   3.260   1.658  15.727
 4778SOL     OW25961   3.054   0.450  15.053
 4778SOL    HW125962   3.096   0.404  14.981
 4778SOL    HW225963   3.124   0.500  15.094
 4779SOL     OW25964   3.876   0.677  16.093
 4779SOL    HW125965   3.784   0.653  16.105
 4779SOL    HW225966   3.884   0.697  16.000
 4780SOL     OW25967   4.302   1.642  17.986
 4780SOL    HW125968   4.241   1.652  17.913
 4780SOL    HW225969   4.315   1.547  17.994
 4781SOL     OW25970   3.244   0.786  15.992
 4781SOL    HW125971   3.213   0.852  16.054
 4781SOL    HW225972   3.321   0.748  16.034
 4782SOL     OW25973   1.640   2.364  16.563
 4782SOL    HW125974   1.560   2.368  16.616
 4782SOL    HW225975   1.615   2.403  16.479
 4783SOL     OW25976   3.573   1.162  15.361
 4783SOL    HW125977   3.576   1.070  15.389
 4783SOL    HW225978   3.485   1.172  15.324
 4784SOL     OW25979   2.329   0.325  15.086
 4784SOL    HW125980   2.270   0.273  15.141
 4784SOL    HW225981   2.320   0.287  14.999
 4785SOL     OW25982   1.459   0.972  16.816
 4785SOL    HW125983   1.503   1.020  16.746
 4785SOL    HW225984   1.512   0.990  16.894
 4786SOL     OW25985   1.865   1.677  17.100
 4786SOL    HW125986   1.909   1.668  17.016
 4786SOL    HW225987   1.893   1.600  17.150
 4787SOL     OW25988   1.012   1.224  16.472
 4787SOL    HW125989   0.977   1.168  16.403
 4787SOL    HW225990   0.952   1.299  16.476
 4788SOL     OW25991   0.327   1.336  20.528
 4788SOL    HW125992   0.392   1.363  20.593
 4788SOL    HW225993   0.282   1.417  20.504
 4789SOL     OW25994   3.159   4.216   9.584
 4789SOL    HW125995   3.242   4.255   9.557
 4789SOL    HW225996   3.098   4.239   9.514
 4790SOL     OW25997   1.377   3.511   8.007
 4790SOL    HW125998   1.461   3.467   8.017
 4790SOL    HW225999   1.393   3.600   8.039
 4791SOL     OW26000   4.616   3.690   2.475
 4791SOL    HW126001   4.596   3.599   2.496
 4791SOL    HW226002   4.615   3.735   2.559
 4792SOL     OW26003   2.250   0.118  20.538
 4792SOL    HW126004   2.215   0.031  20.518
 4792SOL    HW226005   2.173   0.170  20.559
 4793SOL     OW26006   1.751   2.941  18.179
 4793SOL    HW126007   1.680   2.932  18.115
 4793SOL    HW226008   1.821   2.985  18.131
 4794SOL     OW26009   2.730   1.564  16.095
 4794SOL    HW126010   2.661   1.514  16.052
 4794SOL    HW226011   2.782   1.600  16.023
 4795SOL     OW26012   4.109   4.259   4.621
 4795SOL    HW126013   4.072   4.172   4.637
 4795SOL    HW226014   4.034   4.318   4.629
 4796SOL     OW26015   2.581   1.900  17.383
 4796SOL    HW126016   2.626   1.976  17.418
 4796SOL    HW226017   2.549   1.853  17.460
 4797SOL     OW26018   0.607   0.928  20.734
 4797SOL    HW126019   0.578   0.850  20.687
 4797SOL    HW226020   0.591   1.000  20.673
 4798SOL     OW26021   2.397   0.406  16.930
 4798SOL    HW126022   2.416   0.469  17.000
 4798SOL    HW226023   2.377   0.460  16.854
 4799SOL     OW26024   2.953   0.227   2.449
 4799SOL    HW126025   2.927   0.272   2.368
 4799SOL    HW226026   2.976   0.138   2.421
 4800SOL     OW26027   0.564   3.302  20.265
 4800SOL    HW126028   0.645   3.315  20.215
 4800SOL    HW226029   0.500   3.358  20.221
 4801SOL     OW26030   3.333   3.798  17.182
 4801SOL    HW126031   3.291   3.861  17.124
 4801SOL    HW226032   3.290   3.812  17.267
 4802SOL     OW26033   3.277   2.407   3.851
 4802SOL    HW126034   3.265   2.349   3.776
 4802SOL    HW226035   3.254   2.494   3.818
 4803SOL     OW26036   3.757   0.184  21.770
 4803SOL    HW126037   3.718   0.262  21.731
 4803SOL    HW226038   3.791   0.134  21.696
 4804SOL     OW26039   2.013   1.731  16.867
 4804SOL    HW126040   2.024   1.641  16.836
 4804SOL    HW226041   1.980   1.779  16.791
 4805SOL     OW26042   4.237   3.895  24.819
 4805SOL    HW126043   4.210   3.927  24.905
 4805SOL    HW226044   4.204   3.805  24.815
 4806SOL     OW26045   1.416   3.189   3.783
 4806SOL    HW126046   1.334   3.233   3.803
 4806SOL    HW226047   1.474   3.259   3.754
 4807SOL     OW26048   4.726   1.796  28.444
 4807SOL    HW126049   4.700   1.826   0.009
 4807SOL    HW226050   4.708   1.702  28.445
 4808SOL     OW26051   2.221   1.717  25.183
 4808SOL    HW126052   2.144   1.664  25.164
 4808SOL    HW226053   2.250   1.687  25.269
 4809SOL     OW26054   4.387   1.077  28.283
 4809SOL    HW126055   4.345   1.153  28.323
 4809SOL    HW226056   4.397   1.100  28.191
 4810SOL     OW26057   4.519   0.266  22.261
 4810SOL    HW126058   4.466   0.219  22.197
 4810SOL    HW226059   4.473   0.254  22.344
 4811SOL     OW26060   0.098   2.946   4.837
 4811SOL    HW126061   0.100   2.851   4.845
 4811SOL    HW226062   0.143   2.963   4.754
 4812SOL     OW26063   0.644   0.898  16.897
 4812SOL    HW126064   0.608   0.980  16.863
 4812SOL    HW226065   0.698   0.864  16.826
 4813SOL     OW26066   0.279   3.137   6.667
 4813SOL    HW126067   0.265   3.178   6.752
 4813SOL    HW226068   0.201   3.160   6.616
 4814SOL     OW26069   2.847   2.202  17.703
 4814SOL    HW126070   2.812   2.245  17.781
 4814SOL    HW226071   2.770   2.178  17.652
 4815SOL     OW26072   3.601   2.976  27.774
 4815SOL    HW126073   3.542   3.050  27.764
 4815SOL    HW226074   3.545   2.899  27.762
 4816SOL     OW26075   2.599   1.800  16.182
 4816SOL    HW126076   2.664   1.737  16.150
 4816SOL    HW226077   2.556   1.832  16.103
 4817SOL     OW26078   2.507   0.814  17.950
 4817SOL    HW126079   2.589   0.807  18.000
 4817SOL    HW226080   2.454   0.877  17.999
 4818SOL     OW26081   0.763   3.181   1.025
 4818SOL    HW126082   0.738   3.185   0.933
 4818SOL    HW226083   0.809   3.263   1.041
 4819SOL     OW26084   1.508   4.447   3.640
 4819SOL    HW126085   1.486   4.540   3.645
 4819SOL    HW226086   1.424   4.404   3.622
 4820SOL     OW26087   1.878   3.539  19.249
 4820SOL    HW126088   1.827   3.470  19.291
 4820SOL    HW226089   1.836   3.551  19.164
 4821SOL     OW26090   4.716   2.710   4.906
 4821SOL    HW126091   4.726   2.719   4.811
 4821SOL    HW226092   4.741   2.619   4.925
 4822SOL     OW26093   3.103   4.363  16.554
 4822SOL    HW126094   3.061   4.359  16.468
 4822SOL    HW226095   3.196   4.353  16.535
 4823SOL     OW26096   4.602   2.462  28.099
 4823SOL    HW126097   4.517   2.505  28.111
 4823SOL    HW226098   4.582   2.368  28.103
 4824SOL     OW26099   0.281   1.734  21.914
 4824SOL    HW126100   0.376   1.734  21.899
 4824SOL    HW226101   0.270   1.687  21.997
 4825SOL     OW26102   0.793   4.038   1.659
 4825SOL    HW126103   0.778   4.120   1.706
 4825SOL    HW226104   0.817   3.975   1.727
 4826SOL     OW26105   0.770   2.490  17.832
 4826SOL    HW126106   0.724   2.570  17.856
 4826SOL    HW226107   0.715   2.450  17.765
 4827SOL     OW26108   3.034   4.529  26.627
 4827SOL    HW126109   3.049   4.462  26.694
 4827SOL    HW226110   2.946   4.511  26.595
 4828SOL     OW26111   2.901   0.640   7.214
 4828SOL    HW126112   2.924   0.700   7.285
 4828SOL    HW226113   2.897   0.554   7.256
 4829SOL     OW26114   1.301   3.757  16.708
 4829SOL    HW126115   1.215   3.798  16.702
 4829SOL    HW226116   1.351   3.797  16.637
 4830SOL     OW26117   2.210   1.223  16.989
 4830SOL    HW126118   2.298   1.254  16.970
 4830SOL    HW226119   2.210   1.132  16.960
 4831SOL     OW26120   1.703   3.803  27.032
 4831SOL    HW126121   1.783   3.822  26.982
 4831SOL    HW226122   1.685   3.884  27.080
 4832SOL     OW26123   1.365   2.276   5.844
 4832SOL    HW126124   1.457   2.254   5.862
 4832SOL    HW226125   1.365   2.370   5.828
 4833SOL     OW26126   1.421   1.083  18.864
 4833SOL    HW126127   1.330   1.074  18.892
 4833SOL    HW226128   1.438   1.005  18.811
 4834SOL     OW26129   1.074   0.926  24.474
 4834SOL    HW126130   1.033   1.012  24.483
 4834SOL    HW226131   1.140   0.924  24.543
 4835SOL     OW26132   2.246   1.282  16.493
 4835SOL    HW126133   2.219   1.193  16.517
 4835SOL    HW226134   2.334   1.272  16.457
 4836SOL     OW26135   2.445   2.063  17.776
 4836SOL    HW126136   2.466   2.001  17.846
 4836SOL    HW226137   2.483   2.024  17.697
 4837SOL     OW26138   0.987   4.723  16.760
 4837SOL    HW126139   1.011   4.632  16.741
 4837SOL    HW226140   1.036   4.774  16.696
 4838SOL     OW26141   0.648   2.336  15.411
 4838SOL    HW126142   0.695   2.401  15.463
 4838SOL    HW226143   0.569   2.381  15.382
 4839SOL     OW26144   4.331   0.724  27.036
 4839SOL    HW126145   4.337   0.754  27.127
 4839SOL    HW226146   4.252   0.670  27.034
 4840SOL     OW26147   0.894   0.194  21.359
 4840SOL    HW126148   0.901   0.206  21.454
 4840SOL    HW226149   0.836   0.264  21.330
 4841SOL     OW26150   2.017   0.843  22.460
 4841SOL    HW126151   1.964   0.921  22.478
 4841SOL    HW226152   1.965   0.771  22.495
 4842SOL     OW26153   2.562   4.567  11.069
 4842SOL    HW126154   2.508   4.494  11.099
 4842SOL    HW226155   2.511   4.645  11.091
 4843SOL     OW26156   0.922   2.894  17.684
 4843SOL    HW126157   0.921   2.899  17.588
 4843SOL    HW226158   0.835   2.863  17.707
 4844SOL     OW26159   0.645   0.840  22.971
 4844SOL    HW126160   0.602   0.921  22.944
 4844SOL    HW226161   0.704   0.866  23.042
 4845SOL     OW26162   1.964   3.888   8.019
 4845SOL    HW126163   1.953   3.977   7.987
 4845SOL    HW226164   2.006   3.898   8.105
 4846SOL     OW26165   2.507   0.880  17.189
 4846SOL    HW126166   2.561   0.889  17.267
 4846SOL    HW226167   2.422   0.915  17.215
 4847SOL     OW26168   2.899   4.259  16.337
 4847SOL    HW126169   2.852   4.340  16.315
 4847SOL    HW226170   2.979   4.263  16.285
 4848SOL     OW26171   1.101   1.987   0.862
 4848SOL    HW126172   1.024   1.940   0.894
 4848SOL    HW226173   1.069   2.039   0.788
 4849SOL     OW26174   4.007   3.670   5.890
 4849SOL    HW126175   3.936   3.652   5.829
 4849SOL    HW226176   4.076   3.708   5.836
 4850SOL     OW26177   1.498   4.533  17.496
 4850SOL    HW126178   1.539   4.465  17.443
 4850SOL    HW226179   1.508   4.613  17.444
 4851SOL     OW26180   2.301   3.914   2.939
 4851SOL    HW126181   2.313   3.929   3.033
 4851SOL    HW226182   2.246   3.986   2.910
 4852SOL     OW26183   2.917   1.232   7.641
 4852SOL    HW126184   2.835   1.252   7.686
 4852SOL    HW226185   2.891   1.220   7.549
 4853SOL     OW26186   3.135   1.326  19.137
 4853SOL    HW126187   3.210   1.301  19.082
 4853SOL    HW226188   3.156   1.291  19.223
 4854SOL     OW26189   2.850   0.276  21.484
 4854SOL    HW126190   2.940   0.278  21.518
 4854SOL    HW226191   2.843   0.356  21.431
 4855SOL     OW26192   2.823   1.062  17.936
 4855SOL    HW126193   2.900   1.049  17.991
 4855SOL    HW226194   2.780   1.139  17.973
 4856SOL     OW26195   2.540   2.124  15.943
 4856SOL    HW126196   2.557   2.033  15.920
 4856SOL    HW226197   2.623   2.155  15.979
 4857SOL     OW26198   1.242   1.986  16.311
 4857SOL    HW126199   1.155   2.005  16.347
 4857SOL    HW226200   1.232   1.995  16.216
 4858SOL     OW26201   2.160   4.019  17.684
 4858SOL    HW126202   2.180   4.001  17.592
 4858SOL    HW226203   2.120   3.938  17.716
 4859SOL     OW26204   0.160   2.068  21.373
 4859SOL    HW126205   0.073   2.028  21.372
 4859SOL    HW226206   0.218   1.998  21.402
 4860SOL     OW26207   0.151   0.130  26.229
 4860SOL    HW126208   0.213   0.125  26.301
 4860SOL    HW226209   0.124   0.222  26.226
 4861SOL     OW26210   2.419   0.814  15.370
 4861SOL    HW126211   2.404   0.731  15.324
 4861SOL    HW226212   2.495   0.852  15.326
 4862SOL     OW26213   4.357   2.095  14.663
 4862SOL    HW126214   4.450   2.112  14.678
 4862SOL    HW226215   4.353   2.003  14.635
 4863SOL     OW26216   3.610   0.281  16.998
 4863SOL    HW126217   3.638   0.282  17.089
 4863SOL    HW226218   3.669   0.342  16.954
 4864SOL     OW26219   3.704   4.751  24.964
 4864SOL    HW126220   3.655   0.045  24.998
 4864SOL    HW226221   3.696   4.759  24.869
 4865SOL     OW26222   4.735   2.788   6.106
 4865SOL    HW126223   4.745   2.694   6.090
 4865SOL    HW226224   0.028   2.810   6.163
 4866SOL     OW26225   2.915   1.619  21.427
 4866SOL    HW126226   2.848   1.627  21.495
 4866SOL    HW226227   2.992   1.587  21.473
 4867SOL     OW26228   1.912   0.441   2.960
 4867SOL    HW126229   1.940   0.395   2.881
 4867SOL    HW226230   1.876   0.524   2.928
 4868SOL     OW26231   1.254   3.787  25.375
 4868SOL    HW126232   1.172   3.741  25.355
 4868SOL    HW226233   1.281   3.751  25.460
 4869SOL     OW26234   0.920   3.868  21.318
 4869SOL    HW126235   0.891   3.851  21.229
 4869SOL    HW226236   1.011   3.896  21.308
 4870SOL     OW26237   3.208   0.311  17.666
 4870SOL    HW126238   3.180   0.232  17.712
 4870SOL    HW226239   3.207   0.287  17.573
 4871SOL     OW26240   3.280   0.486  18.121
 4871SOL    HW126241   3.249   0.526  18.040
 4871SOL    HW226242   3.233   0.403  18.127
 4872SOL     OW26243   0.453   0.439  17.264
 4872SOL    HW126244   0.367   0.480  17.271
 4872SOL    HW226245   0.439   0.361  17.211
 4873SOL     OW26246   3.353   3.564  16.117
 4873SOL    HW126247   3.416   3.547  16.187
 4873SOL    HW226248   3.268   3.563  16.161
 4874SOL     OW26249   4.373   2.727   1.115
 4874SOL    HW126250   4.343   2.637   1.128
 4874SOL    HW226251   4.467   2.719   1.100
 4875SOL     OW26252   1.059   0.316   8.824
 4875SOL    HW126253   1.105   0.263   8.759
 4875SOL    HW226254   0.997   0.255   8.864
 4876SOL     OW26255   0.628   1.390   2.610
 4876SOL    HW126256   0.609   1.462   2.670
 4876SOL    HW226257   0.566   1.321   2.636
 4877SOL     OW26258   2.635   4.459  22.272
 4877SOL    HW126259   2.555   4.511  22.284
 4877SOL    HW226260   2.625   4.386  22.333
 4878SOL     OW26261   3.162   3.964   8.087
 4878SOL    HW126262   3.186   4.055   8.106
 4878SOL    HW226263   3.172   3.918   8.170
 4879SOL     OW26264   1.790   3.560  25.290
 4879SOL    HW126265   1.869   3.605  25.319
 4879SOL    HW226266   1.728   3.571  25.362
 4880SOL     OW26267   1.595   0.200   0.517
 4880SOL    HW126268   1.691   0.203   0.518
 4880SOL    HW226269   1.571   0.219   0.426
 4881SOL     OW26270   1.846   4.706   4.610
 4881SOL    HW126271   1.823   0.017   4.595
 4881SOL    HW226272   1.942   4.705   4.614
 4882SOL     OW26273   4.620   0.702  17.250
 4882SOL    HW126274   4.561   0.697  17.325
 4882SOL    HW226275   4.654   0.613  17.240
 4883SOL     OW26276   4.328   4.095  25.762
 4883SOL    HW126277   4.282   4.011  25.767
 4883SOL    HW226278   4.334   4.113  25.668
 4884SOL     OW26279   1.906   1.713   8.272
 4884SOL    HW126280   1.968   1.640   8.272
 4884SOL    HW226281   1.902   1.741   8.181
 4885SOL     OW26282   4.010   4.391  10.061
 4885SOL    HW126283   4.097   4.357  10.081
 4885SOL    HW226284   3.951   4.340  10.117
 4886SOL     OW26285   2.290   4.034   5.518
 4886SOL    HW126286   2.237   3.998   5.447
 4886SOL    HW226287   2.235   4.025   5.596
 4887SOL     OW26288   1.146   2.265  21.178
 4887SOL    HW126289   1.115   2.249  21.089
 4887SOL    HW226290   1.156   2.360  21.184
 4888SOL     OW26291   3.850   1.568  25.933
 4888SOL    HW126292   3.930   1.551  25.983
 4888SOL    HW226293   3.813   1.481  25.916
 4889SOL     OW26294   3.638   0.688  20.790
 4889SOL    HW126295   3.703   0.644  20.735
 4889SOL    HW226296   3.684   0.706  20.872
 4890SOL     OW26297   2.742   4.264  17.212
 4890SOL    HW126298   2.801   4.304  17.276
 4890SOL    HW226299   2.793   4.261  17.131
 4891SOL     OW26300   1.720   0.885  27.004
 4891SOL    HW126301   1.751   0.839  27.082
 4891SOL    HW226302   1.797   0.891  26.948
 4892SOL     OW26303   2.653   0.592   5.403
 4892SOL    HW126304   2.605   0.664   5.444
 4892SOL    HW226305   2.716   0.564   5.470
 4893SOL     OW26306   4.269   0.686  17.728
 4893SOL    HW126307   4.181   0.720  17.744
 4893SOL    HW226308   4.271   0.667  17.634
 4894SOL     OW26309   1.495   1.213  23.744
 4894SOL    HW126310   1.477   1.277  23.813
 4894SOL    HW226311   1.577   1.171  23.770
 4895SOL     OW26312   3.646   0.502  24.049
 4895SOL    HW126313   3.723   0.537  24.004
 4895SOL    HW226314   3.620   0.426  23.997
 4896SOL     OW26315   3.440   0.051   3.065
 4896SOL    HW126316   3.380   0.069   2.993
 4896SOL    HW226317   3.395   0.085   3.143
 4897SOL     OW26318   2.305   4.705   9.729
 4897SOL    HW126319   2.211   4.708   9.746
 4897SOL    HW226320   2.333   4.619   9.760
 4898SOL     OW26321   2.283   3.157   5.550
 4898SOL    HW126322   2.327   3.228   5.597
 4898SOL    HW226323   2.336   3.144   5.471
 4899SOL     OW26324   0.381   4.676  21.967
 4899SOL    HW126325   0.400   4.767  21.988
 4899SOL    HW226326   0.348   4.678  21.877
 4900SOL     OW26327   3.262   2.913  22.021
 4900SOL    HW126328   3.309   2.834  21.995
 4900SOL    HW226329   3.320   2.984  21.996
 4901SOL     OW26330   2.066   3.339  24.597
 4901SOL    HW126331   2.113   3.340  24.513
 4901SOL    HW226332   2.121   3.391  24.656
 4902SOL     OW26333   3.265   2.644   1.407
 4902SOL    HW126334   3.184   2.670   1.362
 4902SOL    HW226335   3.317   2.601   1.339
 4903SOL     OW26336   2.966   2.131  22.558
 4903SOL    HW126337   2.979   2.074  22.634
 4903SOL    HW226338   2.898   2.087  22.507
 4904SOL     OW26339   0.262   3.106  25.076
 4904SOL    HW126340   0.354   3.108  25.103
 4904SOL    HW226341   0.246   3.015  25.052
 4905SOL     OW26342   2.585   4.057   6.247
 4905SOL    HW126343   2.613   3.979   6.198
 4905SOL    HW226344   2.608   4.038   6.338
 4906SOL     OW26345   2.777   4.173   6.057
 4906SOL    HW126346   2.754   4.265   6.047
 4906SOL    HW226347   2.700   4.133   6.098
 4907SOL     OW26348   0.957   1.956  26.027
 4907SOL    HW126349   1.020   2.025  26.006
 4907SOL    HW226350   1.011   1.885  26.061
 4908SOL     OW26351   3.656   3.492  23.779
 4908SOL    HW126352   3.595   3.419  23.765
 4908SOL    HW226353   3.686   3.481  23.869
 4909SOL     OW26354   0.884   0.397   6.155
 4909SOL    HW126355   0.884   0.331   6.086
 4909SOL    HW226356   0.898   0.480   6.109
 4910SOL     OW26357   4.266   3.645  23.291
 4910SOL    HW126358   4.207   3.720  23.287
 4910SOL    HW226359   4.332   3.663  23.224
 4911SOL     OW26360   0.534   2.974  27.755
 4911SOL    HW126361   0.570   3.036  27.819
 4911SOL    HW226362   0.439   2.976  27.770
 4912SOL     OW26363   0.518   3.450  25.238
 4912SOL    HW126364   0.531   3.502  25.158
 4912SOL    HW226365   0.433   3.479  25.271
 4913SOL     OW26366   0.300   3.154   8.859
 4913SOL    HW126367   0.372   3.178   8.917
 4913SOL    HW226368   0.284   3.233   8.807
 4914SOL     OW26369   0.997   2.079   8.282
 4914SOL    HW126370   1.074   2.132   8.300
 4914SOL    HW226371   0.934   2.140   8.244
 4915SOL     OW26372   3.592   2.220   3.078
 4915SOL    HW126373   3.637   2.304   3.068
 4915SOL    HW226374   3.662   2.157   3.096
 4916SOL     OW26375   0.445   1.236   5.934
 4916SOL    HW126376   0.540   1.238   5.943
 4916SOL    HW226377   0.413   1.221   6.023
 4917SOL     OW26378   0.334   0.878   0.739
 4917SOL    HW126379   0.319   0.843   0.651
 4917SOL    HW226380   0.267   0.946   0.749
 4918SOL     OW26381   1.223   1.970  21.295
 4918SOL    HW126382   1.239   2.062  21.274
 4918SOL    HW226383   1.293   1.947  21.356
 4919SOL     OW26384   1.469   0.486  28.184
 4919SOL    HW126385   1.483   0.574  28.219
 4919SOL    HW226386   1.521   0.483  28.104
 4920SOL     OW26387   3.684   2.157  22.856
 4920SOL    HW126388   3.652   2.160  22.766
 4920SOL    HW226389   3.681   2.064  22.879
 4921SOL     OW26390   0.443   4.327  25.802
 4921SOL    HW126391   0.534   4.307  25.779
 4921SOL    HW226392   0.399   4.341  25.718
 4922SOL     OW26393   1.577   3.871   5.130
 4922SOL    HW126394   1.540   3.941   5.184
 4922SOL    HW226395   1.654   3.910   5.090
 4923SOL     OW26396   2.249   2.689  22.944
 4923SOL    HW126397   2.299   2.767  22.920
 4923SOL    HW226398   2.309   2.637  22.997
 4924SOL     OW26399   0.182   2.363   5.681
 4924SOL    HW126400   0.241   2.427   5.641
 4924SOL    HW226401   0.130   2.329   5.608
 4925SOL     OW26402   4.180   4.305  25.229
 4925SOL    HW126403   4.175   4.376  25.165
 4925SOL    HW226404   4.128   4.336  25.303
 4926SOL     OW26405   1.932   1.735   1.886
 4926SOL    HW126406   1.986   1.665   1.849
 4926SOL    HW226407   1.983   1.815   1.872
 4927SOL     OW26408   1.286   4.065   7.816
 4927SOL    HW126409   1.214   4.128   7.809
 4927SOL    HW226410   1.246   3.980   7.796
 4928SOL     OW26411   2.938   3.283  24.918
 4928SOL    HW126412   2.902   3.205  24.961
 4928SOL    HW226413   2.970   3.252  24.834
 4929SOL     OW26414   1.398   4.281  19.072
 4929SOL    HW126415   1.413   4.340  18.999
 4929SOL    HW226416   1.311   4.304  19.104
 4930SOL     OW26417   3.314   2.124   1.720
 4930SOL    HW126418   3.299   2.067   1.644
 4930SOL    HW226419   3.409   2.125   1.730
 4931SOL     OW26420   2.050   4.328  20.388
 4931SOL    HW126421   2.023   4.320  20.479
 4931SOL    HW226422   2.022   4.416  20.362
 4932SOL     OW26423   0.165   2.275  21.526
 4932SOL    HW126424   0.162   2.190  21.482
 4932SOL    HW226425   0.134   2.337  21.460
 4933SOL     OW26426   0.401   0.508  18.801
 4933SOL    HW126427   0.321   0.471  18.764
 4933SOL    HW226428   0.416   0.459  18.882
 4934SOL     OW26429   2.737   3.328  19.780
 4934SOL    HW126430   2.817   3.304  19.732
 4934SOL    HW226431   2.761   3.321  19.872
 4935SOL     OW26432   4.697   2.573  24.680
 4935SOL    HW126433   4.643   2.651  24.692
 4935SOL    HW226434   4.768   2.583  24.743
 4936SOL     OW26435   3.204   2.463   7.711
 4936SOL    HW126436   3.134   2.408   7.746
 4936SOL    HW226437   3.278   2.446   7.769
 4937SOL     OW26438   3.313   4.057  20.666
 4937SOL    HW126439   3.334   4.063  20.759
 4937SOL    HW226440   3.359   4.131  20.626
 4938SOL     OW26441   2.791   3.019  19.713
 4938SOL    HW126442   2.767   3.052  19.800
 4938SOL    HW226443   2.879   2.983  19.724
 4939SOL     OW26444   0.250   3.356  28.302
 4939SOL    HW126445   0.302   3.354  28.382
 4939SOL    HW226446   0.235   3.264  28.281
 4940SOL     OW26447   2.038   2.587   8.589
 4940SOL    HW126448   1.943   2.586   8.578
 4940SOL    HW226449   2.070   2.639   8.516
 4941SOL     OW26450   2.210   0.058  17.070
 4941SOL    HW126451   2.229   4.757  17.024
 4941SOL    HW226452   2.218   0.126  17.003
 4942SOL     OW26453   4.374   3.963   2.465
 4942SOL    HW126454   4.330   3.957   2.550
 4942SOL    HW226455   4.450   3.906   2.474
 4943SOL     OW26456   4.674   3.454   3.631
 4943SOL    HW126457   4.649   3.429   3.720
 4943SOL    HW226458   4.722   3.379   3.597
 4944SOL     OW26459   3.017   4.386  20.623
 4944SOL    HW126460   3.088   4.450  20.615
 4944SOL    HW226461   3.011   4.369  20.717
 4945SOL     OW26462   1.978   0.709  27.901
 4945SOL    HW126463   2.011   0.706  27.991
 4945SOL    HW226464   1.915   0.781  27.901
 4946SOL     OW26465   1.999   3.627   1.412
 4946SOL    HW126466   2.039   3.611   1.327
 4946SOL    HW226467   1.973   3.719   1.409
 4947SOL     OW26468   4.012   4.093  23.214
 4947SOL    HW126469   3.965   4.037  23.276
 4947SOL    HW226470   3.987   4.182  23.239
 4948SOL     OW26471   0.469   3.992   2.136
 4948SOL    HW126472   0.382   4.031   2.146
 4948SOL    HW226473   0.510   4.001   2.222
 4949SOL     OW26474   3.816   1.250   3.248
 4949SOL    HW126475   3.827   1.158   3.224
 4949SOL    HW226476   3.810   1.296   3.164
 4950SOL     OW26477   2.669   3.261  20.584
 4950SOL    HW126478   2.582   3.234  20.553
 4950SOL    HW226479   2.685   3.344  20.539
 4951SOL     OW26480   4.564   0.814   8.584
 4951SOL    HW126481   4.625   0.742   8.569
 4951SOL    HW226482   4.478   0.772   8.588
 4952SOL     OW26483   1.592   0.352  22.691
 4952SOL    HW126484   1.670   0.310  22.726
 4952SOL    HW226485   1.544   0.282  22.648
 4953SOL     OW26486   3.612   0.938  24.692
 4953SOL    HW126487   3.642   0.861  24.644
 4953SOL    HW226488   3.583   0.904  24.777
 4954SOL     OW26489   4.613   1.001   6.318
 4954SOL    HW126490   4.527   0.961   6.332
 4954SOL    HW226491   4.675   0.929   6.328
 4955SOL     OW26492   2.186   1.816  26.486
 4955SOL    HW126493   2.190   1.858  26.400
 4955SOL    HW226494   2.135   1.877  26.540
 4956SOL     OW26495   1.771   1.233   2.604
 4956SOL    HW126496   1.855   1.243   2.648
 4956SOL    HW226497   1.716   1.187   2.668
 4957SOL     OW26498   0.634   3.701  22.353
 4957SOL    HW126499   0.721   3.731  22.326
 4957SOL    HW226500   0.576   3.729  22.282
 4958SOL     OW26501   2.956   2.650   7.403
 4958SOL    HW126502   2.959   2.662   7.308
 4958SOL    HW226503   3.027   2.705   7.436
 4959SOL     OW26504   2.195   1.025  16.574
 4959SOL    HW126505   2.114   1.016  16.525
 4959SOL    HW226506   2.258   0.969  16.528
 4960SOL     OW26507   3.083   4.149  20.983
 4960SOL    HW126508   3.086   4.164  21.078
 4960SOL    HW226509   3.171   4.120  20.961
 4961SOL     OW26510   2.023   0.540   1.601
 4961SOL    HW126511   2.005   0.485   1.525
 4961SOL    HW226512   1.937   0.554   1.641
 4962SOL     OW26513   1.020   3.232   6.172
 4962SOL    HW126514   1.006   3.161   6.109
 4962SOL    HW226515   1.053   3.304   6.119
 4963SOL     OW26516   3.217   3.221   9.441
 4963SOL    HW126517   3.153   3.242   9.373
 4963SOL    HW226518   3.248   3.133   9.419
 4964SOL     OW26519   1.241   3.601   3.684
 4964SOL    HW126520   1.207   3.663   3.749
 4964SOL    HW226521   1.280   3.656   3.616
 4965SOL     OW26522   2.594   2.610  27.480
 4965SOL    HW126523   2.657   2.560  27.428
 4965SOL    HW226524   2.515   2.556  27.481
 4966SOL     OW26525   1.888   2.797   2.614
 4966SOL    HW126526   1.833   2.850   2.671
 4966SOL    HW226527   1.868   2.706   2.637
 4967SOL     OW26528   3.024   1.640  24.534
 4967SOL    HW126529   2.969   1.578  24.487
 4967SOL    HW226530   3.064   1.694  24.466
 4968SOL     OW26531   4.130   3.246  27.566
 4968SOL    HW126532   4.038   3.220  27.571
 4968SOL    HW226533   4.140   3.280  27.477
 4969SOL     OW26534   0.253   0.899  20.081
 4969SOL    HW126535   0.298   0.816  20.095
 4969SOL    HW226536   0.180   0.897  20.143
 4970SOL     OW26537   0.728   0.229   4.006
 4970SOL    HW126538   0.774   0.147   4.021
 4970SOL    HW226539   0.700   0.257   4.093
 4971SOL     OW26540   0.587   3.786  17.575
 4971SOL    HW126541   0.655   3.803  17.640
 4971SOL    HW226542   0.589   3.863  17.518
 4972SOL     OW26543   0.759   4.373  26.432
 4972SOL    HW126544   0.791   4.359  26.521
 4972SOL    HW226545   0.730   4.286  26.403
 4973SOL     OW26546   1.479   0.041  11.463
 4973SOL    HW126547   1.414   0.058  11.531
 4973SOL    HW226548   1.529   4.748  11.496
 4974SOL     OW26549   0.719   0.622   0.202
 4974SOL    HW126550   0.681   0.570   0.273
 4974SOL    HW226551   0.647   0.678   0.172
 4975SOL     OW26552   3.062   0.019  16.582
 4975SOL    HW126553   3.081   0.081  16.652
 4975SOL    HW226554   3.141   4.746  16.575
 4976SOL     OW26555   3.738   2.668   1.319
 4976SOL    HW126556   3.744   2.749   1.369
 4976SOL    HW226557   3.810   2.614   1.351
 4977SOL     OW26558   3.279   4.556   7.702
 4977SOL    HW126559   3.360   4.575   7.654
 4977SOL    HW226560   3.293   4.593   7.789
 4978SOL     OW26561   4.197   3.278  26.898
 4978SOL    HW126562   4.111   3.288  26.857
 4978SOL    HW226563   4.245   3.221  26.838
 4979SOL     OW26564   3.056   1.121   8.075
 4979SOL    HW126565   3.043   1.102   8.168
 4979SOL    HW226566   3.107   1.047   8.042
 4980SOL     OW26567   4.547   2.546  25.820
 4980SOL    HW126568   4.533   2.460  25.859
 4980SOL    HW226569   4.490   2.604  25.870
 4981SOL     OW26570   0.977   3.126  24.318
 4981SOL    HW126571   0.982   3.170  24.233
 4981SOL    HW226572   1.068   3.109  24.341
 4982SOL     OW26573   4.198   1.538  24.267
 4982SOL    HW126574   4.132   1.597  24.303
 4982SOL    HW226575   4.230   1.488  24.342
 4983SOL     OW26576   4.740   0.081   1.855
 4983SOL    HW126577   0.038   0.054   1.902
 4983SOL    HW226578   4.769   0.092   1.764
 4984SOL     OW26579   3.054   0.443   5.771
 4984SOL    HW126580   3.107   0.509   5.815
 4984SOL    HW226581   3.082   0.446   5.680
 4985SOL     OW26582   2.318   1.035  15.786
 4985SOL    HW126583   2.382   1.011  15.719
 4985SOL    HW226584   2.245   0.974  15.772
 4986SOL     OW26585   1.308   3.627  21.794
 4986SOL    HW126586   1.351   3.574  21.861
 4986SOL    HW226587   1.379   3.673  21.750
 4987SOL     OW26588   4.102   2.015  23.540
 4987SOL    HW126589   4.109   1.944  23.476
 4987SOL    HW226590   4.009   2.038  23.540
 4988SOL     OW26591   1.413   1.968  26.257
 4988SOL    HW126592   1.466   1.949  26.334
 4988SOL    HW226593   1.457   1.922  26.186
 4989SOL     OW26594   0.876   2.837   5.263
 4989SOL    HW126595   0.838   2.901   5.204
 4989SOL    HW226596   0.865   2.875   5.350
 4990SOL     OW26597   0.135   3.986   8.433
 4990SOL    HW126598   0.122   3.901   8.392
 4990SOL    HW226599   0.052   4.032   8.420
 4991SOL     OW26600   2.505   1.588   6.218
 4991SOL    HW126601   2.514   1.626   6.305
 4991SOL    HW226602   2.595   1.579   6.186
 4992SOL     OW26603   2.238   1.261  18.234
 4992SOL    HW126604   2.158   1.299  18.271
 4992SOL    HW226605   2.247   1.177  18.278
 4993SOL     OW26606   3.542   2.861  22.766
 4993SOL    HW126607   3.452   2.832  22.781
 4993SOL    HW226608   3.579   2.871  22.854
 4994SOL     OW26609   0.485   3.076   8.446
 4994SOL    HW126610   0.423   3.053   8.515
 4994SOL    HW226611   0.445   3.042   8.366
 4995SOL     OW26612   4.430   4.485  17.478
 4995SOL    HW126613   4.409   4.576  17.459
 4995SOL    HW226614   4.467   4.451  17.397
 4996SOL     OW26615   1.205   2.294  19.601
 4996SOL    HW126616   1.110   2.299  19.610
 4996SOL    HW226617   1.233   2.238  19.674
 4997SOL     OW26618   2.430   4.602   2.522
 4997SOL    HW126619   2.388   4.559   2.447
 4997SOL    HW226620   2.523   4.580   2.514
 4998SOL     OW26621   1.278   2.491   7.849
 4998SOL    HW126622   1.219   2.557   7.885
 4998SOL    HW226623   1.223   2.439   7.790
 4999SOL     OW26624   0.302   3.399   7.635
 4999SOL    HW126625   0.220   3.438   7.605
 4999SOL    HW226626   0.356   3.474   7.660
 5000SOL     OW26627   1.794   2.472   0.381
 5000SOL    HW126628   1.765   2.563   0.371
 5000SOL    HW226629   1.869   2.477   0.441
 5001SOL     OW26630   1.495   2.401   8.265
 5001SOL    HW126631   1.419   2.357   8.304
 5001SOL    HW226632   1.560   2.404   8.336
 5002SOL     OW26633   1.664   0.222  17.480
 5002SOL    HW126634   1.600   0.280  17.520
 5002SOL    HW226635   1.704   0.274  17.411
 5003SOL     OW26636   1.172   1.422  24.275
 5003SOL    HW126637   1.079   1.441  24.290
 5003SOL    HW226638   1.182   1.420  24.180
 5004SOL     OW26639   4.177   1.867   7.953
 5004SOL    HW126640   4.226   1.944   7.984
 5004SOL    HW226641   4.240   1.795   7.956
 5005SOL     OW26642   3.491   3.156   6.319
 5005SOL    HW126643   3.424   3.137   6.384
 5005SOL    HW226644   3.506   3.250   6.327
 5006SOL     OW26645   1.721   3.500  26.211
 5006SOL    HW126646   1.717   3.595  26.202
 5006SOL    HW226647   1.632   3.470  26.190
 5007SOL     OW26648   3.506   3.255   2.283
 5007SOL    HW126649   3.433   3.195   2.269
 5007SOL    HW226650   3.465   3.341   2.294
 5008SOL     OW26651   2.000   0.744   7.188
 5008SOL    HW126652   1.943   0.668   7.193
 5008SOL    HW226653   1.974   0.788   7.107
 5009SOL     OW26654   2.005   2.555  28.431
 5009SOL    HW126655   2.021   2.535  28.339
 5009SOL    HW226656   2.090   2.545  28.473
 5010SOL     OW26657   1.506   3.165   1.261
 5010SOL    HW126658   1.591   3.208   1.271
 5010SOL    HW226659   1.469   3.165   1.349
 5011SOL     OW26660   0.260   1.470   2.353
 5011SOL    HW126661   0.182   1.491   2.405
 5011SOL    HW226662   0.282   1.381   2.379
 5012SOL     OW26663   3.509   0.302   3.417
 5012SOL    HW126664   3.471   0.308   3.505
 5012SOL    HW226665   3.438   0.266   3.363
 5013SOL     OW26666   2.188   0.673  21.556
 5013SOL    HW126667   2.155   0.631  21.477
 5013SOL    HW226668   2.118   0.733  21.581
 5014SOL     OW26669   2.998   0.048   6.893
 5014SOL    HW126670   3.018   0.131   6.851
 5014SOL    HW226671   3.047   0.050   6.975
 5015SOL     OW26672   1.583   1.631   8.679
 5015SOL    HW126673   1.662   1.599   8.723
 5015SOL    HW226674   1.516   1.630   8.747
 5016SOL     OW26675   1.986   0.910  26.576
 5016SOL    HW126676   2.015   0.961  26.500
 5016SOL    HW226677   2.038   0.830  26.572
 5017SOL     OW26678   2.890   2.454  26.782
 5017SOL    HW126679   2.952   2.495  26.722
 5017SOL    HW226680   2.805   2.489  26.757
 5018SOL     OW26681   2.556   0.892   9.307
 5018SOL    HW126682   2.623   0.911   9.373
 5018SOL    HW226683   2.476   0.931   9.341
 5019SOL     OW26684   2.371   0.378   7.658
 5019SOL    HW126685   2.465   0.364   7.667
 5019SOL    HW226686   2.331   0.294   7.681
 5020SOL     OW26687   0.935   2.295   3.647
 5020SOL    HW126688   0.892   2.344   3.577
 5020SOL    HW226689   0.974   2.362   3.703
 5021SOL     OW26690   2.194   3.092  20.154
 5021SOL    HW126691   2.135   3.047  20.093
 5021SOL    HW226692   2.219   3.172  20.108
 5022SOL     OW26693   4.646   4.316  26.502
 5022SOL    HW126694   4.726   4.286  26.459
 5022SOL    HW226695   4.674   4.340  26.590
 5023SOL     OW26696   2.579   1.133  16.695
 5023SOL    HW126697   2.660   1.101  16.654
 5023SOL    HW226698   2.548   1.202  16.637
 5024SOL     OW26699   2.682   0.890  25.686
 5024SOL    HW126700   2.717   0.904  25.598
 5024SOL    HW226701   2.681   0.795  25.697
 5025SOL     OW26702   3.494   3.513  18.824
 5025SOL    HW126703   3.525   3.584  18.880
 5025SOL    HW226704   3.485   3.438  18.883
 5026SOL     OW26705   4.388   3.547  16.706
 5026SOL    HW126706   4.300   3.558  16.670
 5026SOL    HW226707   4.446   3.564  16.632
 5027SOL     OW26708   1.593   3.048  27.187
 5027SOL    HW126709   1.634   2.970  27.224
 5027SOL    HW226710   1.502   3.022  27.172
 5028SOL     OW26711   4.437   1.042   5.279
 5028SOL    HW126712   4.400   0.993   5.352
 5028SOL    HW226713   4.390   1.010   5.202
 5029SOL     OW26714   4.483   1.568   8.287
 5029SOL    HW126715   4.524   1.482   8.289
 5029SOL    HW226716   4.518   1.609   8.208
 5030SOL     OW26717   4.257   2.263  21.368
 5030SOL    HW126718   4.258   2.191  21.431
 5030SOL    HW226719   4.203   2.231  21.295
 5031SOL     OW26720   2.557   2.399  22.088
 5031SOL    HW126721   2.463   2.416  22.081
 5031SOL    HW226722   2.571   2.320  22.036
 5032SOL     OW26723   3.691   2.167  27.163
 5032SOL    HW126724   3.735   2.084  27.144
 5032SOL    HW226725   3.642   2.186  27.083
 5033SOL     OW26726   0.615   3.348  22.003
 5033SOL    HW126727   0.550   3.312  22.063
 5033SOL    HW226728   0.660   3.415  22.054
 5034SOL     OW26729   2.301   4.376   5.396
 5034SOL    HW126730   2.269   4.423   5.319
 5034SOL    HW226731   2.389   4.348   5.373
 5035SOL     OW26732   3.287   1.711  23.692
 5035SOL    HW126733   3.229   1.769  23.643
 5035SOL    HW226734   3.347   1.770  23.737
 5036SOL     OW26735   0.232   3.069  22.485
 5036SOL    HW126736   0.189   3.080  22.400
 5036SOL    HW226737   0.318   3.034  22.464
 5037SOL     OW26738   3.023   1.943   8.836
 5037SOL    HW126739   3.077   1.932   8.914
 5037SOL    HW226740   3.022   1.857   8.794
 5038SOL     OW26741   1.483   4.651  22.080
 5038SOL    HW126742   1.449   4.695  22.158
 5038SOL    HW226743   1.539   4.716  22.039
 5039SOL     OW26744   0.857   0.359   9.294
 5039SOL    HW126745   0.866   0.408   9.212
 5039SOL    HW226746   0.926   0.394   9.350
 5040SOL     OW26747   3.744   3.545  16.727
 5040SOL    HW126748   3.778   3.544  16.638
 5040SOL    HW226749   3.818   3.516  16.781
 5041SOL     OW26750   4.030   0.452   8.721
 5041SOL    HW126751   4.020   0.533   8.771
 5041SOL    HW226752   4.046   0.385   8.788
 5042SOL     OW26753   2.350   1.495  28.097
 5042SOL    HW126754   2.349   1.515  28.003
 5042SOL    HW226755   2.426   1.543  28.130
 5043SOL     OW26756   1.824   0.130  25.885
 5043SOL    HW126757   1.880   0.132  25.963
 5043SOL    HW226758   1.874   0.078  25.821
 5044SOL     OW26759   4.597   2.950   0.499
 5044SOL    HW126760   4.576   2.983   0.586
 5044SOL    HW226761   4.592   2.855   0.508
 5045SOL     OW26762   0.827   1.485   9.972
 5045SOL    HW126763   0.891   1.444  10.030
 5045SOL    HW226764   0.850   1.578   9.972
 5046SOL     OW26765   2.935   3.580   1.770
 5046SOL    HW126766   2.883   3.599   1.848
 5046SOL    HW226767   2.879   3.605   1.697
 5047SOL     OW26768   4.532   4.294  21.330
 5047SOL    HW126769   4.464   4.358  21.349
 5047SOL    HW226770   4.614   4.342  21.340
 5048SOL     OW26771   4.214   0.286   1.477
 5048SOL    HW126772   4.123   0.258   1.483
 5048SOL    HW226773   4.253   0.257   1.560
 5049SOL     OW26774   2.730   2.269  25.585
 5049SOL    HW126775   2.725   2.190  25.532
 5049SOL    HW226776   2.820   2.299  25.574
 5050SOL     OW26777   3.045   0.164  24.136
 5050SOL    HW126778   3.067   0.153  24.044
 5050SOL    HW226779   2.950   0.153  24.140
 5051SOL     OW26780   2.220   4.618  18.420
 5051SOL    HW126781   2.151   4.580  18.366
 5051SOL    HW226782   2.213   4.712  18.404
 5052SOL     OW26783   0.762   2.041   0.738
 5052SOL    HW126784   0.705   1.968   0.763
 5052SOL    HW226785   0.714   2.085   0.668
 5053SOL     OW26786   3.882   1.281  24.680
 5053SOL    HW126787   3.829   1.236  24.745
 5053SOL    HW226788   3.834   1.362  24.662
 5054SOL     OW26789   1.809   2.212   5.911
 5054SOL    HW126790   1.754   2.244   5.840
 5054SOL    HW226791   1.777   2.123   5.928
 5055SOL     OW26792   0.553   1.671  23.535
 5055SOL    HW126793   0.547   1.747  23.594
 5055SOL    HW226794   0.539   1.707  23.448
 5056SOL     OW26795   1.993   0.140   8.257
 5056SOL    HW126796   1.957   0.146   8.168
 5056SOL    HW226797   2.080   0.179   8.250
 5057SOL     OW26798   0.788   2.078   3.788
 5057SOL    HW126799   0.697   2.099   3.810
 5057SOL    HW226800   0.813   2.144   3.724
 5058SOL     OW26801   1.597   4.190   4.352
 5058SOL    HW126802   1.656   4.117   4.368
 5058SOL    HW226803   1.516   4.166   4.398
 5059SOL     OW26804   1.903   3.034   4.342
 5059SOL    HW126805   1.859   3.033   4.257
 5059SOL    HW226806   1.918   2.942   4.363
 5060SOL     OW26807   2.344   4.279  26.975
 5060SOL    HW126808   2.314   4.341  26.909
 5060SOL    HW226809   2.392   4.332  27.038
 5061SOL     OW26810   3.214   1.074  25.813
 5061SOL    HW126811   3.224   1.005  25.879
 5061SOL    HW226812   3.291   1.064  25.757
 5062SOL     OW26813   1.120   1.180  11.127
 5062SOL    HW126814   1.207   1.215  11.147
 5062SOL    HW226815   1.073   1.185  11.210
 5063SOL     OW26816   0.483   2.281  19.922
 5063SOL    HW126817   0.489   2.372  19.894
 5063SOL    HW226818   0.443   2.285  20.009
 5064SOL     OW26819   2.218   0.743   2.138
 5064SOL    HW126820   2.163   0.770   2.212
 5064SOL    HW226821   2.303   0.724   2.177
 5065SOL     OW26822   4.222   2.697   9.147
 5065SOL    HW126823   4.185   2.769   9.198
 5065SOL    HW226824   4.207   2.620   9.201
 5066SOL     OW26825   4.439   2.867   5.517
 5066SOL    HW126826   4.444   2.905   5.605
 5066SOL    HW226827   4.349   2.884   5.488
 5067SOL     OW26828   4.297   0.594  23.053
 5067SOL    HW126829   4.330   0.504  23.059
 5067SOL    HW226830   4.282   0.608  22.959
 5068SOL     OW26831   1.887   1.162  23.856
 5068SOL    HW126832   1.981   1.176  23.847
 5068SOL    HW226833   1.854   1.166  23.766
 5069SOL     OW26834   3.239   2.938   4.809
 5069SOL    HW126835   3.248   2.862   4.752
 5069SOL    HW226836   3.171   2.913   4.872
 5070SOL     OW26837   3.177   2.139  26.580
 5070SOL    HW126838   3.145   2.103  26.498
 5070SOL    HW226839   3.163   2.069  26.644
 5071SOL     OW26840   1.925   4.720  20.891
 5071SOL    HW126841   1.932   0.020  20.941
 5071SOL    HW226842   2.014   4.705  20.858
 5072SOL     OW26843   0.788   2.909   7.017
 5072SOL    HW126844   0.839   2.964   7.076
 5072SOL    HW226845   0.846   2.836   6.996
 5073SOL     OW26846   2.452   1.252   4.253
 5073SOL    HW126847   2.399   1.329   4.230
 5073SOL    HW226848   2.426   1.185   4.189
 5074SOL     OW26849   1.412   0.745   5.787
 5074SOL    HW126850   1.493   0.750   5.838
 5074SOL    HW226851   1.431   0.681   5.719
 5075SOL     OW26852   0.252   4.061  19.966
 5075SOL    HW126853   0.161   4.060  19.936
 5075SOL    HW226854   0.296   3.996  19.911
 5076SOL     OW26855   2.766   1.213  23.813
 5076SOL    HW126856   2.822   1.259  23.751
 5076SOL    HW226857   2.677   1.226  23.780
 5077SOL     OW26858   1.045   3.015  25.086
 5077SOL    HW126859   1.017   2.954  25.017
 5077SOL    HW226860   0.974   3.013  25.150
 5078SOL     OW26861   4.437   3.435   5.741
 5078SOL    HW126862   4.532   3.424   5.737
 5078SOL    HW226863   4.402   3.367   5.683
 5079SOL     OW26864   1.750   0.536  20.641
 5079SOL    HW126865   1.682   0.537  20.574
 5079SOL    HW226866   1.716   0.593  20.710
 5080SOL     OW26867   0.637   0.574   7.430
 5080SOL    HW126868   0.581   0.520   7.374
 5080SOL    HW226869   0.721   0.577   7.384
 5081SOL     OW26870   4.204   3.669  27.192
 5081SOL    HW126871   4.179   3.739  27.252
 5081SOL    HW226872   4.252   3.713  27.122
 5082SOL     OW26873   4.190   1.615  17.371
 5082SOL    HW126874   4.139   1.633  17.292
 5082SOL    HW226875   4.258   1.554  17.343
 5083SOL     OW26876   3.340   3.791  17.857
 5083SOL    HW126877   3.387   3.760  17.779
 5083SOL    HW226878   3.311   3.711  17.901
 5084SOL     OW26879   1.502   1.757   7.289
 5084SOL    HW126880   1.541   1.819   7.351
 5084SOL    HW226881   1.577   1.717   7.245
 5085SOL     OW26882   1.393   3.727   6.781
 5085SOL    HW126883   1.368   3.640   6.749
 5085SOL    HW226884   1.398   3.716   6.876
 5086SOL     OW26885   1.961   0.009   3.176
 5086SOL    HW126886   2.032   0.073   3.181
 5086SOL    HW226887   1.915   0.030   3.095
 5087SOL     OW26888   0.928   1.157   1.063
 5087SOL    HW126889   0.901   1.188   1.149
 5087SOL    HW226890   0.910   1.230   1.004
 5088SOL     OW26891   4.706   0.503   6.978
 5088SOL    HW126892   4.667   0.538   7.058
 5088SOL    HW226893   0.006   0.462   7.007
 5089SOL     OW26894   1.492   4.048  18.462
 5089SOL    HW126895   1.456   4.129  18.425
 5089SOL    HW226896   1.556   4.019  18.397
 5090SOL     OW26897   1.605   1.292   3.086
 5090SOL    HW126898   1.530   1.336   3.126
 5090SOL    HW226899   1.677   1.309   3.146
 5091SOL     OW26900   0.937   4.117  20.610
 5091SOL    HW126901   0.899   4.178  20.674
 5091SOL    HW226902   0.868   4.105  20.545
 5092SOL     OW26903   0.121   0.241  27.334
 5092SOL    HW126904   0.111   0.232  27.239
 5092SOL    HW226905   0.065   0.173  27.371
 5093SOL     OW26906   3.461   3.657   0.835
 5093SOL    HW126907   3.481   3.742   0.795
 5093SOL    HW226908   3.509   3.657   0.918
 5094SOL     OW26909   1.000   3.367  25.376
 5094SOL    HW126910   0.959   3.310  25.311
 5094SOL    HW226911   0.939   3.441  25.384
 5095SOL     OW26912   4.565   1.019  23.494
 5095SOL    HW126913   4.562   1.106  23.533
 5095SOL    HW226914   4.486   0.975  23.525
 5096SOL     OW26915   1.822   2.752  20.396
 5096SOL    HW126916   1.798   2.826  20.341
 5096SOL    HW226917   1.902   2.779  20.440
 5097SOL     OW26918   3.414   4.391  27.839
 5097SOL    HW126919   3.456   4.388  27.925
 5097SOL    HW226920   3.443   4.310  27.796
 5098SOL     OW26921   0.440   3.295  28.517
 5098SOL    HW126922   0.456   3.210  28.475
 5098SOL    HW226923   0.527   3.332   0.008
 5099SOL     OW26924   0.643   0.206  20.076
 5099SOL    HW126925   0.713   0.177  20.135
 5099SOL    HW226926   0.651   0.148  20.000
 5100SOL     OW26927   0.568   1.685   3.434
 5100SOL    HW126928   0.604   1.680   3.346
 5100SOL    HW226929   0.558   1.779   3.451
 5101SOL     OW26930   4.594   0.904   3.746
 5101SOL    HW126931   4.601   0.996   3.773
 5101SOL    HW226932   4.655   0.895   3.673
 5102SOL     OW26933   3.896   2.355   0.249
 5102SOL    HW126934   3.857   2.441   0.267
 5102SOL    HW226935   3.879   2.340   0.156
 5103SOL     OW26936   3.946   3.600  19.358
 5103SOL    HW126937   3.925   3.576  19.448
 5103SOL    HW226938   3.988   3.522  19.322
 5104SOL     OW26939   0.478   4.280  21.143
 5104SOL    HW126940   0.390   4.283  21.106
 5104SOL    HW226941   0.468   4.315  21.232
 5105SOL     OW26942   4.671   1.094  25.847
 5105SOL    HW126943   4.754   1.087  25.893
 5105SOL    HW226944   4.607   1.117  25.915
 5106SOL     OW26945   3.403   4.404   3.015
 5106SOL    HW126946   3.463   4.457   3.067
 5106SOL    HW226947   3.447   4.395   2.930
 5107SOL     OW26948   1.624   2.387   9.825
 5107SOL    HW126949   1.663   2.435   9.752
 5107SOL    HW226950   1.530   2.403   9.816
 5108SOL     OW26951   1.789   1.217   9.105
 5108SOL    HW126952   1.721   1.176   9.052
 5108SOL    HW226953   1.871   1.191   9.064
 5109SOL     OW26954   4.473   1.906  19.707
 5109SOL    HW126955   4.380   1.925  19.721
 5109SOL    HW226956   4.502   1.863  19.788
 5110SOL     OW26957   2.740   4.737  21.253
 5110SOL    HW126958   2.706   4.760  21.340
 5110SOL    HW226959   2.820   4.688  21.271
 5111SOL     OW26960   0.333   1.310  26.279
 5111SOL    HW126961   0.285   1.354  26.349
 5111SOL    HW226962   0.341   1.376  26.210
 5112SOL     OW26963   4.202   3.862  25.763
 5112SOL    HW126964   4.134   3.797  25.781
 5112SOL    HW226965   4.275   3.811  25.727
 5113SOL     OW26966   0.978   3.866  17.118
 5113SOL    HW126967   1.052   3.816  17.153
 5113SOL    HW226968   0.924   3.886  17.194
 5114SOL     OW26969   4.377   0.659   8.958
 5114SOL    HW126970   4.379   0.630   9.049
 5114SOL    HW226971   4.385   0.754   8.963
 5115SOL     OW26972   3.209   0.336   7.387
 5115SOL    HW126973   3.158   0.344   7.307
 5115SOL    HW226974   3.292   0.380   7.368
 5116SOL     OW26975   3.258   3.715   5.601
 5116SOL    HW126976   3.194   3.698   5.670
 5116SOL    HW226977   3.225   3.792   5.556
 5117SOL     OW26978   4.495   1.216  21.877
 5117SOL    HW126979   4.414   1.198  21.925
 5117SOL    HW226980   4.544   1.134  21.881
 5118SOL     OW26981   4.107   1.117   2.749
 5118SOL    HW126982   4.039   1.076   2.696
 5118SOL    HW226983   4.166   1.045   2.773
 5119SOL     OW26984   0.338   2.625   5.521
 5119SOL    HW126985   0.411   2.619   5.582
 5119SOL    HW226986   0.357   2.703   5.468
 5120SOL     OW26987   3.270   3.192  27.280
 5120SOL    HW126988   3.187   3.147  27.295
 5120SOL    HW226989   3.266   3.270  27.335
 5121SOL     OW26990   0.038   0.745   4.557
 5121SOL    HW126991   0.114   0.754   4.614
 5121SOL    HW226992   0.068   0.776   4.472
 5122SOL     OW26993   0.960   0.835  10.170
 5122SOL    HW126994   0.982   0.778  10.244
 5122SOL    HW226995   1.024   0.813  10.102
 5123SOL     OW26996   3.329   3.248   4.789
 5123SOL    HW126997   3.385   3.240   4.866
 5123SOL    HW226998   3.318   3.158   4.758
 5124SOL     OW26999   2.734   3.799  20.082
 5124SOL    HW127000   2.643   3.804  20.112
 5124SOL    HW227001   2.729   3.821  19.989
 5125SOL     OW27002   3.764   1.126   6.586
 5125SOL    HW127003   3.683   1.080   6.565
 5125SOL    HW227004   3.757   1.146   6.679
 5126SOL     OW27005   3.582   2.932   3.410
 5126SOL    HW127006   3.569   3.027   3.411
 5126SOL    HW227007   3.675   2.920   3.428
 5127SOL     OW27008   0.506   0.734  26.995
 5127SOL    HW127009   0.457   0.813  27.019
 5127SOL    HW227010   0.471   0.710  26.909
 5128SOL     OW27011   2.723   3.861   0.443
 5128SOL    HW127012   2.674   3.841   0.523
 5128SOL    HW227013   2.785   3.928   0.470
 5129SOL     OW27014   4.327   0.680   0.775
 5129SOL    HW127015   4.357   0.622   0.705
 5129SOL    HW227016   4.408   0.710   0.817
 5130SOL     OW27017   3.853   2.570  24.522
 5130SOL    HW127018   3.902   2.491  24.546
 5130SOL    HW227019   3.844   2.618  24.604
 5131SOL     OW27020   3.574   1.184  19.225
 5131SOL    HW127021   3.538   1.271  19.244
 5131SOL    HW227022   3.528   1.156  19.146
 5132SOL     OW27023   1.843   4.458  24.312
 5132SOL    HW127024   1.788   4.441  24.236
 5132SOL    HW227025   1.913   4.515  24.279
 5133SOL     OW27026   0.675   0.872  24.325
 5133SOL    HW127027   0.582   0.858  24.307
 5133SOL    HW227028   0.713   0.892  24.239
 5134SOL     OW27029   4.049   1.372   9.177
 5134SOL    HW127030   3.971   1.321   9.155
 5134SOL    HW227031   4.096   1.381   9.094
 5135SOL     OW27032   3.843   3.961  25.773
 5135SOL    HW127033   3.900   3.885  25.769
 5135SOL    HW227034   3.870   4.016  25.699
 5136SOL     OW27035   3.308   1.985   4.058
 5136SOL    HW127036   3.372   2.044   4.098
 5136SOL    HW227037   3.240   1.974   4.125
 5137SOL     OW27038   2.026   3.645   1.138
 5137SOL    HW127039   2.016   3.646   1.043
 5137SOL    HW227040   2.048   3.735   1.161
 5138SOL     OW27041   1.536   3.710   0.914
 5138SOL    HW127042   1.494   3.763   0.846
 5138SOL    HW227043   1.518   3.757   0.995
 5139SOL     OW27044   1.203   2.512  21.286
 5139SOL    HW127045   1.110   2.522  21.304
 5139SOL    HW227046   1.244   2.506  21.372
 5140SOL     OW27047   1.987   2.759   3.625
 5140SOL    HW127048   2.010   2.699   3.554
 5140SOL    HW227049   2.040   2.730   3.699
 5141SOL     OW27050   4.313   2.359   8.675
 5141SOL    HW127051   4.278   2.405   8.751
 5141SOL    HW227052   4.320   2.268   8.703
 5142SOL     OW27053   4.746   4.639   7.780
 5142SOL    HW127054   4.746   4.727   7.741
 5142SOL    HW227055   4.656   4.608   7.767
 5143SOL     OW27056   0.014   0.612   5.260
 5143SOL    HW127057   0.068   0.656   5.326
 5143SOL    HW227058   0.029   0.663   5.180
 5144SOL     OW27059   3.026   0.598  28.352
 5144SOL    HW127060   3.003   0.593  28.259
 5144SOL    HW227061   2.954   0.553  28.397
 5145SOL     OW27062   0.646   1.891   8.035
 5145SOL    HW127063   0.717   1.839   7.999
 5145SOL    HW227064   0.643   1.969   7.980
 5146SOL     OW27065   0.806   0.571   5.548
 5146SOL    HW127066   0.866   0.644   5.565
 5146SOL    HW227067   0.766   0.591   5.463
 5147SOL     OW27068   0.346   3.219  23.025
 5147SOL    HW127069   0.333   3.141  22.971
 5147SOL    HW227070   0.298   3.288  22.980
 5148SOL     OW27071   2.188   0.226   5.658
 5148SOL    HW127072   2.104   0.252   5.697
 5148SOL    HW227073   2.169   0.143   5.615
 5149SOL     OW27074   0.322   0.593   0.103
 5149SOL    HW127075   0.323   0.643   0.022
 5149SOL    HW227076   0.342   0.503   0.076
 5150SOL     OW27077   0.508   3.836  26.671
 5150SOL    HW127078   0.550   3.817  26.587
 5150SOL    HW227079   0.453   3.759  26.688
 5151SOL     OW27080   1.784   4.734  23.637
 5151SOL    HW127081   1.743   4.685  23.565
 5151SOL    HW227082   1.877   4.738  23.613
 5152SOL     OW27083   2.925   4.312   7.431
 5152SOL    HW127084   2.930   4.372   7.357
 5152SOL    HW227085   3.010   4.320   7.475
 5153SOL     OW27086   3.234   0.055   2.867
 5153SOL    HW127087   3.214   0.009   2.786
 5153SOL    HW227088   3.177   0.132   2.866
 5154SOL     OW27089   2.549   3.170   7.709
 5154SOL    HW127090   2.634   3.163   7.753
 5154SOL    HW227091   2.506   3.244   7.752
 5155SOL     OW27092   3.989   0.693  25.566
 5155SOL    HW127093   4.065   0.656  25.521
 5155SOL    HW227094   3.914   0.646  25.530
 5156SOL     OW27095   4.025   0.711  19.763
 5156SOL    HW127096   3.960   0.733  19.696
 5156SOL    HW227097   3.976   0.712  19.845
 5157SOL     OW27098   4.669   1.968   5.592
 5157SOL    HW127099   4.648   1.991   5.682
 5157SOL    HW227100   4.750   1.917   5.599
 5158SOL     OW27101   0.177   0.998  25.895
 5158SOL    HW127102   0.204   0.980  25.805
 5158SOL    HW227103   0.243   0.954  25.949
 5159SOL     OW27104   3.737   3.666   8.418
 5159SOL    HW127105   3.811   3.650   8.476
 5159SOL    HW227106   3.722   3.582   8.374
 5160SOL     OW27107   1.478   2.592  25.964
 5160SOL    HW127108   1.500   2.684  25.978
 5160SOL    HW227109   1.514   2.547  26.041
 5161SOL     OW27110   0.366   1.783   3.168
 5161SOL    HW127111   0.458   1.807   3.179
 5161SOL    HW227112   0.368   1.690   3.146
 5162SOL     OW27113   3.719   0.603   5.573
 5162SOL    HW127114   3.781   0.615   5.645
 5162SOL    HW227115   3.748   0.665   5.506
 5163SOL     OW27116   4.298   1.011  23.142
 5163SOL    HW127117   4.207   1.039  23.148
 5163SOL    HW227118   4.322   1.026  23.050
 5164SOL     OW27119   0.008   2.522  26.598
 5164SOL    HW127120   0.032   2.543  26.508
 5164SOL    HW227121   4.741   2.439  26.592
 5165SOL     OW27122   3.521   3.059  28.271
 5165SOL    HW127123   3.472   3.091  28.347
 5165SOL    HW227124   3.465   3.079  28.196
 5166SOL     OW27125   4.025   4.681   3.692
 5166SOL    HW127126   3.947   4.725   3.727
 5166SOL    HW227127   4.017   4.590   3.721
 5167SOL     OW27128   1.640   3.260  21.135
 5167SOL    HW127129   1.546   3.277  21.131
 5167SOL    HW227130   1.647   3.178  21.183
 5168SOL     OW27131   3.202   3.460  22.735
 5168SOL    HW127132   3.202   3.505  22.651
 5168SOL    HW227133   3.155   3.519  22.794
 5169SOL     OW27134   3.778   0.639   4.805
 5169SOL    HW127135   3.784   0.663   4.712
 5169SOL    HW227136   3.692   0.598   4.814
 5170SOL     OW27137   0.181   0.906  23.415
 5170SOL    HW127138   0.161   0.844  23.485
 5170SOL    HW227139   0.250   0.863  23.364
 5171SOL     OW27140   1.441   0.455   5.682
 5171SOL    HW127141   1.474   0.459   5.772
 5171SOL    HW227142   1.482   0.377   5.645
 5172SOL     OW27143   0.855   3.562   2.709
 5172SOL    HW127144   0.937   3.561   2.758
 5172SOL    HW227145   0.835   3.470   2.693
 5173SOL     OW27146   0.831   0.050  28.400
 5173SOL    HW127147   0.737   0.062  28.416
 5173SOL    HW227148   0.869   0.038  28.487
 5174SOL     OW27149   4.469   1.201  21.606
 5174SOL    HW127150   4.476   1.228  21.698
 5174SOL    HW227151   4.557   1.214  21.570
 5175SOL     OW27152   2.998   2.213   6.019
 5175SOL    HW127153   3.080   2.222   5.971
 5175SOL    HW227154   2.966   2.126   5.996
 5176SOL     OW27155   4.512   3.902  26.127
 5176SOL    HW127156   4.448   3.952  26.177
 5176SOL    HW227157   4.576   3.873  26.192
 5177SOL     OW27158   0.567   1.345   7.978
 5177SOL    HW127159   0.641   1.294   8.012
 5177SOL    HW227160   0.495   1.326   8.039
 5178SOL     OW27161   1.418   2.516   4.811
 5178SOL    HW127162   1.447   2.589   4.865
 5178SOL    HW227163   1.493   2.496   4.755
 5179SOL     OW27164   2.347   3.910  19.039
 5179SOL    HW127165   2.313   3.823  19.018
 5179SOL    HW227166   2.281   3.948  19.097
 5180SOL     OW27167   1.116   4.207   5.575
 5180SOL    HW127168   1.043   4.165   5.528
 5180SOL    HW227169   1.166   4.134   5.611
 5181SOL     OW27170   2.152   1.685  28.091
 5181SOL    HW127171   2.076   1.651  28.138
 5181SOL    HW227172   2.220   1.619  28.106
 5182SOL     OW27173   0.936   4.448   8.496
 5182SOL    HW127174   0.861   4.438   8.555
 5182SOL    HW227175   0.897   4.466   8.411
 5183SOL     OW27176   4.727   4.755  24.288
 5183SOL    HW127177   4.675   4.758  24.368
 5183SOL    HW227178   0.021   0.031  24.306
 5184SOL     OW27179   3.890   3.635  16.499
 5184SOL    HW127180   3.925   3.594  16.420
 5184SOL    HW227181   3.838   3.709  16.466
 5185SOL     OW27182   2.059   0.754   1.226
 5185SOL    HW127183   2.102   0.689   1.170
 5185SOL    HW227184   2.111   0.753   1.307
 5186SOL     OW27185   2.135   2.938  21.215
 5186SOL    HW127186   2.069   2.931  21.284
 5186SOL    HW227187   2.114   3.020  21.170
 5187SOL     OW27188   1.178   0.613  27.725
 5187SOL    HW127189   1.249   0.556  27.697
 5187SOL    HW227190   1.222   0.689  27.764
 5188SOL     OW27191   2.161   3.672  24.985
 5188SOL    HW127192   2.107   3.751  24.993
 5188SOL    HW227193   2.099   3.600  24.997
 5189SOL     OW27194   1.897   2.875  23.350
 5189SOL    HW127195   1.833   2.864  23.280
 5189SOL    HW227196   1.927   2.966  23.341
 5190SOL     OW27197   2.188   0.095  21.923
 5190SOL    HW127198   2.252   0.166  21.923
 5190SOL    HW227199   2.120   0.125  21.984
 5191SOL     OW27200   1.453   1.492  28.135
 5191SOL    HW127201   1.504   1.563  28.096
 5191SOL    HW227202   1.420   1.528  28.217
 5192SOL     OW27203   1.283   0.158  17.174
 5192SOL    HW127204   1.265   0.101  17.249
 5192SOL    HW227205   1.197   0.175  17.135
 5193SOL     OW27206   4.755   4.464  23.573
 5193SOL    HW127207   4.708   4.464  23.490
 5193SOL    HW227208   4.697   4.511  23.633
 5194SOL     OW27209   2.540   3.030  26.938
 5194SOL    HW127210   2.613   3.004  26.882
 5194SOL    HW227211   2.517   2.950  26.986
 5195SOL     OW27212   2.856   1.411  17.734
 5195SOL    HW127213   2.806   1.338  17.697
 5195SOL    HW227214   2.791   1.480  17.747
 5196SOL     OW27215   0.920   1.033  17.701
 5196SOL    HW127216   0.864   1.105  17.730
 5196SOL    HW227217   0.982   1.074  17.641
 5197SOL     OW27218   0.996   2.369   1.948
 5197SOL    HW127219   0.916   2.335   1.909
 5197SOL    HW227220   1.050   2.395   1.873
 5198SOL     OW27221   3.899   1.942   5.377
 5198SOL    HW127222   3.920   1.868   5.320
 5198SOL    HW227223   3.976   1.952   5.434
 5199SOL     OW27224   1.425   3.861  22.035
 5199SOL    HW127225   1.460   3.943  22.070
 5199SOL    HW227226   1.449   3.863  21.942
 5200SOL     OW27227   0.868   3.491  24.667
 5200SOL    HW127228   0.822   3.462  24.746
 5200SOL    HW227229   0.871   3.586  24.675
 5201SOL     OW27230   3.750   1.589   4.539
 5201SOL    HW127231   3.746   1.681   4.512
 5201SOL    HW227232   3.683   1.580   4.606
 5202SOL     OW27233   3.578   0.412   3.904
 5202SOL    HW127234   3.545   0.418   3.814
 5202SOL    HW227235   3.512   0.457   3.957
 5203SOL     OW27236   1.196   2.126   2.112
 5203SOL    HW127237   1.161   2.069   2.044
 5203SOL    HW227238   1.237   2.067   2.175
 5204SOL     OW27239   1.277   3.014  24.819
 5204SOL    HW127240   1.308   3.017  24.910
 5204SOL    HW227241   1.268   2.921  24.799
 5205SOL     OW27242   4.014   1.545  27.003
 5205SOL    HW127243   4.081   1.613  26.999
 5205SOL    HW227244   3.961   1.567  27.079
 5206SOL     OW27245   0.384   1.484   1.805
 5206SOL    HW127246   0.361   1.519   1.891
 5206SOL    HW227247   0.388   1.389   1.818
 5207SOL     OW27248   0.640   0.925   8.193
 5207SOL    HW127249   0.606   0.836   8.182
 5207SOL    HW227250   0.606   0.973   8.117
 5208SOL     OW27251   1.059   4.250   1.619
 5208SOL    HW127252   1.101   4.172   1.656
 5208SOL    HW227253   0.984   4.267   1.677
 5209SOL     OW27254   2.695   2.758  11.394
 5209SOL    HW127255   2.619   2.707  11.366
 5209SOL    HW227256   2.768   2.696  11.391
 5210SOL     OW27257   4.717   1.186  20.310
 5210SOL    HW127258   4.663   1.216  20.383
 5210SOL    HW227259   0.026   1.187  20.344
 5211SOL     OW27260   0.685   3.586  19.985
 5211SOL    HW127261   0.634   3.591  19.904
 5211SOL    HW227262   0.677   3.673  20.024
 5212SOL     OW27263   4.727   4.285  19.087
 5212SOL    HW127264   0.023   4.334  19.057
 5212SOL    HW227265   4.693   4.244  19.008
 5213SOL     OW27266   4.420   2.219  18.303
 5213SOL    HW127267   4.471   2.162  18.245
 5213SOL    HW227268   4.484   2.280  18.339
 5214SOL     OW27269   3.676   4.107  26.608
 5214SOL    HW127270   3.587   4.123  26.577
 5214SOL    HW227271   3.709   4.194  26.630
 5215SOL     OW27272   1.959   0.982  17.201
 5215SOL    HW127273   1.887   0.934  17.160
 5215SOL    HW227274   1.916   1.050  17.252
 5216SOL     OW27275   2.080   4.123  25.051
 5216SOL    HW127276   2.050   4.191  24.990
 5216SOL    HW227277   2.173   4.112  25.032
 5217SOL     OW27278   0.844   4.485   8.240
 5217SOL    HW127279   0.752   4.487   8.266
 5217SOL    HW227280   0.879   4.570   8.268
 5218SOL     OW27281   4.675   3.876  27.272
 5218SOL    HW127282   4.609   3.944  27.258
 5218SOL    HW227283   4.693   3.880  27.366
 5219SOL     OW27284   0.301   3.213  17.894
 5219SOL    HW127285   0.337   3.169  17.817
 5219SOL    HW227286   0.370   3.273  17.923
 5220SOL     OW27287   0.350   3.071  21.034
 5220SOL    HW127288   0.441   3.053  21.058
 5220SOL    HW227289   0.322   3.137  21.098
 5221SOL     OW27290   4.012   0.395  22.511
 5221SOL    HW127291   4.095   0.441  22.523
 5221SOL    HW227292   4.012   0.327  22.579
 5222SOL     OW27293   1.273   4.452  19.656
 5222SOL    HW127294   1.359   4.429  19.620
 5222SOL    HW227295   1.214   4.449  19.581
 5223SOL     OW27296   3.770   0.086  10.647
 5223SOL    HW127297   3.855   0.122  10.622
 5223SOL    HW227298   3.750   0.128  10.731
 5224SOL     OW27299   1.261   1.452   5.709
 5224SOL    HW127300   1.312   1.372   5.696
 5224SOL    HW227301   1.303   1.516   5.652
 5225SOL     OW27302   4.712   3.804   7.522
 5225SOL    HW127303   4.727   3.855   7.442
 5225SOL    HW227304   4.635   3.750   7.502
 5226SOL     OW27305   1.227   2.207   0.333
 5226SOL    HW127306   1.174   2.252   0.267
 5226SOL    HW227307   1.291   2.272   0.361
 5227SOL     OW27308   3.663   2.268  17.880
 5227SOL    HW127309   3.754   2.269  17.909
 5227SOL    HW227310   3.643   2.360  17.861
 5228SOL     OW27311   2.031   3.579   8.911
 5228SOL    HW127312   2.123   3.555   8.918
 5228SOL    HW227313   1.987   3.497   8.889
 5229SOL     OW27314   1.316   1.760   3.656
 5229SOL    HW127315   1.406   1.766   3.686
 5229SOL    HW227316   1.267   1.819   3.713
 5230SOL     OW27317   4.780   1.384   2.184
 5230SOL    HW127318   0.027   1.404   2.273
 5230SOL    HW227319   4.716   1.452   2.163
 5231SOL     OW27320   0.199   0.424   7.999
 5231SOL    HW127321   0.139   0.497   8.014
 5231SOL    HW227322   0.155   0.348   8.038
 5232SOL     OW27323   2.641   1.923   6.810
 5232SOL    HW127324   2.609   1.934   6.721
 5232SOL    HW227325   2.574   1.870   6.853
 5233SOL     OW27326   2.317   3.683   1.832
 5233SOL    HW127327   2.265   3.631   1.894
 5233SOL    HW227328   2.265   3.762   1.817
 5234SOL     OW27329   2.555   2.589  22.692
 5234SOL    HW127330   2.537   2.623  22.604
 5234SOL    HW227331   2.494   2.517  22.703
 5235SOL     OW27332   1.426   3.910   6.177
 5235SOL    HW127333   1.479   3.867   6.110
 5235SOL    HW227334   1.472   3.991   6.196
 5236SOL     OW27335   1.313   0.910  25.805
 5236SOL    HW127336   1.261   0.851  25.859
 5236SOL    HW227337   1.328   0.986  25.861
 5237SOL     OW27338   0.946   0.308  22.035
 5237SOL    HW127339   0.985   0.249  22.100
 5237SOL    HW227340   1.021   0.341  21.985
 5238SOL     OW27341   0.001   4.612   5.544
 5238SOL    HW127342   4.739   4.565   5.473
 5238SOL    HW227343   0.068   4.666   5.501
 5239SOL     OW27344   4.399   2.869  18.905
 5239SOL    HW127345   4.459   2.941  18.924
 5239SOL    HW227346   4.318   2.912  18.877
 5240SOL     OW27347   2.490   2.597   3.804
 5240SOL    HW127348   2.436   2.653   3.861
 5240SOL    HW227349   2.545   2.658   3.756
 5241SOL     OW27350   4.766   3.705   9.553
 5241SOL    HW127351   0.020   3.622   9.585
 5241SOL    HW227352   4.680   3.682   9.517
 5242SOL     OW27353   1.531   0.707  24.235
 5242SOL    HW127354   1.447   0.672  24.265
 5242SOL    HW227355   1.525   0.704  24.140
 5243SOL     OW27356   2.437   4.742  10.794
 5243SOL    HW127357   2.422   4.741  10.888
 5243SOL    HW227358   2.517   4.690  10.782
 5244SOL     OW27359   0.402   0.571   7.858
 5244SOL    HW127360   0.470   0.505   7.847
 5244SOL    HW227361   0.334   0.527   7.908
 5245SOL     OW27362   0.613   0.451  26.819
 5245SOL    HW127363   0.676   0.522  26.812
 5245SOL    HW227364   0.629   0.414  26.906
 5246SOL     OW27365   0.854   1.945   5.221
 5246SOL    HW127366   0.863   1.936   5.316
 5246SOL    HW227367   0.798   2.022   5.209
 5247SOL     OW27368   4.248   4.448   5.532
 5247SOL    HW127369   4.282   4.361   5.511
 5247SOL    HW227370   4.289   4.506   5.467
 5248SOL     OW27371   0.535   2.743   1.405
 5248SOL    HW127372   0.540   2.707   1.494
 5248SOL    HW227373   0.626   2.761   1.381
 5249SOL     OW27374   1.522   0.370   2.989
 5249SOL    HW127375   1.574   0.398   2.914
 5249SOL    HW227376   1.586   0.337   3.052
 5250SOL     OW27377   3.196   0.209  20.615
 5250SOL    HW127378   3.177   0.198  20.522
 5250SOL    HW227379   3.275   0.262  20.618
 5251SOL     OW27380   2.434   4.302  27.267
 5251SOL    HW127381   2.368   4.371  27.276
 5251SOL    HW227382   2.512   4.347  27.235
 5252SOL     OW27383   2.248   3.775   5.834
 5252SOL    HW127384   2.249   3.869   5.854
 5252SOL    HW227385   2.155   3.752   5.832
 5253SOL     OW27386   3.429   1.106   1.282
 5253SOL    HW127387   3.445   1.045   1.210
 5253SOL    HW227388   3.351   1.072   1.326
 5254SOL     OW27389   4.279   1.523   5.929
 5254SOL    HW127390   4.282   1.458   5.859
 5254SOL    HW227391   4.370   1.553   5.937
 5255SOL     OW27392   1.421   3.145   3.404
 5255SOL    HW127393   1.398   3.056   3.378
 5255SOL    HW227394   1.338   3.192   3.405
 5256SOL     OW27395   0.456   2.132   2.684
 5256SOL    HW127396   0.458   2.154   2.777
 5256SOL    HW227397   0.472   2.215   2.640
 5257SOL     OW27398   0.649   2.897   3.904
 5257SOL    HW127399   0.581   2.919   3.840
 5257SOL    HW227400   0.601   2.884   3.986
 5258SOL     OW27401   1.533   0.578  11.433
 5258SOL    HW127402   1.596   0.610  11.497
 5258SOL    HW227403   1.521   0.651  11.372
 5259SOL     OW27404   0.080   2.782   8.660
 5259SOL    HW127405   0.115   2.730   8.588
 5259SOL    HW227406   4.780   2.820   8.626
 5260SOL     OW27407   0.966   2.106  26.707
 5260SOL    HW127408   1.031   2.040  26.731
 5260SOL    HW227409   0.945   2.150  26.790
 5261SOL     OW27410   3.150   1.036  10.307
 5261SOL    HW127411   3.166   1.130  10.297
 5261SOL    HW227412   3.190   1.013  10.391
 5262SOL     OW27413   2.109   3.309   3.798
 5262SOL    HW127414   2.127   3.300   3.704
 5262SOL    HW227415   2.189   3.280   3.841
 5263SOL     OW27416   1.965   1.137  22.284
 5263SOL    HW127417   1.894   1.156  22.346
 5263SOL    HW227418   2.044   1.172  22.326
 5264SOL     OW27419   2.373   3.671   4.682
 5264SOL    HW127420   2.407   3.625   4.759
 5264SOL    HW227421   2.380   3.607   4.611
 5265SOL     OW27422   4.086   1.533  23.147
 5265SOL    HW127423   4.113   1.471  23.079
 5265SOL    HW227424   4.130   1.502  23.226
 5266SOL     OW27425   0.296   1.784  25.374
 5266SOL    HW127426   0.227   1.772  25.440
 5266SOL    HW227427   0.274   1.867  25.332
 5267SOL     OW27428   0.105   1.556  22.680
 5267SOL    HW127429   0.163   1.480  22.687
 5267SOL    HW227430   0.021   1.525  22.714
 5268SOL     OW27431   2.286   4.018  24.751
 5268SOL    HW127432   2.197   4.019  24.716
 5268SOL    HW227433   2.336   3.965  24.688
 5269SOL     OW27434   2.903   1.979   7.732
 5269SOL    HW127435   2.827   1.965   7.789
 5269SOL    HW227436   2.890   2.066   7.695
 5270SOL     OW27437   4.031   0.536  23.346
 5270SOL    HW127438   4.017   0.601  23.277
 5270SOL    HW227439   4.029   0.586  23.428
 5271SOL     OW27440   0.450   3.225  10.376
 5271SOL    HW127441   0.499   3.159  10.328
 5271SOL    HW227442   0.381   3.253  10.316
 5272SOL     OW27443   3.661   1.823  25.582
 5272SOL    HW127444   3.657   1.884  25.508
 5272SOL    HW227445   3.749   1.835  25.618
 5273SOL     OW27446   1.408   3.855  28.109
 5273SOL    HW127447   1.427   3.817  28.195
 5273SOL    HW227448   1.428   3.948  28.119
 5274SOL     OW27449   0.631   1.141   6.176
 5274SOL    HW127450   0.648   1.231   6.203
 5274SOL    HW227451   0.673   1.133   6.090
 5275SOL     OW27452   0.976   1.592  23.067
 5275SOL    HW127453   1.046   1.652  23.094
 5275SOL    HW227454   1.016   1.539  22.997
 5276SOL     OW27455   1.185   2.069  24.204
 5276SOL    HW127456   1.167   2.160  24.226
 5276SOL    HW227457   1.277   2.069  24.176
 5277SOL     OW27458   4.378   3.836   7.289
 5277SOL    HW127459   4.401   3.863   7.200
 5277SOL    HW227460   4.283   3.829   7.289
 5278SOL     OW27461   0.613   2.288  25.492
 5278SOL    HW127462   0.663   2.368  25.510
 5278SOL    HW227463   0.522   2.316  25.492
 5279SOL     OW27464   2.475   3.927  23.297
 5279SOL    HW127465   2.518   4.001  23.255
 5279SOL    HW227466   2.542   3.889  23.353
 5280SOL     OW27467   0.312   2.974  20.776
 5280SOL    HW127468   0.352   3.018  20.701
 5280SOL    HW227469   0.332   3.031  20.850
 5281SOL     OW27470   2.126   3.392   2.296
 5281SOL    HW127471   2.063   3.406   2.225
 5281SOL    HW227472   2.170   3.310   2.273
 5282SOL     OW27473   4.297   1.399   8.423
 5282SOL    HW127474   4.348   1.452   8.362
 5282SOL    HW227475   4.350   1.321   8.437
 5283SOL     OW27476   3.716   4.165   9.257
 5283SOL    HW127477   3.629   4.199   9.237
 5283SOL    HW227478   3.712   4.141   9.350
 5284SOL     OW27479   0.860   2.213   0.017
 5284SOL    HW127480   0.827   2.173  28.459
 5284SOL    HW227481   0.895   2.139   0.067
 5285SOL     OW27482   4.732   0.219   9.674
 5285SOL    HW127483   4.687   0.186   9.596
 5285SOL    HW227484   4.753   0.310   9.653
 5286SOL     OW27485   1.903   2.984   2.939
 5286SOL    HW127486   1.912   2.957   3.030
 5286SOL    HW227487   1.979   2.946   2.895
 5287SOL     OW27488   2.347   0.098  26.891
 5287SOL    HW127489   2.348   0.095  26.987
 5287SOL    HW227490   2.278   0.161  26.870
 5288SOL     OW27491   4.222   3.897  23.166
 5288SOL    HW127492   4.167   3.971  23.193
 5288SOL    HW227493   4.179   3.864  23.087
 5289SOL     OW27494   4.209   0.762  18.388
 5289SOL    HW127495   4.175   0.673  18.379
 5289SOL    HW227496   4.198   0.782  18.481
 5290SOL     OW27497   3.775   0.573  24.466
 5290SOL    HW127498   3.753   0.589  24.558
 5290SOL    HW227499   3.709   0.621  24.416
 5291SOL     OW27500   3.464   0.078   9.509
 5291SOL    HW127501   3.530   0.139   9.477
 5291SOL    HW227502   3.416   0.127   9.575
 5292SOL     OW27503   0.176   1.933  21.787
 5292SOL    HW127504   0.214   1.852  21.821
 5292SOL    HW227505   0.165   1.988  21.865
 5293SOL     OW27506   0.278   2.218  28.434
 5293SOL    HW127507   0.223   2.140  28.428
 5293SOL    HW227508   0.216   2.291  28.436
 5294SOL     OW27509   1.012   3.109   3.167
 5294SOL    HW127510   0.925   3.146   3.153
 5294SOL    HW227511   1.022   3.044   3.097
 5295SOL     OW27512   3.359   0.262  10.969
 5295SOL    HW127513   3.350   0.224  11.057
 5295SOL    HW227514   3.449   0.242  10.943
 5296SOL     OW27515   3.809   3.964  21.799
 5296SOL    HW127516   3.856   3.897  21.848
 5296SOL    HW227517   3.820   4.044  21.851
 5297SOL     OW27518   0.054   2.022   4.625
 5297SOL    HW127519   0.017   1.971   4.553
 5297SOL    HW227520   0.148   2.004   4.621
 5298SOL     OW27521   0.206   0.390   3.762
 5298SOL    HW127522   0.196   0.412   3.855
 5298SOL    HW227523   0.148   0.451   3.717
 5299SOL     OW27524   0.891   2.341   5.304
 5299SOL    HW127525   0.888   2.429   5.340
 5299SOL    HW227526   0.874   2.284   5.379
 5300SOL     OW27527   1.552   0.443  19.291
 5300SOL    HW127528   1.556   0.405  19.379
 5300SOL    HW227529   1.608   0.386  19.238
 5301SOL     OW27530   3.435   2.122  18.837
 5301SOL    HW127531   3.505   2.164  18.887
 5301SOL    HW227532   3.475   2.102  18.752
 5302SOL     OW27533   2.759   3.487  22.328
 5302SOL    HW127534   2.732   3.401  22.360
 5302SOL    HW227535   2.697   3.548  22.368
 5303SOL     OW27536   4.148   3.333   2.147
 5303SOL    HW127537   4.232   3.374   2.125
 5303SOL    HW227538   4.110   3.310   2.062
 5304SOL     OW27539   4.615   1.739  25.621
 5304SOL    HW127540   4.659   1.705  25.699
 5304SOL    HW227541   4.621   1.834  25.630
 5305SOL     OW27542   4.523   1.622  22.448
 5305SOL    HW127543   4.474   1.542  22.432
 5305SOL    HW227544   4.568   1.640  22.365
 5306SOL     OW27545   0.540   0.093  26.029
 5306SOL    HW127546   0.580   0.177  26.006
 5306SOL    HW227547   0.447   0.105  26.009
 5307SOL     OW27548   0.733   2.330  25.052
 5307SOL    HW127549   0.731   2.235  25.064
 5307SOL    HW227550   0.648   2.350  25.012
 5308SOL     OW27551   3.222   1.772  18.549
 5308SOL    HW127552   3.182   1.844  18.501
 5308SOL    HW227553   3.256   1.714  18.481
 5309SOL     OW27554   0.890   1.637   2.513
 5309SOL    HW127555   0.979   1.613   2.540
 5309SOL    HW227556   0.900   1.723   2.472
 5310SOL     OW27557   0.173   2.690  20.734
 5310SOL    HW127558   0.197   2.773  20.776
 5310SOL    HW227559   0.079   2.680  20.751
 5311SOL     OW27560   3.737   3.519  27.038
 5311SOL    HW127561   3.825   3.557  27.029
 5311SOL    HW227562   3.719   3.479  26.953
 5312SOL     OW27563   0.378   2.957  27.299
 5312SOL    HW127564   0.432   3.019  27.250
 5312SOL    HW227565   0.319   3.012  27.351
 5313SOL     OW27566   3.069   0.553  10.075
 5313SOL    HW127567   3.075   0.460  10.055
 5313SOL    HW227568   3.075   0.597   9.990
 5314SOL     OW27569   3.940   3.078  25.439
 5314SOL    HW127570   3.991   3.094  25.518
 5314SOL    HW227571   4.000   3.030  25.381
 5315SOL     OW27572   1.594   3.909  24.594
 5315SOL    HW127573   1.630   3.822  24.575
 5315SOL    HW227574   1.499   3.896  24.594
 5316SOL     OW27575   0.300   0.701   7.288
 5316SOL    HW127576   0.274   0.735   7.374
 5316SOL    HW227577   0.358   0.628   7.307
 5317SOL     OW27578   3.310   1.736  21.245
 5317SOL    HW127579   3.246   1.749  21.175
 5317SOL    HW227580   3.334   1.644  21.239
 5318SOL     OW27581   3.391   2.098  11.923
 5318SOL    HW127582   3.329   2.068  11.856
 5318SOL    HW227583   3.433   2.018  11.955
 5319SOL     OW27584   4.180   0.942  19.830
 5319SOL    HW127585   4.179   0.988  19.746
 5319SOL    HW227586   4.180   0.849  19.806
 5320SOL     OW27587   0.752   4.555   1.128
 5320SOL    HW127588   0.661   4.566   1.101
 5320SOL    HW227589   0.800   4.543   1.046
 5321SOL     OW27590   3.277   4.152  21.824
 5321SOL    HW127591   3.355   4.163  21.770
 5321SOL    HW227592   3.210   4.119  21.764
 5322SOL     OW27593   2.448   0.758  22.818
 5322SOL    HW127594   2.354   0.778  22.817
 5322SOL    HW227595   2.489   0.835  22.779
 5323SOL     OW27596   4.288   1.061  27.425
 5323SOL    HW127597   4.340   1.082  27.502
 5323SOL    HW227598   4.211   1.117  27.432
 5324SOL     OW27599   2.681   4.307  20.739
 5324SOL    HW127600   2.718   4.395  20.734
 5324SOL    HW227601   2.708   4.274  20.825
 5325SOL     OW27602   2.057   1.577  26.555
 5325SOL    HW127603   2.091   1.665  26.537
 5325SOL    HW227604   1.964   1.581  26.531
 5326SOL     OW27605   2.881   4.051   1.696
 5326SOL    HW127606   2.801   4.000   1.710
 5326SOL    HW227607   2.905   4.035   1.605
 5327SOL     OW27608   1.344   4.743   3.370
 5327SOL    HW127609   1.411   4.727   3.436
 5327SOL    HW227610   1.262   4.745   3.419
 5328SOL     OW27611   0.303   0.550  20.707
 5328SOL    HW127612   0.249   0.543  20.786
 5328SOL    HW227613   0.334   0.640  20.707
 5329SOL     OW27614   2.269   1.881   9.269
 5329SOL    HW127615   2.272   1.892   9.174
 5329SOL    HW227616   2.356   1.849   9.292
 5330SOL     OW27617   0.678   2.589  23.555
 5330SOL    HW127618   0.696   2.595  23.461
 5330SOL    HW227619   0.706   2.673  23.591
 5331SOL     OW27620   2.799   3.006   0.301
 5331SOL    HW127621   2.776   2.970   0.387
 5331SOL    HW227622   2.812   2.929   0.245
 5332SOL     OW27623   2.886   0.650  19.140
 5332SOL    HW127624   2.885   0.739  19.176
 5332SOL    HW227625   2.817   0.651  19.073
 5333SOL     OW27626   4.336   1.041   9.869
 5333SOL    HW127627   4.361   0.994   9.789
 5333SOL    HW227628   4.247   1.012   9.887
 5334SOL     OW27629   3.781   2.926  24.122
 5334SOL    HW127630   3.771   2.839  24.084
 5334SOL    HW227631   3.800   2.983  24.047
 5335SOL     OW27632   1.654   1.076   1.669
 5335SOL    HW127633   1.688   1.104   1.754
 5335SOL    HW227634   1.702   0.996   1.650
 5336SOL     OW27635   3.873   3.028   3.487
 5336SOL    HW127636   3.888   3.104   3.544
 5336SOL    HW227637   3.943   3.033   3.422
 5337SOL     OW27638   3.078   3.865  10.067
 5337SOL    HW127639   3.153   3.873  10.009
 5337SOL    HW227640   3.034   3.950  10.062
 5338SOL     OW27641   1.295   0.329   2.199
 5338SOL    HW127642   1.375   0.381   2.202
 5338SOL    HW227643   1.226   0.390   2.225
 5339SOL     OW27644   1.929   3.804  16.838
 5339SOL    HW127645   1.882   3.878  16.800
 5339SOL    HW227646   1.876   3.778  16.913
 5340SOL     OW27647   2.173   3.135   6.511
 5340SOL    HW127648   2.097   3.194   6.514
 5340SOL    HW227649   2.229   3.164   6.583
 5341SOL     OW27650   0.101   0.482  24.320
 5341SOL    HW127651   0.049   0.507  24.397
 5341SOL    HW227652   0.045   0.505  24.245
 5342SOL     OW27653   0.153   0.494   7.182
 5342SOL    HW127654   0.155   0.527   7.272
 5342SOL    HW227655   0.172   0.571   7.128
 5343SOL     OW27656   4.727   1.593  28.152
 5343SOL    HW127657   4.683   1.639  28.081
 5343SOL    HW227658   4.695   1.503  28.146
 5344SOL     OW27659   4.317   1.022   3.025
 5344SOL    HW127660   4.250   1.018   3.093
 5344SOL    HW227661   4.279   0.974   2.951
 5345SOL     OW27662   0.448   4.284   8.202
 5345SOL    HW127663   0.362   4.325   8.190
 5345SOL    HW227664   0.433   4.217   8.269
 5346SOL     OW27665   1.158   4.227   5.927
 5346SOL    HW127666   1.171   4.181   5.844
 5346SOL    HW227667   1.063   4.228   5.939
 5347SOL     OW27668   2.618   0.337  28.320
 5347SOL    HW127669   2.578   0.266  28.371
 5347SOL    HW227670   2.569   0.415  28.344
 5348SOL     OW27671   0.397   3.036   2.405
 5348SOL    HW127672   0.349   2.989   2.473
 5348SOL    HW227673   0.413   3.123   2.442
 5349SOL     OW27674   0.004   0.896  27.132
 5349SOL    HW127675   4.760   0.911  27.041
 5349SOL    HW227676   4.717   0.940  27.183
 5350SOL     OW27677   0.447   1.177   7.298
 5350SOL    HW127678   0.396   1.228   7.361
 5350SOL    HW227679   0.382   1.142   7.237
 5351SOL     OW27680   2.924   1.915   3.411
 5351SOL    HW127681   2.834   1.921   3.442
 5351SOL    HW227682   2.943   1.821   3.411
 5352SOL     OW27683   4.698   3.775  20.475
 5352SOL    HW127684   4.775   3.825  20.447
 5352SOL    HW227685   4.717   3.752  20.566
 5353SOL     OW27686   4.391   2.807   8.548
 5353SOL    HW127687   4.468   2.801   8.491
 5353SOL    HW227688   4.417   2.867   8.618
 5354SOL     OW27689   2.150   1.164   0.967
 5354SOL    HW127690   2.114   1.239   0.921
 5354SOL    HW227691   2.245   1.177   0.963
 5355SOL     OW27692   4.251   2.069  21.543
 5355SOL    HW127693   4.168   2.024  21.561
 5355SOL    HW227694   4.301   2.062  21.624
 5356SOL     OW27695   3.840   0.569  25.981
 5356SOL    HW127696   3.780   0.562  26.056
 5356SOL    HW227697   3.785   0.550  25.905
 5357SOL     OW27698   4.188   2.322   8.346
 5357SOL    HW127699   4.278   2.288   8.344
 5357SOL    HW227700   4.153   2.291   8.429
 5358SOL     OW27701   4.465   3.920  27.002
 5358SOL    HW127702   4.437   3.963  27.083
 5358SOL    HW227703   4.386   3.880  26.967
 5359SOL     OW27704   0.426   4.699  27.403
 5359SOL    HW127705   0.519   4.699  27.425
 5359SOL    HW227706   0.384   4.660  27.480
 5360SOL     OW27707   2.562   2.034   8.590
 5360SOL    HW127708   2.635   2.029   8.651
 5360SOL    HW227709   2.495   2.085   8.636
 5361SOL     OW27710   4.367   0.466  19.496
 5361SOL    HW127711   4.391   0.409  19.569
 5361SOL    HW227712   4.317   0.537  19.536
 5362SOL     OW27713   1.301   0.125   9.389
 5362SOL    HW127714   1.379   0.077   9.417
 5362SOL    HW227715   1.328   0.170   9.309
 5363SOL     OW27716   1.334   2.763  22.127
 5363SOL    HW127717   1.396   2.830  22.156
 5363SOL    HW227718   1.371   2.681  22.159
 5364SOL     OW27719   2.958   0.494  10.350
 5364SOL    HW127720   2.867   0.468  10.339
 5364SOL    HW227721   2.994   0.429  10.411
 5365SOL     OW27722   4.276   3.292  25.726
 5365SOL    HW127723   4.206   3.339  25.682
 5365SOL    HW227724   4.292   3.342  25.806
 5366SOL     OW27725   3.307   4.148   9.942
 5366SOL    HW127726   3.374   4.154   9.874
 5366SOL    HW227727   3.302   4.055   9.962
 5367SOL     OW27728   3.242   3.558   8.963
 5367SOL    HW127729   3.277   3.542   9.051
 5367SOL    HW227730   3.205   3.474   8.936
 5368SOL     OW27731   3.983   1.634   0.537
 5368SOL    HW127732   4.013   1.695   0.604
 5368SOL    HW227733   3.990   1.683   0.455
 5369SOL     OW27734   0.232   0.416   5.041
 5369SOL    HW127735   0.245   0.496   5.093
 5369SOL    HW227736   0.201   0.351   5.104
 5370SOL     OW27737   2.320   3.232   8.246
 5370SOL    HW127738   2.244   3.264   8.199
 5370SOL    HW227739   2.386   3.301   8.236
 5371SOL     OW27740   1.043   2.879  27.053
 5371SOL    HW127741   1.094   2.923  27.121
 5371SOL    HW227742   1.106   2.821  27.010
 5372SOL     OW27743   2.953   0.892   3.679
 5372SOL    HW127744   2.919   0.830   3.614
 5372SOL    HW227745   2.951   0.844   3.762
 5373SOL     OW27746   4.611   3.372  24.493
 5373SOL    HW127747   4.521   3.352  24.466
 5373SOL    HW227748   4.625   3.318  24.571
 5374SOL     OW27749   4.347   4.377  26.728
 5374SOL    HW127750   4.328   4.449  26.788
 5374SOL    HW227751   4.287   4.307  26.755
 5375SOL     OW27752   2.415   2.477   2.660
 5375SOL    HW127753   2.359   2.527   2.601
 5375SOL    HW227754   2.361   2.462   2.738
 5376SOL     OW27755   0.807   4.581  25.734
 5376SOL    HW127756   0.838   4.505  25.783
 5376SOL    HW227757   0.720   4.555  25.702
 5377SOL     OW27758   0.116   1.536   5.614
 5377SOL    HW127759   0.092   1.574   5.699
 5377SOL    HW227760   0.108   1.442   5.627
 5378SOL     OW27761   4.128   3.131  19.985
 5378SOL    HW127762   4.221   3.155  19.981
 5378SOL    HW227763   4.089   3.175  19.910
 5379SOL     OW27764   4.008   4.010  19.641
 5379SOL    HW127765   4.031   3.976  19.555
 5379SOL    HW227766   4.051   4.095  19.645
 5380SOL     OW27767   1.017   3.460  21.482
 5380SOL    HW127768   0.944   3.435  21.425
 5380SOL    HW227769   1.020   3.391  21.548
 5381SOL     OW27770   1.366   4.491  28.302
 5381SOL    HW127771   1.308   4.416  28.290
 5381SOL    HW227772   1.441   4.456  28.349
 5382SOL     OW27773   2.916   2.210   1.934
 5382SOL    HW127774   2.899   2.282   1.995
 5382SOL    HW227775   2.986   2.242   1.878
 5383SOL     OW27776   0.374   1.305   2.908
 5383SOL    HW127777   0.288   1.347   2.909
 5383SOL    HW227778   0.376   1.257   2.825
 5384SOL     OW27779   2.892   0.734  10.214
 5384SOL    HW127780   2.814   0.684  10.189
 5384SOL    HW227781   2.862   0.825  10.216
 5385SOL     OW27782   3.011   2.477  20.524
 5385SOL    HW127783   2.980   2.526  20.600
 5385SOL    HW227784   2.931   2.443  20.483
 5386SOL     OW27785   3.529   3.404  27.563
 5386SOL    HW127786   3.515   3.498  27.553
 5386SOL    HW227787   3.624   3.393  27.564
 5387SOL     OW27788   3.515   4.309   0.019
 5387SOL    HW127789   3.468   4.327  28.460
 5387SOL    HW227790   3.577   4.381   0.028
 5388SOL     OW27791   3.452   0.263   6.048
 5388SOL    HW127792   3.538   0.245   6.009
 5388SOL    HW227793   3.411   0.177   6.057
 5389SOL     OW27794   1.260   0.005  22.370
 5389SOL    HW127795   1.315   0.080  22.349
 5389SOL    HW227796   1.256   0.004  22.466
 5390SOL     OW27797   0.814   2.726   8.141
 5390SOL    HW127798   0.803   2.821   8.143
 5390SOL    HW227799   0.756   2.697   8.071
 5391SOL     OW27800   0.801   3.947  18.706
 5391SOL    HW127801   0.828   4.013  18.769
 5391SOL    HW227802   0.883   3.908  18.675
 5392SOL     OW27803   4.476   2.841   0.819
 5392SOL    HW127804   4.406   2.840   0.754
 5392SOL    HW227805   4.475   2.930   0.854
 5393SOL     OW27806   2.704   4.104  21.272
 5393SOL    HW127807   2.629   4.095  21.330
 5393SOL    HW227808   2.759   4.029  21.292
 5394SOL     OW27809   3.305   1.478  20.937
 5394SOL    HW127810   3.398   1.496  20.951
 5394SOL    HW227811   3.275   1.548  20.879
 5395SOL     OW27812   0.138   3.482   0.932
 5395SOL    HW127813   0.094   3.550   0.983
 5395SOL    HW227814   0.168   3.527   0.853
 5396SOL     OW27815   3.232   1.122   6.067
 5396SOL    HW127816   3.154   1.178   6.062
 5396SOL    HW227817   3.303   1.181   6.091
 5397SOL     OW27818   2.672   4.288  11.217
 5397SOL    HW127819   2.753   4.331  11.190
 5397SOL    HW227820   2.646   4.335  11.296
 5398SOL     OW27821   3.230   3.212  26.886
 5398SOL    HW127822   3.139   3.221  26.913
 5398SOL    HW227823   3.255   3.125  26.916
 5399SOL     OW27824   3.062   0.733  10.438
 5399SOL    HW127825   3.128   0.792  10.474
 5399SOL    HW227826   2.991   0.734  10.503
 5400SOL     OW27827   4.048   1.782  26.644
 5400SOL    HW127828   4.088   1.706  26.602
 5400SOL    HW227829   4.120   1.843  26.658
 5401SOL     OW27830   3.237   0.525  10.312
 5401SOL    HW127831   3.321   0.567  10.293
 5401SOL    HW227832   3.260   0.435  10.334
 5402SOL     OW27833   2.205   4.666  21.739
 5402SOL    HW127834   2.120   4.629  21.762
 5402SOL    HW227835   2.219   4.736  21.802
 5403SOL     OW27836   0.348   1.311   9.217
 5403SOL    HW127837   0.407   1.237   9.228
 5403SOL    HW227838   0.272   1.290   9.271
 5404SOL     OW27839   1.056   2.049   1.163
 5404SOL    HW127840   1.025   2.121   1.108
 5404SOL    HW227841   1.099   1.990   1.102
 5405SOL     OW27842   3.190   0.791  10.194
 5405SOL    HW127843   3.274   0.769  10.153
 5405SOL    HW227844   3.206   0.876  10.235
 5406SOL     OW27845   3.302   1.634  26.046
 5406SOL    HW127846   3.366   1.648  26.116
 5406SOL    HW227847   3.353   1.598  25.973
 5407SOL     OW27848   2.062   4.475  23.171
 5407SOL    HW127849   2.128   4.413  23.200
 5407SOL    HW227850   1.983   4.422  23.158
 5408SOL     OW27851   4.180   1.715  17.029
 5408SOL    HW127852   4.178   1.634  17.080
 5408SOL    HW227853   4.208   1.687  16.942
 5409SOL     OW27854   0.876   4.715   6.411
 5409SOL    HW127855   0.962   4.678   6.429
 5409SOL    HW227856   0.887   4.764   6.329
 5410SOL     OW27857   0.968   1.351  17.832
 5410SOL    HW127858   0.929   1.390  17.754
 5410SOL    HW227859   1.057   1.327  17.806
 5411SOL     OW27860   3.938   3.652  27.642
 5411SOL    HW127861   3.873   3.716  27.613
 5411SOL    HW227862   3.955   3.675  27.733
 5412SOL     OW27863   0.786   1.761   7.701
 5412SOL    HW127864   0.837   1.841   7.714
 5412SOL    HW227865   0.851   1.692   7.687
 5413SOL     OW27866   3.888   1.955   3.675
 5413SOL    HW127867   3.850   1.947   3.587
 5413SOL    HW227868   3.973   1.912   3.668
 5414SOL     OW27869   4.772   1.731  19.468
 5414SOL    HW127870   4.760   1.755  19.560
 5414SOL    HW227871   0.086   1.735  19.455
 5415SOL     OW27872   2.002   3.721  27.335
 5415SOL    HW127873   1.986   3.768  27.417
 5415SOL    HW227874   2.027   3.789  27.272
 5416SOL     OW27875   4.688   2.748  25.709
 5416SOL    HW127876   4.611   2.805  25.712
 5416SOL    HW227877   4.663   2.671  25.760
 5417SOL     OW27878   1.800   2.857   6.830
 5417SOL    HW127879   1.885   2.821   6.805
 5417SOL    HW227880   1.739   2.783   6.822
 5418SOL     OW27881   0.970   2.330   9.463
 5418SOL    HW127882   0.965   2.367   9.375
 5418SOL    HW227883   0.880   2.308   9.485
 5419SOL     OW27884   3.416   3.079  21.846
 5419SOL    HW127885   3.500   3.050  21.810
 5419SOL    HW227886   3.357   3.080  21.771
 5420SOL     OW27887   4.222   2.314  19.752
 5420SOL    HW127888   4.140   2.309  19.704
 5420SOL    HW227889   4.206   2.380  19.820
 5421SOL     OW27890   4.736   1.167   9.828
 5421SOL    HW127891   4.717   1.256   9.859
 5421SOL    HW227892   4.662   1.115   9.858
 5422SOL     OW27893   2.262   3.411   0.188
 5422SOL    HW127894   2.167   3.423   0.193
 5422SOL    HW227895   2.280   3.339   0.248
 5423SOL     OW27896   2.042   4.570  11.465
 5423SOL    HW127897   1.951   4.542  11.466
 5423SOL    HW227898   2.092   4.490  11.448
 5424SOL     OW27899   3.188   3.837  27.876
 5424SOL    HW127900   3.153   3.833  27.787
 5424SOL    HW227901   3.170   3.751  27.913
 5425SOL     OW27902   0.032   1.116  12.074
 5425SOL    HW127903   0.089   1.112  12.151
 5425SOL    HW227904   0.003   1.026  12.061
 5426SOL     OW27905   1.103   4.618  26.381
 5426SOL    HW127906   1.151   4.539  26.356
 5426SOL    HW227907   1.120   4.679  26.309
 5427SOL     OW27908   2.549   0.877  22.336
 5427SOL    HW127909   2.539   0.839  22.249
 5427SOL    HW227910   2.490   0.825  22.391
 5428SOL     OW27911   4.772   3.857  22.380
 5428SOL    HW127912   4.691   3.822  22.417
 5428SOL    HW227913   4.763   3.952  22.388
 5429SOL     OW27914   1.238   4.252  20.525
 5429SOL    HW127915   1.301   4.240  20.454
 5429SOL    HW227916   1.185   4.172  20.523
 5430SOL     OW27917   2.362   0.549   7.875
 5430SOL    HW127918   2.454   0.574   7.879
 5430SOL    HW227919   2.362   0.459   7.843
 5431SOL     OW27920   4.229   2.434   2.981
 5431SOL    HW127921   4.244   2.436   3.076
 5431SOL    HW227922   4.314   2.410   2.944
 5432SOL     OW27923   4.608   0.014  20.553
 5432SOL    HW127924   4.663   0.029  20.476
 5432SOL    HW227925   4.643   4.715  20.592
 5433SOL     OW27926   4.297   0.245   8.632
 5433SOL    HW127927   4.319   0.330   8.670
 5433SOL    HW227928   4.271   0.191   8.707
 5434SOL     OW27929   3.864   2.971  11.358
 5434SOL    HW127930   3.881   2.993  11.450
 5434SOL    HW227931   3.900   2.883  11.348
 5435SOL     OW27932   4.464   1.529  21.645
 5435SOL    HW127933   4.529   1.519  21.575
 5435SOL    HW227934   4.487   1.461  21.709
 5436SOL     OW27935   0.868   0.846   7.894
 5436SOL    HW127936   0.869   0.836   7.989
 5436SOL    HW227937   0.852   0.758   7.861
 5437SOL     OW27938   0.151   0.198   0.925
 5437SOL    HW127939   0.146   0.294   0.929
 5437SOL    HW227940   0.092   0.168   0.994
 5438SOL     OW27941   0.567   1.958   2.417
 5438SOL    HW127942   0.639   1.987   2.474
 5438SOL    HW227943   0.543   1.872   2.451
 5439SOL     OW27944   0.021   3.942   4.432
 5439SOL    HW127945   0.001   3.930   4.339
 5439SOL    HW227946   4.757   3.870   4.476
 5440SOL     OW27947   2.945   4.579  21.858
 5440SOL    HW127948   2.891   4.570  21.936
 5440SOL    HW227949   2.907   4.653  21.811
 5441SOL     OW27950   1.248   0.494   3.076
 5441SOL    HW127951   1.343   0.498   3.085
 5441SOL    HW227952   1.225   0.574   3.029
 5442SOL     OW27953   0.765   1.316  25.285
 5442SOL    HW127954   0.754   1.398  25.237
 5442SOL    HW227955   0.784   1.343  25.375
 5443SOL     OW27956   4.394   2.017   9.366
 5443SOL    HW127957   4.300   2.006   9.382
 5443SOL    HW227958   4.403   2.109   9.340
 5444SOL     OW27959   3.394   3.866   0.238
 5444SOL    HW127960   3.358   3.863   0.149
 5444SOL    HW227961   3.481   3.904   0.228
 5445SOL     OW27962   4.613   2.395  19.000
 5445SOL    HW127963   4.562   2.335  19.053
 5445SOL    HW227964   4.619   2.475  19.053
 5446SOL     OW27965   1.303   2.255  16.393
 5446SOL    HW127966   1.297   2.164  16.364
 5446SOL    HW227967   1.355   2.299  16.326
 5447SOL     OW27968   1.823   4.279  23.794
 5447SOL    HW127969   1.913   4.253  23.815
 5447SOL    HW227970   1.775   4.266  23.876
 5448SOL     OW27971   3.669   2.009  17.760
 5448SOL    HW127972   3.703   1.921  17.745
 5448SOL    HW227973   3.732   2.067  17.717
 5449SOL     OW27974   2.649   3.881   1.496
 5449SOL    HW127975   2.708   3.824   1.447
 5449SOL    HW227976   2.584   3.822   1.533
 5450SOL     OW27977   1.130   1.690   6.226
 5450SOL    HW127978   1.123   1.780   6.257
 5450SOL    HW227979   1.194   1.694   6.155
 5451SOL     OW27980   2.229   0.673  11.610
 5451SOL    HW127981   2.249   0.710  11.696
 5451SOL    HW227982   2.134   0.679  11.603
 5452SOL     OW27983   0.402   2.985  24.744
 5452SOL    HW127984   0.446   3.039  24.809
 5452SOL    HW227985   0.335   3.042  24.706
 5453SOL     OW27986   4.216   4.377  21.885
 5453SOL    HW127987   4.189   4.291  21.852
 5453SOL    HW227988   4.226   4.365  21.979
 5454SOL     OW27989   3.914   3.977   8.911
 5454SOL    HW127990   3.909   3.939   8.999
 5454SOL    HW227991   3.977   4.048   8.919
 5455SOL     OW27992   0.901   3.031   9.963
 5455SOL    HW127993   0.898   2.956  10.022
 5455SOL    HW227994   0.962   3.092  10.004
 5456SOL     OW27995   3.804   1.027   7.558
 5456SOL    HW127996   3.824   0.999   7.469
 5456SOL    HW227997   3.883   1.073   7.587
 5457SOL     OW27998   1.897   4.161   3.158
 5457SOL    HW127999   1.893   4.065   3.154
 5457SOL    HW228000   1.886   4.189   3.067
 5458SOL     OW28001   3.572   4.295   5.536
 5458SOL    HW128002   3.667   4.303   5.547
 5458SOL    HW228003   3.547   4.222   5.593
 5459SOL     OW28004   1.425   4.676   6.865
 5459SOL    HW128005   1.462   4.593   6.834
 5459SOL    HW228006   1.457   4.684   6.955
 5460SOL     OW28007   0.425   0.149   2.041
 5460SOL    HW128008   0.390   0.089   1.976
 5460SOL    HW228009   0.358   0.217   2.050
 5461SOL     OW28010   2.388   3.826  25.142
 5461SOL    HW128011   2.325   3.756  25.125
 5461SOL    HW228012   2.472   3.782  25.149
 5462SOL     OW28013   3.335   1.926  16.949
 5462SOL    HW128014   3.424   1.926  16.914
 5462SOL    HW228015   3.281   1.895  16.876
 5463SOL     OW28016   2.807   1.828   4.768
 5463SOL    HW128017   2.746   1.848   4.839
 5463SOL    HW228018   2.769   1.752   4.725
 5464SOL     OW28019   1.263   2.336  26.434
 5464SOL    HW128020   1.169   2.323  26.423
 5464SOL    HW228021   1.297   2.343  26.345
 5465SOL     OW28022   1.390   2.102  28.300
 5465SOL    HW128023   1.394   2.032  28.365
 5465SOL    HW228024   1.314   2.080  28.246
 5466SOL     OW28025   1.656   1.268  25.564
 5466SOL    HW128026   1.565   1.259  25.536
 5466SOL    HW228027   1.685   1.178  25.579
 5467SOL     OW28028   2.621   3.745   6.738
 5467SOL    HW128029   2.717   3.747   6.735
 5467SOL    HW228030   2.600   3.726   6.829
 5468SOL     OW28031   0.896   3.155   5.740
 5468SOL    HW128032   0.857   3.070   5.719
 5468SOL    HW228033   0.822   3.215   5.745
 5469SOL     OW28034   2.398   4.261  22.238
 5469SOL    HW128035   2.379   4.316  22.314
 5469SOL    HW228036   2.315   4.258  22.190
 5470SOL     OW28037   2.086   0.938  23.646
 5470SOL    HW128038   1.997   0.969  23.662
 5470SOL    HW228039   2.087   0.848  23.680
 5471SOL     OW28040   0.422   1.829   7.329
 5471SOL    HW128041   0.486   1.779   7.379
 5471SOL    HW228042   0.346   1.836   7.387
 5472SOL     OW28043   2.317   1.618  21.110
 5472SOL    HW128044   2.321   1.687  21.044
 5472SOL    HW228045   2.361   1.655  21.186
 5473SOL     OW28046   0.645   1.702   3.166
 5473SOL    HW128047   0.637   1.701   3.071
 5473SOL    HW228048   0.712   1.768   3.183
 5474SOL     OW28049   4.567   1.407   1.883
 5474SOL    HW128050   4.529   1.337   1.936
 5474SOL    HW228051   4.536   1.488   1.924
 5475SOL     OW28052   0.810   3.524  23.657
 5475SOL    HW128053   0.798   3.613  23.625
 5475SOL    HW228054   0.740   3.474  23.615
 5476SOL     OW28055   4.781   3.252   0.953
 5476SOL    HW128056   0.070   3.317   0.946
 5476SOL    HW228057   0.025   3.183   0.892
 5477SOL     OW28058   4.472   4.391  22.866
 5477SOL    HW128059   4.469   4.325  22.797
 5477SOL    HW228060   4.386   4.387  22.907
 5478SOL     OW28061   0.147   4.202   6.792
 5478SOL    HW128062   0.097   4.168   6.718
 5478SOL    HW228063   0.200   4.272   6.754
 5479SOL     OW28064   4.573   0.370   4.138
 5479SOL    HW128065   4.526   0.410   4.065
 5479SOL    HW228066   4.606   0.444   4.189
 5480SOL     OW28067   0.980   1.372  24.963
 5480SOL    HW128068   0.965   1.307  24.894
 5480SOL    HW228069   0.924   1.446  24.939
 5481SOL     OW28070   2.432   1.207   5.482
 5481SOL    HW128071   2.405   1.156   5.558
 5481SOL    HW228072   2.489   1.148   5.433
 5482SOL     OW28073   1.015   0.002  20.121
 5482SOL    HW128074   0.924   4.766  20.146
 5482SOL    HW228075   1.020   4.758  20.029
 5483SOL     OW28076   3.584   1.059   0.275
 5483SOL    HW128077   3.541   0.979   0.306
 5483SOL    HW228078   3.626   1.096   0.353
 5484SOL     OW28079   3.082   1.569  10.038
 5484SOL    HW128080   3.035   1.494  10.075
 5484SOL    HW228081   3.174   1.542  10.039
 5485SOL     OW28082   2.222   4.685  26.327
 5485SOL    HW128083   2.138   4.639  26.330
 5485SOL    HW228084   2.283   4.627  26.372
 5486SOL     OW28085   0.185   3.450  25.725
 5486SOL    HW128086   0.106   3.397  25.716
 5486SOL    HW228087   0.162   3.518  25.788
 5487SOL     OW28088   3.531   3.228  24.278
 5487SOL    HW128089   3.488   3.256  24.359
 5487SOL    HW228090   3.598   3.295  24.262
 5488SOL     OW28091   2.958   0.895   1.885
 5488SOL    HW128092   2.900   0.854   1.950
 5488SOL    HW228093   2.902   0.911   1.809
 5489SOL     OW28094   3.866   3.493   4.256
 5489SOL    HW128095   3.921   3.509   4.333
 5489SOL    HW228096   3.927   3.461   4.189
 5490SOL     OW28097   2.867   0.832   6.631
 5490SOL    HW128098   2.845   0.759   6.573
 5490SOL    HW228099   2.848   0.800   6.719
 5491SOL     OW28100   1.993   2.038   4.886
 5491SOL    HW128101   1.997   2.040   4.982
 5491SOL    HW228102   2.084   2.026   4.859
 5492SOL     OW28103   0.264   1.940   2.852
 5492SOL    HW128104   0.352   1.942   2.815
 5492SOL    HW228105   0.277   1.952   2.946
 5493SOL     OW28106   4.205   0.976   5.842
 5493SOL    HW128107   4.114   0.959   5.819
 5493SOL    HW228108   4.224   0.916   5.914
 5494SOL     OW28109   0.534   2.278  24.742
 5494SOL    HW128110   0.595   2.335  24.695
 5494SOL    HW228111   0.484   2.338  24.798
 5495SOL     OW28112   2.184   0.489   7.271
 5495SOL    HW128113   2.144   0.561   7.223
 5495SOL    HW228114   2.236   0.531   7.340
 5496SOL     OW28115   3.581   0.919  27.771
 5496SOL    HW128116   3.646   0.916  27.841
 5496SOL    HW228117   3.632   0.913  27.690
 5497SOL     OW28118   1.100   4.372  25.257
 5497SOL    HW128119   1.122   4.465  25.263
 5497SOL    HW228120   1.079   4.359  25.165
 5498SOL     OW28121   0.660   2.900  23.892
 5498SOL    HW128122   0.581   2.925  23.940
 5498SOL    HW228123   0.665   2.805  23.903
 5499SOL     OW28124   3.364   3.749  22.055
 5499SOL    HW128125   3.347   3.789  22.140
 5499SOL    HW228126   3.459   3.748  22.048
 5500SOL     OW28127   2.244   1.104  25.917
 5500SOL    HW128128   2.224   1.015  25.887
 5500SOL    HW228129   2.262   1.153  25.837
 5501SOL     OW28130   3.919   4.567  25.620
 5501SOL    HW128131   3.963   4.643  25.657
 5501SOL    HW228132   3.982   4.495  25.631
 5502SOL     OW28133   2.831   0.447  28.450
 5502SOL    HW128134   2.776   0.398  28.389
 5502SOL    HW228135   2.769   0.497  28.503
 5503SOL     OW28136   1.261   2.346   4.480
 5503SOL    HW128137   1.341   2.315   4.438
 5503SOL    HW228138   1.264   2.441   4.470
 5504SOL     OW28139   0.162   3.694   6.968
 5504SOL    HW128140   0.134   3.785   6.957
 5504SOL    HW228141   0.163   3.680   7.063
 5505SOL     OW28142   2.504   0.504  12.976
 5505SOL    HW128143   2.566   0.463  13.037
 5505SOL    HW228144   2.552   0.579  12.941
 5506SOL     OW28145   2.524   2.174  10.563
 5506SOL    HW128146   2.522   2.079  10.555
 5506SOL    HW228147   2.521   2.205  10.473
 5507SOL     OW28148   3.089   3.086  23.608
 5507SOL    HW128149   3.164   3.045  23.565
 5507SOL    HW228150   3.115   3.178  23.619
 5508SOL     OW28151   3.938   0.990   4.049
 5508SOL    HW128152   3.859   0.960   4.004
 5508SOL    HW228153   3.906   1.022   4.133
 5509SOL     OW28154   2.753   4.294   9.637
 5509SOL    HW128155   2.691   4.222   9.627
 5509SOL    HW228156   2.824   4.258   9.690
 5510SOL     OW28157   3.857   1.308  23.465
 5510SOL    HW128158   3.784   1.254  23.495
 5510SOL    HW228159   3.816   1.390  23.438
 5511SOL     OW28160   2.983   4.754   1.157
 5511SOL    HW128161   2.985   0.068   1.170
 5511SOL    HW228162   3.052   4.720   1.214
 5512SOL     OW28163   1.315   0.553  25.988
 5512SOL    HW128164   1.257   0.629  25.991
 5512SOL    HW228165   1.402   0.589  25.969
 5513SOL     OW28166   2.604   1.564  25.231
 5513SOL    HW128167   2.519   1.560  25.274
 5513SOL    HW228168   2.612   1.655  25.202
 5514SOL     OW28169   2.768   0.167  27.713
 5514SOL    HW128170   2.810   0.121  27.786
 5514SOL    HW228171   2.689   0.206  27.752
 5515SOL     OW28172   2.460   1.760  21.352
 5515SOL    HW128173   2.390   1.819  21.325
 5515SOL    HW228174   2.473   1.780  21.445
 5516SOL     OW28175   3.637   3.538  18.144
 5516SOL    HW128176   3.646   3.525  18.050
 5516SOL    HW228177   3.721   3.575  18.172
 5517SOL     OW28178   3.432   2.188  17.735
 5517SOL    HW128179   3.352   2.152  17.697
 5517SOL    HW228180   3.451   2.265  17.682
 5518SOL     OW28181   2.466   4.058  20.424
 5518SOL    HW128182   2.525   4.000  20.473
 5518SOL    HW228183   2.422   4.110  20.491
 5519SOL     OW28184   2.940   0.076   4.043
 5519SOL    HW128185   2.972   4.773   4.075
 5519SOL    HW228186   2.878   0.054   3.974
 5520SOL     OW28187   4.284   3.476   1.532
 5520SOL    HW128188   4.222   3.520   1.590
 5520SOL    HW228189   4.323   3.547   1.481
 5521SOL     OW28190   3.938   2.078  24.556
 5521SOL    HW128191   4.000   2.033  24.499
 5521SOL    HW228192   3.859   2.089  24.503
 5522SOL     OW28193   2.116   1.417  20.312
 5522SOL    HW128194   2.074   1.498  20.340
 5522SOL    HW228195   2.084   1.351  20.374
 5523SOL     OW28196   0.905   4.103  25.268
 5523SOL    HW128197   0.963   4.111  25.344
 5523SOL    HW228198   0.874   4.192  25.252
 5524SOL     OW28199   2.336   0.196   5.919
 5524SOL    HW128200   2.421   0.206   5.876
 5524SOL    HW228201   2.274   0.239   5.861
 5525SOL     OW28202   0.209   3.957  23.572
 5525SOL    HW128203   0.292   3.928  23.535
 5525SOL    HW228204   0.196   4.045  23.537
 5526SOL     OW28205   0.393   3.284   2.508
 5526SOL    HW128206   0.390   3.357   2.447
 5526SOL    HW228207   0.395   3.325   2.595
 5527SOL     OW28208   4.624   2.006  25.625
 5527SOL    HW128209   4.586   2.051  25.550
 5527SOL    HW228210   4.696   2.063  25.653
 5528SOL     OW28211   3.668   4.025   2.116
 5528SOL    HW128212   3.611   4.074   2.175
 5528SOL    HW228213   3.753   4.070   2.121
 5529SOL     OW28214   0.167   2.411   7.941
 5529SOL    HW128215   0.106   2.467   7.893
 5529SOL    HW228216   0.123   2.393   8.024
 5530SOL     OW28217   0.537   0.345  20.667
 5530SOL    HW128218   0.560   0.333  20.759
 5530SOL    HW228219   0.458   0.398  20.669
 5531SOL     OW28220   3.683   4.652   5.890
 5531SOL    HW128221   3.651   4.666   5.979
 5531SOL    HW228222   3.617   4.692   5.834
 5532SOL     OW28223   3.419   3.327  23.704
 5532SOL    HW128224   3.398   3.362  23.617
 5532SOL    HW228225   3.334   3.304  23.742
 5533SOL     OW28226   0.212   0.717  18.644
 5533SOL    HW128227   0.303   0.694  18.626
 5533SOL    HW228228   0.168   0.708  18.560
 5534SOL     OW28229   0.086   3.295  24.139
 5534SOL    HW128230   0.099   3.334  24.053
 5534SOL    HW228231   4.772   3.281  24.145
 5535SOL     OW28232   2.176   3.650  27.882
 5535SOL    HW128233   2.123   3.613  27.953
 5535SOL    HW228234   2.225   3.575  27.847
 5536SOL     OW28235   3.803   4.443   9.309
 5536SOL    HW128236   3.820   4.419   9.400
 5536SOL    HW228237   3.766   4.364   9.270
 5537SOL     OW28238   3.458   4.005  22.661
 5537SOL    HW128239   3.478   4.004  22.755
 5537SOL    HW228240   3.376   3.956  22.653
 5538SOL     OW28241   4.426   0.859   3.203
 5538SOL    HW128242   4.377   0.907   3.136
 5538SOL    HW228243   4.384   0.884   3.286
 5539SOL     OW28244   1.457   3.911   1.449
 5539SOL    HW128245   1.367   3.943   1.442
 5539SOL    HW228246   1.449   3.820   1.477
 5540SOL     OW28247   1.964   4.521   0.261
 5540SOL    HW128248   2.053   4.487   0.271
 5540SOL    HW228249   1.921   4.460   0.201
 5541SOL     OW28250   3.093   3.615   1.334
 5541SOL    HW128251   3.146   3.644   1.408
 5541SOL    HW228252   3.153   3.617   1.260
 5542SOL     OW28253   1.091   1.908  20.896
 5542SOL    HW128254   1.106   2.002  20.884
 5542SOL    HW228255   1.019   1.887  20.837
 5543SOL     OW28256   0.943   4.246  19.508
 5543SOL    HW128257   0.982   4.175  19.457
 5543SOL    HW228258   0.850   4.223  19.514
 5544SOL     OW28259   2.045   3.254   0.117
 5544SOL    HW128260   1.966   3.267   0.065
 5544SOL    HW228261   2.116   3.252   0.053
 5545SOL     OW28262   2.606   0.757  19.101
 5545SOL    HW128263   2.619   0.832  19.159
 5545SOL    HW228264   2.605   0.682  19.160
 5546SOL     OW28265   3.596   1.473   1.517
 5546SOL    HW128266   3.548   1.408   1.569
 5546SOL    HW228267   3.563   1.461   1.428
 5547SOL     OW28268   0.831   0.457   2.022
 5547SOL    HW128269   0.737   0.437   2.021
 5547SOL    HW228270   0.839   0.539   1.973
 5548SOL     OW28271   1.670   0.262   8.821
 5548SOL    HW128272   1.752   0.292   8.861
 5548SOL    HW228273   1.675   0.166   8.826
 5549SOL     OW28274   0.971   2.545  19.088
 5549SOL    HW128275   1.017   2.588  19.016
 5549SOL    HW228276   0.993   2.598  19.165
 5550SOL     OW28277   2.573   4.450   7.133
 5550SOL    HW128278   2.658   4.455   7.090
 5550SOL    HW228279   2.510   4.452   7.061
 5551SOL     OW28280   0.305   0.418  23.487
 5551SOL    HW128281   0.241   0.422  23.558
 5551SOL    HW228282   0.388   0.401  23.531
 5552SOL     OW28283   1.294   1.219   2.724
 5552SOL    HW128284   1.260   1.276   2.793
 5552SOL    HW228285   1.242   1.241   2.646
 5553SOL     OW28286   4.507   4.076  28.001
 5553SOL    HW128287   4.540   3.987  27.987
 5553SOL    HW228288   4.554   4.130  27.938
 5554SOL     OW28289   2.066   3.293   8.084
 5554SOL    HW128290   2.048   3.351   8.010
 5554SOL    HW228291   2.029   3.209   8.059
 5555SOL     OW28292   2.563   4.652  26.202
 5555SOL    HW128293   2.630   4.707  26.161
 5555SOL    HW228294   2.482   4.701  26.191
 5556SOL     OW28295   4.166   3.132   3.004
 5556SOL    HW128296   4.123   3.198   2.950
 5556SOL    HW228297   4.118   3.051   2.986
 5557SOL     OW28298   1.673   1.268  20.066
 5557SOL    HW128299   1.717   1.323  20.131
 5557SOL    HW228300   1.718   1.288  19.984
 5558SOL     OW28301   1.142   4.008  23.520
 5558SOL    HW128302   1.219   4.000  23.577
 5558SOL    HW228303   1.164   4.078  23.459
 5559SOL     OW28304   0.085   2.017  24.200
 5559SOL    HW128305   0.030   1.962  24.257
 5559SOL    HW228306   0.052   2.001  24.112
 5560SOL     OW28307   1.290   1.125  24.581
 5560SOL    HW128308   1.218   1.132  24.518
 5560SOL    HW228309   1.332   1.211  24.580
 5561SOL     OW28310   2.732   1.140   5.877
 5561SOL    HW128311   2.689   1.055   5.871
 5561SOL    HW228312   2.672   1.200   5.834
 5562SOL     OW28313   1.913   0.100  27.785
 5562SOL    HW128314   1.828   0.097  27.828
 5562SOL    HW228315   1.893   0.122  27.694
 5563SOL     OW28316   0.548   3.416   4.314
 5563SOL    HW128317   0.640   3.443   4.308
 5563SOL    HW228318   0.548   3.347   4.380
 5564SOL     OW28319   3.964   3.066   7.119
 5564SOL    HW128320   4.031   3.006   7.152
 5564SOL    HW228321   3.881   3.025   7.145
 5565SOL     OW28322   2.372   4.124   5.945
 5565SOL    HW128323   2.401   4.055   6.005
 5565SOL    HW228324   2.319   4.183   5.999
 5566SOL     OW28325   0.237   1.527   0.827
 5566SOL    HW128326   0.300   1.501   0.760
 5566SOL    HW228327   0.260   1.473   0.903
 5567SOL     OW28328   0.047   0.495   9.092
 5567SOL    HW128329   0.050   0.590   9.079
 5567SOL    HW228330   0.108   0.460   9.027
 5568SOL     OW28331   0.394   1.506  19.638
 5568SOL    HW128332   0.396   1.458  19.555
 5568SOL    HW228333   0.307   1.488  19.673
 5569SOL     OW28334   0.532   1.912  26.663
 5569SOL    HW128335   0.551   1.922  26.756
 5569SOL    HW228336   0.522   1.818  26.650
 5570SOL     OW28337   0.749   2.515   9.439
 5570SOL    HW128338   0.730   2.509   9.533
 5570SOL    HW228339   0.736   2.607   9.418
 5571SOL     OW28340   0.043   0.277  17.608
 5571SOL    HW128341   0.076   0.294  17.520
 5571SOL    HW228342   4.740   0.232  17.594
 5572SOL     OW28343   3.574   1.044   3.095
 5572SOL    HW128344   3.623   1.042   3.013
 5572SOL    HW228345   3.488   1.079   3.071
 5573SOL     OW28346   3.321   3.155   1.305
 5573SOL    HW128347   3.381   3.147   1.379
 5573SOL    HW228348   3.331   3.245   1.275
 5574SOL     OW28349   1.592   2.655  27.795
 5574SOL    HW128350   1.548   2.739  27.787
 5574SOL    HW228351   1.669   2.663  27.738
 5575SOL     OW28352   1.967   4.476   9.834
 5575SOL    HW128353   1.907   4.475   9.908
 5575SOL    HW228354   2.000   4.566   9.830
 5576SOL     OW28355   1.448   3.298   5.919
 5576SOL    HW128356   1.542   3.292   5.904
 5576SOL    HW228357   1.417   3.360   5.852
 5577SOL     OW28358   4.219   3.748  19.847
 5577SOL    HW128359   4.306   3.727  19.881
 5577SOL    HW228360   4.203   3.683  19.779
 5578SOL     OW28361   3.598   0.749  25.761
 5578SOL    HW128362   3.642   0.828  25.793
 5578SOL    HW228363   3.666   0.701  25.714
 5579SOL     OW28364   3.733   3.890   7.906
 5579SOL    HW128365   3.780   3.822   7.858
 5579SOL    HW228366   3.799   3.928   7.964
 5580SOL     OW28367   3.280   0.597   3.085
 5580SOL    HW128368   3.244   0.589   2.996
 5580SOL    HW228369   3.374   0.587   3.074
 5581SOL     OW28370   1.126   3.849   5.344
 5581SOL    HW128371   1.186   3.906   5.297
 5581SOL    HW228372   1.093   3.903   5.416
 5582SOL     OW28373   2.518   1.748   0.735
 5582SOL    HW128374   2.475   1.796   0.806
 5582SOL    HW228375   2.494   1.796   0.656
 5583SOL     OW28376   1.790   1.795   3.597
 5583SOL    HW128377   1.736   1.862   3.638
 5583SOL    HW228378   1.738   1.765   3.522
 5584SOL     OW28379   0.096   2.839   5.893
 5584SOL    HW128380   0.042   2.835   5.972
 5584SOL    HW228381   0.185   2.825   5.925
 5585SOL     OW28382   2.950   4.122   5.173
 5585SOL    HW128383   3.028   4.131   5.118
 5585SOL    HW228384   2.973   4.166   5.255
 5586SOL     OW28385   3.061   2.049  27.093
 5586SOL    HW128386   3.084   2.141  27.108
 5586SOL    HW228387   3.144   2.002  27.097
 5587SOL     OW28388   3.418   2.200  18.015
 5587SOL    HW128389   3.360   2.272  17.992
 5587SOL    HW228390   3.374   2.156  18.088
 5588SOL     OW28391   3.799   4.715   1.244
 5588SOL    HW128392   3.724   4.670   1.284
 5588SOL    HW228393   3.863   4.645   1.229
 5589SOL     OW28394   3.541   3.823  23.860
 5589SOL    HW128395   3.528   3.757  23.929
 5589SOL    HW228396   3.517   3.778  23.779
 5590SOL     OW28397   1.616   1.655  27.974
 5590SOL    HW128398   1.697   1.640  27.925
 5590SOL    HW228399   1.566   1.716  27.919
 5591SOL     OW28400   1.286   0.363   9.559
 5591SOL    HW128401   1.301   0.308   9.482
 5591SOL    HW228402   1.217   0.423   9.532
 5592SOL     OW28403   3.619   4.521  20.909
 5592SOL    HW128404   3.685   4.530  20.841
 5592SOL    HW228405   3.614   4.427  20.925
 5593SOL     OW28406   3.503   1.602  19.716
 5593SOL    HW128407   3.413   1.580  19.692
 5593SOL    HW228408   3.532   1.661  19.647
 5594SOL     OW28409   3.606   4.627   9.445
 5594SOL    HW128410   3.692   4.634   9.404
 5594SOL    HW228411   3.582   4.717   9.467
 5595SOL     OW28412   2.247   1.429   4.152
 5595SOL    HW128413   2.205   1.513   4.172
 5595SOL    HW228414   2.174   1.372   4.127
 5596SOL     OW28415   0.955   1.399   6.896
 5596SOL    HW128416   0.926   1.480   6.854
 5596SOL    HW228417   0.874   1.358   6.926
 5597SOL     OW28418   0.823   1.501  18.859
 5597SOL    HW128419   0.890   1.531  18.797
 5597SOL    HW228420   0.856   1.418  18.892
 5598SOL     OW28421   4.178   1.747  11.441
 5598SOL    HW128422   4.209   1.790  11.361
 5598SOL    HW228423   4.239   1.675  11.454
 5599SOL     OW28424   3.423   1.930  17.898
 5599SOL    HW128425   3.349   1.910  17.955
 5599SOL    HW228426   3.460   1.845  17.875
 5600SOL     OW28427   0.751   0.321   8.228
 5600SOL    HW128428   0.827   0.268   8.204
 5600SOL    HW228429   0.681   0.288   8.172
 5601SOL     OW28430   0.225   2.493  19.169
 5601SOL    HW128431   0.196   2.570  19.121
 5601SOL    HW228432   0.180   2.499  19.253
 5602SOL     OW28433   4.599   3.085  27.523
 5602SOL    HW128434   4.636   3.151  27.581
 5602SOL    HW228435   4.596   3.006  27.576
 5603SOL     OW28436   0.590   2.032   8.648
 5603SOL    HW128437   0.528   1.972   8.690
 5603SOL    HW228438   0.572   2.117   8.687
 5604SOL     OW28439   3.098   2.356   8.927
 5604SOL    HW128440   3.091   2.444   8.890
 5604SOL    HW228441   3.185   2.326   8.900
 5605SOL     OW28442   3.917   2.941  20.544
 5605SOL    HW128443   3.838   2.888  20.539
 5605SOL    HW228444   3.977   2.901  20.481
 5606SOL     OW28445   4.286   1.919  17.179
 5606SOL    HW128446   4.251   1.851  17.121
 5606SOL    HW228447   4.333   1.978  17.120
 5607SOL     OW28448   3.378   4.006   8.341
 5607SOL    HW128449   3.319   3.933   8.360
 5607SOL    HW228450   3.417   3.984   8.256
 5608SOL     OW28451   1.736   1.039  24.087
 5608SOL    HW128452   1.800   0.975  24.117
 5608SOL    HW228453   1.770   1.070  24.003
 5609SOL     OW28454   1.994   0.426  11.536
 5609SOL    HW128455   1.967   0.486  11.606
 5609SOL    HW228456   2.088   0.443  11.526
 5610SOL     OW28457   4.076   2.146   3.807
 5610SOL    HW128458   4.043   2.058   3.787
 5610SOL    HW228459   4.033   2.203   3.743
 5611SOL     OW28460   1.742   3.267   7.949
 5611SOL    HW128461   1.700   3.292   7.867
 5611SOL    HW228462   1.834   3.293   7.938
 5612SOL     OW28463   2.309   0.599   7.515
 5612SOL    HW128464   2.331   0.521   7.566
 5612SOL    HW228465   2.275   0.661   7.579
 5613SOL     OW28466   2.942   0.078   1.472
 5613SOL    HW128467   2.980   0.031   1.546
 5613SOL    HW228468   2.865   0.122   1.508
 5614SOL     OW28469   2.733   3.657  27.048
 5614SOL    HW128470   2.773   3.741  27.026
 5614SOL    HW228471   2.658   3.680  27.104
 5615SOL     OW28472   1.149   0.173   8.610
 5615SOL    HW128473   1.112   0.085   8.616
 5615SOL    HW228474   1.244   0.159   8.613
 5616SOL     OW28475   3.511   2.440  18.550
 5616SOL    HW128476   3.490   2.533  18.548
 5616SOL    HW228477   3.579   2.433  18.617
 5617SOL     OW28478   1.640   2.793  28.037
 5617SOL    HW128479   1.634   2.700  28.013
 5617SOL    HW228480   1.549   2.821  28.045
 5618SOL     OW28481   3.644   2.029  18.045
 5618SOL    HW128482   3.628   1.939  18.075
 5618SOL    HW228483   3.680   2.074  18.122
 5619SOL     OW28484   3.226   0.716   1.457
 5619SOL    HW128485   3.184   0.711   1.543
 5619SOL    HW228486   3.161   0.758   1.401
 5620SOL     OW28487   3.044   1.894   2.837
 5620SOL    HW128488   3.105   1.848   2.895
 5620SOL    HW228489   2.966   1.908   2.890
 5621SOL     OW28490   3.635   3.119  27.423
 5621SOL    HW128491   3.655   3.152  27.335
 5621SOL    HW228492   3.568   3.179  27.456
 5622SOL     OW28493   1.790   3.876   0.899
 5622SOL    HW128494   1.741   3.852   0.821
 5622SOL    HW228495   1.723   3.890   0.966
 5623SOL     OW28496   2.589   0.741   3.440
 5623SOL    HW128497   2.649   0.807   3.476
 5623SOL    HW228498   2.574   0.680   3.512
 5624SOL     OW28499   2.369   2.389   3.262
 5624SOL    HW128500   2.396   2.480   3.252
 5624SOL    HW228501   2.440   2.349   3.313
 5625SOL     OW28502   0.317   1.956  17.259
 5625SOL    HW128503   0.295   1.882  17.315
 5625SOL    HW228504   0.292   2.033  17.311
 5626SOL     OW28505   3.673   4.595   4.181
 5626SOL    HW128506   3.744   4.583   4.118
 5626SOL    HW228507   3.613   4.523   4.164
 5627SOL     OW28508   1.561   4.033  23.125
 5627SOL    HW128509   1.584   4.077  23.207
 5627SOL    HW228510   1.552   4.104  23.062
 5628SOL     OW28511   2.412   3.894   3.909
 5628SOL    HW128512   2.501   3.862   3.923
 5628SOL    HW228513   2.418   3.989   3.922
 5629SOL     OW28514   3.412   1.425   4.953
 5629SOL    HW128515   3.473   1.456   5.020
 5629SOL    HW228516   3.332   1.406   5.001
 5630SOL     OW28517   0.439   2.509  24.535
 5630SOL    HW128518   0.394   2.585  24.498
 5630SOL    HW228519   0.525   2.543  24.560
 5631SOL     OW28520   1.202   1.402   7.050
 5631SOL    HW128521   1.154   1.390   6.968
 5631SOL    HW228522   1.166   1.483   7.087
 5632SOL     OW28523   4.731   4.269  24.092
 5632SOL    HW128524   4.768   4.224  24.016
 5632SOL    HW228525   0.014   4.255  24.162
 5633SOL     OW28526   3.710   0.993  22.708
 5633SOL    HW128527   3.646   1.053  22.670
 5633SOL    HW228528   3.666   0.956  22.785
 5634SOL     OW28529   2.762   1.192   9.371
 5634SOL    HW128530   2.747   1.121   9.434
 5634SOL    HW228531   2.821   1.154   9.306
 5635SOL     OW28532   4.759   2.897  25.934
 5635SOL    HW128533   0.056   2.952  25.944
 5635SOL    HW228534   4.725   2.918  25.847
 5636SOL     OW28535   0.294   0.853  20.773
 5636SOL    HW128536   0.337   0.886  20.852
 5636SOL    HW228537   0.210   0.819  20.804
 5637SOL     OW28538   1.963   4.223   3.619
 5637SOL    HW128539   1.877   4.265   3.620
 5637SOL    HW228540   1.999   4.244   3.533
 5638SOL     OW28541   1.454   3.679  26.193
 5638SOL    HW128542   1.455   3.585  26.208
 5638SOL    HW228543   1.379   3.693  26.135
 5639SOL     OW28544   0.393   3.334   3.774
 5639SOL    HW128545   0.424   3.376   3.854
 5639SOL    HW228546   0.462   3.350   3.710
 5640SOL     OW28547   3.153   2.228  24.701
 5640SOL    HW128548   3.142   2.256  24.610
 5640SOL    HW228549   3.246   2.207  24.708
 5641SOL     OW28550   1.335   0.575   3.778
 5641SOL    HW128551   1.287   0.494   3.792
 5641SOL    HW228552   1.280   0.643   3.817
 5642SOL     OW28553   0.293   1.057  16.980
 5642SOL    HW128554   0.355   1.008  17.034
 5642SOL    HW228555   0.319   1.149  16.991
 5643SOL     OW28556   0.575   2.087  27.630
 5643SOL    HW128557   0.655   2.092  27.683
 5643SOL    HW228558   0.606   2.068  27.541
 5644SOL     OW28559   2.810   3.008  18.138
 5644SOL    HW128560   2.903   3.005  18.114
 5644SOL    HW228561   2.808   3.057  18.220
 5645SOL     OW28562   4.730   4.535  20.279
 5645SOL    HW128563   4.636   4.552  20.278
 5645SOL    HW228564   4.744   4.482  20.358
 5646SOL     OW28565   4.107   1.628  28.057
 5646SOL    HW128566   4.056   1.585  28.126
 5646SOL    HW228567   4.054   1.618  27.978
 5647SOL     OW28568   2.366   0.139  19.284
 5647SOL    HW128569   2.285   0.178  19.317
 5647SOL    HW228570   2.350   0.125  19.191
 5648SOL     OW28571   4.154   2.324  20.125
 5648SOL    HW128572   4.089   2.301  20.058
 5648SOL    HW228573   4.108   2.314  20.208
 5649SOL     OW28574   1.432   4.658  24.264
 5649SOL    HW128575   1.473   4.690  24.344
 5649SOL    HW228576   1.371   4.590  24.293
 5650SOL     OW28577   4.263   1.766   7.143
 5650SOL    HW128578   4.207   1.694   7.113
 5650SOL    HW228579   4.267   1.825   7.068
 5651SOL     OW28580   3.954   2.071  25.543
 5651SOL    HW128581   4.025   2.111  25.593
 5651SOL    HW228582   3.877   2.125  25.561
 5652SOL     OW28583   2.840   1.046  21.547
 5652SOL    HW128584   2.756   1.004  21.528
 5652SOL    HW228585   2.833   1.133  21.509
 5653SOL     OW28586   2.353   4.500   9.344
 5653SOL    HW128587   2.376   4.593   9.343
 5653SOL    HW228588   2.369   4.473   9.434
 5654SOL     OW28589   0.848   3.734   5.333
 5654SOL    HW128590   0.928   3.732   5.385
 5654SOL    HW228591   0.850   3.820   5.290
 5655SOL     OW28592   0.893   3.655   3.216
 5655SOL    HW128593   0.948   3.698   3.151
 5655SOL    HW228594   0.953   3.630   3.286
 5656SOL     OW28595   4.135   0.466   4.707
 5656SOL    HW128596   4.210   0.412   4.730
 5656SOL    HW228597   4.080   0.465   4.785
 5657SOL     OW28598   4.546   3.731  22.477
 5657SOL    HW128599   4.452   3.747  22.470
 5657SOL    HW228600   4.561   3.653  22.423
 5658SOL     OW28601   0.992   0.182  27.893
 5658SOL    HW128602   1.076   0.141  27.913
 5658SOL    HW228603   0.961   0.215  27.977
 5659SOL     OW28604   4.252   4.135   5.854
 5659SOL    HW128605   4.190   4.062   5.854
 5659SOL    HW228606   4.321   4.108   5.915
 5660SOL     OW28607   4.038   2.181   0.641
 5660SOL    HW128608   3.956   2.216   0.607
 5660SOL    HW228609   4.064   2.113   0.578
 5661SOL     OW28610   1.605   0.378   6.823
 5661SOL    HW128611   1.649   0.317   6.882
 5661SOL    HW228612   1.527   0.331   6.793
 5662SOL     OW28613   4.419   2.459  20.297
 5662SOL    HW128614   4.401   2.432  20.387
 5662SOL    HW228615   4.359   2.407  20.244
 5663SOL     OW28616   0.437   3.445  21.338
 5663SOL    HW128617   0.409   3.526  21.295
 5663SOL    HW228618   0.437   3.466  21.431
 5664SOL     OW28619   4.749   1.963   4.874
 5664SOL    HW128620   0.019   1.973   4.794
 5664SOL    HW228621   4.765   1.872   4.901
 5665SOL     OW28622   3.767   0.276   5.070
 5665SOL    HW128623   3.733   0.344   5.128
 5665SOL    HW228624   3.693   0.217   5.057
 5666SOL     OW28625   3.752   2.397  18.697
 5666SOL    HW128626   3.696   2.440  18.762
 5666SOL    HW228627   3.799   2.330  18.746
 5667SOL     OW28628   2.071   3.755  17.637
 5667SOL    HW128629   1.989   3.753  17.588
 5667SOL    HW228630   2.123   3.683  17.600
 5668SOL     OW28631   2.768   0.838  21.158
 5668SOL    HW128632   2.689   0.888  21.180
 5668SOL    HW228633   2.743   0.787  21.081
 5669SOL     OW28634   2.722   1.284   6.612
 5669SOL    HW128635   2.734   1.368   6.568
 5669SOL    HW228636   2.675   1.305   6.692
 5670SOL     OW28637   4.560   3.419  21.020
 5670SOL    HW128638   4.502   3.495  21.021
 5670SOL    HW228639   4.521   3.359  21.083
 5671SOL     OW28640   4.061   2.294   7.199
 5671SOL    HW128641   4.139   2.244   7.175
 5671SOL    HW228642   4.045   2.271   7.290
 5672SOL     OW28643   2.384   1.023  18.086
 5672SOL    HW128644   2.443   1.073  18.142
 5672SOL    HW228645   2.313   0.997  18.144
 5673SOL     OW28646   3.060   1.951  10.179
 5673SOL    HW128647   3.137   1.944  10.123
 5673SOL    HW228648   3.096   1.958  10.268
 5674SOL     OW28649   2.359   1.996  20.273
 5674SOL    HW128650   2.316   1.915  20.246
 5674SOL    HW228651   2.352   2.053  20.197
 5675SOL     OW28652   0.372   1.252  17.760
 5675SOL    HW128653   0.296   1.256  17.818
 5675SOL    HW228654   0.361   1.170  17.711
 5676SOL     OW28655   2.654   1.719   1.562
 5676SOL    HW128656   2.697   1.803   1.547
 5676SOL    HW228657   2.712   1.655   1.521
 5677SOL     OW28658   2.476   0.137   7.775
 5677SOL    HW128659   2.520   0.052   7.768
 5677SOL    HW228660   2.451   0.144   7.867
 5678SOL     OW28661   2.788   0.091  20.830
 5678SOL    HW128662   2.709   0.073  20.780
 5678SOL    HW228663   2.756   0.131  20.911
 5679SOL     OW28664   2.397   1.644   8.703
 5679SOL    HW128665   2.476   1.697   8.712
 5679SOL    HW228666   2.326   1.701   8.733
 5680SOL     OW28667   1.121   2.786   6.594
 5680SOL    HW128668   1.078   2.852   6.648
 5680SOL    HW228669   1.090   2.703   6.629
 5681SOL     OW28670   0.314   0.859   9.683
 5681SOL    HW128671   0.284   0.932   9.737
 5681SOL    HW228672   0.314   0.784   9.742
 5682SOL     OW28673   1.260   3.289  26.655
 5682SOL    HW128674   1.218   3.355  26.600
 5682SOL    HW228675   1.350   3.321  26.666
 5683SOL     OW28676   4.585   3.629   9.879
 5683SOL    HW128677   4.637   3.570   9.934
 5683SOL    HW228678   4.649   3.689   9.841
 5684SOL     OW28679   0.348   4.154  25.080
 5684SOL    HW128680   0.404   4.223  25.117
 5684SOL    HW228681   0.316   4.106  25.156
 5685SOL     OW28682   4.064   0.939   8.970
 5685SOL    HW128683   4.147   0.981   8.948
 5685SOL    HW228684   4.073   0.914   9.062
 5686SOL     OW28685   1.279   3.771  20.932
 5686SOL    HW128686   1.314   3.787  21.020
 5686SOL    HW228687   1.184   3.780  20.943
 5687SOL     OW28688   2.807   3.788   7.688
 5687SOL    HW128689   2.890   3.748   7.716
 5687SOL    HW228690   2.825   3.882   7.686
 5688SOL     OW28691   2.594   1.748  26.564
 5688SOL    HW128692   2.656   1.819  26.550
 5688SOL    HW228693   2.554   1.767  26.649
 5689SOL     OW28694   3.304   0.866  10.482
 5689SOL    HW128695   3.354   0.807  10.539
 5689SOL    HW228696   3.369   0.926  10.446
 5690SOL     OW28697   3.918   1.962  19.946
 5690SOL    HW128698   4.000   1.993  19.984
 5690SOL    HW228699   3.900   1.880  19.992
 5691SOL     OW28700   3.206   3.089  26.575
 5691SOL    HW128701   3.175   3.104  26.664
 5691SOL    HW228702   3.228   3.176  26.542
 5692SOL     OW28703   2.736   1.605  22.603
 5692SOL    HW128704   2.733   1.632  22.511
 5692SOL    HW228705   2.728   1.510  22.600
 5693SOL     OW28706   0.834   3.618  22.818
 5693SOL    HW128707   0.784   3.590  22.895
 5693SOL    HW228708   0.769   3.660  22.761
 5694SOL     OW28709   4.684   0.993  21.385
 5694SOL    HW128710   4.747   1.002  21.313
 5694SOL    HW228711   4.674   0.898  21.396
 5695SOL     OW28712   2.479   4.432   9.073
 5695SOL    HW128713   2.565   4.437   9.115
 5695SOL    HW228714   2.494   4.466   8.985
 5696SOL     OW28715   4.344   1.917  23.321
 5696SOL    HW128716   4.350   1.998  23.371
 5696SOL    HW228717   4.257   1.882  23.341
 5697SOL     OW28718   1.286   0.483  21.636
 5697SOL    HW128719   1.281   0.470  21.541
 5697SOL    HW228720   1.250   0.571  21.650
 5698SOL     OW28721   2.642   2.490  18.797
 5698SOL    HW128722   2.712   2.527  18.744
 5698SOL    HW228723   2.593   2.566  18.829
 5699SOL     OW28724   4.444   2.785   5.985
 5699SOL    HW128725   4.494   2.806   5.906
 5699SOL    HW228726   4.508   2.791   6.056
 5700SOL     OW28727   1.251   3.211  19.852
 5700SOL    HW128728   1.289   3.252  19.774
 5700SOL    HW228729   1.269   3.273  19.923
 5701SOL     OW28730   2.843   2.871   7.122
 5701SOL    HW128731   2.881   2.789   7.155
 5701SOL    HW228732   2.782   2.843   7.054
 5702SOL     OW28733   3.596   4.620  24.290
 5702SOL    HW128734   3.568   4.694  24.344
 5702SOL    HW228735   3.630   4.556  24.352
 5703SOL     OW28736   4.050   3.101  26.344
 5703SOL    HW128737   4.058   3.191  26.311
 5703SOL    HW228738   3.956   3.082  26.338
 5704SOL     OW28739   0.088   3.407  24.404
 5704SOL    HW128740   4.775   3.415  24.419
 5704SOL    HW228741   0.095   3.377  24.313
 5705SOL     OW28742   0.208   4.104  10.408
 5705SOL    HW128743   0.243   4.125  10.495
 5705SOL    HW228744   0.132   4.049  10.425
 5706SOL     OW28745   2.638   1.207   8.098
 5706SOL    HW128746   2.629   1.302   8.109
 5706SOL    HW228747   2.709   1.183   8.157
 5707SOL     OW28748   1.209   1.683  20.414
 5707SOL    HW128749   1.204   1.763  20.466
 5707SOL    HW228750   1.196   1.712  20.324
 5708SOL     OW28751   4.021   3.573   8.665
 5708SOL    HW128752   3.942   3.617   8.697
 5708SOL    HW228753   4.002   3.480   8.674
 5709SOL     OW28754   4.727   2.202  27.139
 5709SOL    HW128755   4.727   2.179  27.046
 5709SOL    HW228756   0.018   2.265  27.148
 5710SOL     OW28757   2.185   3.821   5.375
 5710SOL    HW128758   2.265   3.822   5.323
 5710SOL    HW228759   2.115   3.817   5.310
 5711SOL     OW28760   0.423   2.247  24.430
 5711SOL    HW128761   0.516   2.229  24.442
 5711SOL    HW228762   0.404   2.318  24.491
 5712SOL     OW28763   3.133   1.353   6.717
 5712SOL    HW128764   3.179   1.269   6.713
 5712SOL    HW228765   3.078   1.354   6.638
 5713SOL     OW28766   4.450   2.917  25.225
 5713SOL    HW128767   4.486   2.925  25.313
 5713SOL    HW228768   4.435   3.007  25.197
 5714SOL     OW28769   3.200   0.420   0.427
 5714SOL    HW128770   3.119   0.447   0.469
 5714SOL    HW228771   3.209   0.327   0.449
 5715SOL     OW28772   0.096   0.008  28.444
 5715SOL    HW128773   0.172   4.777  28.387
 5715SOL    HW228774   0.111   4.729  28.517
 5716SOL     OW28775   4.410   4.564   9.323
 5716SOL    HW128776   4.381   4.506   9.252
 5716SOL    HW228777   4.374   4.650   9.300
 5717SOL     OW28778   3.055   4.700   0.585
 5717SOL    HW128779   3.034   0.012   0.590
 5717SOL    HW228780   3.018   4.672   0.502
 5718SOL     OW28781   3.652   2.712   2.438
 5718SOL    HW128782   3.661   2.622   2.407
 5718SOL    HW228783   3.621   2.703   2.528
 5719SOL     OW28784   1.086   2.595  27.184
 5719SOL    HW128785   1.006   2.634  27.220
 5719SOL    HW228786   1.058   2.509  27.152
 5720SOL     OW28787   3.852   2.467   7.505
 5720SOL    HW128788   3.892   2.388   7.468
 5720SOL    HW228789   3.925   2.528   7.514
 5721SOL     OW28790   1.856   0.127   6.085
 5721SOL    HW128791   1.889   0.069   6.016
 5721SOL    HW228792   1.887   0.214   6.060
 5722SOL     OW28793   2.951   3.480   4.473
 5722SOL    HW128794   2.940   3.502   4.566
 5722SOL    HW228795   2.992   3.394   4.474
 5723SOL     OW28796   0.182   1.015  25.430
 5723SOL    HW128797   0.246   1.022  25.359
 5723SOL    HW228798   0.115   1.080  25.409
 5724SOL     OW28799   0.121   2.516  17.000
 5724SOL    HW128800   0.199   2.470  16.968
 5724SOL    HW228801   0.124   2.601  16.956
 5725SOL     OW28802   2.979   0.235  23.861
 5725SOL    HW128803   2.914   0.291  23.818
 5725SOL    HW228804   3.011   0.178  23.791
 5726SOL     OW28805   1.294   0.548   5.469
 5726SOL    HW128806   1.340   0.518   5.547
 5726SOL    HW228807   1.229   0.480   5.452
 5727SOL     OW28808   1.450   2.138   7.443
 5727SOL    HW128809   1.383   2.097   7.388
 5727SOL    HW228810   1.528   2.084   7.431
 5728SOL     OW28811   3.199   1.032  16.969
 5728SOL    HW128812   3.235   1.051  17.056
 5728SOL    HW228813   3.111   1.000  16.987
 5729SOL     OW28814   3.817   3.281  18.189
 5729SOL    HW128815   3.760   3.242  18.256
 5729SOL    HW228816   3.822   3.374  18.212
 5730SOL     OW28817   4.515   2.970  16.753
 5730SOL    HW128818   4.571   3.047  16.747
 5730SOL    HW228819   4.515   2.934  16.664
 5731SOL     OW28820   1.532   1.931  19.422
 5731SOL    HW128821   1.559   1.842  19.398
 5731SOL    HW228822   1.506   1.924  19.514
 5732SOL     OW28823   1.021   3.113   9.030
 5732SOL    HW128824   1.073   3.189   9.003
 5732SOL    HW228825   0.932   3.134   9.001
 5733SOL     OW28826   0.214   3.982  21.945
 5733SOL    HW128827   0.119   3.993  21.949
 5733SOL    HW228828   0.248   4.070  21.929
 5734SOL     OW28829   1.791   1.322   0.589
 5734SOL    HW128830   1.817   1.254   0.651
 5734SOL    HW228831   1.797   1.279   0.503
 5735SOL     OW28832   1.718   4.045   2.599
 5735SOL    HW128833   1.786   4.041   2.531
 5735SOL    HW228834   1.660   3.971   2.579
 5736SOL     OW28835   0.907   0.072  24.323
 5736SOL    HW128836   0.861   0.011  24.265
 5736SOL    HW228837   0.884   0.159  24.289
 5737SOL     OW28838   0.405   2.637   8.647
 5737SOL    HW128839   0.500   2.626   8.642
 5737SOL    HW228840   0.383   2.691   8.571
 5738SOL     OW28841   3.107   2.501   3.447
 5738SOL    HW128842   3.033   2.440   3.444
 5738SOL    HW228843   3.138   2.506   3.357
 5739SOL     OW28844   1.876   2.374  24.500
 5739SOL    HW128845   1.866   2.420  24.416
 5739SOL    HW228846   1.914   2.289  24.477
 5740SOL     OW28847   0.820   0.787   2.046
 5740SOL    HW128848   0.725   0.797   2.052
 5740SOL    HW228849   0.835   0.753   1.958
 5741SOL     OW28850   4.228   3.020   3.538
 5741SOL    HW128851   4.277   3.020   3.620
 5741SOL    HW228852   4.181   3.103   3.538
 5742SOL     OW28853   0.237   2.116  11.156
 5742SOL    HW128854   0.194   2.032  11.171
 5742SOL    HW228855   0.247   2.153  11.244
 5743SOL     OW28856   3.964   3.691   8.207
 5743SOL    HW128857   3.920   3.607   8.191
 5743SOL    HW228858   4.024   3.673   8.279
 5744SOL     OW28859   4.113   1.416  18.216
 5744SOL    HW128860   4.177   1.403  18.286
 5744SOL    HW228861   4.164   1.408  18.135
 5745SOL     OW28862   1.082   1.523   0.965
 5745SOL    HW128863   1.008   1.463   0.963
 5745SOL    HW228864   1.072   1.575   0.885
 5746SOL     OW28865   2.767   0.984  10.216
 5746SOL    HW128866   2.790   1.046  10.285
 5746SOL    HW228867   2.671   0.984  10.215
 5747SOL     OW28868   2.231   4.355   8.978
 5747SOL    HW128869   2.139   4.335   8.959
 5747SOL    HW228870   2.280   4.304   8.914
 5748SOL     OW28871   0.952   4.481  24.466
 5748SOL    HW128872   0.999   4.466  24.384
 5748SOL    HW228873   0.871   4.431  24.457
 5749SOL     OW28874   1.267   0.396  25.763
 5749SOL    HW128875   1.273   0.428  25.853
 5749SOL    HW228876   1.184   0.431  25.731
 5750SOL     OW28877   4.766   3.903   3.742
 5750SOL    HW128878   4.759   3.997   3.726
 5750SOL    HW228879   4.781   3.896   3.836
 5751SOL     OW28880   3.893   2.326  20.251
 5751SOL    HW128881   3.889   2.323  20.347
 5751SOL    HW228882   3.871   2.237  20.223
 5752SOL     OW28883   2.863   1.774  10.283
 5752SOL    HW128884   2.951   1.757  10.317
 5752SOL    HW228885   2.810   1.702  10.317
 5753SOL     OW28886   1.517   3.372  20.619
 5753SOL    HW128887   1.431   3.347  20.585
 5753SOL    HW228888   1.500   3.450  20.672
 5754SOL     OW28889   2.065   2.593  22.676
 5754SOL    HW128890   2.060   2.614  22.769
 5754SOL    HW228891   2.030   2.504  22.669
 5755SOL     OW28892   3.509   1.534  19.290
 5755SOL    HW128893   3.493   1.574  19.205
 5755SOL    HW228894   3.422   1.523  19.329
 5756SOL     OW28895   3.841   0.031   3.139
 5756SOL    HW128896   3.803   0.114   3.168
 5756SOL    HW228897   3.838   0.035   3.043
 5757SOL     OW28898   2.906   0.911  26.678
 5757SOL    HW128899   2.848   0.956  26.616
 5757SOL    HW228900   2.852   0.842  26.715
 5758SOL     OW28901   2.593   4.410  21.885
 5758SOL    HW128902   2.505   4.422  21.849
 5758SOL    HW228903   2.612   4.492  21.931
 5759SOL     OW28904   1.572   0.691  23.507
 5759SOL    HW128905   1.520   0.614  23.530
 5759SOL    HW228906   1.539   0.760  23.565
 5760SOL     OW28907   3.696   1.639   0.672
 5760SOL    HW128908   3.617   1.654   0.620
 5760SOL    HW228909   3.763   1.613   0.609
 5761SOL     OW28910   2.121   0.814  23.122
 5761SOL    HW128911   2.050   0.758  23.090
 5761SOL    HW228912   2.095   0.838  23.211
 5762SOL     OW28913   1.939   0.711  20.529
 5762SOL    HW128914   1.947   0.697  20.435
 5762SOL    HW228915   1.872   0.649  20.557
 5763SOL     OW28916   0.892   4.175  23.938
 5763SOL    HW128917   0.871   4.091  23.898
 5763SOL    HW228918   0.952   4.217  23.876
 5764SOL     OW28919   0.111   4.765   2.109
 5764SOL    HW128920   0.161   0.039   2.170
 5764SOL    HW228921   0.077   4.694   2.163
 5765SOL     OW28922   2.282   4.624   9.091
 5765SOL    HW128923   2.259   4.662   9.006
 5765SOL    HW228924   2.303   4.700   9.146
 5766SOL     OW28925   0.653   0.162   6.653
 5766SOL    HW128926   0.709   0.204   6.719
 5766SOL    HW228927   0.694   0.185   6.570
 5767SOL     OW28928   1.041   2.212   0.581
 5767SOL    HW128929   1.126   2.205   0.538
 5767SOL    HW228930   1.055   2.273   0.653
 5768SOL     OW28931   2.366   2.525   5.971
 5768SOL    HW128932   2.399   2.449   5.923
 5768SOL    HW228933   2.352   2.492   6.060
 5769SOL     OW28934   0.741   2.217  19.588
 5769SOL    HW128935   0.695   2.233  19.506
 5769SOL    HW228936   0.680   2.166  19.641
 5770SOL     OW28937   3.747   3.096   6.356
 5770SOL    HW128938   3.658   3.101   6.322
 5770SOL    HW228939   3.739   3.125   6.447
 5771SOL     OW28940   0.398   2.553  19.931
 5771SOL    HW128941   0.331   2.551  19.862
 5771SOL    HW228942   0.407   2.646  19.953
 5772SOL     OW28943   0.876   4.365  10.274
 5772SOL    HW128944   0.886   4.274  10.246
 5772SOL    HW228945   0.889   4.362  10.369
 5773SOL     OW28946   0.252   4.088   4.706
 5773SOL    HW128947   0.176   4.029   4.711
 5773SOL    HW228948   0.223   4.168   4.750
 5774SOL     OW28949   3.473   4.608  22.104
 5774SOL    HW128950   3.392   4.561  22.084
 5774SOL    HW228951   3.494   4.655  22.023
 5775SOL     OW28952   3.351   1.812  21.564
 5775SOL    HW128953   3.275   1.870  21.573
 5775SOL    HW228954   3.385   1.832  21.477
 5776SOL     OW28955   2.057   0.302   6.300
 5776SOL    HW128956   2.004   0.268   6.228
 5776SOL    HW228957   2.106   0.226   6.332
 5777SOL     OW28958   3.730   3.415   2.822
 5777SOL    HW128959   3.674   3.392   2.748
 5777SOL    HW228960   3.676   3.398   2.899
 5778SOL     OW28961   2.408   3.175   5.196
 5778SOL    HW128962   2.350   3.110   5.236
 5778SOL    HW228963   2.496   3.144   5.216
 5779SOL     OW28964   1.646   2.951   2.055
 5779SOL    HW128965   1.565   2.917   2.092
 5779SOL    HW228966   1.624   3.040   2.028
 5780SOL     OW28967   3.953   0.917  24.295
 5780SOL    HW128968   3.862   0.945  24.299
 5780SOL    HW228969   3.958   0.860  24.218
 5781SOL     OW28970   1.754   3.444   2.569
 5781SOL    HW128971   1.761   3.455   2.664
 5781SOL    HW228972   1.807   3.366   2.550
 5782SOL     OW28973   0.203   0.424   8.904
 5782SOL    HW128974   0.264   0.352   8.884
 5782SOL    HW228975   0.217   0.487   8.834
 5783SOL     OW28976   0.217   2.771   1.805
 5783SOL    HW128977   0.268   2.699   1.840
 5783SOL    HW228978   0.170   2.733   1.731
 5784SOL     OW28979   0.154   1.161  23.966
 5784SOL    HW128980   0.207   1.205  24.032
 5784SOL    HW228981   0.096   1.229  23.932
 5785SOL     OW28982   3.727   4.389  27.536
 5785SOL    HW128983   3.739   4.358  27.626
 5785SOL    HW228984   3.703   4.481  27.545
 5786SOL     OW28985   2.552   0.828   6.432
 5786SOL    HW128986   2.582   0.918   6.443
 5786SOL    HW228987   2.568   0.809   6.340
 5787SOL     OW28988   3.957   0.833  21.260
 5787SOL    HW128989   3.938   0.755  21.312
 5787SOL    HW228990   4.050   0.826  21.239
 5788SOL     OW28991   1.436   1.157   3.831
 5788SOL    HW128992   1.479   1.211   3.765
 5788SOL    HW228993   1.384   1.094   3.781
 5789SOL     OW28994   4.305   4.637  24.942
 5789SOL    HW128995   4.364   4.614  25.014
 5789SOL    HW228996   4.330   4.578  24.871
 5790SOL     OW28997   1.188   0.856  27.140
 5790SOL    HW128998   1.257   0.824  27.082
 5790SOL    HW228999   1.109   0.811  27.111
 5791SOL     OW29000   3.291   2.323  26.721
 5791SOL    HW129001   3.262   2.259  26.656
 5791SOL    HW229002   3.378   2.293  26.747
 5792SOL     OW29003   2.091   4.448   9.208
 5792SOL    HW129004   2.022   4.419   9.148
 5792SOL    HW229005   2.044   4.474   9.287
 5793SOL     OW29006   1.406   0.496  27.671
 5793SOL    HW129007   1.496   0.504  27.641
 5793SOL    HW229008   1.370   0.422  27.623
 5794SOL     OW29009   2.805   2.589   2.989
 5794SOL    HW129010   2.892   2.579   2.950
 5794SOL    HW229011   2.745   2.593   2.914
 5795SOL     OW29012   3.642   1.543   2.296
 5795SOL    HW129013   3.651   1.468   2.237
 5795SOL    HW229014   3.548   1.548   2.313
 5796SOL     OW29015   3.977   0.911  26.885
 5796SOL    HW129016   3.940   0.999  26.884
 5796SOL    HW229017   3.913   0.859  26.934
 5797SOL     OW29018   2.706   4.319  28.309
 5797SOL    HW129019   2.700   4.237  28.358
 5797SOL    HW229020   2.795   4.350  28.326
 5798SOL     OW29021   2.521   4.260  23.530
 5798SOL    HW129022   2.518   4.165  23.543
 5798SOL    HW229023   2.474   4.297  23.605
 5799SOL     OW29024   1.429   0.302  27.883
 5799SOL    HW129025   1.398   0.389  27.858
 5799SOL    HW229026   1.456   0.261  27.801
 5800SOL     OW29027   2.679   1.792  24.913
 5800SOL    HW129028   2.590   1.826  24.900
 5800SOL    HW229029   2.683   1.713  24.860
 5801SOL     OW29030   3.745   4.478  24.484
 5801SOL    HW129031   3.780   4.396  24.519
 5801SOL    HW229032   3.771   4.545  24.547
 5802SOL     OW29033   0.135   4.596   4.002
 5802SOL    HW129034   0.051   4.587   4.048
 5802SOL    HW229035   0.169   4.680   4.031
 5803SOL     OW29036   3.601   3.960  22.895
 5803SOL    HW129037   3.668   3.940  22.961
 5803SOL    HW229038   3.527   3.905  22.920
 5804SOL     OW29039   0.677   4.616   5.216
 5804SOL    HW129040   0.643   4.529   5.237
 5804SOL    HW229041   0.618   4.676   5.262
 5805SOL     OW29042   0.688   4.224   8.546
 5805SOL    HW129043   0.690   4.295   8.610
 5805SOL    HW229044   0.632   4.157   8.586
 5806SOL     OW29045   4.631   0.590  27.170
 5806SOL    HW129046   4.604   0.597  27.079
 5806SOL    HW229047   4.726   0.597  27.167
 5807SOL     OW29048   4.566   3.823  23.591
 5807SOL    HW129049   4.526   3.745  23.629
 5807SOL    HW229050   4.642   3.790  23.543
 5808SOL     OW29051   4.292   2.795   4.738
 5808SOL    HW129052   4.205   2.801   4.700
 5808SOL    HW229053   4.295   2.708   4.777
 5809SOL     OW29054   0.566   0.635   3.137
 5809SOL    HW129055   0.535   0.660   3.224
 5809SOL    HW229056   0.639   0.695   3.119
 5810SOL     OW29057   0.795   0.588  24.722
 5810SOL    HW129058   0.805   0.627  24.635
 5810SOL    HW229059   0.709   0.619  24.752
 5811SOL     OW29060   1.062   1.103  21.688
 5811SOL    HW129061   1.100   1.042  21.751
 5811SOL    HW229062   0.970   1.077  21.682
 5812SOL     OW29063   0.854   2.653   1.213
 5812SOL    HW129064   0.779   2.646   1.154
 5812SOL    HW229065   0.889   2.564   1.217
 5813SOL     OW29066   1.148   1.595  12.476
 5813SOL    HW129067   1.158   1.637  12.391
 5813SOL    HW229068   1.101   1.659  12.529
 5814SOL     OW29069   3.064   0.366  22.864
 5814SOL    HW129070   3.039   0.274  22.854
 5814SOL    HW229071   3.044   0.406  22.779
 5815SOL     OW29072   0.415   2.373   2.493
 5815SOL    HW129073   0.371   2.328   2.421
 5815SOL    HW229074   0.345   2.423   2.535
 5816SOL     OW29075   2.178   3.619   7.352
 5816SOL    HW129076   2.189   3.699   7.300
 5816SOL    HW229077   2.111   3.641   7.416
 5817SOL     OW29078   1.283   3.949   0.833
 5817SOL    HW129079   1.239   3.924   0.914
 5817SOL    HW229080   1.221   3.925   0.764
 5818SOL     OW29081   2.644   1.844  25.168
 5818SOL    HW129082   2.666   1.820  25.078
 5818SOL    HW229083   2.725   1.880  25.204
 5819SOL     OW29084   3.086   3.975  25.717
 5819SOL    HW129085   3.078   3.880  25.718
 5819SOL    HW229086   3.158   3.993  25.657
 5820SOL     OW29087   1.982   2.477  21.813
 5820SOL    HW129088   1.888   2.464  21.798
 5820SOL    HW229089   2.023   2.459  21.728
 5821SOL     OW29090   0.719   0.040  19.872
 5821SOL    HW129091   0.662   0.010  19.801
 5821SOL    HW229092   0.791   0.084  19.827
 5822SOL     OW29093   0.177   1.904   5.413
 5822SOL    HW129094   0.253   1.882   5.466
 5822SOL    HW229095   0.133   1.820   5.399
 5823SOL     OW29096   1.934   4.630  21.793
 5823SOL    HW129097   1.872   4.604  21.725
 5823SOL    HW229098   1.880   4.674  21.858
 5824SOL     OW29099   2.565   3.637  24.734
 5824SOL    HW129100   2.473   3.610  24.742
 5824SOL    HW229101   2.572   3.716  24.787
 5825SOL     OW29102   0.636   1.038   1.876
 5825SOL    HW129103   0.614   0.999   1.961
 5825SOL    HW229104   0.727   1.067   1.885
 5826SOL     OW29105   1.736   2.283  24.024
 5826SOL    HW129106   1.691   2.341  24.086
 5826SOL    HW229107   1.748   2.336  23.945
 5827SOL     OW29108   3.290   1.567   4.471
 5827SOL    HW129109   3.331   1.496   4.521
 5827SOL    HW229110   3.364   1.617   4.435
 5828SOL     OW29111   2.853   4.774  10.873
 5828SOL    HW129112   2.943   4.758  10.900
 5828SOL    HW229113   2.806   0.007  10.955
 5829SOL     OW29114   0.162   4.702  23.849
 5829SOL    HW129115   0.200   4.619  23.820
 5829SOL    HW229116   0.129   4.684  23.937
 5830SOL     OW29117   3.584   4.710  20.090
 5830SOL    HW129118   3.570   4.617  20.106
 5830SOL    HW229119   3.667   4.730  20.133
 5831SOL     OW29120   4.092   0.598  27.084
 5831SOL    HW129121   4.122   0.528  27.142
 5831SOL    HW229122   4.026   0.556  27.028
 5832SOL     OW29123   3.079   3.171  17.036
 5832SOL    HW129124   3.093   3.101  16.972
 5832SOL    HW229125   3.056   3.125  17.117
 5833SOL     OW29126   2.747   0.557   2.526
 5833SOL    HW129127   2.822   0.543   2.584
 5833SOL    HW229128   2.772   0.517   2.443
 5834SOL     OW29129   3.866   3.094   5.164
 5834SOL    HW129130   3.940   3.115   5.221
 5834SOL    HW229131   3.791   3.139   5.204
 5835SOL     OW29132   1.994   1.079  21.549
 5835SOL    HW129133   1.900   1.090  21.563
 5835SOL    HW229134   2.007   1.104  21.458
 5836SOL     OW29135   3.831   2.036   0.152
 5836SOL    HW129136   3.918   2.074   0.166
 5836SOL    HW229137   3.840   1.944   0.176
 5837SOL     OW29138   3.470   3.728   8.716
 5837SOL    HW129139   3.528   3.703   8.644
 5837SOL    HW229140   3.525   3.723   8.794
 5838SOL     OW29141   3.085   0.485  24.371
 5838SOL    HW129142   3.162   0.460  24.423
 5838SOL    HW229143   3.044   0.556  24.421
 5839SOL     OW29144   2.117   4.772  27.637
 5839SOL    HW129145   2.066   4.773  27.556
 5839SOL    HW229146   2.057   4.737  27.703
 5840SOL     OW29147   4.198   1.118   5.604
 5840SOL    HW129148   4.188   1.070   5.686
 5840SOL    HW229149   4.177   1.054   5.536
 5841SOL     OW29150   1.693   3.456  23.046
 5841SOL    HW129151   1.619   3.514  23.062
 5841SOL    HW229152   1.769   3.504  23.080
 5842SOL     OW29153   4.651   2.489  17.902
 5842SOL    HW129154   4.655   2.566  17.959
 5842SOL    HW229155   4.677   2.416  17.958
 5843SOL     OW29156   4.456   1.532   3.009
 5843SOL    HW129157   4.405   1.455   3.035
 5843SOL    HW229158   4.529   1.496   2.959
 5844SOL     OW29159   1.436   0.088   0.988
 5844SOL    HW129160   1.443   0.053   0.899
 5844SOL    HW229161   1.498   0.035   1.039
 5845SOL     OW29162   2.783   2.005   2.971
 5845SOL    HW129163   2.752   1.980   2.884
 5845SOL    HW229164   2.707   2.046   3.012
 5846SOL     OW29165   4.569   4.193  20.782
 5846SOL    HW129166   4.568   4.288  20.790
 5846SOL    HW229167   4.548   4.177  20.690
 5847SOL     OW29168   1.122   0.795   3.908
 5847SOL    HW129169   1.031   0.824   3.910
 5847SOL    HW229170   1.164   0.845   3.978
 5848SOL     OW29171   1.295   3.174  19.503
 5848SOL    HW129172   1.211   3.190  19.547
 5848SOL    HW229173   1.272   3.164  19.411
 5849SOL     OW29174   0.243   3.648   1.923
 5849SOL    HW129175   0.251   3.595   2.002
 5849SOL    HW229176   0.248   3.738   1.954
 5850SOL     OW29177   2.598   4.061   6.926
 5850SOL    HW129178   2.516   4.026   6.892
 5850SOL    HW229179   2.578   4.088   7.016
 5851SOL     OW29180   1.149   4.439  22.887
 5851SOL    HW129181   1.086   4.378  22.926
 5851SOL    HW229182   1.103   4.523  22.885
 5852SOL     OW29183   2.284   2.789  26.910
 5852SOL    HW129184   2.368   2.778  26.865
 5852SOL    HW229185   2.288   2.729  26.985
 5853SOL     OW29186   3.336   0.241   5.651
 5853SOL    HW129187   3.289   0.266   5.571
 5853SOL    HW229188   3.419   0.289   5.646
 5854SOL     OW29189   2.615   0.247  27.433
 5854SOL    HW129190   2.532   0.290  27.454
 5854SOL    HW229191   2.590   0.165  27.391
 5855SOL     OW29192   2.115   3.417   4.415
 5855SOL    HW129193   2.053   3.485   4.443
 5855SOL    HW229194   2.103   3.346   4.478
 5856SOL     OW29195   0.067   1.305  17.611
 5856SOL    HW129196   0.069   1.394  17.647
 5856SOL    HW229197   0.038   1.250  17.684
 5857SOL     OW29198   2.757   1.133  19.469
 5857SOL    HW129199   2.711   1.062  19.513
 5857SOL    HW229200   2.817   1.089  19.409
 5858SOL     OW29201   3.334   3.761   6.155
 5858SOL    HW129202   3.308   3.853   6.162
 5858SOL    HW229203   3.335   3.730   6.246
 5859SOL     OW29204   0.354   1.589   8.315
 5859SOL    HW129205   0.328   1.513   8.262
 5859SOL    HW229206   0.441   1.613   8.282
 5860SOL     OW29207   4.440   1.508   6.280
 5860SOL    HW129208   4.418   1.478   6.368
 5860SOL    HW229209   4.362   1.554   6.250
 5861SOL     OW29210   2.863   1.209   8.921
 5861SOL    HW129211   2.799   1.274   8.951
 5861SOL    HW229212   2.946   1.240   8.957
 5862SOL     OW29213   2.622   2.232   9.511
 5862SOL    HW129214   2.606   2.282   9.431
 5862SOL    HW229215   2.710   2.196   9.499
 5863SOL     OW29216   4.143   0.473  23.725
 5863SOL    HW129217   4.087   0.546  23.700
 5863SOL    HW229218   4.133   0.410  23.653
 5864SOL     OW29219   4.087   0.612  25.816
 5864SOL    HW129220   4.044   0.642  25.736
 5864SOL    HW229221   4.015   0.599  25.878
 5865SOL     OW29222   1.457   0.175  21.145
 5865SOL    HW129223   1.399   0.212  21.211
 5865SOL    HW229224   1.524   0.242  21.132
 5866SOL     OW29225   2.266   0.507   8.293
 5866SOL    HW129226   2.227   0.556   8.221
 5866SOL    HW229227   2.192   0.484   8.349
 5867SOL     OW29228   1.031   3.364  26.455
 5867SOL    HW129229   1.082   3.310  26.394
 5867SOL    HW229230   0.976   3.302  26.502
 5868SOL     OW29231   1.933   4.060  23.473
 5868SOL    HW129232   1.991   3.985  23.464
 5868SOL    HW229233   1.845   4.024  23.464
 5869SOL     OW29234   4.043   0.311   5.904
 5869SOL    HW129235   4.100   0.234   5.913
 5869SOL    HW229236   4.103   0.384   5.892
 5870SOL     OW29237   3.230   1.921  26.761
 5870SOL    HW129238   3.290   1.956  26.826
 5870SOL    HW229239   3.272   1.841  26.730
 5871SOL     OW29240   2.750   2.252   3.649
 5871SOL    HW129241   2.724   2.183   3.710
 5871SOL    HW229242   2.827   2.292   3.690
 5872SOL     OW29243   3.068   1.708  27.051
 5872SOL    HW129244   3.042   1.797  27.029
 5872SOL    HW229245   3.048   1.657  26.973
 5873SOL     OW29246   2.097   4.022   7.389
 5873SOL    HW129247   2.177   4.074   7.380
 5873SOL    HW229248   2.103   3.985   7.477
 5874SOL     OW29249   2.154   2.969   7.005
 5874SOL    HW129250   2.248   2.959   6.991
 5874SOL    HW229251   2.145   2.977   7.100
 5875SOL     OW29252   1.593   1.995   0.156
 5875SOL    HW129253   1.632   2.010   0.242
 5875SOL    HW229254   1.651   1.931   0.115
 5876SOL     OW29255   1.430   4.000   2.966
 5876SOL    HW129256   1.399   4.076   3.016
 5876SOL    HW229257   1.416   3.926   3.024
 5877SOL     OW29258   3.675   2.084   2.385
 5877SOL    HW129259   3.678   2.001   2.337
 5877SOL    HW229260   3.660   2.058   2.476
 5878SOL     OW29261   3.884   4.222  21.964
 5878SOL    HW129262   3.868   4.313  21.940
 5878SOL    HW229263   3.894   4.223  22.059
 5879SOL     OW29264   0.951   4.010  24.644
 5879SOL    HW129265   0.941   4.059  24.725
 5879SOL    HW229266   1.046   4.002  24.632
 5880SOL     OW29267   2.155   0.910   3.315
 5880SOL    HW129268   2.116   0.855   3.247
 5880SOL    HW229269   2.248   0.885   3.315
 5881SOL     OW29270   2.769   2.026  10.302
 5881SOL    HW129271   2.697   2.089  10.310
 5881SOL    HW229272   2.777   1.987  10.389
 5882SOL     OW29273   1.636   3.515   8.755
 5882SOL    HW129274   1.720   3.508   8.711
 5882SOL    HW229275   1.582   3.447   8.716
 5883SOL     OW29276   0.527   3.619  21.800
 5883SOL    HW129277   0.604   3.564  21.816
 5883SOL    HW229278   0.560   3.709  21.803
 5884SOL     OW29279   0.743   0.402  21.229
 5884SOL    HW129280   0.786   0.381  21.146
 5884SOL    HW229281   0.797   0.472  21.267
 5885SOL     OW29282   1.057   3.161  23.747
 5885SOL    HW129283   1.058   3.257  23.741
 5885SOL    HW229284   1.057   3.143  23.841
 5886SOL     OW29285   2.362   2.243  26.065
 5886SOL    HW129286   2.410   2.160  26.059
 5886SOL    HW229287   2.355   2.260  26.159
 5887SOL     OW29288   0.365   3.320  23.274
 5887SOL    HW129289   0.379   3.279  23.189
 5887SOL    HW229290   0.309   3.259  23.322
 5888SOL     OW29291   4.320   0.908  25.397
 5888SOL    HW129292   4.354   0.836  25.344
 5888SOL    HW229293   4.355   0.892  25.484
 5889SOL     OW29294   4.222   1.877   0.088
 5889SOL    HW129295   4.309   1.910   0.111
 5889SOL    HW229296   4.189   1.940   0.024
 5890SOL     OW29297   2.910   1.065  23.266
 5890SOL    HW129298   2.906   1.159  23.249
 5890SOL    HW229299   2.915   1.026  23.179
 5891SOL     OW29300   4.178   0.560  19.967
 5891SOL    HW129301   4.111   0.496  19.991
 5891SOL    HW229302   4.158   0.584  19.876
 5892SOL     OW29303   1.108   1.529  28.142
 5892SOL    HW129304   1.199   1.505  28.160
 5892SOL    HW229305   1.070   1.546  28.228
 5893SOL     OW29306   2.851   2.086  10.033
 5893SOL    HW129307   2.860   2.172  10.075
 5893SOL    HW229308   2.859   2.104   9.939
 5894SOL     OW29309   3.082   1.447   8.717
 5894SOL    HW129310   3.112   1.377   8.775
 5894SOL    HW229311   3.108   1.419   8.629
 5895SOL     OW29312   2.078   3.936  10.186
 5895SOL    HW129313   2.023   3.871  10.231
 5895SOL    HW229314   2.154   3.947  10.243
 5896SOL     OW29315   2.392   1.800  24.929
 5896SOL    HW129316   2.356   1.721  24.889
 5896SOL    HW229317   2.395   1.780  25.023
 5897SOL     OW29318   3.444   2.671   3.500
 5897SOL    HW129319   3.446   2.745   3.440
 5897SOL    HW229320   3.524   2.680   3.552
 5898SOL     OW29321   4.773   1.230  18.495
 5898SOL    HW129322   0.039   1.267  18.420
 5898SOL    HW229323   0.058   1.177  18.541
 5899SOL     OW29324   2.228   2.267   2.848
 5899SOL    HW129325   2.198   2.205   2.914
 5899SOL    HW229326   2.196   2.352   2.878
 5900SOL     OW29327   4.466   4.653  20.268
 5900SOL    HW129328   4.409   4.719  20.309
 5900SOL    HW229329   4.493   4.693  20.185
 5901SOL     OW29330   1.292   2.156  25.380
 5901SOL    HW129331   1.249   2.094  25.321
 5901SOL    HW229332   1.287   2.115  25.466
 5902SOL     OW29333   0.584   1.846   2.155
 5902SOL    HW129334   0.667   1.834   2.108
 5902SOL    HW229335   0.610   1.873   2.243
 5903SOL     OW29336   1.639   4.146   1.467
 5903SOL    HW129337   1.626   4.148   1.562
 5903SOL    HW229338   1.590   4.069   1.438
 5904SOL     OW29339   1.557   2.543  26.237
 5904SOL    HW129340   1.626   2.610  26.237
 5904SOL    HW229341   1.544   2.521  26.329
 5905SOL     OW29342   3.350   3.937   7.388
 5905SOL    HW129343   3.436   3.978   7.393
 5905SOL    HW229344   3.363   3.849   7.424
 5906SOL     OW29345   3.080   3.314   8.863
 5906SOL    HW129346   3.118   3.374   8.799
 5906SOL    HW229347   2.985   3.323   8.852
 5907SOL     OW29348   0.778   0.043   7.166
 5907SOL    HW129349   0.813   0.084   7.087
 5907SOL    HW229350   0.738   4.743   7.135
 5908SOL     OW29351   1.939   2.861   8.329
 5908SOL    HW129352   1.926   2.940   8.277
 5908SOL    HW229353   2.034   2.853   8.338
 5909SOL     OW29354   2.168   4.134   1.291
 5909SOL    HW129355   2.217   4.204   1.335
 5909SOL    HW229356   2.080   4.139   1.330
 5910SOL     OW29357   1.436   1.476   9.364
 5910SOL    HW129358   1.494   1.526   9.422
 5910SOL    HW229359   1.440   1.522   9.280
 5911SOL     OW29360   3.929   3.170  22.808
 5911SOL    HW129361   3.945   3.194  22.899
 5911SOL    HW229362   3.894   3.250  22.768
 5912SOL     OW29363   2.399   4.642  19.291
 5912SOL    HW129364   2.396   4.737  19.278
 5912SOL    HW229365   2.419   4.606  19.204
 5913SOL     OW29366   2.178   3.571  20.181
 5913SOL    HW129367   2.191   3.624  20.102
 5913SOL    HW229368   2.090   3.535  20.171
 5914SOL     OW29369   3.648   0.708   4.444
 5914SOL    HW129370   3.720   0.663   4.489
 5914SOL    HW229371   3.603   0.639   4.396
 5915SOL     OW29372   4.528   3.250  21.862
 5915SOL    HW129373   4.616   3.283  21.882
 5915SOL    HW229374   4.531   3.229  21.769
 5916SOL     OW29375   2.915   1.773   9.998
 5916SOL    HW129376   2.980   1.707  10.022
 5916SOL    HW229377   2.883   1.745   9.912
 5917SOL     OW29378   4.516   4.640  22.752
 5917SOL    HW129379   4.608   4.617  22.766
 5917SOL    HW229380   4.468   4.561  22.776
 5918SOL     OW29381   3.202   3.534  19.895
 5918SOL    HW129382   3.158   3.619  19.902
 5918SOL    HW229383   3.291   3.551  19.925
 5919SOL     OW29384   0.341   1.266  28.003
 5919SOL    HW129385   0.361   1.175  28.025
 5919SOL    HW229386   0.416   1.316  28.035
 5920SOL     OW29387   0.802   2.200   0.950
 5920SOL    HW129388   0.784   2.282   0.904
 5920SOL    HW229389   0.801   2.133   0.882
 5921SOL     OW29390   2.270   1.718   5.008
 5921SOL    HW129391   2.312   1.708   5.094
 5921SOL    HW229392   2.291   1.637   4.962
 5922SOL     OW29393   1.531   1.562  23.503
 5922SOL    HW129394   1.542   1.639  23.448
 5922SOL    HW229395   1.438   1.541  23.497
 5923SOL     OW29396   3.168   1.722   5.009
 5923SOL    HW129397   3.109   1.705   5.083
 5923SOL    HW229398   3.177   1.817   5.006
 5924SOL     OW29399   3.858   2.413   8.651
 5924SOL    HW129400   3.886   2.411   8.742
 5924SOL    HW229401   3.769   2.377   8.653
 5925SOL     OW29402   1.149   0.714  23.966
 5925SOL    HW129403   1.172   0.750  24.052
 5925SOL    HW229404   1.186   0.626  23.966
 5926SOL     OW29405   2.555   1.807   9.310
 5926SOL    HW129406   2.536   1.713   9.317
 5926SOL    HW229407   2.613   1.825   9.384
 5927SOL     OW29408   2.838   2.262   0.881
 5927SOL    HW129409   2.888   2.181   0.889
 5927SOL    HW229410   2.890   2.316   0.821
 5928SOL     OW29411   4.352   4.544  19.721
 5928SOL    HW129412   4.398   4.518  19.641
 5928SOL    HW229413   4.299   4.619  19.695
 5929SOL     OW29414   1.741   2.952   6.515
 5929SOL    HW129415   1.818   2.982   6.563
 5929SOL    HW229416   1.776   2.900   6.443
 5930SOL     OW29417   3.521   2.697  26.090
 5930SOL    HW129418   3.605   2.685  26.046
 5930SOL    HW229419   3.525   2.639  26.166
 5931SOL     OW29420   0.562   0.255  26.475
 5931SOL    HW129421   0.648   0.214  26.463
 5931SOL    HW229422   0.574   0.345  26.445
 5932SOL     OW29423   0.103   1.881   5.802
 5932SOL    HW129424   0.121   1.824   5.876
 5932SOL    HW229425   0.020   1.924   5.824
 5933SOL     OW29426   4.457   0.343   9.530
 5933SOL    HW129427   4.372   0.303   9.510
 5933SOL    HW229428   4.486   0.381   9.447
 5934SOL     OW29429   1.074   1.522   9.699
 5934SOL    HW129430   1.095   1.532   9.606
 5934SOL    HW229431   0.999   1.580   9.713
 5935SOL     OW29432   4.441   3.717  26.448
 5935SOL    HW129433   4.371   3.714  26.513
 5935SOL    HW229434   4.520   3.691  26.496
 5936SOL     OW29435   4.013   1.793   6.602
 5936SOL    HW129436   3.994   1.877   6.561
 5936SOL    HW229437   4.026   1.733   6.528
 5937SOL     OW29438   0.336   2.810  25.974
 5937SOL    HW129439   0.303   2.801  26.064
 5937SOL    HW229440   0.393   2.734  25.962
 5938SOL     OW29441   0.285   2.453  24.301
 5938SOL    HW129442   0.365   2.404  24.321
 5938SOL    HW229443   0.258   2.490  24.385
 5939SOL     OW29444   3.423   1.058   8.958
 5939SOL    HW129445   3.359   1.049   9.029
 5939SOL    HW229446   3.445   0.968   8.934
 5940SOL     OW29447   2.226   4.763  20.781
 5940SOL    HW129448   2.233   0.006  20.689
 5940SOL    HW229449   2.237   0.065  20.828
 5941SOL     OW29450   3.932   1.714  28.398
 5941SOL    HW129451   3.971   1.662  28.468
 5941SOL    HW229452   3.937   1.804  28.429
 5942SOL     OW29453   3.822   0.328   2.075
 5942SOL    HW129454   3.883   0.336   2.001
 5942SOL    HW229455   3.875   0.293   2.146
 5943SOL     OW29456   3.684   1.203  20.107
 5943SOL    HW129457   3.730   1.163  20.180
 5943SOL    HW229458   3.595   1.217  20.140
 5944SOL     OW29459   2.113   2.488   3.337
 5944SOL    HW129460   2.121   2.477   3.432
 5944SOL    HW229461   2.195   2.452   3.302
 5945SOL     OW29462   1.929   3.605   0.832
 5945SOL    HW129463   1.858   3.670   0.833
 5945SOL    HW229464   1.997   3.644   0.777
 5946SOL     OW29465   4.434   0.865   7.281
 5946SOL    HW129466   4.461   0.949   7.319
 5946SOL    HW229467   4.440   0.803   7.354
 5947SOL     OW29468   1.954   1.106  22.935
 5947SOL    HW129469   1.883   1.097  22.999
 5947SOL    HW229470   1.910   1.134  22.855
 5948SOL     OW29471   2.206   3.521   4.002
 5948SOL    HW129472   2.238   3.433   3.980
 5948SOL    HW229473   2.126   3.506   4.052
 5949SOL     OW29474   3.373   3.012  23.492
 5949SOL    HW129475   3.446   3.070  23.515
 5949SOL    HW229476   3.359   3.028  23.399
 5950SOL     OW29477   1.425   0.004   4.635
 5950SOL    HW129478   1.400   4.732   4.711
 5950SOL    HW229479   1.391   0.091   4.655
 5951SOL     OW29480   1.034   4.526  24.193
 5951SOL    HW129481   1.085   4.562  24.120
 5951SOL    HW229482   0.946   4.562  24.180
 5952SOL     OW29483   3.530   0.967  22.934
 5952SOL    HW129484   3.440   0.998  22.923
 5952SOL    HW229485   3.522   0.872  22.935
 5953SOL     OW29486   3.353   3.155   1.017
 5953SOL    HW129487   3.335   3.069   1.054
 5953SOL    HW229488   3.338   3.145   0.923
 5954SOL     OW29489   0.429   4.144   7.446
 5954SOL    HW129490   0.348   4.195   7.449
 5954SOL    HW229491   0.498   4.209   7.457
 5955SOL     OW29492   4.415   4.266   9.000
 5955SOL    HW129493   4.490   4.278   8.942
 5955SOL    HW229494   4.395   4.173   8.994
 5956SOL     OW29495   0.871   1.697  25.472
 5956SOL    HW129496   0.842   1.655  25.391
 5956SOL    HW229497   0.888   1.788  25.447
 5957SOL     OW29498   2.171   4.355  20.091
 5957SOL    HW129499   2.265   4.338  20.100
 5957SOL    HW229500   2.135   4.340  20.178
 5958SOL     OW29501   0.019   0.994  16.908
 5958SOL    HW129502   0.084   1.000  16.838
 5958SOL    HW229503   0.052   1.052  16.976
 5959SOL     OW29504   2.205   1.528  23.037
 5959SOL    HW129505   2.183   1.435  23.032
 5959SOL    HW229506   2.133   1.567  23.087
 5960SOL     OW29507   4.095   2.008  26.156
 5960SOL    HW129508   4.011   1.964  26.146
 5960SOL    HW229509   4.160   1.938  26.154
 5961SOL     OW29510   3.533   1.400  17.408
 5961SOL    HW129511   3.445   1.438  17.413
 5961SOL    HW229512   3.530   1.343  17.331
 5962SOL     OW29513   2.951   4.217  26.651
 5962SOL    HW129514   2.914   4.270  26.581
 5962SOL    HW229515   2.992   4.280  26.710
 5963SOL     OW29516   2.902   0.359  23.620
 5963SOL    HW129517   2.875   0.350  23.529
 5963SOL    HW229518   2.970   0.292  23.632
 5964SOL     OW29519   3.440   2.055  26.896
 5964SOL    HW129520   3.402   2.024  26.978
 5964SOL    HW229521   3.457   2.148  26.911
 5965SOL     OW29522   1.999   0.910   1.012
 5965SOL    HW129523   2.052   0.986   0.988
 5965SOL    HW229524   2.048   0.868   1.083
 5966SOL     OW29525   3.924   4.450   0.863
 5966SOL    HW129526   3.911   4.412   0.776
 5966SOL    HW229527   4.003   4.504   0.855
 5967SOL     OW29528   0.511   0.035  23.671
 5967SOL    HW129529   0.528   0.120  23.712
 5967SOL    HW229530   0.514   0.052  23.577
 5968SOL     OW29531   2.103   3.254  23.268
 5968SOL    HW129532   2.050   3.277  23.344
 5968SOL    HW229533   2.042   3.210  23.209
 5969SOL     OW29534   0.714   2.993  24.286
 5969SOL    HW129535   0.752   3.081  24.287
 5969SOL    HW229536   0.771   2.942  24.344
 5970SOL     OW29537   2.549   1.562  26.870
 5970SOL    HW129538   2.515   1.487  26.822
 5970SOL    HW229539   2.477   1.625  26.872
 5971SOL     OW29540   1.407   4.224   5.553
 5971SOL    HW129541   1.443   4.172   5.625
 5971SOL    HW229542   1.312   4.211   5.559
 5972SOL     OW29543   3.262   1.408  24.082
 5972SOL    HW129544   3.181   1.384  24.127
 5972SOL    HW229545   3.248   1.498  24.052
 5973SOL     OW29546   1.714   4.579  22.995
 5973SOL    HW129547   1.739   4.660  23.040
 5973SOL    HW229548   1.732   4.510  23.059
 5974SOL     OW29549   4.193   4.278   0.115
 5974SOL    HW129550   4.177   4.202   0.170
 5974SOL    HW229551   4.182   4.246   0.026
 5975SOL     OW29552   1.126   2.982   1.033
 5975SOL    HW129553   1.170   3.061   1.064
 5975SOL    HW229554   1.033   3.002   1.040
 5976SOL     OW29555   4.087   4.427  23.391
 5976SOL    HW129556   4.109   4.515  23.359
 5976SOL    HW229557   4.007   4.403  23.344
 5977SOL     OW29558   2.029   1.813   3.673
 5977SOL    HW129559   2.068   1.870   3.607
 5977SOL    HW229560   1.939   1.800   3.644
 5978SOL     OW29561   1.803   1.380  15.934
 5978SOL    HW129562   1.827   1.287  15.928
 5978SOL    HW229563   1.885   1.427  15.920
 5979SOL     OW29564   4.289   0.677  28.091
 5979SOL    HW129565   4.276   0.772  28.095
 5979SOL    HW229566   4.300   0.650  28.182
 5980SOL     OW29567   2.149   0.105   2.395
 5980SOL    HW129568   2.140   0.200   2.398
 5980SOL    HW229569   2.200   0.083   2.473
 5981SOL     OW29570   4.551   0.642   5.411
 5981SOL    HW129571   4.611   0.651   5.337
 5981SOL    HW229572   4.573   0.715   5.468
 5982SOL     OW29573   3.006   4.201   6.233
 5982SOL    HW129574   2.983   4.238   6.318
 5982SOL    HW229575   2.925   4.207   6.182
 5983SOL     OW29576   0.422   0.665  25.068
 5983SOL    HW129577   0.458   0.594  25.120
 5983SOL    HW229578   0.363   0.711  25.128
 5984SOL     OW29579   3.406   1.502   9.430
 5984SOL    HW129580   3.461   1.568   9.471
 5984SOL    HW229581   3.451   1.419   9.447
 5985SOL     OW29582   4.451   1.436   3.747
 5985SOL    HW129583   4.467   1.357   3.696
 5985SOL    HW229584   4.378   1.479   3.702
 5986SOL     OW29585   3.164   2.774  18.449
 5986SOL    HW129586   3.138   2.786  18.358
 5986SOL    HW229587   3.123   2.847  18.495
 5987SOL     OW29588   2.659   4.501   1.587
 5987SOL    HW129589   2.593   4.434   1.606
 5987SOL    HW229590   2.608   4.575   1.553
 5988SOL     OW29591   4.010   1.169  18.345
 5988SOL    HW129592   4.054   1.092  18.309
 5988SOL    HW229593   4.055   1.243  18.304
 5989SOL     OW29594   0.074   2.849   6.912
 5989SOL    HW129595   0.060   2.856   6.818
 5989SOL    HW229596   0.036   2.765   6.936
 5990SOL     OW29597   3.729   3.126  27.137
 5990SOL    HW129598   3.816   3.161  27.118
 5990SOL    HW229599   3.731   3.036  27.105
 5991SOL     OW29600   2.552   4.543  26.480
 5991SOL    HW129601   2.558   4.549  26.385
 5991SOL    HW229602   2.477   4.485  26.496
 5992SOL     OW29603   3.385   1.049   7.882
 5992SOL    HW129604   3.441   1.087   7.950
 5992SOL    HW229605   3.430   1.068   7.800
 5993SOL     OW29606   2.955   0.916  20.809
 5993SOL    HW129607   2.955   0.827  20.773
 5993SOL    HW229608   2.881   0.959  20.766
 5994SOL     OW29609   4.129   3.794   6.852
 5994SOL    HW129610   4.116   3.772   6.760
 5994SOL    HW229611   4.053   3.755   6.896
 5995SOL     OW29612   4.654   2.457   7.281
 5995SOL    HW129613   4.738   2.485   7.245
 5995SOL    HW229614   4.592   2.468   7.209
 5996SOL     OW29615   2.831   0.130  10.005
 5996SOL    HW129616   2.811   0.038   9.991
 5996SOL    HW229617   2.919   0.130  10.043
 5997SOL     OW29618   0.501   3.120  17.719
 5997SOL    HW129619   0.555   3.194  17.693
 5997SOL    HW229620   0.528   3.049  17.661
 5998SOL     OW29621   2.325   4.614  27.581
 5998SOL    HW129622   2.335   4.637  27.673
 5998SOL    HW229623   2.238   4.647  27.558
 5999SOL     OW29624   0.507   4.728   8.062
 5999SOL    HW129625   0.433   4.716   8.002
 5999SOL    HW229626   0.573   4.666   8.031
 6000SOL     OW29627   2.621   0.630   7.892
 6000SOL    HW129628   2.655   0.631   7.981
 6000SOL    HW229629   2.672   0.697   7.846
 6001SOL     OW29630   0.350   2.513  27.888
 6001SOL    HW129631   0.286   2.510  27.959
 6001SOL    HW229632   0.431   2.482  27.928
 6002SOL     OW29633   3.349   4.768  28.426
 6002SOL    HW129634   3.351   0.075  28.464
 6002SOL    HW229635   3.380   4.711  28.496
 6003SOL     OW29636   3.489   0.000  20.810
 6003SOL    HW129637   3.398   0.008  20.838
 6003SOL    HW229638   3.486   4.726  20.732
 6004SOL     OW29639   2.084   1.996   0.247
 6004SOL    HW129640   2.012   2.052   0.218
 6004SOL    HW229641   2.135   1.979   0.168
 6005SOL     OW29642   4.476   4.222  25.186
 6005SOL    HW129643   4.540   4.293  25.186
 6005SOL    HW229644   4.394   4.264  25.211
 6006SOL     OW29645   1.316   2.178  10.376
 6006SOL    HW129646   1.345   2.151  10.463
 6006SOL    HW229647   1.358   2.115  10.317
 6007SOL     OW29648   3.159   0.828   0.255
 6007SOL    HW129649   3.197   0.904   0.300
 6007SOL    HW229650   3.231   0.766   0.248
 6008SOL     OW29651   2.168   0.336  24.489
 6008SOL    HW129652   2.137   0.263  24.543
 6008SOL    HW229653   2.089   0.388  24.472
 6009SOL     OW29654   4.628   2.030   9.519
 6009SOL    HW129655   4.545   2.022   9.472
 6009SOL    HW229656   4.688   1.972   9.473
 6010SOL     OW29657   3.547   4.159   9.796
 6010SOL    HW129658   3.590   4.214   9.861
 6010SOL    HW229659   3.577   4.070   9.815
 6011SOL     OW29660   1.032   1.600   8.863
 6011SOL    HW129661   1.053   1.683   8.906
 6011SOL    HW229662   0.938   1.590   8.875
 6012SOL     OW29663   3.026   0.451   7.594
 6012SOL    HW129664   3.060   0.541   7.592
 6012SOL    HW229665   3.091   0.400   7.546
 6013SOL     OW29666   0.278   3.489   6.268
 6013SOL    HW129667   0.295   3.395   6.266
 6013SOL    HW229668   0.286   3.513   6.360
 6014SOL     OW29669   0.322   0.931   2.148
 6014SOL    HW129670   0.294   0.924   2.239
 6014SOL    HW229671   0.241   0.931   2.098
 6015SOL     OW29672   2.824   4.662  16.643
 6015SOL    HW129673   2.839   4.639  16.735
 6015SOL    HW229674   2.883   4.736  16.627
 6016SOL     OW29675   4.532   0.317   8.462
 6016SOL    HW129676   4.470   0.276   8.523
 6016SOL    HW229677   4.520   0.269   8.380
 6017SOL     OW29678   3.865   2.187   5.200
 6017SOL    HW129679   3.900   2.266   5.241
 6017SOL    HW229680   3.900   2.115   5.252
 6018SOL     OW29681   3.116   1.062   4.335
 6018SOL    HW129682   3.198   1.013   4.336
 6018SOL    HW229683   3.086   1.056   4.244
 6019SOL     OW29684   1.432   4.228   0.894
 6019SOL    HW129685   1.382   4.147   0.889
 6019SOL    HW229686   1.379   4.292   0.847
 6020SOL     OW29687   0.428   2.919   3.760
 6020SOL    HW129688   0.450   2.849   3.699
 6020SOL    HW229689   0.341   2.949   3.733
 6021SOL     OW29690   0.377   0.004   6.046
 6021SOL    HW129691   0.393   4.717   5.980
 6021SOL    HW229692   0.314   0.063   6.005
 6022SOL     OW29693   2.884   2.932  21.507
 6022SOL    HW129694   2.918   2.959  21.422
 6022SOL    HW229695   2.789   2.936  21.497
 6023SOL     OW29696   0.030   1.862  22.816
 6023SOL    HW129697   4.771   1.811  22.887
 6023SOL    HW229698   4.765   1.832  22.737
 6024SOL     OW29699   3.506   4.345   8.144
 6024SOL    HW129700   3.599   4.369   8.145
 6024SOL    HW229701   3.505   4.254   8.115
 6025SOL     OW29702   0.850   3.755  24.682
 6025SOL    HW129703   0.756   3.771  24.673
 6025SOL    HW229704   0.892   3.832  24.642
 6026SOL     OW29705   0.506   2.889   8.805
 6026SOL    HW129706   0.478   2.828   8.874
 6026SOL    HW229707   0.436   2.885   8.740
 6027SOL     OW29708   1.405   0.219  26.610
 6027SOL    HW129709   1.328   0.252  26.657
 6027SOL    HW229710   1.368   0.166  26.539
 6028SOL     OW29711   2.245   0.340  22.619
 6028SOL    HW129712   2.336   0.311  22.618
 6028SOL    HW229713   2.245   0.422  22.570
 6029SOL     OW29714   1.616   4.194  28.313
 6029SOL    HW129715   1.667   4.120  28.346
 6029SOL    HW229716   1.665   4.271  28.342
 6030SOL     OW29717   3.595   2.899   0.234
 6030SOL    HW129718   3.648   2.819   0.233
 6030SOL    HW229719   3.525   2.881   0.297
 6031SOL     OW29720   1.624   2.036   2.166
 6031SOL    HW129721   1.585   2.054   2.252
 6031SOL    HW229722   1.549   2.031   2.107
 6032SOL     OW29723   2.507   0.728   2.228
 6032SOL    HW129724   2.549   0.813   2.218
 6032SOL    HW229725   2.534   0.679   2.150
 6033SOL     OW29726   1.860   1.274   1.385
 6033SOL    HW129727   1.954   1.257   1.384
 6033SOL    HW229728   1.822   1.196   1.345
 6034SOL     OW29729   0.724   4.415   8.758
 6034SOL    HW129730   0.683   4.500   8.774
 6034SOL    HW229731   0.714   4.367   8.840
 6035SOL     OW29732   3.773   2.085  20.229
 6035SOL    HW129733   3.806   1.996  20.237
 6035SOL    HW229734   3.705   2.080  20.162
 6036SOL     OW29735   3.126   3.577   7.220
 6036SOL    HW129736   3.070   3.624   7.281
 6036SOL    HW229737   3.069   3.556   7.146
 6037SOL     OW29738   1.338   1.809  25.517
 6037SOL    HW129739   1.327   1.744  25.587
 6037SOL    HW229740   1.295   1.888  25.550
 6038SOL     OW29741   3.638   1.009   5.532
 6038SOL    HW129742   3.573   0.965   5.587
 6038SOL    HW229743   3.687   0.938   5.491
 6039SOL     OW29744   2.165   3.267  23.655
 6039SOL    HW129745   2.220   3.208  23.706
 6039SOL    HW229746   2.096   3.294  23.716
 6040SOL     OW29747   2.483   1.970   1.280
 6040SOL    HW129748   2.529   2.049   1.253
 6040SOL    HW229749   2.478   1.976   1.375
 6041SOL     OW29750   4.261   0.991   8.312
 6041SOL    HW129751   4.297   1.062   8.365
 6041SOL    HW229752   4.327   0.922   8.317
 6042SOL     OW29753   0.599   4.533  26.967
 6042SOL    HW129754   0.573   4.471  26.899
 6042SOL    HW229755   0.593   4.483  27.048
 6043SOL     OW29756   2.787   4.483  10.968
 6043SOL    HW129757   2.833   4.453  11.047
 6043SOL    HW229758   2.708   4.526  11.001
 6044SOL     OW29759   0.190   1.706   6.786
 6044SOL    HW129760   0.202   1.644   6.858
 6044SOL    HW229761   0.237   1.667   6.712
 6045SOL     OW29762   4.596   2.227  17.631
 6045SOL    HW129763   4.597   2.161  17.701
 6045SOL    HW229764   4.537   2.191  17.565
 6046SOL     OW29765   3.446   0.495  27.708
 6046SOL    HW129766   3.442   0.406  27.742
 6046SOL    HW229767   3.380   0.543  27.759
 6047SOL     OW29768   4.722   4.227  27.587
 6047SOL    HW129769   4.707   4.242  27.494
 6047SOL    HW229770   4.756   4.310  27.620
 6048SOL     OW29771   0.245   2.386  22.913
 6048SOL    HW129772   0.300   2.403  22.837
 6048SOL    HW229773   0.224   2.473  22.948
 6049SOL     OW29774   2.738   4.338   5.401
 6049SOL    HW129775   2.716   4.388   5.479
 6049SOL    HW229776   2.820   4.294   5.423
 6050SOL     OW29777   1.266   4.201  24.383
 6050SOL    HW129778   1.179   4.197  24.343
 6050SOL    HW229779   1.299   4.111  24.378
 6051SOL     OW29780   2.149   1.737  23.941
 6051SOL    HW129781   2.220   1.772  23.996
 6051SOL    HW229782   2.127   1.653  23.981
 6052SOL     OW29783   0.590   0.473  23.912
 6052SOL    HW129784   0.681   0.501  23.898
 6052SOL    HW229785   0.573   0.494  24.004
 6053SOL     OW29786   1.414   1.598   9.629
 6053SOL    HW129787   1.326   1.624   9.602
 6053SOL    HW229788   1.430   1.647   9.710
 6054SOL     OW29789   0.387   1.943  24.272
 6054SOL    HW129790   0.427   2.027  24.293
 6054SOL    HW229791   0.313   1.965  24.216
 6055SOL     OW29792   2.642   4.355  19.899
 6055SOL    HW129793   2.649   4.312  19.814
 6055SOL    HW229794   2.718   4.414  19.903
 6056SOL     OW29795   2.389   1.713   7.990
 6056SOL    HW129796   2.481   1.698   7.969
 6056SOL    HW229797   2.390   1.736   8.083
 6057SOL     OW29798   4.745   1.912   8.971
 6057SOL    HW129799   4.753   2.003   8.944
 6057SOL    HW229800   4.668   1.910   9.028
 6058SOL     OW29801   2.367   2.924  22.978
 6058SOL    HW129802   2.420   2.937  22.900
 6058SOL    HW229803   2.415   2.970  23.047
 6059SOL     OW29804   4.328   2.270  19.002
 6059SOL    HW129805   4.234   2.278  19.019
 6059SOL    HW229806   4.343   2.323  18.924
 6060SOL     OW29807   0.023   1.007   3.029
 6060SOL    HW129808   0.102   1.018   3.082
 6060SOL    HW229809   4.746   1.078   3.057
 6061SOL     OW29810   3.584   3.439  28.285
 6061SOL    HW129811   3.551   3.465  28.371
 6061SOL    HW229812   3.655   3.378  28.304
 6062SOL     OW29813   0.407   2.583  20.352
 6062SOL    HW129814   0.460   2.611  20.427
 6062SOL    HW229815   0.316   2.592  20.381
 6063SOL     OW29816   0.925   4.562   3.776
 6063SOL    HW129817   0.958   4.543   3.864
 6063SOL    HW229818   0.842   4.607   3.790
 6064SOL     OW29819   1.628   0.044   4.163
 6064SOL    HW129820   1.544   0.068   4.203
 6064SOL    HW229821   1.607   0.027   4.071
 6065SOL     OW29822   0.579   4.474  20.910
 6065SOL    HW129823   0.553   4.479  20.818
 6065SOL    HW229824   0.590   4.380  20.927
 6066SOL     OW29825   1.921   0.227   5.315
 6066SOL    HW129826   2.007   0.265   5.333
 6066SOL    HW229827   1.933   0.177   5.234
 6067SOL     OW29828   2.519   0.567  22.996
 6067SOL    HW129829   2.453   0.584  23.063
 6067SOL    HW229830   2.512   0.641  22.936
 6068SOL     OW29831   0.963   0.253  28.180
 6068SOL    HW129832   1.014   0.330  28.207
 6068SOL    HW229833   0.919   0.224  28.260
 6069SOL     OW29834   4.712   3.678   4.525
 6069SOL    HW129835   4.712   3.692   4.620
 6069SOL    HW229836   4.630   3.633   4.508
 6070SOL     OW29837   2.957   4.090   9.297
 6070SOL    HW129838   2.990   4.109   9.209
 6070SOL    HW229839   2.948   4.176   9.338
 6071SOL     OW29840   3.502   4.235  22.054
 6071SOL    HW129841   3.411   4.234  22.083
 6071SOL    HW229842   3.500   4.276  21.968
 6072SOL     OW29843   2.412   4.606   5.928
 6072SOL    HW129844   2.352   4.653   5.986
 6072SOL    HW229845   2.359   4.586   5.850
 6073SOL     OW29846   2.041   2.131   6.114
 6073SOL    HW129847   1.971   2.129   6.049
 6073SOL    HW229848   2.109   2.185   6.074
 6074SOL     OW29849   2.432   4.490   9.830
 6074SOL    HW129850   2.513   4.485   9.881
 6074SOL    HW229851   2.363   4.470   9.893
 6075SOL     OW29852   2.603   1.687   3.064
 6075SOL    HW129853   2.591   1.716   3.154
 6075SOL    HW229854   2.549   1.747   3.012
 6076SOL     OW29855   2.429   3.015   8.406
 6076SOL    HW129856   2.392   3.081   8.347
 6076SOL    HW229857   2.372   3.018   8.483
 6077SOL     OW29858   3.858   4.055  24.230
 6077SOL    HW129859   3.793   3.987  24.214
 6077SOL    HW229860   3.942   4.009  24.228
 6078SOL     OW29861   2.786   0.031  27.320
 6078SOL    HW129862   2.826   0.112  27.352
 6078SOL    HW229863   2.798   4.749  27.391
 6079SOL     OW29864   0.137   4.383  21.546
 6079SOL    HW129865   0.185   4.334  21.479
 6079SOL    HW229866   0.073   4.435  21.497
 6080SOL     OW29867   2.816   2.931   8.851
 6080SOL    HW129868   2.820   2.989   8.927
 6080SOL    HW229869   2.751   2.865   8.874
 6081SOL     OW29870   2.888   1.735   0.438
 6081SOL    HW129871   2.965   1.791   0.447
 6081SOL    HW229872   2.918   1.648   0.466
 6082SOL     OW29873   0.144   1.321  27.057
 6082SOL    HW129874   0.116   1.304  26.967
 6082SOL    HW229875   0.063   1.319  27.108
 6083SOL     OW29876   3.295   0.893  20.673
 6083SOL    HW129877   3.271   0.985  20.669
 6083SOL    HW229878   3.277   0.867  20.763
 6084SOL     OW29879   3.913   1.009  18.539
 6084SOL    HW129880   3.981   0.942  18.531
 6084SOL    HW229881   3.940   1.078  18.479
 6085SOL     OW29882   3.291   0.700  24.489
 6085SOL    HW129883   3.244   0.722  24.408
 6085SOL    HW229884   3.299   0.783  24.536
 6086SOL     OW29885   0.290   0.871  21.234
 6086SOL    HW129886   0.313   0.827  21.152
 6086SOL    HW229887   0.225   0.936  21.208
 6087SOL     OW29888   3.632   2.648   0.413
 6087SOL    HW129889   3.662   2.643   0.322
 6087SOL    HW229890   3.577   2.570   0.424
 6088SOL     OW29891   3.110   2.373  20.945
 6088SOL    HW129892   3.036   2.314  20.934
 6088SOL    HW229893   3.087   2.450  20.892
 6089SOL     OW29894   1.432   4.467   5.417
 6089SOL    HW129895   1.425   4.379   5.454
 6089SOL    HW229896   1.356   4.476   5.360
 6090SOL     OW29897   2.499   3.960  23.805
 6090SOL    HW129898   2.410   3.994  23.817
 6090SOL    HW229899   2.491   3.866  23.820
 6091SOL     OW29900   3.874   3.491  10.576
 6091SOL    HW129901   3.894   3.405  10.614
 6091SOL    HW229902   3.920   3.492  10.492
 6092SOL     OW29903   0.000   1.568  26.966
 6092SOL    HW129904   0.050   1.489  26.944
 6092SOL    HW229905   0.066   1.630  26.998
 6093SOL     OW29906   4.427   3.078  25.900
 6093SOL    HW129907   4.350   3.111  25.946
 6093SOL    HW229908   4.465   3.155  25.858
 6094SOL     OW29909   3.027   4.027  24.079
 6094SOL    HW129910   3.100   4.031  24.140
 6094SOL    HW229911   3.045   3.950  24.024
 6095SOL     OW29912   2.776   2.422   4.535
 6095SOL    HW129913   2.772   2.330   4.508
 6095SOL    HW229914   2.866   2.435   4.564
 6096SOL     OW29915   3.615   2.407  19.185
 6096SOL    HW129916   3.675   2.373  19.119
 6096SOL    HW229917   3.670   2.418  19.263
 6097SOL     OW29918   3.564   3.713   2.730
 6097SOL    HW129919   3.550   3.650   2.801
 6097SOL    HW229920   3.478   3.751   2.715
 6098SOL     OW29921   0.017   3.459   2.984
 6098SOL    HW129922   0.057   3.522   2.923
 6098SOL    HW229923   0.018   3.503   3.069
 6099SOL     OW29924   1.365   4.636  26.154
 6099SOL    HW129925   1.458   4.637  26.131
 6099SOL    HW229926   1.350   4.549  26.191
 6100SOL     OW29927   4.685   3.372  27.925
 6100SOL    HW129928   4.739   3.400  27.999
 6100SOL    HW229929   4.641   3.452  27.896
 6101SOL     OW29930   1.061   2.071  21.584
 6101SOL    HW129931   1.040   2.010  21.514
 6101SOL    HW229932   1.077   2.016  21.660
 6102SOL     OW29933   2.748   3.307  25.720
 6102SOL    HW129934   2.804   3.377  25.754
 6102SOL    HW229935   2.667   3.315  25.770
 6103SOL     OW29936   3.388   0.228   8.396
 6103SOL    HW129937   3.425   0.186   8.318
 6103SOL    HW229938   3.427   0.180   8.469
 6104SOL     OW29939   3.368   0.499  24.239
 6104SOL    HW129940   3.286   0.548  24.240
 6104SOL    HW229941   3.434   0.561  24.270
 6105SOL     OW29942   4.376   0.345  23.090
 6105SOL    HW129943   4.450   0.294  23.057
 6105SOL    HW229944   4.387   0.345  23.185
 6106SOL     OW29945   2.855   2.724   3.275
 6106SOL    HW129946   2.827   2.668   3.203
 6106SOL    HW229947   2.943   2.753   3.250
 6107SOL     OW29948   4.256   1.522  23.643
 6107SOL    HW129949   4.190   1.586  23.616
 6107SOL    HW229950   4.212   1.469  23.710
 6108SOL     OW29951   2.820   0.985   1.158
 6108SOL    HW129952   2.882   1.042   1.112
 6108SOL    HW229953   2.764   0.949   1.089
 6109SOL     OW29954   4.476   3.463   2.594
 6109SOL    HW129955   4.474   3.421   2.680
 6109SOL    HW229956   4.418   3.539   2.603
 6110SOL     OW29957   2.861   4.235  24.394
 6110SOL    HW129958   2.937   4.293  24.398
 6110SOL    HW229959   2.848   4.218  24.301
 6111SOL     OW29960   2.444   1.220   4.505
 6111SOL    HW129961   2.535   1.192   4.512
 6111SOL    HW229962   2.427   1.224   4.411
 6112SOL     OW29963   3.736   2.927  21.047
 6112SOL    HW129964   3.675   2.858  21.071
 6112SOL    HW229965   3.737   2.986  21.123
 6113SOL     OW29966   1.045   0.266   0.001
 6113SOL    HW129967   0.983   0.331   0.033
 6113SOL    HW229968   0.996   0.184   0.003
 6114SOL     OW29969   2.276   4.306  25.517
 6114SOL    HW129970   2.303   4.293  25.608
 6114SOL    HW229971   2.222   4.230  25.497
 6115SOL     OW29972   1.512   1.627  25.946
 6115SOL    HW129973   1.457   1.560  25.986
 6115SOL    HW229974   1.507   1.609  25.852
 6116SOL     OW29975   1.009   0.935   6.343
 6116SOL    HW129976   1.069   1.005   6.368
 6116SOL    HW229977   1.033   0.914   6.253
 6117SOL     OW29978   3.941   0.001   8.888
 6117SOL    HW129979   3.978   4.766   8.975
 6117SOL    HW229980   3.872   4.717   8.878
 6118SOL     OW29981   0.748   1.292   9.787
 6118SOL    HW129982   0.759   1.384   9.813
 6118SOL    HW229983   0.659   1.269   9.815
 6119SOL     OW29984   3.897   3.515   9.919
 6119SOL    HW129985   3.853   3.436   9.887
 6119SOL    HW229986   3.980   3.518   9.871
 6120SOL     OW29987   0.769   2.754  22.852
 6120SOL    HW129988   0.793   2.823  22.913
 6120SOL    HW229989   0.834   2.685  22.867
 6121SOL     OW29990   1.625   1.172   6.796
 6121SOL    HW129991   1.535   1.138   6.797
 6121SOL    HW229992   1.679   1.095   6.779
 6122SOL     OW29993   2.551   4.497   5.557
 6122SOL    HW129994   2.511   4.412   5.577
 6122SOL    HW229995   2.477   4.556   5.542
 6123SOL     OW29996   0.958   4.088  10.526
 6123SOL    HW129997   0.933   4.180  10.525
 6123SOL    HW229998   0.886   4.043  10.483
 6124SOL     OW29999   1.588   1.963   8.225
 6124SOL    HW130000   1.574   1.906   8.301
 6124SOL    HW230001   1.548   2.046   8.250
 6125SOL     OW30002   3.583   3.018   7.710
 6125SOL    HW130003   3.651   2.995   7.773
 6125SOL    HW230004   3.527   2.940   7.706
 6126SOL     OW30005   3.141   0.518  20.190
 6126SOL    HW130006   3.143   0.611  20.211
 6126SOL    HW230007   3.049   0.499  20.174
 6127SOL     OW30008   0.403   3.185  20.531
 6127SOL    HW130009   0.425   3.138  20.450
 6127SOL    HW230010   0.459   3.145  20.597
 6128SOL     OW30011   3.195   1.554  27.424
 6128SOL    HW130012   3.101   1.565  27.409
 6128SOL    HW230013   3.201   1.512  27.510
 6129SOL     OW30014   2.086   2.748  20.245
 6129SOL    HW130015   2.114   2.762  20.155
 6129SOL    HW230016   1.990   2.750  20.241
 6130SOL     OW30017   3.570   1.952  26.052
 6130SOL    HW130018   3.554   1.900  26.131
 6130SOL    HW230019   3.586   1.887  25.983
 6131SOL     OW30020   3.384   0.659  27.453
 6131SOL    HW130021   3.454   0.634  27.513
 6131SOL    HW230022   3.397   0.604  27.376
 6132SOL     OW30023   2.149   0.348   5.394
 6132SOL    HW130024   2.158   0.333   5.488
 6132SOL    HW230025   2.237   0.333   5.359
 6133SOL     OW30026   1.088   1.802  22.483
 6133SOL    HW130027   1.117   1.745  22.554
 6133SOL    HW230028   1.021   1.858  22.523
 6134SOL     OW30029   4.574   4.329   0.202
 6134SOL    HW130030   4.503   4.376   0.158
 6134SOL    HW230031   4.653   4.377   0.176
 6135SOL     OW30032   2.967   4.568  21.360
 6135SOL    HW130033   2.961   4.526  21.446
 6135SOL    HW230034   3.052   4.542  21.326
 6136SOL     OW30035   1.302   3.470   6.737
 6136SOL    HW130036   1.221   3.434   6.702
 6136SOL    HW230037   1.370   3.437   6.678
 6137SOL     OW30038   0.126   1.075  21.208
 6137SOL    HW130039   0.154   1.139  21.273
 6137SOL    HW230040   0.089   1.128  21.137
 6138SOL     OW30041   4.743   2.733   4.634
 6138SOL    HW130042   0.038   2.747   4.578
 6138SOL    HW230043   4.725   2.639   4.626
 6139SOL     OW30044   3.642   0.391   6.540
 6139SOL    HW130045   3.572   0.456   6.533
 6139SOL    HW230046   3.627   0.333   6.465
 6140SOL     OW30047   4.604   0.838  12.133
 6140SOL    HW130048   4.557   0.778  12.075
 6140SOL    HW230049   4.560   0.830  12.218
 6141SOL     OW30050   2.767   0.700  26.087
 6141SOL    HW130051   2.736   0.766  26.025
 6141SOL    HW230052   2.733   0.729  26.172
 6142SOL     OW30053   2.793   1.459   3.641
 6142SOL    HW130054   2.757   1.384   3.688
 6142SOL    HW230055   2.741   1.465   3.561
 6143SOL     OW30056   1.576   0.803   1.968
 6143SOL    HW130057   1.549   0.717   2.000
 6143SOL    HW230058   1.659   0.787   1.924
 6144SOL     OW30059   2.375   2.424  27.505
 6144SOL    HW130060   2.319   2.419  27.428
 6144SOL    HW230061   2.326   2.378  27.573
 6145SOL     OW30062   3.174   1.487   7.593
 6145SOL    HW130063   3.126   1.439   7.660
 6145SOL    HW230064   3.168   1.579   7.620
 6146SOL     OW30065   4.261   2.944   4.049
 6146SOL    HW130066   4.333   2.910   4.103
 6146SOL    HW230067   4.200   2.871   4.041
 6147SOL     OW30068   3.089   1.824   0.153
 6147SOL    HW130069   3.034   1.748   0.133
 6147SOL    HW230070   3.167   1.812   0.099
 6148SOL     OW30071   2.452   1.313   1.659
 6148SOL    HW130072   2.530   1.311   1.604
 6148SOL    HW230073   2.411   1.397   1.639
 6149SOL     OW30074   4.400   2.765   0.169
 6149SOL    HW130075   4.416   2.859   0.172
 6149SOL    HW230076   4.485   2.725   0.187
 6150SOL     OW30077   2.620   0.309   7.987
 6150SOL    HW130078   2.659   0.389   7.953
 6150SOL    HW230079   2.574   0.337   8.066
 6151SOL     OW30080   2.814   0.680  11.346
 6151SOL    HW130081   2.729   0.694  11.388
 6151SOL    HW230082   2.873   0.658  11.418
 6152SOL     OW30083   1.256   1.433  21.929
 6152SOL    HW130084   1.231   1.428  22.021
 6152SOL    HW230085   1.344   1.472  21.930
 6153SOL     OW30086   1.136   1.509   3.266
 6153SOL    HW130087   1.158   1.591   3.310
 6153SOL    HW230088   1.042   1.516   3.247
 6154SOL     OW30089   1.547   2.350   8.587
 6154SOL    HW130090   1.582   2.372   8.673
 6154SOL    HW230091   1.527   2.256   8.592
 6155SOL     OW30092   3.870   4.259   9.839
 6155SOL    HW130093   3.923   4.311   9.899
 6155SOL    HW230094   3.783   4.257   9.880
 6156SOL     OW30095   1.498   1.952  19.685
 6156SOL    HW130096   1.507   2.043  19.714
 6156SOL    HW230097   1.563   1.904  19.737
 6157SOL     OW30098   1.795   0.593   7.530
 6157SOL    HW130099   1.866   0.616   7.590
 6157SOL    HW230100   1.785   0.670   7.474
 6158SOL     OW30101   1.002   1.915   4.569
 6158SOL    HW130102   1.039   1.989   4.522
 6158SOL    HW230103   0.907   1.927   4.562
 6159SOL     OW30104   4.142   1.871   3.694
 6159SOL    HW130105   4.175   1.818   3.766
 6159SOL    HW230106   4.215   1.875   3.632
 6160SOL     OW30107   3.355   2.431   8.602
 6160SOL    HW130108   3.293   2.461   8.536
 6160SOL    HW230109   3.372   2.508   8.656
 6161SOL     OW30110   3.608   1.817  20.631
 6161SOL    HW130111   3.538   1.860  20.583
 6161SOL    HW230112   3.652   1.762  20.566
 6162SOL     OW30113   3.640   0.066  23.473
 6162SOL    HW130114   3.659   4.759  23.439
 6162SOL    HW230115   3.612   0.116  23.396
 6163SOL     OW30116   0.132   3.323   5.608
 6163SOL    HW130117   0.168   3.285   5.688
 6163SOL    HW230118   0.198   3.306   5.541
 6164SOL     OW30119   0.322   3.655   7.940
 6164SOL    HW130120   0.258   3.644   7.869
 6164SOL    HW230121   0.407   3.636   7.900
 6165SOL     OW30122   4.217   3.983  28.132
 6165SOL    HW130123   4.194   3.892  28.151
 6165SOL    HW230124   4.310   3.980  28.109
 6166SOL     OW30125   1.552   0.299   0.255
 6166SOL    HW130126   1.597   0.305   0.171
 6166SOL    HW230127   1.580   0.377   0.303
 6167SOL     OW30128   1.716   0.045   5.397
 6167SOL    HW130129   1.650   0.057   5.329
 6167SOL    HW230130   1.787   0.104   5.372
 6168SOL     OW30131   4.290   4.000  26.336
 6168SOL    HW130132   4.200   3.968  26.330
 6168SOL    HW230133   4.333   3.941  26.398
 6169SOL     OW30134   2.600   1.891   6.200
 6169SOL    HW130135   2.595   1.983   6.225
 6169SOL    HW230136   2.688   1.863   6.226
 6170SOL     OW30137   2.554   2.432   8.275
 6170SOL    HW130138   2.618   2.400   8.339
 6170SOL    HW230139   2.479   2.373   8.285
 6171SOL     OW30140   0.981   1.694  25.722
 6171SOL    HW130141   0.907   1.726  25.774
 6171SOL    HW230142   0.942   1.667  25.639
 6172SOL     OW30143   4.605   0.487  19.750
 6172SOL    HW130144   4.684   0.491  19.805
 6172SOL    HW230145   4.567   0.575  19.757
 6173SOL     OW30146   1.504   0.250   5.337
 6173SOL    HW130147   1.499   0.221   5.246
 6173SOL    HW230148   1.413   0.253   5.366
 6174SOL     OW30149   0.633   1.553  19.411
 6174SOL    HW130150   0.690   1.507  19.349
 6174SOL    HW230151   0.545   1.519  19.394
 6175SOL     OW30152   0.657   1.642   9.779
 6175SOL    HW130153   0.586   1.620   9.839
 6175SOL    HW230154   0.736   1.634   9.832
 6176SOL     OW30155   2.900   0.191   0.264
 6176SOL    HW130156   2.917   0.238   0.182
 6176SOL    HW230157   2.963   0.119   0.264
 6177SOL     OW30158   0.398   0.077   8.510
 6177SOL    HW130159   0.368   0.111   8.426
 6177SOL    HW230160   0.474   0.130   8.532
 6178SOL     OW30161   3.398   4.031   2.789
 6178SOL    HW130162   3.331   4.086   2.747
 6178SOL    HW230163   3.383   3.943   2.754
 6179SOL     OW30164   0.333   3.802   0.747
 6179SOL    HW130165   0.407   3.757   0.787
 6179SOL    HW230166   0.305   3.866   0.812
 6180SOL     OW30167   4.305   1.328   3.132
 6180SOL    HW130168   4.225   1.356   3.177
 6180SOL    HW230169   4.293   1.234   3.118
 6181SOL     OW30170   4.346   2.220  19.984
 6181SOL    HW130171   4.310   2.221  19.895
 6181SOL    HW230172   4.282   2.269  20.036
 6182SOL     OW30173   2.545   3.233   7.433
 6182SOL    HW130174   2.552   3.215   7.527
 6182SOL    HW230175   2.540   3.328   7.427
 6183SOL     OW30176   3.322   1.072  27.844
 6183SOL    HW130177   3.400   1.020  27.824
 6183SOL    HW230178   3.357   1.155  27.878
 6184SOL     OW30179   4.621   2.966  26.624
 6184SOL    HW130180   4.657   3.019  26.695
 6184SOL    HW230181   4.550   3.019  26.588
 6185SOL     OW30182   1.645   3.782  27.342
 6185SOL    HW130183   1.626   3.797  27.250
 6185SOL    HW230184   1.576   3.722  27.372
 6186SOL     OW30185   1.621   4.529  26.717
 6186SOL    HW130186   1.687   4.509  26.783
 6186SOL    HW230187   1.575   4.606  26.752
 6187SOL     OW30188   4.618   3.383  27.583
 6187SOL    HW130189   4.625   3.440  27.660
 6187SOL    HW230190   4.707   3.379  27.548
 6188SOL     OW30191   3.761   4.770   1.527
 6188SOL    HW130192   3.801   4.688   1.556
 6188SOL    HW230193   3.768   4.768   1.432
 6189SOL     OW30194   3.020   0.456  11.064
 6189SOL    HW130195   3.014   0.384  11.001
 6189SOL    HW230196   2.995   0.417  11.148
 6190SOL     OW30197   2.692   3.374  27.009
 6190SOL    HW130198   2.665   3.383  26.918
 6190SOL    HW230199   2.738   3.456  27.028
 6191SOL     OW30200   4.535   2.650   4.432
 6191SOL    HW130201   4.502   2.589   4.498
 6191SOL    HW230202   4.607   2.696   4.476
 6192SOL     OW30203   1.193   3.017   0.586
 6192SOL    HW130204   1.101   3.026   0.610
 6192SOL    HW230205   1.192   2.996   0.493
 6193SOL     OW30206   1.272   3.351   2.667
 6193SOL    HW130207   1.279   3.433   2.619
 6193SOL    HW230208   1.313   3.286   2.610
 6194SOL     OW30209   2.508   3.063  22.750
 6194SOL    HW130210   2.578   3.056  22.685
 6194SOL    HW230211   2.480   3.154  22.744
 6195SOL     OW30212   1.955   3.819  19.704
 6195SOL    HW130213   2.026   3.883  19.701
 6195SOL    HW230214   1.950   3.785  19.615
 6196SOL     OW30215   2.143   2.861   2.836
 6196SOL    HW130216   2.090   2.816   2.770
 6196SOL    HW230217   2.202   2.917   2.785
 6197SOL     OW30218   2.211   1.773  20.734
 6197SOL    HW130219   2.173   1.848  20.687
 6197SOL    HW230220   2.139   1.710  20.740
 6198SOL     OW30221   4.207   2.337  19.376
 6198SOL    HW130222   4.199   2.399  19.449
 6198SOL    HW230223   4.236   2.255  19.417
 6199SOL     OW30224   3.119   0.564   2.561
 6199SOL    HW130225   3.146   0.610   2.482
 6199SOL    HW230226   3.146   0.622   2.633
 6200SOL     OW30227   3.702   1.554  23.590
 6200SOL    HW130228   3.691   1.564  23.495
 6200SOL    HW230229   3.619   1.516  23.620
 6201SOL     OW30230   0.824   4.310  10.814
 6201SOL    HW130231   0.783   4.390  10.847
 6201SOL    HW230232   0.797   4.242  10.875
 6202SOL     OW30233   0.461   3.585  19.034
 6202SOL    HW130234   0.496   3.663  18.991
 6202SOL    HW230235   0.509   3.512  18.994
 6203SOL     OW30236   0.445   0.195   3.944
 6203SOL    HW130237   0.539   0.200   3.961
 6203SOL    HW230238   0.431   0.253   3.869
 6204SOL     OW30239   4.250   3.596  21.180
 6204SOL    HW130240   4.340   3.629  21.181
 6204SOL    HW230241   4.212   3.632  21.100
 6205SOL     OW30242   4.506   2.620   9.094
 6205SOL    HW130243   4.431   2.660   9.137
 6205SOL    HW230244   4.571   2.609   9.163
 6206SOL     OW30245   4.482   2.425  21.785
 6206SOL    HW130246   4.523   2.381  21.711
 6206SOL    HW230247   4.392   2.394  21.785
 6207SOL     OW30248   1.160   3.174   2.836
 6207SOL    HW130249   1.233   3.127   2.876
 6207SOL    HW230250   1.201   3.242   2.783
 6208SOL     OW30251   3.038   2.745   0.945
 6208SOL    HW130252   3.056   2.651   0.937
 6208SOL    HW230253   3.032   2.760   1.039
 6209SOL     OW30254   2.622   1.114   7.189
 6209SOL    HW130255   2.565   1.046   7.225
 6209SOL    HW230256   2.581   1.196   7.214
 6210SOL     OW30257   1.040   2.666  23.963
 6210SOL    HW130258   0.996   2.703  24.040
 6210SOL    HW230259   1.130   2.699  23.968
 6211SOL     OW30260   0.352   0.819   6.683
 6211SOL    HW130261   0.360   0.746   6.745
 6211SOL    HW230262   0.359   0.778   6.597
 6212SOL     OW30263   0.750   2.769   1.776
 6212SOL    HW130264   0.820   2.767   1.711
 6212SOL    HW230265   0.706   2.684   1.767
 6213SOL     OW30266   4.530   2.070  19.496
 6213SOL    HW130267   4.618   2.101  19.519
 6213SOL    HW230268   4.504   2.017  19.571
 6214SOL     OW30269   0.831   2.209  20.389
 6214SOL    HW130270   0.752   2.253  20.421
 6214SOL    HW230271   0.800   2.124  20.358
 6215SOL     OW30272   2.868   1.154  20.649
 6215SOL    HW130273   2.792   1.188  20.602
 6215SOL    HW230274   2.890   1.072  20.604
 6216SOL     OW30275   3.425   2.851  21.164
 6216SOL    HW130276   3.362   2.920  21.187
 6216SOL    HW230277   3.490   2.853  21.234
 6217SOL     OW30278   4.157   1.500   2.432
 6217SOL    HW130279   4.246   1.508   2.398
 6217SOL    HW230280   4.104   1.474   2.357
 6218SOL     OW30281   2.411   3.898  21.925
 6218SOL    HW130282   2.411   3.993  21.936
 6218SOL    HW230283   2.362   3.884  21.844
 6219SOL     OW30284   1.505   1.506  21.923
 6219SOL    HW130285   1.527   1.445  21.993
 6219SOL    HW230286   1.582   1.562  21.914
 6220SOL     OW30287   2.188   3.884   8.229
 6220SOL    HW130288   2.261   3.831   8.261
 6220SOL    HW230289   2.220   3.974   8.234
 6221SOL     OW30290   2.572   2.561  25.298
 6221SOL    HW130291   2.511   2.488  25.295
 6221SOL    HW230292   2.575   2.593  25.208
 6222SOL     OW30293   3.526   0.991   2.551
 6222SOL    HW130294   3.582   1.069   2.547
 6222SOL    HW230295   3.577   0.928   2.602
 6223SOL     OW30296   1.036   0.029   3.832
 6223SOL    HW130297   1.044   4.758   3.912
 6223SOL    HW230298   0.965   4.768   3.784
 6224SOL     OW30299   4.368   3.035  23.860
 6224SOL    HW130300   4.421   3.049  23.939
 6224SOL    HW230301   4.337   3.122  23.837
 6225SOL     OW30302   2.151   4.690  24.203
 6225SOL    HW130303   2.210   4.751  24.158
 6225SOL    HW230304   2.200   4.608  24.208
 6226SOL     OW30305   2.307   4.458  24.268
 6226SOL    HW130306   2.253   4.396  24.218
 6226SOL    HW230307   2.391   4.413  24.280
 6227SOL     OW30308   0.108   4.214   5.053
 6227SOL    HW130309   0.086   4.262   4.973
 6227SOL    HW230310   0.185   4.259   5.088
 6228SOL     OW30311   0.131   0.471  20.181
 6228SOL    HW130312   0.187   0.524  20.238
 6228SOL    HW230313   0.183   0.393  20.162
 6229SOL     OW30314   0.304   2.924  10.284
 6229SOL    HW130315   0.396   2.946  10.269
 6229SOL    HW230316   0.294   2.837  10.245
 6230SOL     OW30317   0.083   4.594  27.207
 6230SOL    HW130318   0.087   4.668  27.268
 6230SOL    HW230319   0.032   4.627  27.133
 6231SOL     OW30320   3.852   0.088   9.274
 6231SOL    HW130321   3.929   0.121   9.228
 6231SOL    HW230322   3.821   0.015   9.220
 6232SOL     OW30323   4.303   0.490  20.197
 6232SOL    HW130324   4.369   0.429  20.163
 6232SOL    HW230325   4.268   0.534  20.120
 6233SOL     OW30326   1.715   2.452   4.367
 6233SOL    HW130327   1.631   2.456   4.320
 6233SOL    HW230328   1.754   2.369   4.339
 6234SOL     OW30329   3.804   4.337   0.046
 6234SOL    HW130330   3.845   4.415   0.084
 6234SOL    HW230331   3.824   4.342  28.475
 6235SOL     OW30332   4.114   1.616   6.800
 6235SOL    HW130333   4.057   1.634   6.875
 6235SOL    HW230334   4.093   1.684   6.737
 6236SOL     OW30335   1.152   2.650   9.075
 6236SOL    HW130336   1.205   2.632   9.152
 6236SOL    HW230337   1.115   2.737   9.091
 6237SOL     OW30338   0.252   0.613  27.895
 6237SOL    HW130339   0.309   0.662  27.836
 6237SOL    HW230340   0.242   0.527  27.853
 6238SOL     OW30341   3.339   2.793  26.325
 6238SOL    HW130342   3.414   2.852  26.327
 6238SOL    HW230343   3.297   2.811  26.241
 6239SOL     OW30344   4.595   1.453   0.324
 6239SOL    HW130345   4.583   1.530   0.380
 6239SOL    HW230346   4.657   1.398   0.371
 6240SOL     OW30347   4.379   2.095  23.772
 6240SOL    HW130348   4.294   2.125  23.805
 6240SOL    HW230349   4.417   2.046  23.845
 6241SOL     OW30350   4.230   3.146   0.432
 6241SOL    HW130351   4.222   3.079   0.500
 6241SOL    HW230352   4.227   3.097   0.350
 6242SOL     OW30353   1.973   1.898   0.904
 6242SOL    HW130354   1.943   1.862   0.987
 6242SOL    HW230355   1.906   1.873   0.841
 6243SOL     OW30356   4.618   3.173   7.505
 6243SOL    HW130357   4.616   3.258   7.550
 6243SOL    HW230358   4.638   3.195   7.414
 6244SOL     OW30359   1.247   1.938  18.543
 6244SOL    HW130360   1.294   1.855  18.535
 6244SOL    HW230361   1.211   1.954  18.456
 6245SOL     OW30362   0.045   1.296  28.112
 6245SOL    HW130363   0.033   1.204  28.135
 6245SOL    HW230364   0.139   1.305  28.097
 6246SOL     OW30365   0.534   1.564   6.174
 6246SOL    HW130366   0.444   1.553   6.142
 6246SOL    HW230367   0.534   1.650   6.216
 6247SOL     OW30368   3.196   1.361   5.642
 6247SOL    HW130369   3.267   1.297   5.645
 6247SOL    HW230370   3.240   1.445   5.634
 6248SOL     OW30371   0.618   0.807  20.238
 6248SOL    HW130372   0.582   0.894  20.222
 6248SOL    HW230373   0.580   0.780  20.322
 6249SOL     OW30374   4.225   0.085  24.640
 6249SOL    HW130375   4.248   4.780  24.605
 6249SOL    HW230376   4.133   0.077  24.664
 6250SOL     OW30377   0.785   1.753  27.661
 6250SOL    HW130378   0.810   1.718  27.747
 6250SOL    HW230379   0.692   1.772  27.670
 6251SOL     OW30380   4.354   0.743  24.835
 6251SOL    HW130381   4.297   0.780  24.768
 6251SOL    HW230382   4.322   0.654  24.847
 6252SOL     OW30383   3.237   4.382  23.193
 6252SOL    HW130384   3.262   4.454  23.136
 6252SOL    HW230385   3.200   4.316  23.134
 6253SOL     OW30386   1.408   2.866  12.153
 6253SOL    HW130387   1.468   2.902  12.218
 6253SOL    HW230388   1.337   2.827  12.204
 6254SOL     OW30389   2.148   4.103  20.299
 6254SOL    HW130390   2.240   4.111  20.323
 6254SOL    HW230391   2.108   4.184  20.332
 6255SOL     OW30392   4.639   0.924  25.300
 6255SOL    HW130393   4.562   0.888  25.256
 6255SOL    HW230394   4.698   0.947  25.228
 6256SOL     OW30395   1.976   1.401   8.058
 6256SOL    HW130396   2.009   1.415   8.147
 6256SOL    HW230397   1.882   1.386   8.069
 6257SOL     OW30398   4.679   3.128  26.846
 6257SOL    HW130399   4.673   3.216  26.884
 6257SOL    HW230400   4.637   3.071  26.911
 6258SOL     OW30401   3.708   1.978  26.813
 6258SOL    HW130402   3.738   2.060  26.774
 6258SOL    HW230403   3.613   1.985  26.813
 6259SOL     OW30404   4.541   0.969  28.044
 6259SOL    HW130405   4.552   1.054  28.001
 6259SOL    HW230406   4.612   0.965  28.108
 6260SOL     OW30407   2.474   3.323   2.240
 6260SOL    HW130408   2.562   3.299   2.270
 6260SOL    HW230409   2.420   3.247   2.261
 6261SOL     OW30410   1.406   2.979  10.838
 6261SOL    HW130411   1.351   2.938  10.905
 6261SOL    HW230412   1.468   2.910  10.812
 6262SOL     OW30413   4.070   4.704  24.046
 6262SOL    HW130414   3.996   4.720  23.988
 6262SOL    HW230415   4.122   4.637  24.002
 6263SOL     OW30416   1.082   0.057  24.772
 6263SOL    HW130417   0.995   0.029  24.742
 6263SOL    HW230418   1.133   4.757  24.778
 6264SOL     OW30419   2.762   4.386  27.980
 6264SOL    HW130420   2.687   4.328  27.965
 6264SOL    HW230421   2.764   4.442  27.902
 6265SOL     OW30422   3.028   0.010  22.516
 6265SOL    HW130423   3.092   0.041  22.580
 6265SOL    HW230424   3.034   0.071  22.443
 6266SOL     OW30425   1.589   3.807  19.246
 6266SOL    HW130426   1.571   3.721  19.209
 6266SOL    HW230427   1.580   3.867  19.172
 6267SOL     OW30428   4.713   2.674  25.439
 6267SOL    HW130429   4.680   2.759  25.470
 6267SOL    HW230430   4.653   2.610  25.477
 6268SOL     OW30431   4.463   3.137  16.371
 6268SOL    HW130432   4.490   3.059  16.420
 6268SOL    HW230433   4.495   3.122  16.282
 6269SOL     OW30434   2.210   2.158   3.818
 6269SOL    HW130435   2.129   2.142   3.770
 6269SOL    HW230436   2.191   2.129   3.907
 6270SOL     OW30437   3.470   1.334  20.228
 6270SOL    HW130438   3.426   1.331  20.313
 6270SOL    HW230439   3.485   1.427  20.212
 6271SOL     OW30440   1.930   2.303  24.953
 6271SOL    HW130441   1.867   2.273  25.019
 6271SOL    HW230442   1.969   2.382  24.991
 6272SOL     OW30443   2.287   2.248  25.149
 6272SOL    HW130444   2.235   2.184  25.100
 6272SOL    HW230445   2.378   2.221  25.133
 6273SOL     OW30446   0.450   3.348   4.079
 6273SOL    HW130447   0.480   3.365   4.168
 6273SOL    HW230448   0.512   3.395   4.024
 6274SOL     OW30449   3.365   0.449  11.250
 6274SOL    HW130450   3.389   0.358  11.231
 6274SOL    HW230451   3.440   0.500  11.220
 6275SOL     OW30452   3.970   0.103   5.113
 6275SOL    HW130453   3.900   0.165   5.134
 6275SOL    HW230454   4.023   0.148   5.047
 6276SOL     OW30455   3.182   3.593   9.882
 6276SOL    HW130456   3.167   3.557   9.969
 6276SOL    HW230457   3.229   3.524   9.835
 6277SOL     OW30458   4.654   0.920  22.894
 6277SOL    HW130459   4.582   0.954  22.948
 6277SOL    HW230460   4.714   0.880  22.957
 6278SOL     OW30461   2.881   3.869   9.463
 6278SOL    HW130462   2.912   3.921   9.388
 6278SOL    HW230463   2.928   3.905   9.538
 6279SOL     OW30464   2.305   2.430  26.696
 6279SOL    HW130465   2.252   2.470  26.628
 6279SOL    HW230466   2.263   2.456  26.778
 6280SOL     OW30467   0.699   4.621  27.492
 6280SOL    HW130468   0.755   4.547  27.469
 6280SOL    HW230469   0.730   4.649  27.578
 6281SOL     OW30470   3.012   1.013   4.948
 6281SOL    HW130471   2.976   1.001   4.860
 6281SOL    HW230472   3.085   1.074   4.937
 6282SOL     OW30473   4.255   3.283  20.251
 6282SOL    HW130474   4.199   3.294  20.328
 6282SOL    HW230475   4.299   3.199  20.266
 6283SOL     OW30476   3.680   3.874   4.649
 6283SOL    HW130477   3.721   3.848   4.731
 6283SOL    HW230478   3.681   3.795   4.595
 6284SOL     OW30479   1.385   2.391  23.387
 6284SOL    HW130480   1.320   2.459  23.404
 6284SOL    HW230481   1.434   2.423  23.311
 6285SOL     OW30482   0.620   2.547   2.116
 6285SOL    HW130483   0.625   2.472   2.176
 6285SOL    HW230484   0.550   2.602   2.151
 6286SOL     OW30485   3.919   3.761  24.448
 6286SOL    HW130486   3.939   3.822  24.519
 6286SOL    HW230487   3.939   3.809  24.368
 6287SOL     OW30488   1.531   1.365   9.706
 6287SOL    HW130489   1.475   1.410   9.642
 6287SOL    HW230490   1.540   1.428   9.778
 6288SOL     OW30491   0.982   4.055   0.486
 6288SOL    HW130492   1.034   4.068   0.407
 6288SOL    HW230493   1.041   4.009   0.546
 6289SOL     OW30494   2.130   2.475   4.117
 6289SOL    HW130495   2.108   2.394   4.162
 6289SOL    HW230496   2.213   2.457   4.074
 6290SOL     OW30497   3.045   0.154  10.280
 6290SOL    HW130498   3.050   0.205  10.361
 6290SOL    HW230499   3.013   0.068  10.308
 6291SOL     OW30500   3.055   0.664  10.864
 6291SOL    HW130501   3.121   0.655  10.796
 6291SOL    HW230502   2.981   0.707  10.820
 6292SOL     OW30503   2.508   1.360   7.278
 6292SOL    HW130504   2.578   1.420   7.305
 6292SOL    HW230505   2.438   1.375   7.341
 6293SOL     OW30506   1.383   2.798  21.831
 6293SOL    HW130507   1.362   2.730  21.895
 6293SOL    HW230508   1.374   2.880  21.879
 6294SOL     OW30509   1.403   0.792   6.312
 6294SOL    HW130510   1.422   0.860   6.376
 6294SOL    HW230511   1.383   0.715   6.365
 6295SOL     OW30512   4.577   2.336  22.286
 6295SOL    HW130513   4.626   2.254  22.290
 6295SOL    HW230514   4.507   2.326  22.351
 6296SOL     OW30515   4.545   0.176   1.329
 6296SOL    HW130516   4.495   0.099   1.355
 6296SOL    HW230517   4.488   0.250   1.350
 6297SOL     OW30518   1.351   2.285  22.366
 6297SOL    HW130519   1.277   2.249  22.415
 6297SOL    HW230520   1.312   2.320  22.286
 6298SOL     OW30521   3.279   0.536  10.996
 6298SOL    HW130522   3.351   0.586  10.957
 6298SOL    HW230523   3.313   0.447  11.004
 6299SOL     OW30524   3.982   1.879  23.783
 6299SOL    HW130525   4.030   1.955  23.751
 6299SOL    HW230526   3.894   1.889  23.747
 6300SOL     OW30527   0.254   1.139  10.442
 6300SOL    HW130528   0.158   1.137  10.445
 6300SOL    HW230529   0.278   1.224  10.480
 6301SOL     OW30530   1.333   3.341  26.965
 6301SOL    HW130531   1.352   3.389  26.884
 6301SOL    HW230532   1.419   3.322  27.002
 6302SOL     OW30533   2.001   1.167  21.262
 6302SOL    HW130534   2.057   1.241  21.237
 6302SOL    HW230535   1.913   1.204  21.264
 6303SOL     OW30536   4.292   0.401   2.661
 6303SOL    HW130537   4.273   0.307   2.658
 6303SOL    HW230538   4.382   0.408   2.629
 6304SOL     OW30539   4.027   1.530  21.476
 6304SOL    HW130540   3.989   1.585  21.408
 6304SOL    HW230541   4.021   1.441  21.441
 6305SOL     OW30542   0.164   3.586   3.557
 6305SOL    HW130543   0.075   3.552   3.571
 6305SOL    HW230544   0.184   3.635   3.637
 6306SOL     OW30545   0.904   2.339  27.321
 6306SOL    HW130546   0.851   2.369  27.394
 6306SOL    HW230547   0.854   2.267  27.283
 6307SOL     OW30548   0.163   3.786   5.520
 6307SOL    HW130549   0.145   3.692   5.517
 6307SOL    HW230550   0.138   3.813   5.608
 6308SOL     OW30551   4.006   2.115  26.733
 6308SOL    HW130552   3.916   2.134  26.708
 6308SOL    HW230553   4.059   2.154  26.664
 6309SOL     OW30554   0.334   4.507  22.973
 6309SOL    HW130555   0.273   4.499  23.046
 6309SOL    HW230556   0.368   4.596  22.979
 6310SOL     OW30557   4.771   4.233  25.685
 6310SOL    HW130558   4.712   4.250  25.612
 6310SOL    HW230559   4.714   4.231  25.762
 6311SOL     OW30560   3.150   3.127   1.723
 6311SOL    HW130561   3.187   3.214   1.707
 6311SOL    HW230562   3.057   3.143   1.737
 6312SOL     OW30563   4.109   3.875  19.396
 6312SOL    HW130564   4.068   3.801  19.441
 6312SOL    HW230565   4.181   3.836  19.347
 6313SOL     OW30566   0.353   2.807  21.016
 6313SOL    HW130567   0.299   2.840  21.088
 6313SOL    HW230568   0.336   2.868  20.944
 6314SOL     OW30569   3.982   2.548   7.195
 6314SOL    HW130570   4.034   2.595   7.130
 6314SOL    HW230571   4.013   2.457   7.189
 6315SOL     OW30572   0.476   2.217   6.532
 6315SOL    HW130573   0.445   2.228   6.622
 6315SOL    HW230574   0.414   2.156   6.493
 6316SOL     OW30575   1.778   1.014  21.077
 6316SOL    HW130576   1.750   1.087  21.022
 6316SOL    HW230577   1.868   0.996  21.049
 6317SOL     OW30578   1.924   3.725   5.539
 6317SOL    HW130579   1.948   3.812   5.508
 6317SOL    HW230580   1.932   3.730   5.634
 6318SOL     OW30581   4.069   4.685   8.571
 6318SOL    HW130582   4.107   4.634   8.643
 6318SOL    HW230583   4.138   4.688   8.505
 6319SOL     OW30584   3.112   1.882  19.187
 6319SOL    HW130585   3.145   1.792  19.179
 6319SOL    HW230586   3.067   1.898  19.104
 6320SOL     OW30587   1.576   1.791  23.356
 6320SOL    HW130588   1.622   1.777  23.273
 6320SOL    HW230589   1.494   1.833  23.331
 6321SOL     OW30590   1.974   1.307   4.170
 6321SOL    HW130591   1.916   1.380   4.148
 6321SOL    HW230592   1.962   1.245   4.098
 6322SOL     OW30593   4.755   1.296   5.954
 6322SOL    HW130594   4.690   1.290   6.024
 6322SOL    HW230595   4.732   1.376   5.907
 6323SOL     OW30596   1.866   1.314   7.350
 6323SOL    HW130597   1.913   1.362   7.281
 6323SOL    HW230598   1.804   1.259   7.303
 6324SOL     OW30599   4.327   1.231  24.357
 6324SOL    HW130600   4.335   1.326  24.364
 6324SOL    HW230601   4.392   1.206  24.291
 6325SOL     OW30602   1.980   1.390   7.097
 6325SOL    HW130603   2.036   1.322   7.134
 6325SOL    HW230604   2.031   1.471   7.106
 6326SOL     OW30605   0.266   3.659   2.984
 6326SOL    HW130606   0.336   3.709   3.027
 6326SOL    HW230607   0.298   3.645   2.895
 6327SOL     OW30608   3.691   0.603  28.359
 6327SOL    HW130609   3.715   0.648  28.440
 6327SOL    HW230610   3.760   0.627  28.297
 6328SOL     OW30611   1.071   0.619   0.200
 6328SOL    HW130612   1.164   0.596   0.199
 6328SOL    HW230613   1.032   0.560   0.264
 6329SOL     OW30614   3.175   0.877   7.972
 6329SOL    HW130615   3.251   0.925   7.939
 6329SOL    HW230616   3.212   0.809   8.028
 6330SOL     OW30617   3.070   3.981  11.705
 6330SOL    HW130618   3.008   4.048  11.735
 6330SOL    HW230619   3.153   4.007  11.744
 6331SOL     OW30620   1.943   0.607   4.245
 6331SOL    HW130621   1.918   0.679   4.302
 6331SOL    HW230622   2.031   0.629   4.215
 6332SOL     OW30623   3.210   4.476  25.263
 6332SOL    HW130624   3.124   4.441  25.241
 6332SOL    HW230625   3.223   4.550  25.203
 6333SOL     OW30626   0.942   2.925  24.092
 6333SOL    HW130627   0.933   2.948  24.184
 6333SOL    HW230628   0.855   2.938  24.055
 6334SOL     OW30629   2.617   0.812  23.235
 6334SOL    HW130630   2.688   0.808  23.299
 6334SOL    HW230631   2.546   0.856  23.281
 6335SOL     OW30632   0.037   2.462   0.623
 6335SOL    HW130633   0.111   2.503   0.578
 6335SOL    HW230634   0.073   2.382   0.662
 6336SOL     OW30635   0.220   3.969  25.258
 6336SOL    HW130636   0.232   4.004  25.346
 6336SOL    HW230637   0.163   3.893  25.270
 6337SOL     OW30638   0.814   2.506  21.193
 6337SOL    HW130639   0.817   2.410  21.198
 6337SOL    HW230640   0.854   2.535  21.275
 6338SOL     OW30641   0.027   2.493  17.261
 6338SOL    HW130642   0.064   2.565  17.313
 6338SOL    HW230643   0.058   2.509  17.172
 6339SOL     OW30644   2.030   0.043  26.105
 6339SOL    HW130645   2.101   4.772  26.068
 6339SOL    HW230646   2.003   4.776  26.184
 6340SOL     OW30647   3.912   3.649  17.373
 6340SOL    HW130648   3.898   3.737  17.338
 6340SOL    HW230649   3.906   3.591  17.297
 6341SOL     OW30650   4.618   2.598   6.568
 6341SOL    HW130651   4.609   2.641   6.483
 6341SOL    HW230652   4.531   2.563   6.586
 6342SOL     OW30653   2.001   2.649  21.114
 6342SOL    HW130654   2.029   2.739  21.133
 6342SOL    HW230655   1.981   2.650  21.020
 6343SOL     OW30656   1.219   1.939   5.473
 6343SOL    HW130657   1.313   1.921   5.474
 6343SOL    HW230658   1.188   1.910   5.559
 6344SOL     OW30659   1.540   4.468  23.619
 6344SOL    HW130660   1.589   4.490  23.540
 6344SOL    HW230661   1.488   4.546  23.638
 6345SOL     OW30662   4.569   0.581   1.274
 6345SOL    HW130663   4.543   0.529   1.198
 6345SOL    HW230664   4.542   0.529   1.350
 6346SOL     OW30665   1.318   3.715  25.668
 6346SOL    HW130666   1.246   3.758  25.714
 6346SOL    HW230667   1.380   3.691  25.737
 6347SOL     OW30668   1.732   3.739   7.722
 6347SOL    HW130669   1.715   3.832   7.707
 6347SOL    HW230670   1.651   3.695   7.697
 6348SOL     OW30671   3.014   3.577   2.157
 6348SOL    HW130672   2.925   3.591   2.124
 6348SOL    HW230673   3.071   3.618   2.092
 6349SOL     OW30674   4.300   2.301  26.378
 6349SOL    HW130675   4.295   2.214  26.338
 6349SOL    HW230676   4.228   2.302  26.441
 6350SOL     OW30677   3.946   2.596  23.157
 6350SOL    HW130678   4.004   2.543  23.212
 6350SOL    HW230679   3.861   2.553  23.164
 6351SOL     OW30680   0.918   1.901  28.138
 6351SOL    HW130681   0.937   1.820  28.091
 6351SOL    HW230682   0.827   1.891  28.167
 6352SOL     OW30683   4.087   1.009   6.828
 6352SOL    HW130684   4.050   1.005   6.740
 6352SOL    HW230685   4.120   1.099   6.836
 6353SOL     OW30686   3.278   3.740  24.372
 6353SOL    HW130687   3.340   3.699  24.432
 6353SOL    HW230688   3.192   3.708  24.400
 6354SOL     OW30689   1.134   3.861  25.851
 6354SOL    HW130690   1.052   3.909  25.843
 6354SOL    HW230691   1.124   3.809  25.931
 6355SOL     OW30692   4.358   2.424   3.264
 6355SOL    HW130693   4.320   2.485   3.328
 6355SOL    HW230694   4.446   2.457   3.249
 6356SOL     OW30695   0.071   0.194  21.712
 6356SOL    HW130696   0.099   0.153  21.630
 6356SOL    HW230697   4.760   0.216  21.698
 6357SOL     OW30698   3.443   0.438   5.061
 6357SOL    HW130699   3.415   0.361   5.011
 6357SOL    HW230700   3.368   0.460   5.116
 6358SOL     OW30701   3.903   0.297  11.595
 6358SOL    HW130702   3.943   0.275  11.511
 6358SOL    HW230703   3.818   0.253  11.594
 6359SOL     OW30704   2.320   1.030  25.216
 6359SOL    HW130705   2.294   1.059  25.128
 6359SOL    HW230706   2.250   0.971  25.243
 6360SOL     OW30707   3.129   1.565  27.944
 6360SOL    HW130708   3.079   1.578  27.864
 6360SOL    HW230709   3.104   1.477  27.973
 6361SOL     OW30710   4.345   4.008   5.635
 6361SOL    HW130711   4.337   4.080   5.697
 6361SOL    HW230712   4.256   3.974   5.626
 6362SOL     OW30713   4.439   4.690  26.569
 6362SOL    HW130714   4.441   4.633  26.492
 6362SOL    HW230715   4.529   4.689  26.601
 6363SOL     OW30716   1.249   3.611  19.463
 6363SOL    HW130717   1.341   3.635  19.475
 6363SOL    HW230718   1.251   3.539  19.401
 6364SOL     OW30719   3.333   1.717  26.590
 6364SOL    HW130720   3.268   1.706  26.520
 6364SOL    HW230721   3.404   1.766  26.549
 6365SOL     OW30722   0.372   4.700  26.976
 6365SOL    HW130723   0.449   4.647  26.953
 6365SOL    HW230724   0.347   4.669  27.063
 6366SOL     OW30725   3.844   2.284   2.500
 6366SOL    HW130726   3.905   2.211   2.488
 6366SOL    HW230727   3.865   2.320   2.586
 6367SOL     OW30728   3.171   2.556  21.998
 6367SOL    HW130729   3.215   2.481  22.038
 6367SOL    HW230730   3.242   2.610  21.964
 6368SOL     OW30731   2.349   4.637   4.691
 6368SOL    HW130732   2.328   4.577   4.762
 6368SOL    HW230733   2.434   4.607   4.659
 6369SOL     OW30734   3.421   2.155  24.726
 6369SOL    HW130735   3.481   2.203  24.782
 6369SOL    HW230736   3.454   2.169  24.637
 6370SOL     OW30737   2.982   4.690   3.300
 6370SOL    HW130738   2.909   4.751   3.315
 6370SOL    HW230739   2.998   4.696   3.206
 6371SOL     OW30740   0.474   0.351  24.774
 6371SOL    HW130741   0.452   0.360  24.681
 6371SOL    HW230742   0.563   0.315  24.775
 6372SOL     OW30743   4.425   1.335   4.672
 6372SOL    HW130744   4.392   1.424   4.657
 6372SOL    HW230745   4.412   1.291   4.588
 6373SOL     OW30746   1.701   2.373   8.078
 6373SOL    HW130747   1.743   2.356   8.162
 6373SOL    HW230748   1.621   2.420   8.101
 6374SOL     OW30749   3.224   2.243  18.976
 6374SOL    HW130750   3.151   2.268  18.919
 6374SOL    HW230751   3.280   2.188  18.921
 6375SOL     OW30752   0.463   1.520  27.255
 6375SOL    HW130753   0.552   1.542  27.229
 6375SOL    HW230754   0.436   1.592  27.312
 6376SOL     OW30755   4.081   0.422  27.962
 6376SOL    HW130756   4.008   0.369  27.994
 6376SOL    HW230757   4.083   0.404  27.868
 6377SOL     OW30758   4.227   2.446  11.393
 6377SOL    HW130759   4.280   2.372  11.423
 6377SOL    HW230760   4.218   2.502  11.470
 6378SOL     OW30761   3.888   4.236  10.242
 6378SOL    HW130762   3.890   4.146  10.210
 6378SOL    HW230763   3.838   4.231  10.323
 6379SOL     OW30764   4.621   3.391   3.862
 6379SOL    HW130765   4.548   3.439   3.902
 6379SOL    HW230766   4.655   3.336   3.933
 6380SOL     OW30767   2.533   4.502   8.810
 6380SOL    HW130768   2.498   4.547   8.733
 6380SOL    HW230769   2.586   4.431   8.774
 6381SOL     OW30770   3.370   4.624   2.162
 6381SOL    HW130771   3.315   4.664   2.229
 6381SOL    HW230772   3.454   4.668   2.170
 6382SOL     OW30773   3.771   3.198  27.886
 6382SOL    HW130774   3.759   3.110  27.850
 6382SOL    HW230775   3.709   3.252  27.838
 6383SOL     OW30776   2.598   0.407  24.707
 6383SOL    HW130777   2.513   0.422  24.748
 6383SOL    HW230778   2.660   0.457  24.761
 6384SOL     OW30779   2.925   2.596   7.680
 6384SOL    HW130780   2.856   2.534   7.659
 6384SOL    HW230781   2.961   2.622   7.595
 6385SOL     OW30782   2.150   3.005  26.991
 6385SOL    HW130783   2.107   3.044  26.915
 6385SOL    HW230784   2.186   2.923  26.958
 6386SOL     OW30785   2.113   2.344   1.493
 6386SOL    HW130786   2.157   2.266   1.458
 6386SOL    HW230787   2.035   2.310   1.536
 6387SOL     OW30788   4.307   2.418   6.952
 6387SOL    HW130789   4.386   2.380   6.989
 6387SOL    HW230790   4.250   2.343   6.935
 6388SOL     OW30791   4.450   3.891   3.907
 6388SOL    HW130792   4.475   3.860   3.820
 6388SOL    HW230793   4.532   3.920   3.947
 6389SOL     OW30794   4.566   2.814   8.324
 6389SOL    HW130795   4.646   2.864   8.341
 6389SOL    HW230796   4.596   2.724   8.309
 6390SOL     OW30797   2.151   2.139  10.562
 6390SOL    HW130798   2.205   2.075  10.608
 6390SOL    HW230799   2.214   2.202  10.527
 6391SOL     OW30800   3.512   3.145   4.430
 6391SOL    HW130801   3.555   3.190   4.357
 6391SOL    HW230802   3.516   3.208   4.502
 6392SOL     OW30803   2.610   1.434  21.062
 6392SOL    HW130804   2.582   1.464  21.148
 6392SOL    HW230805   2.532   1.394  21.023
 6393SOL     OW30806   0.655   2.688   4.253
 6393SOL    HW130807   0.735   2.740   4.241
 6393SOL    HW230808   0.685   2.597   4.251
 6394SOL     OW30809   0.672   4.183  10.028
 6394SOL    HW130810   0.661   4.137   9.945
 6394SOL    HW230811   0.767   4.186  10.041
 6395SOL     OW30812   3.441   1.056   0.602
 6395SOL    HW130813   3.517   1.101   0.566
 6395SOL    HW230814   3.452   1.063   0.697
 6396SOL     OW30815   2.406   0.988  26.433
 6396SOL    HW130816   2.402   0.892  26.433
 6396SOL    HW230817   2.351   1.014  26.360
 6397SOL     OW30818   4.016   1.254   0.057
 6397SOL    HW130819   4.020   1.299   0.141
 6397SOL    HW230820   3.958   1.309   0.003
 6398SOL     OW30821   4.303   3.575  22.131
 6398SOL    HW130822   4.386   3.595  22.174
 6398SOL    HW230823   4.328   3.545  22.044
 6399SOL     OW30824   4.443   1.494   6.897
 6399SOL    HW130825   4.411   1.500   6.807
 6399SOL    HW230826   4.409   1.411   6.929
 6400SOL     OW30827   1.895   4.566  25.285
 6400SOL    HW130828   1.874   4.571  25.378
 6400SOL    HW230829   1.820   4.521  25.246
 6401SOL     OW30830   3.885   1.056  25.038
 6401SOL    HW130831   3.798   1.090  25.015
 6401SOL    HW230832   3.921   1.024  24.955
 6402SOL     OW30833   3.227   0.600  10.674
 6402SOL    HW130834   3.223   0.506  10.693
 6402SOL    HW230835   3.311   0.613  10.630
 6403SOL     OW30836   0.111   0.036   2.544
 6403SOL    HW130837   0.152   4.753   2.602
 6403SOL    HW230838   0.126   0.120   2.587
 6404SOL     OW30839   2.729   1.920  17.780
 6404SOL    HW130840   2.799   1.986  17.781
 6404SOL    HW230841   2.750   1.864  17.706
 6405SOL     OW30842   0.974   0.169   8.185
 6405SOL    HW130843   1.033   0.154   8.112
 6405SOL    HW230844   1.029   0.209   8.253
 6406SOL     OW30845   2.359   3.242   6.667
 6406SOL    HW130846   2.448   3.211   6.683
 6406SOL    HW230847   2.371   3.330   6.630
 6407SOL     OW30848   4.679   1.500   5.790
 6407SOL    HW130849   4.674   1.548   5.873
 6407SOL    HW230850   4.626   1.551   5.729
 6408SOL     OW30851   0.047   0.097  20.794
 6408SOL    HW130852   0.013   0.165  20.736
 6408SOL    HW230853   0.068   0.024  20.736
 6409SOL     OW30854   4.429   2.192  27.842
 6409SOL    HW130855   4.360   2.159  27.784
 6409SOL    HW230856   4.441   2.283  27.815
 6410SOL     OW30857   4.650   2.232   6.344
 6410SOL    HW130858   4.691   2.261   6.426
 6410SOL    HW230859   4.647   2.311   6.290
 6411SOL     OW30860   0.125   3.978   1.906
 6411SOL    HW130861   0.037   4.003   1.878
 6411SOL    HW230862   0.178   4.057   1.892
 6412SOL     OW30863   2.837   2.438  22.032
 6412SOL    HW130864   2.753   2.471  22.065
 6412SOL    HW230865   2.837   2.461  21.939
 6413SOL     OW30866   2.609   3.861  18.169
 6413SOL    HW130867   2.628   3.859  18.075
 6413SOL    HW230868   2.548   3.934  18.179
 6414SOL     OW30869   0.520   4.608  25.663
 6414SOL    HW130870   0.438   4.571  25.630
 6414SOL    HW230871   0.517   4.593  25.758
 6415SOL     OW30872   2.328   0.149  26.280
 6415SOL    HW130873   2.295   0.060  26.294
 6415SOL    HW230874   2.364   0.175  26.365
 6416SOL     OW30875   2.244   2.342   6.997
 6416SOL    HW130876   2.191   2.265   7.020
 6416SOL    HW230877   2.227   2.404   7.068
 6417SOL     OW30878   0.422   1.595   9.931
 6417SOL    HW130879   0.399   1.577  10.022
 6417SOL    HW230880   0.346   1.567   9.880
 6418SOL     OW30881   4.250   0.276   7.380
 6418SOL    HW130882   4.165   0.238   7.402
 6418SOL    HW230883   4.305   0.201   7.359
 6419SOL     OW30884   0.641   2.715  27.858
 6419SOL    HW130885   0.710   2.705  27.793
 6419SOL    HW230886   0.568   2.754  27.809
 6420SOL     OW30887   0.019   3.745   6.491
 6420SOL    HW130888   0.022   3.669   6.549
 6420SOL    HW230889   4.717   3.736   6.444
 6421SOL     OW30890   1.470   3.998  20.796
 6421SOL    HW130891   1.421   3.971  20.718
 6421SOL    HW230892   1.415   4.064  20.838
 6422SOL     OW30893   2.726   2.866   0.540
 6422SOL    HW130894   2.797   2.909   0.588
 6422SOL    HW230895   2.683   2.811   0.606
 6423SOL     OW30896   3.644   1.113  18.551
 6423SOL    HW130897   3.731   1.079  18.571
 6423SOL    HW230898   3.635   1.103  18.456
 6424SOL     OW30899   0.954   0.959   2.297
 6424SOL    HW130900   0.962   0.999   2.210
 6424SOL    HW230901   1.042   0.927   2.317
 6425SOL     OW30902   3.795   2.925  28.322
 6425SOL    HW130903   3.728   2.946  28.258
 6425SOL    HW230904   3.878   2.937  28.275
 6426SOL     OW30905   1.706   1.512  16.155
 6426SOL    HW130906   1.628   1.555  16.119
 6426SOL    HW230907   1.732   1.449  16.088
 6427SOL     OW30908   2.983   0.244   6.257
 6427SOL    HW130909   3.000   0.338   6.256
 6427SOL    HW230910   2.946   0.227   6.344
 6428SOL     OW30911   1.969   0.253  28.220
 6428SOL    HW130912   2.010   0.242  28.134
 6428SOL    HW230913   1.878   0.273  28.201
 6429SOL     OW30914   1.163   1.895  20.577
 6429SOL    HW130915   1.171   1.990  20.564
 6429SOL    HW230916   1.084   1.884  20.630
 6430SOL     OW30917   1.558   0.539  12.639
 6430SOL    HW130918   1.605   0.502  12.565
 6430SOL    HW230919   1.624   0.590  12.686
 6431SOL     OW30920   0.336   1.794  21.111
 6431SOL    HW130921   0.240   1.792  21.111
 6431SOL    HW230922   0.361   1.783  21.019
 6432SOL     OW30923   3.226   1.143   2.069
 6432SOL    HW130924   3.214   1.120   2.161
 6432SOL    HW230925   3.268   1.229   2.071
 6433SOL     OW30926   2.355   1.168  26.880
 6433SOL    HW130927   2.344   1.148  26.787
 6433SOL    HW230928   2.352   1.083  26.923
 6434SOL     OW30929   2.562   3.759   0.681
 6434SOL    HW130930   2.546   3.666   0.666
 6434SOL    HW230931   2.475   3.799   0.675
 6435SOL     OW30932   1.480   2.544  24.690
 6435SOL    HW130933   1.568   2.532  24.725
 6435SOL    HW230934   1.422   2.515  24.760
 6436SOL     OW30935   2.968   4.077  10.767
 6436SOL    HW130936   3.033   4.147  10.763
 6436SOL    HW230937   2.985   4.034  10.851
 6437SOL     OW30938   0.741   4.288   2.405
 6437SOL    HW130939   0.755   4.271   2.312
 6437SOL    HW230940   0.710   4.204   2.440
 6438SOL     OW30941   3.131   0.239  20.338
 6438SOL    HW130942   3.054   0.293  20.320
 6438SOL    HW230943   3.166   0.218  20.252
 6439SOL     OW30944   1.812   3.972  28.298
 6439SOL    HW130945   1.873   3.971  28.372
 6439SOL    HW230946   1.862   4.013  28.227
 6440SOL     OW30947   2.826   4.068  27.662
 6440SOL    HW130948   2.778   4.074  27.745
 6440SOL    HW230949   2.851   3.976  27.655
 6441SOL     OW30950   0.566   2.337   5.322
 6441SOL    HW130951   0.661   2.349   5.324
 6441SOL    HW230952   0.533   2.417   5.282
 6442SOL     OW30953   0.860   1.554   2.766
 6442SOL    HW130954   0.840   1.589   2.679
 6442SOL    HW230955   0.956   1.550   2.769
 6443SOL     OW30956   1.210   2.974   7.997
 6443SOL    HW130957   1.280   3.037   8.012
 6443SOL    HW230958   1.182   2.948   8.085
 6444SOL     OW30959   2.931   0.777   0.943
 6444SOL    HW130960   3.002   0.791   1.006
 6444SOL    HW230961   2.954   0.696   0.898
 6445SOL     OW30962   0.259   4.391  22.718
 6445SOL    HW130963   0.288   4.428  22.801
 6445SOL    HW230964   0.245   4.467  22.662
 6446SOL     OW30965   4.162   1.957   4.649
 6446SOL    HW130966   4.156   2.044   4.689
 6446SOL    HW230967   4.083   1.912   4.679
 6447SOL     OW30968   0.697   1.879  19.024
 6447SOL    HW130969   0.774   1.891  18.969
 6447SOL    HW230970   0.706   1.790  19.059
 6448SOL     OW30971   2.280   1.121   1.612
 6448SOL    HW130972   2.334   1.191   1.650
 6448SOL    HW230973   2.251   1.070   1.687
 6449SOL     OW30974   1.739   0.097  22.733
 6449SOL    HW130975   1.787   0.091  22.815
 6449SOL    HW230976   1.663   0.040  22.746
 6450SOL     OW30977   3.736   4.379  19.821
 6450SOL    HW130978   3.830   4.365  19.828
 6450SOL    HW230979   3.719   4.457  19.875
 6451SOL     OW30980   4.624   1.985  17.754
 6451SOL    HW130981   4.676   1.973  17.834
 6451SOL    HW230982   4.550   1.926  17.765
 6452SOL     OW30983   0.074   0.513   9.654
 6452SOL    HW130984   0.108   0.503   9.565
 6452SOL    HW230985   0.130   0.580   9.693
 6453SOL     OW30986   4.725   4.123   5.821
 6453SOL    HW130987   4.667   4.124   5.897
 6453SOL    HW230988   4.732   4.215   5.796
 6454SOL     OW30989   1.274   2.374   3.670
 6454SOL    HW130990   1.320   2.320   3.734
 6454SOL    HW230991   1.205   2.417   3.720
 6455SOL     OW30992   4.152   2.018   8.441
 6455SOL    HW130993   4.126   2.049   8.354
 6455SOL    HW230994   4.103   2.073   8.502
 6456SOL     OW30995   0.872   2.661  28.037
 6456SOL    HW130996   0.949   2.691  27.989
 6456SOL    HW230997   0.800   2.673  27.975
 6457SOL     OW30998   1.063   3.220  22.701
 6457SOL    HW130999   1.055   3.275  22.623
 6457SOL    HW231000   1.040   3.278  22.773
 6458SOL     OW31001   0.737   3.133   9.738
 6458SOL    HW131002   0.776   3.065   9.792
 6458SOL    HW231003   0.733   3.210   9.795
 6459SOL     OW31004   0.556   2.991  23.393
 6459SOL    HW131005   0.587   2.993  23.483
 6459SOL    HW231006   0.503   2.911  23.388
 6460SOL     OW31007   0.756   0.059   7.767
 6460SOL    HW131008   0.751   4.765   7.827
 6460SOL    HW231009   0.668   0.096   7.767
 6461SOL     OW31010   4.431   2.566  18.161
 6461SOL    HW131011   4.513   2.538  18.202
 6461SOL    HW231012   4.436   2.662  18.159
 6462SOL     OW31013   1.647   4.176   8.673
 6462SOL    HW131014   1.635   4.145   8.583
 6462SOL    HW231015   1.627   4.270   8.669
 6463SOL     OW31016   2.880   0.266   9.365
 6463SOL    HW131017   2.937   0.201   9.407
 6463SOL    HW231018   2.843   0.220   9.290
 6464SOL     OW31019   1.394   0.584   8.356
 6464SOL    HW131020   1.382   0.551   8.445
 6464SOL    HW231021   1.310   0.625   8.334
 6465SOL     OW31022   4.330   3.300   5.200
 6465SOL    HW131023   4.398   3.244   5.237
 6465SOL    HW231024   4.377   3.359   5.141
 6466SOL     OW31025   2.117   0.962   0.700
 6466SOL    HW131026   2.210   0.944   0.716
 6466SOL    HW231027   2.117   1.035   0.639
 6467SOL     OW31028   3.970   3.589   1.353
 6467SOL    HW131029   4.037   3.597   1.421
 6467SOL    HW231030   3.920   3.670   1.360
 6468SOL     OW31031   4.274   4.550   1.999
 6468SOL    HW131032   4.337   4.585   1.936
 6468SOL    HW231033   4.328   4.513   2.069
 6469SOL     OW31034   2.494   2.784   9.372
 6469SOL    HW131035   2.429   2.732   9.419
 6469SOL    HW231036   2.528   2.845   9.437
 6470SOL     OW31037   4.363   2.505   6.680
 6470SOL    HW131038   4.384   2.424   6.634
 6470SOL    HW231039   4.357   2.479   6.772
 6471SOL     OW31040   4.020   2.783   2.111
 6471SOL    HW131041   4.113   2.778   2.133
 6471SOL    HW231042   3.988   2.860   2.157
 6472SOL     OW31043   2.891   2.809   6.234
 6472SOL    HW131044   2.852   2.734   6.278
 6472SOL    HW231045   2.821   2.844   6.179
 6473SOL     OW31046   1.764   4.183  24.072
 6473SOL    HW131047   1.745   4.274  24.049
 6473SOL    HW231048   1.744   4.178  24.166
 6474SOL     OW31049   3.610   0.144  11.127
 6474SOL    HW131050   3.657   0.205  11.184
 6474SOL    HW231051   3.519   0.150  11.155
 6475SOL     OW31052   3.285   1.415  24.802
 6475SOL    HW131053   3.318   1.502  24.777
 6475SOL    HW231054   3.221   1.432  24.871
 6476SOL     OW31055   4.530   3.722  18.788
 6476SOL    HW131056   4.597   3.710  18.855
 6476SOL    HW231057   4.563   3.672  18.713
 6477SOL     OW31058   0.783   2.689  27.273
 6477SOL    HW131059   0.696   2.699  27.312
 6477SOL    HW231060   0.829   2.770  27.294
 6478SOL     OW31061   3.281   0.520  28.417
 6478SOL    HW131062   3.188   0.537  28.402
 6478SOL    HW231063   3.291   0.526  28.512
 6479SOL     OW31064   4.769   0.587   2.744
 6479SOL    HW131065   0.047   0.631   2.682
 6479SOL    HW231066   4.730   0.658   2.795
 6480SOL     OW31067   3.067   3.095   0.333
 6480SOL    HW131068   3.125   3.060   0.265
 6480SOL    HW231069   2.981   3.058   0.313
 6481SOL     OW31070   4.654   4.369  21.065
 6481SOL    HW131071   4.718   4.401  21.129
 6481SOL    HW231072   4.583   4.332  21.118
 6482SOL     OW31073   3.031   4.621  23.557
 6482SOL    HW131074   3.065   4.636  23.645
 6482SOL    HW231075   3.065   4.535  23.532
 6483SOL     OW31076   0.448   0.365   8.612
 6483SOL    HW131077   0.525   0.313   8.635
 6483SOL    HW231078   0.442   0.359   8.517
 6484SOL     OW31079   3.555   2.386  22.906
 6484SOL    HW131080   3.577   2.456  22.845
 6484SOL    HW231081   3.577   2.305  22.859
 6485SOL     OW31082   3.126   3.555  22.477
 6485SOL    HW131083   3.157   3.552  22.386
 6485SOL    HW231084   3.049   3.499  22.478
 6486SOL     OW31085   0.073   2.331   5.408
 6486SOL    HW131086   0.002   2.372   5.458
 6486SOL    HW231087   0.115   2.403   5.361
 6487SOL     OW31088   1.896   0.179   0.445
 6487SOL    HW131089   1.945   0.131   0.512
 6487SOL    HW231090   1.933   0.267   0.446
 6488SOL     OW31091   0.204   2.623  25.103
 6488SOL    HW131092   0.188   2.703  25.053
 6488SOL    HW231093   0.181   2.552  25.043
 6489SOL     OW31094   2.480   3.950  22.658
 6489SOL    HW131095   2.506   3.874  22.709
 6489SOL    HW231096   2.559   3.975  22.609
 6490SOL     OW31097   2.398   0.073  21.264
 6490SOL    HW131098   2.450   0.045  21.188
 6490SOL    HW231099   2.399   4.778  21.322
 6491SOL     OW31100   2.890   0.170   5.324
 6491SOL    HW131101   2.869   0.081   5.295
 6491SOL    HW231102   2.849   0.177   5.410
 6492SOL     OW31103   1.263   3.304  27.311
 6492SOL    HW131104   1.225   3.381  27.354
 6492SOL    HW231105   1.271   3.329  27.219
 6493SOL     OW31106   0.110   1.303  19.603
 6493SOL    HW131107   0.103   1.327  19.511
 6493SOL    HW231108   0.028   1.334  19.642
 6494SOL     OW31109   3.558   3.584   0.565
 6494SOL    HW131110   3.487   3.568   0.503
 6494SOL    HW231111   3.514   3.594   0.650
 6495SOL     OW31112   2.811   0.087  10.461
 6495SOL    HW131113   2.859   0.019  10.509
 6495SOL    HW231114   2.809   0.162  10.521
 6496SOL     OW31115   1.363   1.013   4.845
 6496SOL    HW131116   1.274   0.991   4.874
 6496SOL    HW231117   1.392   1.081   4.906
 6497SOL     OW31118   3.543   1.835   2.969
 6497SOL    HW131119   3.607   1.786   2.917
 6497SOL    HW231120   3.584   1.843   3.055
 6498SOL     OW31121   1.257   0.937   2.794
 6498SOL    HW131122   1.291   1.014   2.749
 6498SOL    HW231123   1.162   0.943   2.784
 6499SOL     OW31124   1.249   3.953   5.056
 6499SOL    HW131125   1.292   3.871   5.030
 6499SOL    HW231126   1.156   3.935   5.045
 6500SOL     OW31127   0.354   2.731   4.975
 6500SOL    HW131128   0.312   2.745   5.060
 6500SOL    HW231129   0.398   2.647   4.984
 6501SOL     OW31130   2.817   2.933   7.581
 6501SOL    HW131131   2.861   2.938   7.666
 6501SOL    HW231132   2.887   2.913   7.518
 6502SOL     OW31133   2.845   3.075  25.575
 6502SOL    HW131134   2.800   3.124  25.644
 6502SOL    HW231135   2.832   2.983  25.598
 6503SOL     OW31136   4.751   0.931   1.663
 6503SOL    HW131137   0.045   0.959   1.716
 6503SOL    HW231138   0.005   0.861   1.608
 6504SOL     OW31139   1.738   1.133  11.431
 6504SOL    HW131140   1.744   1.065  11.498
 6504SOL    HW231141   1.817   1.120  11.378
 6505SOL     OW31142   4.520   0.106   8.269
 6505SOL    HW131143   4.543   0.154   8.190
 6505SOL    HW231144   4.449   0.048   8.242
 6506SOL     OW31145   4.223   0.990  25.761
 6506SOL    HW131146   4.271   0.911  25.736
 6506SOL    HW231147   4.144   0.958  25.803
 6507SOL     OW31148   2.393   3.254   4.937
 6507SOL    HW131149   2.401   3.224   5.027
 6507SOL    HW231150   2.473   3.305   4.922
 6508SOL     OW31151   3.300   4.473   5.065
 6508SOL    HW131152   3.307   4.501   4.974
 6508SOL    HW231153   3.390   4.456   5.092
 6509SOL     OW31154   1.339   2.103   6.721
 6509SOL    HW131155   1.296   2.187   6.739
 6509SOL    HW231156   1.432   2.119   6.739
 6510SOL     OW31157   4.581   1.260  27.999
 6510SOL    HW131158   4.516   1.287  28.064
 6510SOL    HW231159   4.664   1.261  28.046
 6511SOL     OW31160   2.872   2.525   2.366
 6511SOL    HW131161   2.785   2.563   2.356
 6511SOL    HW231162   2.857   2.444   2.415
 6512SOL     OW31163   1.651   2.069   1.537
 6512SOL    HW131164   1.591   2.001   1.566
 6512SOL    HW231165   1.628   2.084   1.445
 6513SOL     OW31166   0.533   2.476   6.846
 6513SOL    HW131167   0.522   2.383   6.867
 6513SOL    HW231168   0.617   2.500   6.885
 6514SOL     OW31169   1.824   2.892  25.162
 6514SOL    HW131170   1.804   2.823  25.098
 6514SOL    HW231171   1.779   2.865  25.242
 6515SOL     OW31172   1.847   0.536   1.073
 6515SOL    HW131173   1.906   0.496   1.010
 6515SOL    HW231174   1.904   0.572   1.140
 6516SOL     OW31175   1.138   0.534   7.746
 6516SOL    HW131176   1.050   0.562   7.721
 6516SOL    HW231177   1.197   0.591   7.697
 6517SOL     OW31178   4.141   0.841   0.928
 6517SOL    HW131179   4.087   0.764   0.943
 6517SOL    HW231180   4.213   0.810   0.873
 6518SOL     OW31181   3.599   1.716   6.815
 6518SOL    HW131182   3.620   1.723   6.722
 6518SOL    HW231183   3.610   1.623   6.836
 6519SOL     OW31184   0.476   2.115   1.298
 6519SOL    HW131185   0.528   2.088   1.222
 6519SOL    HW231186   0.389   2.135   1.262
 6520SOL     OW31187   2.371   3.848   7.523
 6520SOL    HW131188   2.382   3.875   7.614
 6520SOL    HW231189   2.319   3.768   7.528
 6521SOL     OW31190   3.967   0.506   1.529
 6521SOL    HW131191   3.886   0.456   1.517
 6521SOL    HW231192   3.995   0.528   1.440
 6522SOL     OW31193   3.545   3.639  19.062
 6522SOL    HW131194   3.470   3.663  19.116
 6522SOL    HW231195   3.621   3.657  19.117
 6523SOL     OW31196   2.142   1.812  26.887
 6523SOL    HW131197   2.194   1.880  26.930
 6523SOL    HW231198   2.052   1.846  26.889
 6524SOL     OW31199   0.004   1.488   7.141
 6524SOL    HW131200   4.699   1.462   7.108
 6524SOL    HW231201   4.768   1.567   7.192
 6525SOL     OW31202   1.875   1.330  22.588
 6525SOL    HW131203   1.831   1.388  22.650
 6525SOL    HW231204   1.816   1.255  22.579
 6526SOL     OW31205   1.373   0.053  26.362
 6526SOL    HW131206   1.419   0.109  26.299
 6526SOL    HW231207   1.329   4.769  26.308
 6527SOL     OW31208   3.236   4.234   8.053
 6527SOL    HW131209   3.314   4.265   8.099
 6527SOL    HW231210   3.257   4.243   7.960
 6528SOL     OW31211   3.622   2.221  20.444
 6528SOL    HW131212   3.667   2.199  20.526
 6528SOL    HW231213   3.671   2.173  20.377
 6529SOL     OW31214   2.088   4.388  21.013
 6529SOL    HW131215   2.072   4.479  21.039
 6529SOL    HW231216   2.067   4.337  21.091
 6530SOL     OW31217   2.046   0.054  26.583
 6530SOL    HW131218   1.980   0.038  26.651
 6530SOL    HW231219   2.004   0.025  26.502
 6531SOL     OW31220   1.842   2.224  27.614
 6531SOL    HW131221   1.934   2.244  27.597
 6531SOL    HW231222   1.813   2.177  27.536
 6532SOL     OW31223   4.639   1.168   0.457
 6532SOL    HW131224   4.568   1.231   0.450
 6532SOL    HW231225   4.646   1.150   0.551
 6533SOL     OW31226   1.315   0.564   2.466
 6533SOL    HW131227   1.257   0.640   2.459
 6533SOL    HW231228   1.276   0.510   2.535
 6534SOL     OW31229   1.730   1.888  27.846
 6534SOL    HW131230   1.655   1.881  27.787
 6534SOL    HW231231   1.727   1.979  27.877
 6535SOL     OW31232   4.244   3.414   0.488
 6535SOL    HW131233   4.332   3.422   0.525
 6535SOL    HW231234   4.233   3.320   0.475
 6536SOL     OW31235   4.072   2.797  20.292
 6536SOL    HW131236   4.149   2.755  20.330
 6536SOL    HW231237   4.090   2.800  20.198
 6537SOL     OW31238   3.804   1.627  22.851
 6537SOL    HW131239   3.865   1.691  22.888
 6537SOL    HW231240   3.815   1.634  22.756
 6538SOL     OW31241   4.719   3.256   7.242
 6538SOL    HW131242   4.743   3.340   7.203
 6538SOL    HW231243   4.741   3.192   7.174
 6539SOL     OW31244   4.297   3.320   8.381
 6539SOL    HW131245   4.252   3.252   8.330
 6539SOL    HW231246   4.301   3.396   8.322
 6540SOL     OW31247   2.226   1.749  25.758
 6540SOL    HW131248   2.136   1.748  25.790
 6540SOL    HW231249   2.277   1.787  25.830
 6541SOL     OW31250   1.397   2.877  13.082
 6541SOL    HW131251   1.352   2.813  13.137
 6541SOL    HW231252   1.345   2.957  13.091
 6542SOL     OW31253   3.807   2.944   1.449
 6542SOL    HW131254   3.757   3.025   1.446
 6542SOL    HW231255   3.801   2.915   1.540
 6543SOL     OW31256   2.067   3.200  20.900
 6543SOL    HW131257   2.102   3.194  20.811
 6543SOL    HW231258   2.022   3.117  20.914
 6544SOL     OW31259   2.133   1.734  12.471
 6544SOL    HW131260   2.040   1.722  12.491
 6544SOL    HW231261   2.178   1.706  12.550
 6545SOL     OW31262   4.001   2.640   4.847
 6545SOL    HW131263   4.047   2.696   4.910
 6545SOL    HW231264   3.976   2.563   4.898
 6546SOL     OW31265   2.722   3.728  14.170
 6546SOL    HW131266   2.767   3.655  14.213
 6546SOL    HW231267   2.775   3.805  14.193
 6547SOL     OW31268   4.047   3.279  25.886
 6547SOL    HW131269   3.991   3.337  25.834
 6547SOL    HW231270   4.111   3.338  25.927
 6548SOL     OW31271   1.277   1.328   3.967
 6548SOL    HW131272   1.269   1.410   3.918
 6548SOL    HW231273   1.339   1.275   3.916
 6549SOL     OW31274   3.436   3.067  11.074
 6549SOL    HW131275   3.495   3.046  11.146
 6549SOL    HW231276   3.412   3.159  11.089
 6550SOL     OW31277   4.055   1.863  21.528
 6550SOL    HW131278   4.064   1.803  21.602
 6550SOL    HW231279   4.010   1.812  21.461
 6551SOL     OW31280   4.042   4.181   2.409
 6551SOL    HW131281   4.014   4.259   2.457
 6551SOL    HW231282   4.131   4.201   2.380
 6552SOL     OW31283   0.976   2.940   6.778
 6552SOL    HW131284   0.985   3.002   6.850
 6552SOL    HW231285   0.971   2.854   6.820
 6553SOL     OW31286   1.538   3.254   2.072
 6553SOL    HW131287   1.454   3.216   2.097
 6553SOL    HW231288   1.564   3.305   2.148
 6554SOL     OW31289   3.033   3.078  27.347
 6554SOL    HW131290   3.006   3.107  27.434
 6554SOL    HW231291   2.968   3.116  27.288
 6555SOL     OW31292   3.784   3.251  28.333
 6555SOL    HW131293   3.837   3.234  28.411
 6555SOL    HW231294   3.777   3.166  28.289
 6556SOL     OW31295   4.111   2.190   4.218
 6556SOL    HW131296   4.046   2.236   4.165
 6556SOL    HW231297   4.190   2.244   4.212
 6557SOL     OW31298   1.753   2.960   3.761
 6557SOL    HW131299   1.808   2.884   3.781
 6557SOL    HW231300   1.796   3.033   3.805
 6558SOL     OW31301   0.999   0.284   7.315
 6558SOL    HW131302   0.957   0.367   7.338
 6558SOL    HW231303   0.988   0.229   7.392
 6559SOL     OW31304   4.663   3.915  10.676
 6559SOL    HW131305   4.626   3.827  10.687
 6559SOL    HW231306   4.687   3.942  10.765
 6560SOL     OW31307   3.415   1.197   0.020
 6560SOL    HW131308   3.458   1.123   0.063
 6560SOL    HW231309   3.327   1.199   0.059
 6561SOL     OW31310   3.745   1.467  19.440
 6561SOL    HW131311   3.661   1.474  19.395
 6561SOL    HW231312   3.791   1.548  19.418
 6562SOL     OW31313   2.461   2.597  11.626
 6562SOL    HW131314   2.439   2.506  11.647
 6562SOL    HW231315   2.511   2.591  11.545
 6563SOL     OW31316   0.420   2.108   7.287
 6563SOL    HW131317   0.429   2.015   7.306
 6563SOL    HW231318   0.503   2.147   7.316
 6564SOL     OW31319   2.015   4.080   4.500
 6564SOL    HW131320   2.090   4.063   4.442
 6564SOL    HW231321   1.943   4.102   4.440
 6565SOL     OW31322   4.520   3.280  22.524
 6565SOL    HW131323   4.541   3.213  22.459
 6565SOL    HW231324   4.544   3.241  22.608
 6566SOL     OW31325   3.683   3.630   3.769
 6566SOL    HW131326   3.614   3.671   3.821
 6566SOL    HW231327   3.753   3.612   3.832
 6567SOL     OW31328   0.850   1.153   1.346
 6567SOL    HW131329   0.865   1.229   1.403
 6567SOL    HW231330   0.908   1.085   1.381
 6568SOL     OW31331   3.710   0.885   8.609
 6568SOL    HW131332   3.650   0.850   8.675
 6568SOL    HW231333   3.785   0.917   8.659
 6569SOL     OW31334   4.560   2.357  12.775
 6569SOL    HW131335   4.561   2.360  12.871
 6569SOL    HW231336   4.470   2.378  12.752
 6570SOL     OW31337   0.072   2.422   1.387
 6570SOL    HW131338   0.144   2.416   1.450
 6570SOL    HW231339   0.101   2.486   1.322
 6571SOL     OW31340   2.305   3.320   2.556
 6571SOL    HW131341   2.303   3.309   2.461
 6571SOL    HW231342   2.241   3.389   2.574
 6572SOL     OW31343   3.506   3.900   3.099
 6572SOL    HW131344   3.580   3.952   3.129
 6572SOL    HW231345   3.444   3.965   3.065
 6573SOL     OW31346   3.290   2.109  19.216
 6573SOL    HW131347   3.216   2.050  19.231
 6573SOL    HW231348   3.267   2.158  19.137
 6574SOL     OW31349   3.039   2.353  23.561
 6574SOL    HW131350   2.983   2.358  23.484
 6574SOL    HW231351   2.978   2.345  23.634
 6575SOL     OW31352   0.539   3.219  21.236
 6575SOL    HW131353   0.539   3.268  21.154
 6575SOL    HW231354   0.507   3.281  21.301
 6576SOL     OW31355   3.159   2.064   1.183
 6576SOL    HW131356   3.189   2.116   1.257
 6576SOL    HW231357   3.177   1.973   1.209
 6577SOL     OW31358   0.584   4.679  19.681
 6577SOL    HW131359   0.507   4.657  19.733
 6577SOL    HW231360   0.642   4.603  19.690
 6578SOL     OW31361   2.193   4.467   4.306
 6578SOL    HW131362   2.209   4.506   4.392
 6578SOL    HW231363   2.190   4.542   4.246
 6579SOL     OW31364   4.351   3.954   8.195
 6579SOL    HW131365   4.272   4.006   8.179
 6579SOL    HW231366   4.417   4.019   8.220
 6580SOL     OW31367   1.020   3.298  13.905
 6580SOL    HW131368   0.978   3.382  13.925
 6580SOL    HW231369   1.113   3.320  13.894
 6581SOL     OW31370   2.406   4.107  12.322
 6581SOL    HW131371   2.345   4.043  12.358
 6581SOL    HW231372   2.350   4.180  12.294
 6582SOL     OW31373   2.181   0.575  13.948
 6582SOL    HW131374   2.260   0.537  13.986
 6582SOL    HW231375   2.152   0.511  13.884
 6583SOL     OW31376   3.848   2.524  13.221
 6583SOL    HW131377   3.916   2.497  13.159
 6583SOL    HW231378   3.797   2.589  13.173
 6584SOL     OW31379   4.530   3.554  22.835
 6584SOL    HW131380   4.514   3.560  22.741
 6584SOL    HW231381   4.496   3.468  22.859
 6585SOL     OW31382   2.128   3.016  12.158
 6585SOL    HW131383   2.182   2.978  12.228
 6585SOL    HW231384   2.117   3.108  12.184
 6586SOL     OW31385   2.320   1.329  11.832
 6586SOL    HW131386   2.285   1.272  11.900
 6586SOL    HW231387   2.312   1.417  11.868
 6587SOL     OW31388   4.376   1.821  11.915
 6587SOL    HW131389   4.419   1.867  11.987
 6587SOL    HW231390   4.376   1.729  11.941
 6588SOL     OW31391   4.276   3.235  11.456
 6588SOL    HW131392   4.361   3.242  11.499
 6588SOL    HW231393   4.213   3.235  11.528
 6589SOL     OW31394   3.484   0.407  13.534
 6589SOL    HW131395   3.449   0.402  13.623
 6589SOL    HW231396   3.576   0.382  13.543
 6590SOL     OW31397   4.484   2.427  13.036
 6590SOL    HW131398   4.437   2.464  13.111
 6590SOL    HW231399   4.535   2.500  13.002
 6591SOL     OW31400   2.843   3.678  20.779
 6591SOL    HW131401   2.882   3.734  20.846
 6591SOL    HW231402   2.797   3.738  20.721
 6592SOL     OW31403   3.833   2.808  12.568
 6592SOL    HW131404   3.851   2.865  12.643
 6592SOL    HW231405   3.793   2.730  12.607
 6593SOL     OW31406   1.828   1.294  28.080
 6593SOL    HW131407   1.898   1.257  28.026
 6593SOL    HW231408   1.788   1.218  28.123
 6594SOL     OW31409   3.176   0.696  25.053
 6594SOL    HW131410   3.136   0.705  24.966
 6594SOL    HW231411   3.104   0.669  25.110
 6595SOL     OW31412   0.764   2.739  12.399
 6595SOL    HW131413   0.842   2.790  12.378
 6595SOL    HW231414   0.768   2.727  12.494
 6596SOL     OW31415   3.108   2.229  13.023
 6596SOL    HW131416   3.057   2.222  12.943
 6596SOL    HW231417   3.072   2.305  13.068
 6597SOL     OW31418   4.297   1.278  24.655
 6597SOL    HW131419   4.292   1.206  24.593
 6597SOL    HW231420   4.241   1.251  24.728
 6598SOL     OW31421   0.686   1.404  11.997
 6598SOL    HW131422   0.635   1.388  11.917
 6598SOL    HW231423   0.695   1.318  12.037
 6599SOL     OW31424   1.438   1.753  10.620
 6599SOL    HW131425   1.519   1.712  10.650
 6599SOL    HW231426   1.411   1.808  10.693
 6600SOL     OW31427   3.386   3.446  12.349
 6600SOL    HW131428   3.397   3.450  12.444
 6600SOL    HW231429   3.433   3.522  12.316
 6601SOL     OW31430   1.130   2.238   8.570
 6601SOL    HW131431   1.042   2.202   8.577
 6601SOL    HW231432   1.118   2.333   8.574
 6602SOL     OW31433   0.922   3.188   9.475
 6602SOL    HW131434   0.869   3.175   9.554
 6602SOL    HW231435   0.999   3.236   9.505
 6603SOL     OW31436   3.446   2.560  12.872
 6603SOL    HW131437   3.538   2.582  12.856
 6603SOL    HW231438   3.408   2.550  12.785
 6604SOL     OW31439   3.448   1.072  10.361
 6604SOL    HW131440   3.417   1.162  10.372
 6604SOL    HW231441   3.534   1.071  10.403
 6605SOL     OW31442   4.310   2.713  10.864
 6605SOL    HW131443   4.280   2.667  10.785
 6605SOL    HW231444   4.334   2.643  10.925
 6606SOL     OW31445   1.310   1.925   2.281
 6606SOL    HW131446   1.390   1.977   2.287
 6606SOL    HW231447   1.321   1.856   2.347
 6607SOL     OW31448   0.915   1.297  12.852
 6607SOL    HW131449   0.909   1.258  12.939
 6607SOL    HW231450   0.928   1.223  12.793
 6608SOL     OW31451   2.415   1.799  12.053
 6608SOL    HW131452   2.403   1.801  12.148
 6608SOL    HW231453   2.392   1.887  12.024
 6609SOL     OW31454   2.943   3.348  11.470
 6609SOL    HW131455   2.919   3.415  11.534
 6609SOL    HW231456   3.032   3.324  11.494
 6610SOL     OW31457   3.957   3.313  12.829
 6610SOL    HW131458   3.892   3.270  12.773
 6610SOL    HW231459   3.936   3.406  12.822
 6611SOL     OW31460   2.054   4.045   9.925
 6611SOL    HW131461   1.983   4.103   9.952
 6611SOL    HW231462   2.074   3.994  10.003
 6612SOL     OW31463   3.724   1.907  12.933
 6612SOL    HW131464   3.818   1.899  12.918
 6612SOL    HW231465   3.690   1.818  12.922
 6613SOL     OW31466   3.257   2.094  12.468
 6613SOL    HW131467   3.180   2.108  12.413
 6613SOL    HW231468   3.259   2.170  12.527
 6614SOL     OW31469   0.948   0.639   6.053
 6614SOL    HW131470   0.930   0.638   5.959
 6614SOL    HW231471   0.872   0.683   6.091
 6615SOL     OW31472   2.091   1.577  27.359
 6615SOL    HW131473   2.067   1.557  27.269
 6615SOL    HW231474   2.056   1.665  27.374
 6616SOL     OW31475   2.460   1.776  11.312
 6616SOL    HW131476   2.498   1.833  11.379
 6616SOL    HW231477   2.433   1.836  11.242
 6617SOL     OW31478   4.556   0.437   2.630
 6617SOL    HW131479   4.631   0.496   2.637
 6617SOL    HW231480   4.589   0.362   2.581
 6618SOL     OW31481   1.894   1.780   1.576
 6618SOL    HW131482   1.871   1.834   1.500
 6618SOL    HW231483   1.986   1.756   1.562
 6619SOL     OW31484   4.499   1.887  27.964
 6619SOL    HW131485   4.506   1.794  27.943
 6619SOL    HW231486   4.557   1.899  28.039
 6620SOL     OW31487   3.643   2.363  12.646
 6620SOL    HW131488   3.687   2.402  12.721
 6620SOL    HW231489   3.613   2.277  12.677
 6621SOL     OW31490   4.128   3.115  12.911
 6621SOL    HW131491   4.077   3.194  12.895
 6621SOL    HW231492   4.134   3.109  13.006
 6622SOL     OW31493   2.739   2.871  11.666
 6622SOL    HW131494   2.807   2.927  11.628
 6622SOL    HW231495   2.757   2.784  11.630
 6623SOL     OW31496   2.663   2.430  12.215
 6623SOL    HW131497   2.679   2.396  12.303
 6623SOL    HW231498   2.570   2.451  12.214
 6624SOL     OW31499   3.672   2.068  12.156
 6624SOL    HW131500   3.612   2.009  12.111
 6624SOL    HW231501   3.643   2.067  12.247
 6625SOL     OW31502   1.198   0.463  24.035
 6625SOL    HW131503   1.164   0.452  24.124
 6625SOL    HW231504   1.252   0.386  24.020
 6626SOL     OW31505   1.331   4.451   8.727
 6626SOL    HW131506   1.378   4.534   8.736
 6626SOL    HW231507   1.285   4.458   8.644
 6627SOL     OW31508   1.908   1.279  27.002
 6627SOL    HW131509   1.821   1.259  26.968
 6627SOL    HW231510   1.941   1.348  26.944
 6628SOL     OW31511   4.309   2.958  13.092
 6628SOL    HW131512   4.380   3.011  13.130
 6628SOL    HW231513   4.236   2.970  13.152
 6629SOL     OW31514   4.264   3.092   9.661
 6629SOL    HW131515   4.193   3.145   9.626
 6629SOL    HW231516   4.343   3.131   9.624
 6630SOL     OW31517   4.377   2.184  13.033
 6630SOL    HW131518   4.407   2.274  13.017
 6630SOL    HW231519   4.434   2.152  13.102
 6631SOL     OW31520   4.488   2.676  12.395
 6631SOL    HW131521   4.489   2.713  12.483
 6631SOL    HW231522   4.398   2.687  12.365
 6632SOL     OW31523   1.909   2.925  11.978
 6632SOL    HW131524   1.887   2.848  12.030
 6632SOL    HW231525   1.992   2.955  12.014
 6633SOL     OW31526   3.094   1.242  11.350
 6633SOL    HW131527   3.065   1.162  11.395
 6633SOL    HW231528   3.186   1.225  11.328
 6634SOL     OW31529   0.319   4.059  27.973
 6634SOL    HW131530   0.304   4.065  28.067
 6634SOL    HW231531   0.316   3.965  27.954
 6635SOL     OW31532   2.083   1.865  15.175
 6635SOL    HW131533   2.034   1.944  15.197
 6635SOL    HW231534   2.123   1.884  15.090
 6636SOL     OW31535   2.920   2.988  15.107
 6636SOL    HW131536   2.948   2.962  15.195
 6636SOL    HW231537   2.968   3.069  15.090
 6637SOL     OW31538   3.877   2.722  13.417
 6637SOL    HW131539   3.897   2.646  13.362
 6637SOL    HW231540   3.803   2.765  13.374
 6638SOL     OW31541   1.748   2.152  14.004
 6638SOL    HW131542   1.763   2.246  13.991
 6638SOL    HW231543   1.715   2.146  14.094
 6639SOL     OW31544   2.465   2.676  13.408
 6639SOL    HW131545   2.482   2.691  13.501
 6639SOL    HW231546   2.532   2.613  13.381
 6640SOL     OW31547   1.284   3.071  13.576
 6640SOL    HW131548   1.315   3.155  13.541
 6640SOL    HW231549   1.189   3.082  13.585
 6641SOL     OW31550   1.722   2.563  13.619
 6641SOL    HW131551   1.706   2.615  13.540
 6641SOL    HW231552   1.777   2.619  13.674
 6642SOL     OW31553   2.514   2.388  13.486
 6642SOL    HW131554   2.602   2.370  13.518
 6642SOL    HW231555   2.523   2.386  13.391
 6643SOL     OW31556   1.918   1.671  14.676
 6643SOL    HW131557   1.877   1.687  14.591
 6643SOL    HW231558   1.984   1.604  14.659
 6644SOL     OW31559   3.673   2.434  15.303
 6644SOL    HW131560   3.652   2.363  15.364
 6644SOL    HW231561   3.705   2.505  15.358
 6645SOL     OW31562   2.547   2.575  13.090
 6645SOL    HW131563   2.573   2.555  13.000
 6645SOL    HW231564   2.525   2.668  13.088
 6646SOL     OW31565   2.543   3.317  14.336
 6646SOL    HW131566   2.637   3.330  14.321
 6646SOL    HW231567   2.502   3.341  14.253
 6647SOL     OW31568   2.538   1.614  15.698
 6647SOL    HW131569   2.552   1.612  15.603
 6647SOL    HW231570   2.579   1.534  15.730
 6648SOL     OW31571   2.832   2.717  15.075
 6648SOL    HW131572   2.831   2.805  15.113
 6648SOL    HW231573   2.925   2.698  15.061
 6649SOL     OW31574   2.699   2.632  14.477
 6649SOL    HW131575   2.640   2.616  14.551
 6649SOL    HW231576   2.707   2.547  14.434
 6650SOL     OW31577   2.308   1.729  14.308
 6650SOL    HW131578   2.223   1.773  14.300
 6650SOL    HW231579   2.305   1.658  14.243
 6651SOL     OW31580   2.525   2.812  14.337
 6651SOL    HW131581   2.510   2.769  14.253
 6651SOL    HW231582   2.592   2.759  14.380
 6652SOL     OW31583   1.873   2.245  15.176
 6652SOL    HW131584   1.947   2.255  15.117
 6652SOL    HW231585   1.892   2.165  15.225
 6653SOL     OW31586   0.046   2.720  15.357
 6653SOL    HW131587   0.039   2.770  15.438
 6653SOL    HW231588   0.012   2.779  15.290
 6654SOL     OW31589   3.030   3.286  15.302
 6654SOL    HW131590   3.082   3.366  15.293
 6654SOL    HW231591   3.031   3.247  15.215
 6655SOL     OW31592   2.061   0.899  15.701
 6655SOL    HW131593   2.050   0.983  15.657
 6655SOL    HW231594   2.102   0.842  15.635
 6656SOL     OW31595   3.662   2.585  15.013
 6656SOL    HW131596   3.654   2.570  15.107
 6656SOL    HW231597   3.574   2.567  14.978
 6657SOL     OW31598   1.838   2.348  12.744
 6657SOL    HW131599   1.891   2.289  12.798
 6657SOL    HW231600   1.844   2.312  12.656
 6658SOL     OW31601   3.811   2.294  14.928
 6658SOL    HW131602   3.842   2.230  14.864
 6658SOL    HW231603   3.726   2.260  14.956
 6659SOL     OW31604   2.419   3.259  14.549
 6659SOL    HW131605   2.498   3.206  14.563
 6659SOL    HW231606   2.438   3.311  14.471
 6660SOL     OW31607   2.353   3.890  13.645
 6660SOL    HW131608   2.310   3.925  13.723
 6660SOL    HW231609   2.379   3.801  13.670
 6661SOL     OW31610   3.755   2.670  13.682
 6661SOL    HW131611   3.817   2.640  13.615
 6661SOL    HW231612   3.803   2.660  13.764
 6662SOL     OW31613   2.644   3.502  14.558
 6662SOL    HW131614   2.634   3.413  14.523
 6662SOL    HW231615   2.562   3.546  14.535
 6663SOL     OW31616   2.994   2.192  14.302
 6663SOL    HW131617   3.002   2.098  14.284
 6663SOL    HW231618   2.944   2.226  14.228
 6664SOL     OW31619   2.540   2.319  13.226
 6664SOL    HW131620   2.631   2.290  13.223
 6664SOL    HW231621   2.536   2.395  13.167
 6665SOL     OW31622   2.558   2.914  15.246
 6665SOL    HW131623   2.632   2.960  15.287
 6665SOL    HW231624   2.525   2.976  15.180
 6666SOL     OW31625   2.081   2.296  14.738
 6666SOL    HW131626   2.080   2.391  14.728
 6666SOL    HW231627   2.170   2.270  14.715
 6667SOL     OW31628   0.597   2.936  17.545
 6667SOL    HW131629   0.550   2.905  17.468
 6667SOL    HW231630   0.648   2.861  17.574
 6668SOL     OW31631   3.236   2.818  15.301
 6668SOL    HW131632   3.301   2.825  15.231
 6668SOL    HW231633   3.280   2.768  15.370
 6669SOL     OW31634   2.233   2.677  14.474
 6669SOL    HW131635   2.293   2.608  14.447
 6669SOL    HW231636   2.147   2.647  14.443
 6670SOL     OW31637   1.910   0.898  15.374
 6670SOL    HW131638   1.834   0.843  15.395
 6670SOL    HW231639   1.973   0.838  15.335
 6671SOL     OW31640   3.945   2.513  14.837
 6671SOL    HW131641   3.998   2.542  14.911
 6671SOL    HW231642   3.872   2.466  14.877
 6672SOL     OW31643   2.761   2.524  14.844
 6672SOL    HW131644   2.790   2.600  14.894
 6672SOL    HW231645   2.841   2.475  14.826
 6673SOL     OW31646   1.383   2.327  16.676
 6673SOL    HW131647   1.384   2.240  16.715
 6673SOL    HW231648   1.336   2.315  16.593
 6674SOL     OW31649   1.903   2.309  14.221
 6674SOL    HW131650   1.916   2.360  14.301
 6674SOL    HW231651   1.815   2.273  14.230
 6675SOL     OW31652   2.537   2.428  14.716
 6675SOL    HW131653   2.605   2.483  14.755
 6675SOL    HW231654   2.531   2.352  14.774
 6676SOL     OW31655   2.425   2.429  14.487
 6676SOL    HW131656   2.498   2.418  14.426
 6676SOL    HW231657   2.466   2.428  14.574
 6677SOL     OW31658   2.984   2.881  15.348
 6677SOL    HW131659   3.078   2.862  15.342
 6677SOL    HW231660   2.944   2.797  15.371
 6678SOL     OW31661   2.057   2.017  16.938
 6678SOL    HW131662   2.031   1.925  16.943
 6678SOL    HW231663   2.107   2.023  16.856
 6679SOL     OW31664   2.940   2.789  14.572
 6679SOL    HW131665   2.874   2.720  14.572
 6679SOL    HW231666   2.928   2.835  14.655
 6680SOL     OW31667   3.102   2.398  16.163
 6680SOL    HW131668   3.049   2.475  16.142
 6680SOL    HW231669   3.166   2.430  16.226
 6681SOL     OW31670   1.849   2.500  15.254
 6681SOL    HW131671   1.861   2.406  15.271
 6681SOL    HW231672   1.938   2.534  15.246
 6682SOL     OW31673   3.216   2.990  15.055
 6682SOL    HW131674   3.151   3.059  15.066
 6682SOL    HW231675   3.297   3.028  15.088
 6683SOL     OW31676   3.156   2.590  14.812
 6683SOL    HW131677   3.128   2.656  14.748
 6683SOL    HW231678   3.142   2.632  14.897
 6684SOL     OW31679   3.514   3.029  16.072
 6684SOL    HW131680   3.428   3.038  16.112
 6684SOL    HW231681   3.496   3.014  15.979
 6685SOL     OW31682   3.696   2.360  16.171
 6685SOL    HW131683   3.763   2.348  16.103
 6685SOL    HW231684   3.646   2.436  16.142
 6686SOL     OW31685   2.128   2.604  15.182
 6686SOL    HW131686   2.205   2.614  15.127
 6686SOL    HW231687   2.070   2.675  15.155
 6687SOL     OW31688   1.939   3.528  15.537
 6687SOL    HW131689   1.990   3.609  15.530
 6687SOL    HW231690   1.977   3.470  15.471
 6688SOL     OW31691   3.267   2.445  16.375
 6688SOL    HW131692   3.258   2.488  16.460
 6688SOL    HW231693   3.359   2.420  16.370
 6689SOL     OW31694   2.079   1.482  14.599
 6689SOL    HW131695   2.173   1.493  14.616
 6689SOL    HW231696   2.075   1.444  14.511
 6690SOL     OW31697   2.046   3.035  15.635
 6690SOL    HW131698   2.125   3.089  15.640
 6690SOL    HW231699   2.052   2.991  15.550
 6691SOL     OW31700   3.947   3.645  27.979
 6691SOL    HW131701   3.852   3.656  27.974
 6691SOL    HW231702   3.971   3.677  28.066
 6692SOL     OW31703   1.939   3.514  17.216
 6692SOL    HW131704   1.891   3.567  17.152
 6692SOL    HW231705   2.031   3.523  17.190
 6693SOL     OW31706   2.588   4.029  17.240
 6693SOL    HW131707   2.658   4.088  17.212
 6693SOL    HW231708   2.509   4.084  17.239
 6694SOL     OW31709   3.048   0.635  23.629
 6694SOL    HW131710   3.009   0.548  23.621
 6694SOL    HW231711   2.973   0.694  23.631
 6695SOL     OW31712   1.951   0.026   0.211
 6695SOL    HW131713   1.938   0.074   0.293
 6695SOL    HW231714   1.922   4.718   0.230
 6696SOL     OW31715   1.089   1.905   0.144
 6696SOL    HW131716   1.140   1.947   0.214
 6696SOL    HW231717   1.135   1.822   0.128
 6697SOL     OW31718   2.313   0.668  16.819
 6697SOL    HW131719   2.384   0.731  16.809
 6697SOL    HW231720   2.247   0.697  16.756
 6698SOL     OW31721   2.508   2.905  16.804
 6698SOL    HW131722   2.423   2.914  16.760
 6698SOL    HW231723   2.520   2.811  16.813
 6699SOL     OW31724   3.696   0.251  16.583
 6699SOL    HW131725   3.719   0.320  16.521
 6699SOL    HW231726   3.748   0.270  16.661
 6700SOL     OW31727   1.988   3.951  24.172
 6700SOL    HW131728   2.007   3.891  24.100
 6700SOL    HW231729   2.067   4.004  24.181
 6701SOL     OW31730   3.117   3.933   2.565
 6701SOL    HW131731   3.187   3.988   2.531
 6701SOL    HW231732   3.101   3.868   2.496
 6702SOL     OW31733   2.766   2.513  16.837
 6702SOL    HW131734   2.821   2.465  16.899
 6702SOL    HW231735   2.808   2.498  16.752
 6703SOL     OW31736   2.528   2.638  16.801
 6703SOL    HW131737   2.480   2.561  16.769
 6703SOL    HW231738   2.614   2.604  16.825
 6704SOL     OW31739   0.120   0.999  18.631
 6704SOL    HW131740   0.153   0.910  18.642
 6704SOL    HW231741   0.026   0.991  18.646
 6705SOL     OW31742   4.584   1.261   5.673
 6705SOL    HW131743   4.606   1.316   5.749
 6705SOL    HW231744   4.538   1.186   5.710
 6706SOL     OW31745   1.956   0.993  16.457
 6706SOL    HW131746   1.903   1.034  16.389
 6706SOL    HW231747   1.915   0.908  16.472
 6707SOL     OW31748   2.670   4.230  20.466
 6707SOL    HW131749   2.676   4.228  20.561
 6707SOL    HW231750   2.585   4.190  20.447
 6708SOL     OW31751   0.256   1.272  26.729
 6708SOL    HW131752   0.254   1.194  26.674
 6708SOL    HW231753   0.297   1.339  26.674
 6709SOL     OW31754   2.586   1.840   4.255
 6709SOL    HW131755   2.578   1.781   4.330
 6709SOL    HW231756   2.643   1.793   4.194
 6710SOL     OW31757   2.635   0.078  16.642
 6710SOL    HW131758   2.679   0.121  16.716
 6710SOL    HW231759   2.674   4.772  16.638
 6711SOL     OW31760   1.098   1.464  16.625
 6711SOL    HW131761   1.057   1.464  16.711
 6711SOL    HW231762   1.070   1.381  16.586
 6712SOL     OW31763   3.096   2.774  17.284
 6712SOL    HW131764   3.096   2.867  17.308
 6712SOL    HW231765   3.188   2.754  17.265
 6713SOL     OW31766   0.068   0.476  16.709
 6713SOL    HW131767   0.094   0.563  16.678
 6713SOL    HW231768   0.140   0.419  16.683
 6714SOL     OW31769   2.544   0.802  27.807
 6714SOL    HW131770   2.636   0.809  27.833
 6714SOL    HW231771   2.529   0.708  27.798
 6715SOL     OW31772   3.246   2.135   7.498
 6715SOL    HW131773   3.340   2.120   7.495
 6715SOL    HW231774   3.236   2.228   7.480
 6716SOL     OW31775   0.684   1.369  16.199
 6716SOL    HW131776   0.698   1.338  16.109
 6716SOL    HW231777   0.628   1.446  16.189
 6717SOL     OW31778   2.717   2.575  17.185
 6717SOL    HW131779   2.746   2.570  17.094
 6717SOL    HW231780   2.670   2.658  17.190
 6718SOL     OW31781   0.761   4.743   0.866
 6718SOL    HW131782   0.768   0.053   0.836
 6718SOL    HW231783   0.667   4.729   0.876
 6719SOL     OW31784   4.119   4.657  17.009
 6719SOL    HW131785   4.031   4.659  16.971
 6719SOL    HW231786   4.173   4.614  16.943
 6720SOL     OW31787   1.396   0.541  20.751
 6720SOL    HW131788   1.466   0.602  20.775
 6720SOL    HW231789   1.329   0.596  20.711
 6721SOL     OW31790   1.234   2.352  17.545
 6721SOL    HW131791   1.176   2.414  17.501
 6721SOL    HW231792   1.225   2.271  17.494
 6722SOL     OW31793   2.121   3.195  17.922
 6722SOL    HW131794   2.077   3.262  17.869
 6722SOL    HW231795   2.190   3.243  17.969
 6723SOL     OW31796   3.409   0.200  24.727
 6723SOL    HW131797   3.325   0.190  24.681
 6723SOL    HW231798   3.455   0.268  24.678
 6724SOL     OW31799   0.552   1.762   0.535
 6724SOL    HW131800   0.469   1.770   0.488
 6724SOL    HW231801   0.581   1.672   0.517
 6725SOL     OW31802   0.812   0.933  25.336
 6725SOL    HW131803   0.869   0.883  25.394
 6725SOL    HW231804   0.789   0.871  25.267
 6726SOL     OW31805   2.858   3.430  17.578
 6726SOL    HW131806   2.896   3.500  17.631
 6726SOL    HW231807   2.803   3.475  17.514
 6727SOL     OW31808   3.680   4.760  27.313
 6727SOL    HW131809   3.718   4.773  27.400
 6727SOL    HW231810   3.586   4.771  27.326
 6728SOL     OW31811   2.338   1.928  16.090
 6728SOL    HW131812   2.349   1.858  16.026
 6728SOL    HW231813   2.283   1.993  16.046
 6729SOL     OW31814   2.600   3.074  17.006
 6729SOL    HW131815   2.558   3.035  16.929
 6729SOL    HW231816   2.628   2.999  17.059
 6730SOL     OW31817   1.418   2.580  19.717
 6730SOL    HW131818   1.325   2.599  19.726
 6730SOL    HW231819   1.435   2.511  19.781
 6731SOL     OW31820   3.169   2.420   4.906
 6731SOL    HW131821   3.161   2.367   4.985
 6731SOL    HW231822   3.257   2.401   4.874
 6732SOL     OW31823   1.841   2.651  18.381
 6732SOL    HW131824   1.816   2.559  18.369
 6732SOL    HW231825   1.907   2.666  18.314
 6733SOL     OW31826   4.139   2.792  16.899
 6733SOL    HW131827   4.187   2.782  16.817
 6733SOL    HW231828   4.062   2.845  16.876
 6734SOL     OW31829   2.329   4.302  22.538
 6734SOL    HW131830   2.244   4.294  22.495
 6734SOL    HW231831   2.313   4.275  22.628
 6735SOL     OW31832   2.516   2.269  24.505
 6735SOL    HW131833   2.526   2.298  24.596
 6735SOL    HW231834   2.593   2.214  24.489
 6736SOL     OW31835   2.486   2.438  25.718
 6736SOL    HW131836   2.570   2.481  25.736
 6736SOL    HW231837   2.494   2.405  25.629
 6737SOL     OW31838   0.357   1.476   0.583
 6737SOL    HW131839   0.296   1.477   0.510
 6737SOL    HW231840   0.438   1.513   0.547
 6738SOL     OW31841   2.483   3.940  25.715
 6738SOL    HW131842   2.545   3.885  25.667
 6738SOL    HW231843   2.473   4.019  25.661
 6739SOL     OW31844   4.571   3.108  24.891
 6739SOL    HW131845   4.509   3.035  24.892
 6739SOL    HW231846   4.585   3.125  24.798
 6740SOL     OW31847   1.009   3.813  21.021
 6740SOL    HW131848   1.039   3.904  21.013
 6740SOL    HW231849   0.913   3.818  21.016
 6741SOL     OW31850   2.616   4.495  10.080
 6741SOL    HW131851   2.642   4.409  10.048
 6741SOL    HW231852   2.619   4.487  10.175
 6742SOL     OW31853   0.266   3.974   7.776
 6742SOL    HW131854   0.340   3.990   7.835
 6742SOL    HW231855   0.305   3.928   7.702
 6743SOL     OW31856   0.047   3.342  26.153
 6743SOL    HW131857   0.008   3.348  26.240
 6743SOL    HW231858   0.004   3.266  26.113
 6744SOL     OW31859   3.411   2.697  18.546
 6744SOL    HW131860   3.326   2.710  18.503
 6744SOL    HW231861   3.400   2.733  18.634
 6745SOL     OW31862   2.529   3.501   7.363
 6745SOL    HW131863   2.615   3.541   7.373
 6745SOL    HW231864   2.506   3.517   7.271
 6746SOL     OW31865   0.077   3.285  17.761
 6746SOL    HW131866   0.143   3.281  17.830
 6746SOL    HW231867   0.024   3.361  17.783
 6747SOL     OW31868   1.259   1.611  21.397
 6747SOL    HW131869   1.334   1.618  21.338
 6747SOL    HW231870   1.293   1.638  21.482
 6748SOL     OW31871   1.796   0.345  26.250
 6748SOL    HW131872   1.765   0.338  26.160
 6748SOL    HW231873   1.885   0.380  26.242
 6749SOL     OW31874   2.286   2.991  17.837
 6749SOL    HW131875   2.233   3.060  17.878
 6749SOL    HW231876   2.368   3.035  17.813
 6750SOL     OW31877   4.600   0.510   6.033
 6750SOL    HW131878   4.694   0.497   6.024
 6750SOL    HW231879   4.591   0.578   6.099
 6751SOL     OW31880   1.719   0.410  10.222
 6751SOL    HW131881   1.636   0.439  10.183
 6751SOL    HW231882   1.698   0.327  10.265
 6752SOL     OW31883   2.461   1.903  28.270
 6752SOL    HW131884   2.484   1.980  28.322
 6752SOL    HW231885   2.370   1.919  28.243
 6753SOL     OW31886   0.141   1.755   1.049
 6753SOL    HW131887   0.115   1.762   1.141
 6753SOL    HW231888   0.227   1.713   1.051
 6754SOL     OW31889   0.453   2.836   4.154
 6754SOL    HW131890   0.519   2.790   4.206
 6754SOL    HW231891   0.432   2.914   4.205
 6755SOL     OW31892   4.027   0.828  27.241
 6755SOL    HW131893   4.062   0.900  27.293
 6755SOL    HW231894   4.104   0.779  27.213
 6756SOL     OW31895   0.642   2.019   7.608
 6756SOL    HW131896   0.558   2.009   7.563
 6756SOL    HW231897   0.664   1.931   7.639
 6757SOL     OW31898   1.744   1.623  28.373
 6757SOL    HW131899   1.753   1.701  28.318
 6757SOL    HW231900   1.651   1.600  28.368
 6758SOL     OW31901   1.407   2.479  20.672
 6758SOL    HW131902   1.339   2.545  20.682
 6758SOL    HW231903   1.419   2.471  20.577
 6759SOL     OW31904   1.897   2.375  22.761
 6759SOL    HW131905   1.866   2.318  22.690
 6759SOL    HW231906   1.835   2.448  22.761
 6760SOL     OW31907   0.208   3.744  27.120
 6760SOL    HW131908   0.239   3.677  27.181
 6760SOL    HW231909   0.114   3.727  27.113
 6761SOL     OW31910   4.026   3.495   7.770
 6761SOL    HW131911   4.107   3.444   7.767
 6761SOL    HW231912   4.054   3.586   7.756
 6762SOL     OW31913   0.466   0.030   4.779
 6762SOL    HW131914   0.465   0.039   4.874
 6762SOL    HW231915   0.430   0.112   4.746
 6763SOL     OW31916   0.536   2.745  22.395
 6763SOL    HW131917   0.558   2.696  22.474
 6763SOL    HW231918   0.605   2.722  22.333
 6764SOL     OW31919   3.562   2.284   1.809
 6764SOL    HW131920   3.643   2.301   1.760
 6764SOL    HW231921   3.592   2.254   1.895
 6765SOL     OW31922   4.003   4.083  19.250
 6765SOL    HW131923   4.048   4.026  19.313
 6765SOL    HW231924   3.955   4.023  19.193
 6766SOL     OW31925   2.801   4.342   4.429
 6766SOL    HW131926   2.732   4.327   4.364
 6766SOL    HW231927   2.883   4.328   4.381
 6767SOL     OW31928   3.606   4.727  21.892
 6767SOL    HW131929   3.520   4.769  21.884
 6767SOL    HW231930   3.666   0.006  21.847
 6768SOL     OW31931   2.977   0.477  15.996
 6768SOL    HW131932   3.055   0.442  15.953
 6768SOL    HW231933   2.904   0.443  15.944
 6769SOL     OW31934   2.160   0.542   0.188
 6769SOL    HW131935   2.163   0.588   0.104
 6769SOL    HW231936   2.243   0.494   0.193
 6770SOL     OW31937   2.398   3.337  26.527
 6770SOL    HW131938   2.386   3.429  26.505
 6770SOL    HW231939   2.345   3.325  26.606
 6771SOL     OW31940   3.080   4.643   4.265
 6771SOL    HW131941   3.041   4.556   4.267
 6771SOL    HW231942   3.079   4.672   4.356
 6772SOL     OW31943   3.141   4.160   7.295
 6772SOL    HW131944   3.090   4.194   7.368
 6772SOL    HW231945   3.205   4.101   7.336
 6773SOL     OW31946   3.552   4.358   4.131
 6773SOL    HW131947   3.548   4.266   4.155
 6773SOL    HW231948   3.587   4.358   4.042
 6774SOL     OW31949   1.221   0.340   3.890
 6774SOL    HW131950   1.208   0.328   3.984
 6774SOL    HW231951   1.133   0.351   3.854
 6775SOL     OW31952   1.736   4.374  20.370
 6775SOL    HW131953   1.726   4.280  20.357
 6775SOL    HW231954   1.829   4.386  20.391
 6776SOL     OW31955   3.298   2.706  25.279
 6776SOL    HW131956   3.386   2.683  25.248
 6776SOL    HW231957   3.304   2.799  25.299
 6777SOL     OW31958   4.298   3.700  11.073
 6777SOL    HW131959   4.383   3.656  11.077
 6777SOL    HW231960   4.291   3.745  11.157
 6778SOL     OW31961   3.257   3.000  23.973
 6778SOL    HW131962   3.322   3.053  23.926
 6778SOL    HW231963   3.277   3.016  24.065
 6779SOL     OW31964   1.080   0.878  20.102
 6779SOL    HW131965   1.091   0.792  20.061
 6779SOL    HW231966   1.030   0.861  20.182
 6780SOL     OW31967   1.841   3.966   1.889
 6780SOL    HW131968   1.823   3.978   1.982
 6780SOL    HW231969   1.853   4.055   1.855
 6781SOL     OW31970   0.447   3.705   8.776
 6781SOL    HW131971   0.382   3.772   8.756
 6781SOL    HW231972   0.529   3.741   8.742
 6782SOL     OW31973   1.787   0.989  22.613
 6782SOL    HW131974   1.730   0.920  22.647
 6782SOL    HW231975   1.730   1.065  22.603
 6783SOL     OW31976   3.004   1.579  20.134
 6783SOL    HW131977   3.018   1.624  20.051
 6783SOL    HW231978   3.092   1.572  20.172
 6784SOL     OW31979   3.862   1.607   0.167
 6784SOL    HW131980   3.827   1.519   0.180
 6784SOL    HW231981   3.957   1.596   0.172
 6785SOL     OW31982   3.614   0.170   8.841
 6785SOL    HW131983   3.710   0.167   8.836
 6785SOL    HW231984   3.593   0.262   8.855
 6786SOL     OW31985   4.176   0.262   8.357
 6786SOL    HW131986   4.227   0.285   8.435
 6786SOL    HW231987   4.089   0.299   8.373
 6787SOL     OW31988   0.029   1.771  26.539
 6787SOL    HW131989   0.115   1.787  26.500
 6787SOL    HW231990   0.047   1.710  26.611
 6788SOL     OW31991   0.924   2.020  24.424
 6788SOL    HW131992   0.999   1.964  24.405
 6788SOL    HW231993   0.961   2.107  24.437
 6789SOL     OW31994   0.803   4.494  26.050
 6789SOL    HW131995   0.893   4.475  26.076
 6789SOL    HW231996   0.763   4.531  26.129
 6790SOL     OW31997   2.807   1.927   3.722
 6790SOL    HW131998   2.763   1.899   3.802
 6790SOL    HW231999   2.887   1.970   3.752
 6791SOL     OW32000   2.305   2.836  17.610
 6791SOL    HW132001   2.221   2.845  17.566
 6791SOL    HW232002   2.292   2.878  17.695
 6792SOL     OW32003   1.542   3.789  18.953
 6792SOL    HW132004   1.609   3.856  18.940
 6792SOL    HW232005   1.532   3.748  18.867
 6793SOL     OW32006   2.076   4.489  27.283
 6793SOL    HW132007   2.046   4.579  27.298
 6793SOL    HW232008   2.085   4.482  27.188
 6794SOL     OW32009   1.303   2.401  22.744
 6794SOL    HW132010   1.256   2.483  22.756
 6794SOL    HW232011   1.249   2.351  22.682
 6795SOL     OW32012   4.609   2.327   0.066
 6795SOL    HW132013   4.629   2.303  28.498
 6795SOL    HW232014   4.551   2.402   0.059
 6796SOL     OW32015   2.603   1.860  15.878
 6796SOL    HW132016   2.687   1.814  15.875
 6796SOL    HW232017   2.546   1.808  15.821
 6797SOL     OW32018   3.592   2.187   4.608
 6797SOL    HW132019   3.581   2.232   4.524
 6797SOL    HW232020   3.557   2.099   4.592
 6798SOL     OW32021   1.935   0.903   6.957
 6798SOL    HW132022   1.987   0.968   6.910
 6798SOL    HW232023   1.849   0.908   6.916
 6799SOL     OW32024   4.130   0.869  21.561
 6799SOL    HW132025   4.213   0.823  21.546
 6799SOL    HW232026   4.150   0.960  21.541
 6800SOL     OW32027   3.373   1.991  22.878
 6800SOL    HW132028   3.435   1.954  22.816
 6800SOL    HW232029   3.331   2.062  22.830
 6801SOL     OW32030   2.260   0.119   3.693
 6801SOL    HW132031   2.226   0.108   3.604
 6801SOL    HW232032   2.276   0.213   3.701
 6802SOL     OW32033   2.779   4.046   8.263
 6802SOL    HW132034   2.832   3.996   8.326
 6802SOL    HW232035   2.815   4.022   8.178
 6803SOL     OW32036   0.821   1.911   1.607
 6803SOL    HW132037   0.865   1.904   1.522
 6803SOL    HW232038   0.738   1.955   1.588
 6804SOL     OW32039   3.034   4.088   4.306
 6804SOL    HW132040   3.031   4.065   4.399
 6804SOL    HW232041   2.981   4.021   4.263
 6805SOL     OW32042   2.640   4.771   5.223
 6805SOL    HW132043   2.598   0.071   5.196
 6805SOL    HW232044   2.644   4.777   5.319
 6806SOL     OW32045   4.294   0.100  21.915
 6806SOL    HW132046   4.389   0.111  21.906
 6806SOL    HW232047   4.259   0.189  21.911
 6807SOL     OW32048   0.456   0.084  15.058
 6807SOL    HW132049   0.398   0.064  14.985
 6807SOL    HW232050   0.489   0.172  15.038
 6808SOL     OW32051   0.361   1.097   6.977
 6808SOL    HW132052   0.426   1.033   7.006
 6808SOL    HW232053   0.277   1.054   6.994
 6809SOL     OW32054   0.701   1.489  24.211
 6809SOL    HW132055   0.620   1.440  24.196
 6809SOL    HW232056   0.677   1.581  24.199
 6810SOL     OW32057   0.745   1.873  26.193
 6810SOL    HW132058   0.812   1.863  26.126
 6810SOL    HW232059   0.781   1.938  26.254
 6811SOL     OW32060   2.112   1.966  19.456
 6811SOL    HW132061   2.099   1.875  19.484
 6811SOL    HW232062   2.117   2.016  19.538
 6812SOL     OW32063   2.162   0.859  24.876
 6812SOL    HW132064   2.141   0.870  24.783
 6812SOL    HW232065   2.204   0.941  24.901
 6813SOL     OW32066   3.599   2.526  18.883
 6813SOL    HW132067   3.639   2.583  18.949
 6813SOL    HW232068   3.515   2.500  18.921
 6814SOL     OW32069   3.574   0.382  24.575
 6814SOL    HW132070   3.567   0.372  24.480
 6814SOL    HW232071   3.661   0.349  24.597
 6815SOL     OW32072   4.496   3.179   6.370
 6815SOL    HW132073   4.551   3.137   6.436
 6815SOL    HW232074   4.460   3.256   6.415
 6816SOL     OW32075   1.495   3.321  21.700
 6816SOL    HW132076   1.436   3.331  21.774
 6816SOL    HW232077   1.443   3.347  21.624
 6817SOL     OW32078   3.659   1.995  24.102
 6817SOL    HW132079   3.629   2.032  24.019
 6817SOL    HW232080   3.750   2.022  24.109
 6818SOL     OW32081   0.535   2.214   6.172
 6818SOL    HW132082   0.537   2.119   6.164
 6818SOL    HW232083   0.620   2.236   6.209
 6819SOL     OW32084   1.517   2.086   2.400
 6819SOL    HW132085   1.556   2.090   2.487
 6819SOL    HW232086   1.477   2.172   2.387
 6820SOL     OW32087   3.091   1.011   8.332
 6820SOL    HW132088   3.177   0.982   8.302
 6820SOL    HW232089   3.094   1.001   8.427
 6821SOL     OW32090   0.026   1.046  28.168
 6821SOL    HW132091   0.047   1.019  28.258
 6821SOL    HW232092   0.058   0.974  28.114
 6822SOL     OW32093   4.310   2.415   0.191
 6822SOL    HW132094   4.225   2.419   0.234
 6822SOL    HW232095   4.373   2.427   0.262
 6823SOL     OW32096   0.905   0.475  24.208
 6823SOL    HW132097   0.891   0.527  24.129
 6823SOL    HW232098   0.879   0.386  24.183
 6824SOL     OW32099   2.049   1.200  20.463
 6824SOL    HW132100   1.957   1.206  20.489
 6824SOL    HW232101   2.053   1.123  20.406
 6825SOL     OW32102   4.498   0.856   0.219
 6825SOL    HW132103   4.522   0.841   0.128
 6825SOL    HW232104   4.429   0.923   0.215
 6826SOL     OW32105   4.750   2.825   0.809
 6826SOL    HW132106   4.655   2.826   0.801
 6826SOL    HW232107   4.780   2.772   0.735
 6827SOL     OW32108   0.987   2.553   2.841
 6827SOL    HW132109   1.072   2.596   2.850
 6827SOL    HW232110   1.008   2.459   2.840
 6828SOL     OW32111   0.576   4.041   3.186
 6828SOL    HW132112   0.508   4.107   3.174
 6828SOL    HW232113   0.654   4.080   3.147
 6829SOL     OW32114   2.132   2.202  18.982
 6829SOL    HW132115   2.110   2.183  19.073
 6829SOL    HW232116   2.199   2.137  18.959
 6830SOL     OW32117   0.795   2.994  22.118
 6830SOL    HW132118   0.717   3.025  22.072
 6830SOL    HW232119   0.857   2.972  22.048
 6831SOL     OW32120   1.361   1.524  27.835
 6831SOL    HW132121   1.401   1.550  27.752
 6831SOL    HW232122   1.435   1.509  27.894
 6832SOL     OW32123   1.516   4.349   6.497
 6832SOL    HW132124   1.463   4.289   6.444
 6832SOL    HW232125   1.579   4.386   6.435
 6833SOL     OW32126   1.532   0.082   2.740
 6833SOL    HW132127   1.551   0.001   2.693
 6833SOL    HW232128   1.470   0.057   2.808
 6834SOL     OW32129   4.432   3.960   6.587
 6834SOL    HW132130   4.349   3.914   6.602
 6834SOL    HW232131   4.460   3.931   6.500
 6835SOL     OW32132   1.008   3.007  23.158
 6835SOL    HW132133   0.946   3.001  23.085
 6835SOL    HW232134   0.960   3.054  23.226
 6836SOL     OW32135   0.965   2.350  19.269
 6836SOL    HW132136   0.969   2.412  19.196
 6836SOL    HW232137   0.908   2.393  19.333
 6837SOL     OW32138   3.111   4.196  19.651
 6837SOL    HW132139   3.091   4.281  19.612
 6837SOL    HW232140   3.190   4.211  19.703
 6838SOL     OW32141   1.965   4.467  21.292
 6838SOL    HW132142   2.027   4.535  21.319
 6838SOL    HW232143   1.928   4.500  21.210
 6839SOL     OW32144   2.367   1.193   6.214
 6839SOL    HW132145   2.363   1.253   6.140
 6839SOL    HW232146   2.426   1.235   6.276
 6840SOL     OW32147   2.754   1.477  28.499
 6840SOL    HW132148   2.685   1.541  28.483
 6840SOL    HW232149   2.788   1.499   0.064
 6841SOL     OW32150   4.382   1.191  25.731
 6841SOL    HW132151   4.465   1.149  25.754
 6841SOL    HW232152   4.320   1.118  25.723
 6842SOL     OW32153   0.196   1.253  10.079
 6842SOL    HW132154   0.154   1.304  10.148
 6842SOL    HW232155   0.170   1.296   9.998
 6843SOL     OW32156   2.214   0.805   0.405
 6843SOL    HW132157   2.227   0.720   0.446
 6843SOL    HW232158   2.130   0.797   0.359
 6844SOL     OW32159   2.930   3.406   1.230
 6844SOL    HW132160   2.870   3.472   1.196
 6844SOL    HW232161   3.010   3.454   1.251
 6845SOL     OW32162   0.314   4.183   0.811
 6845SOL    HW132163   0.269   4.245   0.754
 6845SOL    HW232164   0.249   4.158   0.877
 6846SOL     OW32165   1.419   3.051  21.959
 6846SOL    HW132166   1.451   2.995  22.030
 6846SOL    HW232167   1.485   3.120  21.951
 6847SOL     OW32168   1.133   1.341   4.330
 6847SOL    HW132169   1.064   1.278   4.308
 6847SOL    HW232170   1.164   1.314   4.416
 6848SOL     OW32171   1.051   0.511  24.505
 6848SOL    HW132172   1.023   0.601  24.521
 6848SOL    HW232173   1.011   0.487  24.421
 6849SOL     OW32174   2.870   2.064   5.636
 6849SOL    HW132175   2.821   2.110   5.704
 6849SOL    HW232176   2.850   2.111   5.555
 6850SOL     OW32177   3.800   2.775   5.900
 6850SOL    HW132178   3.858   2.839   5.859
 6850SOL    HW232179   3.779   2.812   5.985
 6851SOL     OW32180   1.991   1.235  27.545
 6851SOL    HW132181   1.953   1.245  27.458
 6851SOL    HW232182   2.073   1.284  27.541
 6852SOL     OW32183   4.100   1.744  23.352
 6852SOL    HW132184   4.036   1.697  23.299
 6852SOL    HW232185   4.109   1.692  23.431
 6853SOL     OW32186   0.977   3.292  28.084
 6853SOL    HW132187   0.963   3.199  28.064
 6853SOL    HW232188   1.069   3.308  28.062
 6854SOL     OW32189   1.422   4.670  15.337
 6854SOL    HW132190   1.366   4.705  15.406
 6854SOL    HW232191   1.405   4.576  15.337
 6855SOL     OW32192   4.155   4.692  18.593
 6855SOL    HW132193   4.248   4.672  18.580
 6855SOL    HW232194   4.153   4.742  18.675
 6856SOL     OW32195   0.180   2.985  23.655
 6856SOL    HW132196   0.151   2.966  23.744
 6856SOL    HW232197   0.144   2.914  23.602
 6857SOL     OW32198   3.517   0.559  21.107
 6857SOL    HW132199   3.450   0.558  21.039
 6857SOL    HW232200   3.552   0.470  21.109
 6858SOL     OW32201   2.790   1.641  20.306
 6858SOL    HW132202   2.777   1.551  20.335
 6858SOL    HW232203   2.867   1.638  20.249
 6859SOL     OW32204   4.510   3.599  26.190
 6859SOL    HW132205   4.459   3.518  26.184
 6859SOL    HW232206   4.481   3.639  26.272
 6860SOL     OW32207   4.580   3.949  18.575
 6860SOL    HW132208   4.616   3.896  18.504
 6860SOL    HW232209   4.494   3.911  18.592
 6861SOL     OW32210   0.806   3.793   0.469
 6861SOL    HW132211   0.796   3.789   0.374
 6861SOL    HW232212   0.868   3.865   0.484
 6862SOL     OW32213   0.819   1.592  24.838
 6862SOL    HW132214   0.842   1.685  24.830
 6862SOL    HW232215   0.779   1.570  24.754
 6863SOL     OW32216   0.455   3.840   1.137
 6863SOL    HW132217   0.433   3.747   1.129
 6863SOL    HW232218   0.544   3.840   1.172
 6864SOL     OW32219   4.172   1.813  22.330
 6864SOL    HW132220   4.222   1.748  22.280
 6864SOL    HW232221   4.107   1.761  22.378
 6865SOL     OW32222   1.182   2.612   1.303
 6865SOL    HW132223   1.089   2.635   1.299
 6865SOL    HW232224   1.184   2.521   1.332
 6866SOL     OW32225   4.657   2.057   9.796
 6866SOL    HW132226   4.589   2.013   9.847
 6866SOL    HW232227   4.625   2.055   9.706
 6867SOL     OW32228   1.114   4.547  20.614
 6867SOL    HW132229   1.160   4.630  20.602
 6867SOL    HW232230   1.171   4.482  20.573
 6868SOL     OW32231   2.870   3.619  19.628
 6868SOL    HW132232   2.790   3.670  19.638
 6868SOL    HW232233   2.841   3.536  19.590
 6869SOL     OW32234   3.241   0.800  25.531
 6869SOL    HW132235   3.255   0.711  25.498
 6869SOL    HW232236   3.148   0.803  25.555
 6870SOL     OW32237   1.929   0.114   9.196
 6870SOL    HW132238   1.999   0.175   9.172
 6870SOL    HW232239   1.975   0.034   9.222
 6871SOL     OW32240   3.103   0.350   7.131
 6871SOL    HW132241   3.135   0.412   7.065
 6871SOL    HW232242   3.078   0.272   7.081
 6872SOL     OW32243   3.637   1.599  16.208
 6872SOL    HW132244   3.556   1.615  16.160
 6872SOL    HW232245   3.691   1.676  16.192
 6873SOL     OW32246   2.677   2.004   0.068
 6873SOL    HW132247   2.676   2.053   0.150
 6873SOL    HW232248   2.624   2.056   0.008
 6874SOL     OW32249   0.330   1.868   0.127
 6874SOL    HW132250   0.409   1.815   0.119
 6874SOL    HW232251   0.339   1.936   0.061
 6875SOL     OW32252   2.214   4.227  18.798
 6875SOL    HW132253   2.227   4.138  18.765
 6875SOL    HW232254   2.148   4.265  18.740
 6876SOL     OW32255   3.488   1.831  23.852
 6876SOL    HW132256   3.534   1.775  23.914
 6876SOL    HW232257   3.482   1.916  23.897
 6877SOL     OW32258   4.543   2.110  24.201
 6877SOL    HW132259   4.592   2.171  24.147
 6877SOL    HW232260   4.593   2.105  24.283
 6878SOL     OW32261   3.880   2.122  27.899
 6878SOL    HW132262   3.843   2.111  27.811
 6878SOL    HW232263   3.846   2.206  27.929
 6879SOL     OW32264   0.760   2.629   0.263
 6879SOL    HW132265   0.717   2.591   0.339
 6879SOL    HW232266   0.806   2.556   0.222
 6880SOL     OW32267   1.315   4.243  25.360
 6880SOL    HW132268   1.230   4.250  25.316
 6880SOL    HW232269   1.367   4.315  25.324
 6881SOL     OW32270   4.551   2.725  28.430
 6881SOL    HW132271   4.525   2.812  28.399
 6881SOL    HW232272   4.480   2.667  28.401
 6882SOL     OW32273   0.778   1.451  20.685
 6882SOL    HW132274   0.741   1.375  20.729
 6882SOL    HW232275   0.749   1.444  20.594
 6883SOL     OW32276   0.002   0.165   0.318
 6883SOL    HW132277   4.691   0.185   0.337
 6883SOL    HW232278   0.003   0.071   0.298
 6884SOL     OW32279   4.587   4.280  24.685
 6884SOL    HW132280   4.499   4.246  24.671
 6884SOL    HW232281   4.630   4.215  24.741
 6885SOL     OW32282   4.343   2.096   7.972
 6885SOL    HW132283   4.403   2.112   7.899
 6885SOL    HW232284   4.372   2.156   8.041
 6886SOL     OW32285   3.884   4.227   4.160
 6886SOL    HW132286   3.805   4.206   4.210
 6886SOL    HW232287   3.954   4.180   4.205
 6887SOL     OW32288   4.085   3.628   3.362
 6887SOL    HW132289   4.030   3.653   3.437
 6887SOL    HW232290   4.154   3.695   3.360
 6888SOL     OW32291   2.901   4.744   2.431
 6888SOL    HW132292   2.840   4.676   2.459
 6888SOL    HW232293   2.949   4.705   2.358
 6889SOL     OW32294   1.994   0.133   9.981
 6889SOL    HW132295   1.919   0.173   9.938
 6889SOL    HW232296   1.960   0.103  10.065
 6890SOL     OW32297   4.597   4.058  21.193
 6890SOL    HW132298   4.518   4.013  21.163
 6890SOL    HW232299   4.565   4.125  21.253
 6891SOL     OW32300   1.563   1.228  27.471
 6891SOL    HW132301   1.472   1.219  27.501
 6891SOL    HW232302   1.575   1.154  27.411
 6892SOL     OW32303   4.157   1.423  27.652
 6892SOL    HW132304   4.189   1.478  27.723
 6892SOL    HW232305   4.228   1.361  27.637
 6893SOL     OW32306   3.856   2.107  27.461
 6893SOL    HW132307   3.841   2.173  27.394
 6893SOL    HW232308   3.941   2.069  27.439
 6894SOL     OW32309   2.711   3.537   7.749
 6894SOL    HW132310   2.724   3.624   7.711
 6894SOL    HW232311   2.779   3.483   7.710
 6895SOL     OW32312   1.231   2.090   4.216
 6895SOL    HW132313   1.279   2.017   4.256
 6895SOL    HW232314   1.266   2.095   4.127
 6896SOL     OW32315   0.814   2.521  21.631
 6896SOL    HW132316   0.835   2.428  21.634
 6896SOL    HW232317   0.725   2.524  21.596
 6897SOL     OW32318   1.544   2.150   2.906
 6897SOL    HW132319   1.463   2.190   2.938
 6897SOL    HW232320   1.596   2.223   2.873
 6898SOL     OW32321   1.602   3.903   1.130
 6898SOL    HW132322   1.691   3.899   1.166
 6898SOL    HW232323   1.546   3.872   1.201
 6899SOL     OW32324   4.035   0.540   4.326
 6899SOL    HW132325   4.003   0.458   4.290
 6899SOL    HW232326   4.071   0.587   4.251
 6900SOL     OW32327   1.087   1.763   3.934
 6900SOL    HW132328   0.992   1.753   3.933
 6900SOL    HW232329   1.114   1.726   4.018
 6901SOL     OW32330   2.534   1.505  21.322
 6901SOL    HW132331   2.604   1.533  21.381
 6901SOL    HW232332   2.483   1.585  21.307
 6902SOL     OW32333   1.084   3.513  27.543
 6902SOL    HW132334   0.999   3.548  27.516
 6902SOL    HW232335   1.068   3.419  27.555
 6903SOL     OW32336   1.685   1.625  27.187
 6903SOL    HW132337   1.766   1.577  27.202
 6903SOL    HW232338   1.711   1.717  27.184
 6904SOL     OW32339   4.182   1.308  22.298
 6904SOL    HW132340   4.273   1.317  22.325
 6904SOL    HW232341   4.153   1.225  22.337
 6905SOL     OW32342   1.234   3.690  24.688
 6905SOL    HW132343   1.315   3.643  24.708
 6905SOL    HW232344   1.166   3.623  24.691
 6906SOL     OW32345   0.429   0.746   4.103
 6906SOL    HW132346   0.450   0.819   4.161
 6906SOL    HW232347   0.513   0.704   4.085
 6907SOL     OW32348   3.496   3.421   2.947
 6907SOL    HW132349   3.493   3.502   2.998
 6907SOL    HW232350   3.408   3.412   2.910
 6908SOL     OW32351   4.012   1.271  21.401
 6908SOL    HW132352   3.961   1.198  21.366
 6908SOL    HW232353   4.100   1.235  21.412
 6909SOL     OW32354   4.493   0.756  22.122
 6909SOL    HW132355   4.452   0.835  22.157
 6909SOL    HW232356   4.487   0.765  22.027
 6910SOL     OW32357   1.455   0.030   9.725
 6910SOL    HW132358   1.408   0.097   9.774
 6910SOL    HW232359   1.512   4.769   9.790
 6911SOL     OW32360   4.426   3.182   3.974
 6911SOL    HW132361   4.409   3.273   3.997
 6911SOL    HW232362   4.374   3.131   4.036
 6912SOL     OW32363   0.603   1.060  27.292
 6912SOL    HW132364   0.641   1.034  27.208
 6912SOL    HW232365   0.511   1.078  27.272
 6913SOL     OW32366   3.419   1.803   8.774
 6913SOL    HW132367   3.447   1.888   8.808
 6913SOL    HW232368   3.361   1.825   8.701
 6914SOL     OW32369   0.011   2.351  20.649
 6914SOL    HW132370   4.749   2.269  20.625
 6914SOL    HW232371   4.740   2.418  20.605
 6915SOL     OW32372   3.332   0.689   4.670
 6915SOL    HW132373   3.371   0.776   4.675
 6915SOL    HW232374   3.268   0.695   4.599
 6916SOL     OW32375   4.208   1.083   1.705
 6916SOL    HW132376   4.142   1.152   1.706
 6916SOL    HW232377   4.226   1.066   1.797
 6917SOL     OW32378   2.101   3.737  10.820
 6917SOL    HW132379   2.188   3.697  10.819
 6917SOL    HW232380   2.117   3.828  10.845
 6918SOL     OW32381   1.106   4.012   1.805
 6918SOL    HW132382   1.025   3.978   1.844
 6918SOL    HW232383   1.156   3.934   1.783
 6919SOL     OW32384   4.762   0.820  25.050
 6919SOL    HW132385   0.068   0.860  25.051
 6919SOL    HW232386   4.722   0.852  24.969
 6920SOL     OW32387   1.951   1.595   5.024
 6920SOL    HW132388   2.033   1.556   5.055
 6920SOL    HW232389   1.910   1.632   5.102
 6921SOL     OW32390   1.589   0.499  22.189
 6921SOL    HW132391   1.522   0.562  22.215
 6921SOL    HW232392   1.540   0.420  22.166
 6922SOL     OW32393   0.407   3.561  23.480
 6922SOL    HW132394   0.409   3.479  23.430
 6922SOL    HW232395   0.371   3.536  23.565
 6923SOL     OW32396   2.673   2.962  26.119
 6923SOL    HW132397   2.634   2.882  26.085
 6923SOL    HW232398   2.754   2.933  26.162
 6924SOL     OW32399   1.986   1.085   4.660
 6924SOL    HW132400   1.890   1.082   4.665
 6924SOL    HW232401   2.005   1.130   4.578
 6925SOL     OW32402   1.702   4.712  25.088
 6925SOL    HW132403   1.666   0.019  25.099
 6925SOL    HW232404   1.771   4.707  25.154
 6926SOL     OW32405   1.160   0.255  24.589
 6926SOL    HW132406   1.107   0.334  24.603
 6926SOL    HW232407   1.136   0.198  24.662
 6927SOL     OW32408   4.140   4.341   2.666
 6927SOL    HW132409   4.222   4.315   2.707
 6927SOL    HW232410   4.106   4.411   2.723
 6928SOL     OW32411   3.785   2.089   7.192
 6928SOL    HW132412   3.772   2.021   7.125
 6928SOL    HW232413   3.729   2.161   7.164
 6929SOL     OW32414   3.971   1.724  21.304
 6929SOL    HW132415   4.028   1.755  21.233
 6929SOL    HW232416   3.885   1.715  21.264
 6930SOL     OW32417   2.749   4.336   4.706
 6930SOL    HW132418   2.778   4.422   4.735
 6930SOL    HW232419   2.773   4.332   4.614
 6931SOL     OW32420   3.565   2.030  20.063
 6931SOL    HW132421   3.527   1.956  20.015
 6931SOL    HW232422   3.490   2.084  20.087
 6932SOL     OW32423   1.523   2.527  22.915
 6932SOL    HW132424   1.433   2.508  22.889
 6932SOL    HW232425   1.571   2.531  22.833
 6933SOL     OW32426   4.349   4.576  18.366
 6933SOL    HW132427   4.426   4.613  18.409
 6933SOL    HW232428   4.378   4.490  18.335
 6934SOL     OW32429   4.194   3.835   0.128
 6934SOL    HW132430   4.159   3.746   0.126
 6934SOL    HW232431   4.122   3.890   0.095
 6935SOL     OW32432   1.311   3.351  10.383
 6935SOL    HW132433   1.242   3.346  10.317
 6935SOL    HW232434   1.383   3.396  10.339
 6936SOL     OW32435   1.761   1.927   5.050
 6936SOL    HW132436   1.749   1.907   4.957
 6936SOL    HW232437   1.820   2.002   5.051
 6937SOL     OW32438   3.638   3.572  22.422
 6937SOL    HW132439   3.572   3.620  22.472
 6937SOL    HW232440   3.710   3.634  22.410
 6938SOL     OW32441   4.000   1.509  22.399
 6938SOL    HW132442   4.075   1.452  22.381
 6938SOL    HW232443   4.014   1.540  22.488
 6939SOL     OW32444   1.594   2.239  25.529
 6939SOL    HW132445   1.578   2.145  25.534
 6939SOL    HW232446   1.674   2.248  25.478
 6940SOL     OW32447   3.919   2.830  27.886
 6940SOL    HW132448   3.851   2.886  27.847
 6940SOL    HW232449   3.995   2.842  27.830
 6941SOL     OW32450   4.695   0.848  25.922
 6941SOL    HW132451   0.003   0.823  25.896
 6941SOL    HW232452   4.669   0.915  25.858
 6942SOL     OW32453   0.314   1.311  22.688
 6942SOL    HW132454   0.409   1.301  22.679
 6942SOL    HW232455   0.289   1.245  22.752
 6943SOL     OW32456   2.371   0.632  25.754
 6943SOL    HW132457   2.321   0.562  25.713
 6943SOL    HW232458   2.457   0.628  25.713
 6944SOL     OW32459   4.559   0.892   4.515
 6944SOL    HW132460   4.551   0.872   4.422
 6944SOL    HW232461   4.645   0.857   4.540
 6945SOL     OW32462   1.912   4.559  26.063
 6945SOL    HW132463   1.832   4.523  26.102
 6945SOL    HW232464   1.967   4.482  26.045
 6946SOL     OW32465   3.837   2.638  28.095
 6946SOL    HW132466   3.879   2.695  28.030
 6946SOL    HW232467   3.900   2.634  28.167
 6947SOL     OW32468   4.637   2.383   2.408
 6947SOL    HW132469   4.669   2.428   2.330
 6947SOL    HW232470   4.603   2.453   2.464
 6948SOL     OW32471   4.669   4.013   4.754
 6948SOL    HW132472   4.617   4.012   4.673
 6948SOL    HW232473   4.649   3.929   4.796
 6949SOL     OW32474   0.470   1.960  23.686
 6949SOL    HW132475   0.494   2.041  23.730
 6949SOL    HW232476   0.493   1.891  23.748
 6950SOL     OW32477   3.704   1.474  24.589
 6950SOL    HW132478   3.661   1.423  24.520
 6950SOL    HW232479   3.669   1.562  24.578
 6951SOL     OW32480   1.072   1.913  19.436
 6951SOL    HW132481   0.984   1.894  19.467
 6951SOL    HW232482   1.130   1.868  19.497
 6952SOL     OW32483   4.176   2.525  18.337
 6952SOL    HW132484   4.094   2.507  18.383
 6952SOL    HW232485   4.157   2.505  18.245
 6953SOL     OW32486   1.053   2.117   9.140
 6953SOL    HW132487   1.058   2.113   9.236
 6953SOL    HW232488   1.116   2.185   9.116
 6954SOL     OW32489   2.543   4.761  22.602
 6954SOL    HW132490   2.634   0.009  22.605
 6954SOL    HW232491   2.494   0.057  22.572
 6955SOL     OW32492   0.853   2.699  21.006
 6955SOL    HW132493   0.848   2.663  21.094
 6955SOL    HW232494   0.880   2.625  20.951
 6956SOL     OW32495   4.454   4.070  17.409
 6956SOL    HW132496   4.395   4.141  17.386
 6956SOL    HW232497   4.527   4.079  17.348
 6957SOL     OW32498   4.217   2.365  27.611
 6957SOL    HW132499   4.305   2.374  27.648
 6957SOL    HW232500   4.214   2.430  27.541
 6958SOL     OW32501   4.020   4.576  21.760
 6958SOL    HW132502   4.060   4.501  21.804
 6958SOL    HW232503   3.927   4.570  21.781
 6959SOL     OW32504   3.448   0.646  16.129
 6959SOL    HW132505   3.525   0.597  16.099
 6959SOL    HW232506   3.474   0.680  16.215
 6960SOL     OW32507   3.947   2.978   1.888
 6960SOL    HW132508   4.017   2.917   1.864
 6960SOL    HW232509   3.876   2.922   1.921
 6961SOL     OW32510   1.780   2.386  20.695
 6961SOL    HW132511   1.866   2.377  20.735
 6961SOL    HW232512   1.798   2.410  20.604
 6962SOL     OW32513   2.158   2.321  21.611
 6962SOL    HW132514   2.232   2.296  21.556
 6962SOL    HW232515   2.164   2.263  21.687
 6963SOL     OW32516   1.036   1.815  19.153
 6963SOL    HW132517   0.941   1.804  19.157
 6963SOL    HW232518   1.065   1.752  19.087
 6964SOL     OW32519   2.999   0.882  19.549
 6964SOL    HW132520   3.066   0.831  19.595
 6964SOL    HW232521   2.930   0.896  19.614
 6965SOL     OW32522   4.221   0.780   0.272
 6965SOL    HW132523   4.190   0.810   0.187
 6965SOL    HW232524   4.315   0.766   0.260
 6966SOL     OW32525   3.044   0.501   4.915
 6966SOL    HW132526   2.966   0.456   4.947
 6966SOL    HW232527   3.064   0.459   4.831
 6967SOL     OW32528   2.866   2.066   9.514
 6967SOL    HW132529   2.956   2.036   9.499
 6967SOL    HW232530   2.812   1.988   9.500
 6968SOL     OW32531   2.000   4.293  24.824
 6968SOL    HW132532   2.005   4.227  24.755
 6968SOL    HW232533   1.906   4.304  24.839
 6969SOL     OW32534   2.387   3.274   9.541
 6969SOL    HW132535   2.347   3.355   9.509
 6969SOL    HW232536   2.377   3.278   9.636
 6970SOL     OW32537   4.435   1.905  25.880
 6970SOL    HW132538   4.520   1.885  25.920
 6970SOL    HW232539   4.454   1.915  25.787
 6971SOL     OW32540   4.085   2.351   2.696
 6971SOL    HW132541   4.085   2.380   2.787
 6971SOL    HW232542   4.088   2.255   2.702
 6972SOL     OW32543   3.501   0.622   1.419
 6972SOL    HW132544   3.531   0.637   1.509
 6972SOL    HW232545   3.420   0.673   1.413
 6973SOL     OW32546   1.241   2.121  19.348
 6973SOL    HW132547   1.221   2.190  19.412
 6973SOL    HW232548   1.328   2.143  19.315
 6974SOL     OW32549   4.391   2.402  25.036
 6974SOL    HW132550   4.457   2.470  25.045
 6974SOL    HW232551   4.392   2.356  25.120
 6975SOL     OW32552   0.108   2.738  16.170
 6975SOL    HW132553   0.097   2.832  16.186
 6975SOL    HW232554   0.064   2.723  16.086
 6976SOL     OW32555   2.948   2.216   8.386
 6976SOL    HW132556   3.001   2.145   8.349
 6976SOL    HW232557   2.960   2.289   8.325
 6977SOL     OW32558   1.438   0.395  25.292
 6977SOL    HW132559   1.481   0.480  25.295
 6977SOL    HW232560   1.359   0.410  25.239
 6978SOL     OW32561   0.547   1.374  18.513
 6978SOL    HW132562   0.544   1.398  18.606
 6978SOL    HW232563   0.636   1.396  18.485
 6979SOL     OW32564   0.457   4.553   4.437
 6979SOL    HW132565   0.393   4.622   4.418
 6979SOL    HW232566   0.436   4.483   4.375
 6980SOL     OW32567   2.121   0.846  22.205
 6980SOL    HW132568   2.069   0.862  22.283
 6980SOL    HW232569   2.116   0.928  22.155
 6981SOL     OW32570   0.908   1.238   2.180
 6981SOL    HW132571   0.993   1.225   2.138
 6981SOL    HW232572   0.884   1.328   2.158
 6982SOL     OW32573   2.670   3.740  21.119
 6982SOL    HW132574   2.636   3.651  21.132
 6982SOL    HW232575   2.762   3.735  21.146
 6983SOL     OW32576   2.542   4.111  26.440
 6983SOL    HW132577   2.555   4.026  26.398
 6983SOL    HW232578   2.580   4.174  26.378
 6984SOL     OW32579   4.598   0.271   2.409
 6984SOL    HW132580   4.687   0.306   2.399
 6984SOL    HW232581   4.610   0.177   2.419
 6985SOL     OW32582   0.763   0.184   0.432
 6985SOL    HW132583   0.728   0.126   0.365
 6985SOL    HW232584   0.828   0.237   0.386
 6986SOL     OW32585   1.936   4.020   5.453
 6986SOL    HW132586   1.932   3.974   5.369
 6986SOL    HW232587   1.986   4.099   5.435
 6987SOL     OW32588   4.346   1.561  25.853
 6987SOL    HW132589   4.396   1.625  25.904
 6987SOL    HW232590   4.340   1.599  25.766
 6988SOL     OW32591   4.692   3.419  23.578
 6988SOL    HW132592   4.635   3.486  23.615
 6988SOL    HW232593   4.640   3.339  23.581
 6989SOL     OW32594   3.502   4.137   3.372
 6989SOL    HW132595   3.479   4.048   3.397
 6989SOL    HW232596   3.431   4.165   3.314
 6990SOL     OW32597   0.525   3.267   7.966
 6990SOL    HW132598   0.605   3.299   8.008
 6990SOL    HW232599   0.457   3.328   7.994
 6991SOL     OW32600   2.064   3.759   2.091
 6991SOL    HW132601   2.082   3.679   2.042
 6991SOL    HW232602   1.971   3.754   2.111
 6992SOL     OW32603   0.972   2.092  19.240
 6992SOL    HW132604   0.884   2.066  19.266
 6992SOL    HW232605   0.970   2.188  19.241
 6993SOL     OW32606   2.339   0.740  26.327
 6993SOL    HW132607   2.306   0.758  26.239
 6993SOL    HW232608   2.318   0.648  26.342
 6994SOL     OW32609   4.501   0.540  24.021
 6994SOL    HW132610   4.407   0.541  24.039
 6994SOL    HW232611   4.525   0.632  24.015
 6995SOL     OW32612   3.594   3.582   4.356
 6995SOL    HW132613   3.666   3.519   4.353
 6995SOL    HW232614   3.636   3.667   4.345
 6996SOL     OW32615   2.554   2.726  23.750
 6996SOL    HW132616   2.607   2.754  23.676
 6996SOL    HW232617   2.579   2.785  23.821
 6997SOL     OW32618   0.891   3.988   6.817
 6997SOL    HW132619   0.840   4.060   6.854
 6997SOL    HW232620   0.951   3.963   6.887
 6998SOL     OW32621   0.160   4.223  20.414
 6998SOL    HW132622   0.244   4.194  20.380
 6998SOL    HW232623   0.097   4.158  20.382
 6999SOL     OW32624   2.002   0.054  19.221
 6999SOL    HW132625   2.072   0.063  19.156
 6999SOL    HW232626   1.923   0.039  19.169
 7000SOL     OW32627   2.678   2.568  26.627
 7000SOL    HW132628   2.736   2.637  26.595
 7000SOL    HW232629   2.663   2.512  26.551
 7001SOL     OW32630   1.315   1.872  19.263
 7001SOL    HW132631   1.366   1.879  19.343
 7001SOL    HW232632   1.376   1.837  19.198
 7002SOL     OW32633   3.178   4.463   3.787
 7002SOL    HW132634   3.191   4.442   3.880
 7002SOL    HW232635   3.246   4.528   3.767
 7003SOL     OW32636   1.880   2.284  16.643
 7003SOL    HW132637   1.917   2.226  16.576
 7003SOL    HW232638   1.801   2.320  16.602
 7004SOL     OW32639   3.845   3.046  26.865
 7004SOL    HW132640   3.796   2.981  26.915
 7004SOL    HW232641   3.907   2.995  26.813
 7005SOL     OW32642   3.351   2.391  24.207
 7005SOL    HW132643   3.291   2.332  24.161
 7005SOL    HW232644   3.430   2.390  24.153
 7006SOL     OW32645   2.832   0.360  25.050
 7006SOL    HW132646   2.879   0.369  24.967
 7006SOL    HW232647   2.781   0.279  25.041
 7007SOL     OW32648   3.871   3.994  16.838
 7007SOL    HW132649   3.852   3.910  16.879
 7007SOL    HW232650   3.960   4.015  16.867
 7008SOL     OW32651   1.545   0.032   5.964
 7008SOL    HW132652   1.487   4.759   6.017
 7008SOL    HW232653   1.543   0.118   6.006
 7009SOL     OW32654   0.739   4.561   7.552
 7009SOL    HW132655   0.827   4.554   7.589
 7009SOL    HW232656   0.733   4.652   7.523
 7010SOL     OW32657   3.824   2.731  27.389
 7010SOL    HW132658   3.738   2.731  27.430
 7010SOL    HW232659   3.807   2.748  27.296
 7011SOL     OW32660   4.747   1.135  21.614
 7011SOL    HW132661   4.728   1.058  21.667
 7011SOL    HW232662   4.749   1.102  21.524
 7012SOL     OW32663   0.504   0.470  22.572
 7012SOL    HW132664   0.538   0.456  22.660
 7012SOL    HW232665   0.414   0.501  22.586
 7013SOL     OW32666   1.149   1.874  24.386
 7013SOL    HW132667   1.144   1.935  24.313
 7013SOL    HW232668   1.242   1.853  24.394
 7014SOL     OW32669   4.175   0.136  27.537
 7014SOL    HW132670   4.220   0.110  27.617
 7014SOL    HW232671   4.120   0.210  27.563
 7015SOL     OW32672   4.337   2.075   2.921
 7015SOL    HW132673   4.402   2.070   2.991
 7015SOL    HW232674   4.327   2.169   2.904
 7016SOL     OW32675   3.885   4.046   2.642
 7016SOL    HW132676   3.951   3.976   2.644
 7016SOL    HW232677   3.896   4.086   2.556
 7017SOL     OW32678   1.521   3.004   0.687
 7017SOL    HW132679   1.563   2.936   0.635
 7017SOL    HW232680   1.463   2.957   0.746
 7018SOL     OW32681   3.497   2.531   6.460
 7018SOL    HW132682   3.500   2.547   6.366
 7018SOL    HW232683   3.522   2.615   6.499
 7019SOL     OW32684   3.119   3.615  22.954
 7019SOL    HW132685   3.172   3.580  23.026
 7019SOL    HW232686   3.032   3.628  22.992
 7020SOL     OW32687   0.740   2.538  25.535
 7020SOL    HW132688   0.730   2.615  25.591
 7020SOL    HW232689   0.743   2.573  25.446
 7021SOL     OW32690   1.496   4.458   9.739
 7021SOL    HW132691   1.562   4.453   9.670
 7021SOL    HW232692   1.506   4.546   9.776
 7022SOL     OW32693   1.606   1.670  22.604
 7022SOL    HW132694   1.574   1.713  22.524
 7022SOL    HW232695   1.568   1.721  22.675
 7023SOL     OW32696   1.457   1.311   6.043
 7023SOL    HW132697   1.538   1.334   5.997
 7023SOL    HW232698   1.471   1.221   6.073
 7024SOL     OW32699   0.810   0.619  26.814
 7024SOL    HW132700   0.850   0.642  26.898
 7024SOL    HW232701   0.804   0.702  26.767
 7025SOL     OW32702   1.898   4.596  19.523
 7025SOL    HW132703   1.906   4.510  19.564
 7025SOL    HW232704   1.964   4.595  19.454
 7026SOL     OW32705   1.470   1.901   7.046
 7026SOL    HW132706   1.563   1.911   7.067
 7026SOL    HW232707   1.430   1.874   7.128
 7027SOL     OW32708   4.770   0.858   7.559
 7027SOL    HW132709   0.084   0.847   7.550
 7027SOL    HW232710   4.752   0.944   7.520
 7028SOL     OW32711   0.234   0.995  23.750
 7028SOL    HW132712   0.216   1.073  23.802
 7028SOL    HW232713   0.213   1.021  23.660
 7029SOL     OW32714   0.989   3.935   8.138
 7029SOL    HW132715   0.971   3.851   8.180
 7029SOL    HW232716   0.958   4.000   8.201
 7030SOL     OW32717   1.389   4.085  17.835
 7030SOL    HW132718   1.455   4.065  17.768
 7030SOL    HW232719   1.440   4.103  17.914
 7031SOL     OW32720   2.516   4.235   5.736
 7031SOL    HW132721   2.573   4.178   5.684
 7031SOL    HW232722   2.465   4.174   5.790
 7032SOL     OW32723   0.874   4.204  21.849
 7032SOL    HW132724   0.876   4.217  21.754
 7032SOL    HW232725   0.919   4.120  21.862
 7033SOL     OW32726   4.518   1.308  17.828
 7033SOL    HW132727   4.485   1.333  17.742
 7033SOL    HW232728   4.574   1.381  17.855
 7034SOL     OW32729   0.917   2.919  17.399
 7034SOL    HW132730   1.009   2.944  17.409
 7034SOL    HW232731   0.906   2.905  17.305
 7035SOL     OW32732   2.775   3.431  26.151
 7035SOL    HW132733   2.746   3.407  26.239
 7035SOL    HW232734   2.815   3.517  26.161
 7036SOL     OW32735   0.108   1.577  20.779
 7036SOL    HW132736   0.176   1.553  20.843
 7036SOL    HW232737   0.066   1.494  20.757
 7037SOL     OW32738   2.519   0.389  22.813
 7037SOL    HW132739   2.518   0.463  22.752
 7037SOL    HW232740   2.522   0.430  22.900
 7038SOL     OW32741   4.734   1.538   0.040
 7038SOL    HW132742   4.678   1.462   0.027
 7038SOL    HW232743   4.724   1.560   0.133
 7039SOL     OW32744   0.209   1.819  28.201
 7039SOL    HW132745   0.133   1.767  28.226
 7039SOL    HW232746   0.240   1.779  28.120
 7040SOL     OW32747   3.313   0.803  21.510
 7040SOL    HW132748   3.401   0.786  21.542
 7040SOL    HW232749   3.291   0.727  21.457
 7041SOL     OW32750   2.770   3.882   9.880
 7041SOL    HW132751   2.777   3.924   9.794
 7041SOL    HW232752   2.677   3.888   9.902
 7042SOL     OW32753   3.481   2.072   3.281
 7042SOL    HW132754   3.495   2.122   3.201
 7042SOL    HW232755   3.393   2.035   3.272
 7043SOL     OW32756   1.264   3.589   0.905
 7043SOL    HW132757   1.279   3.498   0.929
 7043SOL    HW232758   1.350   3.620   0.876
 7044SOL     OW32759   0.026   3.126  25.688
 7044SOL    HW132760   0.095   3.134  25.622
 7044SOL    HW232761   0.073   3.128  25.772
 7045SOL     OW32762   2.037   3.390   8.327
 7045SOL    HW132763   2.047   3.374   8.233
 7045SOL    HW232764   1.950   3.356   8.348
 7046SOL     OW32765   4.142   1.271  17.681
 7046SOL    HW132766   4.097   1.278  17.597
 7046SOL    HW232767   4.235   1.275  17.659
 7047SOL     OW32768   4.651   1.246   4.782
 7047SOL    HW132769   4.688   1.192   4.713
 7047SOL    HW232770   4.573   1.285   4.743
 7048SOL     OW32771   3.174   0.429  25.181
 7048SOL    HW132772   3.205   0.519  25.172
 7048SOL    HW232773   3.233   0.378  25.126
 7049SOL     OW32774   1.280   2.197  23.815
 7049SOL    HW132775   1.321   2.226  23.896
 7049SOL    HW232776   1.337   2.230  23.746
 7050SOL     OW32777   1.975   3.250   5.992
 7050SOL    HW132778   2.038   3.184   5.963
 7050SOL    HW232779   2.023   3.333   5.986
 7051SOL     OW32780   0.974   4.480   1.900
 7051SOL    HW132781   0.953   4.550   1.961
 7051SOL    HW232782   0.959   4.518   1.813
 7052SOL     OW32783   2.871   3.581  21.234
 7052SOL    HW132784   2.896   3.587  21.326
 7052SOL    HW232785   2.819   3.501  21.228
 7053SOL     OW32786   2.018   4.060   8.596
 7053SOL    HW132787   1.984   4.081   8.509
 7053SOL    HW232788   2.017   4.144   8.643
 7054SOL     OW32789   0.235   1.984  23.571
 7054SOL    HW132790   0.242   2.070  23.530
 7054SOL    HW232791   0.319   1.972  23.615
 7055SOL     OW32792   1.509   0.743  28.264
 7055SOL    HW132793   1.531   0.820  28.212
 7055SOL    HW232794   1.480   0.778  28.348
 7056SOL     OW32795   0.340   1.768  17.456
 7056SOL    HW132796   0.315   1.680  17.484
 7056SOL    HW232797   0.373   1.809  17.536
 7057SOL     OW32798   2.389   0.645  20.926
 7057SOL    HW132799   2.483   0.654  20.908
 7057SOL    HW232800   2.346   0.695  20.856
 7058SOL     OW32801   0.541   1.986   8.276
 7058SOL    HW132802   0.606   1.952   8.338
 7058SOL    HW232803   0.560   1.941   8.194
 7059SOL     OW32804   0.837   1.083  20.300
 7059SOL    HW132805   0.866   1.174  20.304
 7059SOL    HW232806   0.758   1.086  20.246
 7060SOL     OW32807   2.282   0.248  25.841
 7060SOL    HW132808   2.296   0.288  25.755
 7060SOL    HW232809   2.196   0.207  25.834
 7061SOL     OW32810   2.147   0.934  28.237
 7061SOL    HW132811   2.225   0.880  28.225
 7061SOL    HW232812   2.119   0.957  28.148
 7062SOL     OW32813   4.177   4.756  28.407
 7062SOL    HW132814   4.166   0.063  28.371
 7062SOL    HW232815   4.207   4.771  28.497
 7063SOL     OW32816   1.216   2.036  19.063
 7063SOL    HW132817   1.170   2.026  18.980
 7063SOL    HW232818   1.307   2.013  19.043
 7064SOL     OW32819   2.126   4.257   4.662
 7064SOL    HW132820   2.086   4.199   4.597
 7064SOL    HW232821   2.158   4.198   4.730
 7065SOL     OW32822   2.941   3.842   6.745
 7065SOL    HW132823   2.982   3.915   6.698
 7065SOL    HW232824   3.009   3.775   6.750
 7066SOL     OW32825   1.840   1.898   1.325
 7066SOL    HW132826   1.809   1.953   1.253
 7066SOL    HW232827   1.914   1.850   1.288
 7067SOL     OW32828   0.641   4.517   2.172
 7067SOL    HW132829   0.631   4.422   2.179
 7067SOL    HW232830   0.575   4.553   2.232
 7068SOL     OW32831   3.702   1.675   6.580
 7068SOL    HW132832   3.740   1.640   6.500
 7068SOL    HW232833   3.759   1.748   6.604
 7069SOL     OW32834   4.109   2.865  19.902
 7069SOL    HW132835   4.026   2.880  19.856
 7069SOL    HW232836   4.130   2.949  19.942
 7070SOL     OW32837   0.907   1.863  20.673
 7070SOL    HW132838   0.889   1.856  20.579
 7070SOL    HW232839   0.839   1.922  20.706
 7071SOL     OW32840   0.623   3.128  20.697
 7071SOL    HW132841   0.671   3.048  20.676
 7071SOL    HW232842   0.667   3.163  20.775
 7072SOL     OW32843   0.417   4.493   7.053
 7072SOL    HW132844   0.338   4.454   7.016
 7072SOL    HW232845   0.403   4.490   7.148
 7073SOL     OW32846   0.877   1.726   5.876
 7073SOL    HW132847   0.928   1.700   5.799
 7073SOL    HW232848   0.794   1.680   5.867
 7074SOL     OW32849   2.938   4.540  19.109
 7074SOL    HW132850   3.019   4.582  19.138
 7074SOL    HW232851   2.955   4.446  19.119
 7075SOL     OW32852   0.100   1.508   9.224
 7075SOL    HW132853   0.191   1.516   9.253
 7075SOL    HW232854   0.084   1.414   9.219
 7076SOL     OW32855   2.811   2.680  22.701
 7076SOL    HW132856   2.831   2.651  22.790
 7076SOL    HW232857   2.718   2.662  22.690
 7077SOL     OW32858   2.597   2.417   0.874
 7077SOL    HW132859   2.605   2.472   0.952
 7077SOL    HW232860   2.683   2.377   0.863
 7078SOL     OW32861   0.633   1.371  26.689
 7078SOL    HW132862   0.608   1.311  26.618
 7078SOL    HW232863   0.727   1.357  26.701
 7079SOL     OW32864   4.366   3.075  27.801
 7079SOL    HW132865   4.315   3.145  27.841
 7079SOL    HW232866   4.456   3.108  27.800
 7080SOL     OW32867   1.299   0.388  20.036
 7080SOL    HW132868   1.321   0.323  19.970
 7080SOL    HW232869   1.384   0.419  20.068
 7081SOL     OW32870   2.587   4.313  22.764
 7081SOL    HW132871   2.551   4.402  22.767
 7081SOL    HW232872   2.511   4.256  22.771
 7082SOL     OW32873   0.152   3.215   7.934
 7082SOL    HW132874   0.117   3.303   7.919
 7082SOL    HW232875   0.154   3.175   7.847
 7083SOL     OW32876   2.528   1.519  18.694
 7083SOL    HW132877   2.466   1.460  18.650
 7083SOL    HW232878   2.612   1.502  18.650
 7084SOL     OW32879   1.985   3.392   5.678
 7084SOL    HW132880   1.969   3.481   5.709
 7084SOL    HW232881   1.931   3.384   5.600
 7085SOL     OW32882   3.339   1.193   3.061
 7085SOL    HW132883   3.249   1.176   3.031
 7085SOL    HW232884   3.329   1.232   3.148
 7086SOL     OW32885   1.472   2.880   0.260
 7086SOL    HW132886   1.561   2.877   0.225
 7086SOL    HW232887   1.448   2.973   0.257
 7087SOL     OW32888   1.506   3.749  21.677
 7087SOL    HW132889   1.531   3.839  21.699
 7087SOL    HW232890   1.569   3.723  21.610
 7088SOL     OW32891   1.905   4.750   3.862
 7088SOL    HW132892   1.848   4.711   3.928
 7088SOL    HW232893   1.927   0.055   3.898
 7089SOL     OW32894   1.577   3.500  19.531
 7089SOL    HW132895   1.615   3.465  19.450
 7089SOL    HW232896   1.602   3.593  19.530
 7090SOL     OW32897   4.179   1.966   0.927
 7090SOL    HW132898   4.119   2.006   0.990
 7090SOL    HW232899   4.231   1.906   0.980
 7091SOL     OW32900   3.992   4.167  28.169
 7091SOL    HW132901   3.912   4.123  28.142
 7091SOL    HW232902   4.062   4.118  28.126
 7092SOL     OW32903   2.076   2.097  20.789
 7092SOL    HW132904   2.131   2.103  20.711
 7092SOL    HW232905   2.079   2.185  20.827
 7093SOL     OW32906   2.773   2.056  27.055
 7093SOL    HW132907   2.864   2.030  27.069
 7093SOL    HW232908   2.774   2.104  26.972
 7094SOL     OW32909   1.155   3.090  23.984
 7094SOL    HW132910   1.080   3.050  24.028
 7094SOL    HW232911   1.229   3.033  24.005
 7095SOL     OW32912   4.584   3.055  19.289
 7095SOL    HW132913   4.589   3.042  19.194
 7095SOL    HW232914   4.555   3.145  19.300
 7096SOL     OW32915   1.424   2.079  10.585
 7096SOL    HW132916   1.509   2.056  10.547
 7096SOL    HW232917   1.415   2.022  10.662
 7097SOL     OW32918   0.142   2.672   8.415
 7097SOL    HW132919   0.107   2.747   8.366
 7097SOL    HW232920   0.237   2.685   8.415
 7098SOL     OW32921   1.838   2.958  26.097
 7098SOL    HW132922   1.926   2.987  26.121
 7098SOL    HW232923   1.785   3.038  26.102
 7099SOL     OW32924   4.153   3.002  23.261
 7099SOL    HW132925   4.203   2.923  23.282
 7099SOL    HW232926   4.147   3.049  23.344
 7100SOL     OW32927   2.231   0.793  26.902
 7100SOL    HW132928   2.225   0.700  26.922
 7100SOL    HW232929   2.296   0.827  26.963
 7101SOL     OW32930   1.028   1.223   4.703
 7101SOL    HW132931   0.967   1.207   4.631
 7101SOL    HW232932   1.111   1.185   4.674
 7102SOL     OW32933   3.997   3.891  22.330
 7102SOL    HW132934   4.054   3.870  22.256
 7102SOL    HW232935   3.909   3.869  22.299
 7103SOL     OW32936   0.208   0.514   7.553
 7103SOL    HW132937   0.254   0.436   7.583
 7103SOL    HW232938   0.222   0.579   7.622
 7104SOL     OW32939   2.632   2.808  23.170
 7104SOL    HW132940   2.587   2.825  23.253
 7104SOL    HW232941   2.578   2.743  23.126
 7105SOL     OW32942   1.617   4.110   0.464
 7105SOL    HW132943   1.581   4.191   0.501
 7105SOL    HW232944   1.543   4.068   0.421
 7106SOL     OW32945   4.614   2.366   1.144
 7106SOL    HW132946   4.647   2.383   1.056
 7106SOL    HW232947   4.691   2.373   1.200
 7107SOL     OW32948   0.072   1.558   7.739
 7107SOL    HW132949   0.087   1.607   7.820
 7107SOL    HW232950   0.152   1.570   7.688
 7108SOL     OW32951   2.333   3.932  11.549
 7108SOL    HW132952   2.383   3.990  11.491
 7108SOL    HW232953   2.399   3.888  11.602
 7109SOL     OW32954   3.495   1.986   1.042
 7109SOL    HW132955   3.483   1.936   0.961
 7109SOL    HW232956   3.433   2.059   1.035
 7110SOL     OW32957   4.358   2.539  28.167
 7110SOL    HW132958   4.327   2.560  28.255
 7110SOL    HW232959   4.280   2.543  28.112
 7111SOL     OW32960   1.116   2.318  24.229
 7111SOL    HW132961   1.060   2.305  24.305
 7111SOL    HW232962   1.102   2.409  24.204
 7112SOL     OW32963   2.220   2.604  20.440
 7112SOL    HW132964   2.168   2.657  20.379
 7112SOL    HW232965   2.254   2.532  20.386
 7113SOL     OW32966   1.003   1.351  27.367
 7113SOL    HW132967   0.937   1.385  27.428
 7113SOL    HW232968   0.980   1.259  27.355
 7114SOL     OW32969   1.657   2.501   1.491
 7114SOL    HW132970   1.640   2.561   1.563
 7114SOL    HW232971   1.752   2.488   1.492
 7115SOL     OW32972   0.319   3.936   6.697
 7115SOL    HW132973   0.353   3.847   6.703
 7115SOL    HW232974   0.396   3.989   6.676
 7116SOL     OW32975   2.822   2.811  25.617
 7116SOL    HW132976   2.858   2.761  25.690
 7116SOL    HW232977   2.809   2.746  25.548
 7117SOL     OW32978   2.240   2.936   5.230
 7117SOL    HW132979   2.146   2.919   5.237
 7117SOL    HW232980   2.253   2.961   5.138
 7118SOL     OW32981   2.516   0.942  27.310
 7118SOL    HW132982   2.455   0.921  27.381
 7118SOL    HW232983   2.603   0.928  27.348
 7119SOL     OW32984   2.648   2.398  28.162
 7119SOL    HW132985   2.632   2.382  28.255
 7119SOL    HW232986   2.569   2.444  28.132
 7120SOL     OW32987   4.098   1.615  24.021
 7120SOL    HW132988   4.124   1.586  24.108
 7120SOL    HW232989   4.134   1.549  23.962
 7121SOL     OW32990   0.722   4.768   4.660
 7121SOL    HW132991   0.637   0.006   4.700
 7121SOL    HW232992   0.785   4.780   4.731
 7122SOL     OW32993   0.159   2.692  25.764
 7122SOL    HW132994   0.071   2.714  25.732
 7122SOL    HW232995   0.172   2.748  25.840
 7123SOL     OW32996   1.239   2.393  25.479
 7123SOL    HW132997   1.303   2.355  25.540
 7123SOL    HW232998   1.203   2.318  25.432
 7124SOL     OW32999   1.343   2.600  27.908
 7124SOL    HW133000   1.324   2.516  27.950
 7124SOL    HW233001   1.426   2.586  27.863
 7125SOL     OW33002   1.479   0.734  26.235
 7125SOL    HW133003   1.545   0.691  26.290
 7125SOL    HW233004   1.421   0.663  26.207
 7126SOL     OW33005   0.171   0.426   1.448
 7126SOL    HW133006   0.125   0.481   1.512
 7126SOL    HW233007   0.121   0.437   1.367
 7127SOL     OW33008   0.477   0.826  24.580
 7127SOL    HW133009   0.547   0.867  24.632
 7127SOL    HW233010   0.507   0.833  24.489
 7128SOL     OW33011   0.562   2.388  21.055
 7128SOL    HW133012   0.625   2.441  21.104
 7128SOL    HW233013   0.524   2.449  20.991
 7129SOL     OW33014   0.697   1.827  24.475
 7129SOL    HW133015   0.761   1.893  24.449
 7129SOL    HW233016   0.638   1.873  24.535
 7130SOL     OW33017   2.994   4.380  20.891
 7130SOL    HW133018   3.015   4.289  20.914
 7130SOL    HW233019   2.933   4.409  20.959
 7131SOL     OW33020   3.276   0.415   2.176
 7131SOL    HW133021   3.270   0.500   2.220
 7131SOL    HW233022   3.227   0.427   2.095
 7132SOL     OW33023   4.524   1.582  19.095
 7132SOL    HW133024   4.573   1.556  19.173
 7132SOL    HW233025   4.504   1.675  19.109
 7133SOL     OW33026   4.062   3.590   2.833
 7133SOL    HW133027   4.057   3.535   2.911
 7133SOL    HW233028   3.988   3.650   2.841
 7134SOL     OW33029   3.918   4.069   5.794
 7134SOL    HW133030   3.903   4.137   5.728
 7134SOL    HW233031   3.832   4.028   5.806
 7135SOL     OW33032   3.564   2.754  28.008
 7135SOL    HW133033   3.631   2.800  27.957
 7135SOL    HW233034   3.613   2.695  28.065
 7136SOL     OW33035   4.622   3.103  27.891
 7136SOL    HW133036   4.649   3.194  27.907
 7136SOL    HW233037   4.573   3.079  27.970
 7137SOL     OW33038   0.107   3.116   6.019
 7137SOL    HW133039   0.051   3.061   5.964
 7137SOL    HW233040   0.139   3.184   5.960
 7138SOL     OW33041   1.539   0.577  20.476
 7138SOL    HW133042   1.465   0.599  20.419
 7138SOL    HW233043   1.517   0.491  20.511
 7139SOL     OW33044   1.068   1.385  17.438
 7139SOL    HW133045   1.009   1.424  17.502
 7139SOL    HW233046   1.058   1.439  17.360
 7140SOL     OW33047   3.051   0.089   8.528
 7140SOL    HW133048   3.024   0.106   8.438
 7140SOL    HW233049   2.972   0.056   8.571
 7141SOL     OW33050   3.496   1.621  20.190
 7141SOL    HW133051   3.504   1.659  20.102
 7141SOL    HW233052   3.410   1.650  20.220
 7142SOL     OW33053   4.693   3.506  19.900
 7142SOL    HW133054   4.657   3.540  19.982
 7142SOL    HW233055   4.735   3.423  19.924
 7143SOL     OW33056   4.265   2.528   8.898
 7143SOL    HW133057   4.254   2.575   8.981
 7143SOL    HW233058   4.349   2.560   8.864
 7144SOL     OW33059   0.674   3.215   0.744
 7144SOL    HW133060   0.611   3.283   0.722
 7144SOL    HW233061   0.739   3.218   0.674
 7145SOL     OW33062   0.968   0.974   8.437
 7145SOL    HW133063   1.014   1.057   8.424
 7145SOL    HW233064   0.957   0.938   8.349
 7146SOL     OW33065   0.367   0.833  23.150
 7146SOL    HW133066   0.433   0.902  23.151
 7146SOL    HW233067   0.365   0.800  23.240
 7147SOL     OW33068   4.038   4.437  27.211
 7147SOL    HW133069   4.038   4.496  27.135
 7147SOL    HW233070   4.067   4.492  27.284
 7148SOL     OW33071   0.027   3.952   7.319
 7148SOL    HW133072   0.120   3.964   7.298
 7148SOL    HW233073   4.763   4.020   7.269
 7149SOL     OW33074   4.374   1.982  28.335
 7149SOL    HW133075   4.302   2.021  28.385
 7149SOL    HW233076   4.340   1.973  28.246
 7150SOL     OW33077   1.309   3.831  21.509
 7150SOL    HW133078   1.361   3.781  21.572
 7150SOL    HW233079   1.230   3.855  21.558
 7151SOL     OW33080   4.247   0.809  20.083
 7151SOL    HW133081   4.198   0.874  20.032
 7151SOL    HW233082   4.219   0.725  20.046
 7152SOL     OW33083   1.879   3.572  19.823
 7152SOL    HW133084   1.949   3.514  19.794
 7152SOL    HW233085   1.918   3.659  19.821
 7153SOL     OW33086   2.439   0.654   1.402
 7153SOL    HW133087   2.438   0.603   1.483
 7153SOL    HW233088   2.393   0.735   1.424
 7154SOL     OW33089   4.651   2.874  23.706
 7154SOL    HW133090   4.668   2.782  23.687
 7154SOL    HW233091   4.594   2.903  23.635
 7155SOL     OW33092   4.756   1.451  23.292
 7155SOL    HW133093   0.060   1.484  23.262
 7155SOL    HW233094   4.756   1.359  23.267
 7156SOL     OW33095   2.200   0.666   4.944
 7156SOL    HW133096   2.155   0.597   4.895
 7156SOL    HW233097   2.148   0.745   4.927
 7157SOL     OW33098   0.144   1.535   3.982
 7157SOL    HW133099   0.203   1.575   3.918
 7157SOL    HW233100   0.058   1.536   3.940
 7158SOL     OW33101   1.337   1.762  25.106
 7158SOL    HW133102   1.411   1.775  25.046
 7158SOL    HW233103   1.273   1.713  25.054
 7159SOL     OW33104   1.823   2.199  26.490
 7159SOL    HW133105   1.798   2.133  26.426
 7159SOL    HW233106   1.764   2.185  26.564
 7160SOL     OW33107   4.404   3.370   7.840
 7160SOL    HW133108   4.365   3.441   7.890
 7160SOL    HW233109   4.454   3.320   7.905
 7161SOL     OW33110   3.715   2.336   4.811
 7161SOL    HW133111   3.794   2.322   4.758
 7161SOL    HW233112   3.644   2.299   4.759
 7162SOL     OW33113   3.239   1.943   3.270
 7162SOL    HW133114   3.272   1.857   3.243
 7162SOL    HW233115   3.152   1.949   3.230
 7163SOL     OW33116   4.595   4.597   6.216
 7163SOL    HW133117   4.588   4.580   6.310
 7163SOL    HW233118   4.519   4.554   6.178
 7164SOL     OW33119   1.351   2.382   5.046
 7164SOL    HW133120   1.351   2.427   4.961
 7164SOL    HW233121   1.264   2.401   5.082
 7165SOL     OW33122   0.819   0.655  23.986
 7165SOL    HW133123   0.737   0.696  23.958
 7165SOL    HW233124   0.886   0.720  23.964
 7166SOL     OW33125   0.649   4.610   4.186
 7166SOL    HW133126   0.555   4.612   4.168
 7166SOL    HW233127   0.656   4.638   4.277
 7167SOL     OW33128   4.504   4.276   7.083
 7167SOL    HW133129   4.425   4.325   7.105
 7167SOL    HW233130   4.540   4.322   7.007
 7168SOL     OW33131   0.802   0.108  26.474
 7168SOL    HW133132   0.821   0.127  26.566
 7168SOL    HW233133   0.821   0.015  26.464
 7169SOL     OW33134   1.148   4.596  27.532
 7169SOL    HW133135   1.109   4.538  27.466
 7169SOL    HW233136   1.178   4.537  27.601
 7170SOL     OW33137   2.994   3.480  21.462
 7170SOL    HW133138   2.967   3.491  21.553
 7170SOL    HW233139   3.087   3.503  21.461
 7171SOL     OW33140   1.848   2.098  25.718
 7171SOL    HW133141   1.941   2.097  25.697
 7171SOL    HW233142   1.835   2.180  25.765
 7172SOL     OW33143   1.159   0.335   5.775
 7172SOL    HW133144   1.168   0.313   5.868
 7172SOL    HW233145   1.246   0.319   5.738
 7173SOL     OW33146   3.989   3.851   4.155
 7173SOL    HW133147   3.952   3.897   4.080
 7173SOL    HW233148   3.991   3.759   4.128
 7174SOL     OW33149   4.056   1.089   7.669
 7174SOL    HW133150   4.018   1.001   7.666
 7174SOL    HW233151   4.150   1.075   7.660
 7175SOL     OW33152   1.796   2.825  26.485
 7175SOL    HW133153   1.792   2.759  26.555
 7175SOL    HW233154   1.877   2.873  26.502
 7176SOL     OW33155   1.300   4.281   3.035
 7176SOL    HW133156   1.341   4.312   3.115
 7176SOL    HW233157   1.310   4.353   2.973
 7177SOL     OW33158   1.215   4.727   2.984
 7177SOL    HW133159   1.162   0.025   2.973
 7177SOL    HW233160   1.287   4.754   3.042
 7178SOL     OW33161   1.899   2.894   7.833
 7178SOL    HW133162   1.845   2.919   7.758
 7178SOL    HW233163   1.856   2.816   7.868
 7179SOL     OW33164   0.993   1.186   6.650
 7179SOL    HW133165   0.916   1.189   6.593
 7179SOL    HW233166   1.012   1.278   6.670
 7180SOL     OW33167   3.383   1.049   2.333
 7180SOL    HW133168   3.423   1.030   2.418
 7180SOL    HW233169   3.445   1.013   2.269
 7181SOL     OW33170   0.999   2.574  19.992
 7181SOL    HW133171   1.069   2.529  20.039
 7181SOL    HW233172   1.018   2.667  20.003
 7182SOL     OW33173   4.423   1.307   9.803
 7182SOL    HW133174   4.383   1.226   9.835
 7182SOL    HW233175   4.355   1.374   9.816
 7183SOL     OW33176   4.535   3.640   1.432
 7183SOL    HW133177   4.590   3.592   1.494
 7183SOL    HW233178   4.505   3.717   1.481
 7184SOL     OW33179   1.055   0.316   4.830
 7184SOL    HW133180   1.113   0.390   4.848
 7184SOL    HW233181   1.099   0.268   4.759
 7185SOL     OW33182   4.735   2.018   4.173
 7185SOL    HW133183   4.692   1.961   4.109
 7185SOL    HW233184   4.730   1.969   4.255
 7186SOL     OW33185   0.184   2.352  22.478
 7186SOL    HW133186   0.224   2.435  22.452
 7186SOL    HW233187   0.148   2.369  22.565
 7187SOL     OW33188   3.431   1.375   1.822
 7187SOL    HW133189   3.494   1.396   1.891
 7187SOL    HW233190   3.481   1.321   1.760
 7188SOL     OW33191   4.427   4.324   5.838
 7188SOL    HW133192   4.457   4.302   5.750
 7188SOL    HW233193   4.347   4.273   5.850
 7189SOL     OW33194   0.778   2.272  26.551
 7189SOL    HW133195   0.813   2.213  26.618
 7189SOL    HW233196   0.787   2.360  26.588
 7190SOL     OW33197   2.299   3.643   6.280
 7190SOL    HW133198   2.294   3.548   6.272
 7190SOL    HW233199   2.382   3.658   6.325
 7191SOL     OW33200   3.421   1.740  17.443
 7191SOL    HW133201   3.396   1.669  17.502
 7191SOL    HW233202   3.412   1.702  17.356
 7192SOL     OW33203   2.294   2.335  10.420
 7192SOL    HW133204   2.326   2.423  10.402
 7192SOL    HW233205   2.310   2.286  10.339
 7193SOL     OW33206   4.250   2.666  27.869
 7193SOL    HW133207   4.177   2.627  27.821
 7193SOL    HW233208   4.210   2.732  27.925
 7194SOL     OW33209   2.192   1.827   7.143
 7194SOL    HW133210   2.218   1.899   7.201
 7194SOL    HW233211   2.181   1.868   7.057
 7195SOL     OW33212   4.605   2.451  26.272
 7195SOL    HW133213   4.614   2.393  26.347
 7195SOL    HW233214   4.561   2.529  26.307
 7196SOL     OW33215   3.385   3.375   7.213
 7196SOL    HW133216   3.298   3.369   7.174
 7196SOL    HW233217   3.445   3.366   7.139
 7197SOL     OW33218   1.990   0.858   8.915
 7197SOL    HW133219   2.031   0.867   8.829
 7197SOL    HW233220   1.904   0.820   8.897
 7198SOL     OW33221   2.186   1.798  27.728
 7198SOL    HW133222   2.208   1.744  27.804
 7198SOL    HW233223   2.247   1.768  27.660
 7199SOL     OW33224   4.066   0.084   4.613
 7199SOL    HW133225   4.157   0.103   4.635
 7199SOL    HW233226   4.049   0.133   4.533
 7200SOL     OW33227   3.937   1.145  19.748
 7200SOL    HW133228   3.895   1.164  19.664
 7200SOL    HW233229   4.023   1.111  19.725
 7201SOL     OW33230   1.149   2.349   6.542
 7201SOL    HW133231   1.152   2.345   6.638
 7201SOL    HW233232   1.123   2.439   6.522
 7202SOL     OW33233   1.321   2.674  27.016
 7202SOL    HW133234   1.272   2.608  27.064
 7202SOL    HW233235   1.405   2.680  27.062
 7203SOL     OW33236   1.387   3.688   5.035
 7203SOL    HW133237   1.392   3.605   5.082
 7203SOL    HW233238   1.457   3.741   5.074
 7204SOL     OW33239   0.206   2.125  17.429
 7204SOL    HW133240   0.172   2.213  17.444
 7204SOL    HW233241   0.151   2.069  17.483
 7205SOL     OW33242   3.366   1.171   8.462
 7205SOL    HW133243   3.456   1.202   8.450
 7205SOL    HW233244   3.349   1.116   8.386
 7206SOL     OW33245   2.064   4.275  22.516
 7206SOL    HW133246   2.007   4.341  22.555
 7206SOL    HW233247   2.036   4.192  22.554
 7207SOL     OW33248   3.296   2.455  20.614
 7207SOL    HW133249   3.200   2.458  20.609
 7207SOL    HW233250   3.315   2.458  20.708
 7208SOL     OW33251   0.601   1.610  18.314
 7208SOL    HW133252   0.643   1.561  18.243
 7208SOL    HW233253   0.606   1.701  18.286
 7209SOL     OW33254   0.645   2.332  22.498
 7209SOL    HW133255   0.713   2.398  22.515
 7209SOL    HW233256   0.654   2.312  22.405
 7210SOL     OW33257   3.381   1.030   6.902
 7210SOL    HW133258   3.304   1.087   6.908
 7210SOL    HW233259   3.430   1.047   6.983
 7211SOL     OW33260   4.098   1.055   6.180
 7211SOL    HW133261   4.017   1.012   6.208
 7211SOL    HW233262   4.072   1.108   6.104
 7212SOL     OW33263   4.060   4.555  22.444
 7212SOL    HW133264   4.057   4.460  22.429
 7212SOL    HW233265   4.027   4.593  22.363
 7213SOL     OW33266   0.200   4.192  22.513
 7213SOL    HW133267   0.112   4.224  22.492
 7213SOL    HW233268   0.229   4.247  22.585
 7214SOL     OW33269   3.660   3.787  20.185
 7214SOL    HW133270   3.702   3.848  20.245
 7214SOL    HW233271   3.708   3.705  20.196
 7215SOL     OW33272   1.004   2.674  19.351
 7215SOL    HW133273   1.016   2.659  19.445
 7215SOL    HW233274   0.925   2.727  19.346
 7216SOL     OW33275   3.108   3.269  25.942
 7216SOL    HW133276   3.044   3.237  26.005
 7216SOL    HW233277   3.102   3.209  25.868
 7217SOL     OW33278   3.175   2.547  22.774
 7217SOL    HW133279   3.169   2.550  22.679
 7217SOL    HW233280   3.120   2.472  22.799
 7218SOL     OW33281   1.980   0.060   0.696
 7218SOL    HW133282   2.069   0.053   0.661
 7218SOL    HW233283   1.956   4.751   0.720
 7219SOL     OW33284   1.442   2.714   0.496
 7219SOL    HW133285   1.442   2.766   0.416
 7219SOL    HW233286   1.521   2.741   0.543
 7220SOL     OW33287   0.952   2.699   6.957
 7220SOL    HW133288   1.005   2.653   7.022
 7220SOL    HW233289   0.883   2.636   6.934
 7221SOL     OW33290   4.092   1.142  19.348
 7221SOL    HW133291   4.094   1.234  19.323
 7221SOL    HW233292   4.054   1.097  19.272
 7222SOL     OW33293   2.890   3.831   5.925
 7222SOL    HW133294   2.881   3.918   5.963
 7222SOL    HW233295   2.969   3.836   5.871
 7223SOL     OW33296   1.387   4.378  23.013
 7223SOL    HW133297   1.427   4.297  22.981
 7223SOL    HW233298   1.296   4.374  22.983
 7224SOL     OW33299   1.496   4.745   3.600
 7224SOL    HW133300   1.589   4.768   3.602
 7224SOL    HW233301   1.451   0.040   3.638
 7225SOL     OW33302   2.440   3.330  24.458
 7225SOL    HW133303   2.521   3.288  24.429
 7225SOL    HW233304   2.371   3.288  24.407
 7226SOL     OW33305   2.039   0.334  20.510
 7226SOL    HW133306   2.054   0.392  20.435
 7226SOL    HW233307   2.046   0.392  20.586
 7227SOL     OW33308   1.419   1.467   3.145
 7227SOL    HW133309   1.420   1.537   3.080
 7227SOL    HW233310   1.374   1.505   3.221
 7228SOL     OW33311   2.110   4.608  19.341
 7228SOL    HW133312   2.201   4.617  19.313
 7228SOL    HW233313   2.064   4.680  19.298
 7229SOL     OW33314   0.036   4.208   7.823
 7229SOL    HW133315   4.769   4.185   7.744
 7229SOL    HW233316   0.114   4.152   7.822
 7230SOL     OW33317   4.716   0.173   4.937
 7230SOL    HW133318   4.703   0.261   4.974
 7230SOL    HW233319   4.757   0.188   4.852
 7231SOL     OW33320   2.113   2.336  23.625
 7231SOL    HW133321   2.208   2.324  23.628
 7231SOL    HW233322   2.077   2.249  23.643
 7232SOL     OW33323   3.618   3.031  23.156
 7232SOL    HW133324   3.710   3.027  23.131
 7232SOL    HW233325   3.589   2.940  23.152
 7233SOL     OW33326   3.628   1.531   2.692
 7233SOL    HW133327   3.582   1.455   2.727
 7233SOL    HW233328   3.567   1.570   2.629
 7234SOL     OW33329   3.281   2.373  24.968
 7234SOL    HW133330   3.243   2.371  25.056
 7234SOL    HW233331   3.251   2.292  24.928
 7235SOL     OW33332   2.950   4.121  10.047
 7235SOL    HW133333   3.005   4.181  10.098
 7235SOL    HW233334   2.954   4.155   9.958
 7236SOL     OW33335   3.944   2.292  22.586
 7236SOL    HW133336   3.936   2.230  22.513
 7236SOL    HW233337   3.873   2.268  22.645
 7237SOL     OW33338   0.316   2.213  21.000
 7237SOL    HW133339   0.251   2.277  20.971
 7237SOL    HW233340   0.389   2.266  21.032
 7238SOL     OW33341   2.639   3.567  10.450
 7238SOL    HW133342   2.631   3.524  10.535
 7238SOL    HW233343   2.568   3.530  10.397
 7239SOL     OW33344   3.669   1.619  20.436
 7239SOL    HW133345   3.679   1.528  20.465
 7239SOL    HW233346   3.633   1.612  20.348
 7240SOL     OW33347   1.436   3.644  27.426
 7240SOL    HW133348   1.470   3.573  27.481
 7240SOL    HW233349   1.424   3.717  27.486
 7241SOL     OW33350   3.577   1.463  20.991
 7241SOL    HW133351   3.656   1.510  20.964
 7241SOL    HW233352   3.609   1.390  21.044
 7242SOL     OW33353   0.964   3.406  25.053
 7242SOL    HW133354   0.914   3.382  25.131
 7242SOL    HW233355   0.915   3.479  25.015
 7243SOL     OW33356   2.646   3.752  10.237
 7243SOL    HW133357   2.674   3.823  10.180
 7243SOL    HW233358   2.551   3.751  10.231
 7244SOL     OW33359   0.848   3.639  27.456
 7244SOL    HW133360   0.865   3.705  27.389
 7244SOL    HW233361   0.763   3.602  27.432
 7245SOL     OW33362   3.287   4.373  26.205
 7245SOL    HW133363   3.193   4.370  26.189
 7245SOL    HW233364   3.296   4.416  26.290
 7246SOL     OW33365   0.157   0.795  18.909
 7246SOL    HW133366   0.149   0.763  18.819
 7246SOL    HW233367   0.248   0.822  18.917
 7247SOL     OW33368   3.732   3.316   9.857
 7247SOL    HW133369   3.685   3.350   9.781
 7247SOL    HW233370   3.687   3.356   9.932
 7248SOL     OW33371   4.371   4.603  22.417
 7248SOL    HW133372   4.282   4.622  22.448
 7248SOL    HW233373   4.373   4.639  22.328
 7249SOL     OW33374   0.457   2.737   2.413
 7249SOL    HW133375   0.460   2.799   2.340
 7249SOL    HW233376   0.521   2.770   2.476
 7250SOL     OW33377   3.128   3.892   3.984
 7250SOL    HW133378   3.201   3.863   3.930
 7250SOL    HW233379   3.147   3.855   4.071
 7251SOL     OW33380   0.153   3.304   3.661
 7251SOL    HW133381   0.242   3.313   3.696
 7251SOL    HW233382   0.096   3.314   3.737
 7252SOL     OW33383   1.468   4.353   0.476
 7252SOL    HW133384   1.402   4.325   0.413
 7252SOL    HW233385   1.468   4.449   0.470
 7253SOL     OW33386   4.299   0.123  19.930
 7253SOL    HW133387   4.341   0.163  19.854
 7253SOL    HW233388   4.371   0.104  19.990
 7254SOL     OW33389   0.896   4.025  21.545
 7254SOL    HW133390   0.892   3.964  21.471
 7254SOL    HW233391   0.919   3.970  21.620
 7255SOL     OW33392   1.703   3.340  19.364
 7255SOL    HW133393   1.739   3.298  19.286
 7255SOL    HW233394   1.643   3.275  19.401
 7256SOL     OW33395   4.567   4.062   0.928
 7256SOL    HW133396   4.542   4.088   1.017
 7256SOL    HW233397   4.656   4.095   0.917
 7257SOL     OW33398   0.876   3.036  28.462
 7257SOL    HW133399   0.960   3.044  28.508
 7257SOL    HW233400   0.834   2.961  28.503
 7258SOL     OW33401   1.223   0.578   9.278
 7258SOL    HW133402   1.221   0.611   9.188
 7258SOL    HW233403   1.289   0.508   9.277
 7259SOL     OW33404   4.276   3.242  20.580
 7259SOL    HW133405   4.256   3.331  20.607
 7259SOL    HW233406   4.228   3.187  20.641
 7260SOL     OW33407   3.252   1.596   9.757
 7260SOL    HW133408   3.283   1.517   9.801
 7260SOL    HW233409   3.219   1.565   9.673
 7261SOL     OW33410   4.524   0.715  27.954
 7261SOL    HW133411   4.537   0.805  27.984
 7261SOL    HW233412   4.438   0.690  27.989
 7262SOL     OW33413   1.368   1.610  19.999
 7262SOL    HW133414   1.312   1.635  19.926
 7262SOL    HW233415   1.457   1.616  19.964
 7263SOL     OW33416   4.346   0.682  20.955
 7263SOL    HW133417   4.260   0.651  20.928
 7263SOL    HW233418   4.337   0.700  21.049
 7264SOL     OW33419   4.240   4.062   6.948
 7264SOL    HW133420   4.180   3.995   6.916
 7264SOL    HW233421   4.294   4.016   7.013
 7265SOL     OW33422   1.615   2.378   7.271
 7265SOL    HW133423   1.601   2.379   7.366
 7265SOL    HW233424   1.559   2.308   7.239
 7266SOL     OW33425   0.794   1.611   0.279
 7266SOL    HW133426   0.795   1.545   0.210
 7266SOL    HW233427   0.886   1.621   0.304
 7267SOL     OW33428   4.553   1.373  25.205
 7267SOL    HW133429   4.528   1.451  25.255
 7267SOL    HW233430   4.542   1.301  25.267
 7268SOL     OW33431   1.525   0.368  11.255
 7268SOL    HW133432   1.496   0.442  11.308
 7268SOL    HW233433   1.563   0.307  11.318
 7269SOL     OW33434   0.641   1.010  21.167
 7269SOL    HW133435   0.577   1.055  21.222
 7269SOL    HW233436   0.589   0.962  21.103
 7270SOL     OW33437   4.706   2.199   2.604
 7270SOL    HW133438   4.673   2.262   2.540
 7270SOL    HW233439   0.020   2.203   2.594
 7271SOL     OW33440   3.440   0.724  25.143
 7271SOL    HW133441   3.348   0.741  25.123
 7271SOL    HW233442   3.446   0.629  25.148
 7272SOL     OW33443   4.316   3.323   0.914
 7272SOL    HW133444   4.348   3.398   0.964
 7272SOL    HW233445   4.221   3.335   0.912
 7273SOL     OW33446   1.524   1.983   5.473
 7273SOL    HW133447   1.522   1.976   5.378
 7273SOL    HW233448   1.512   1.893   5.504
 7274SOL     OW33449   2.774   1.601   4.598
 7274SOL    HW133450   2.867   1.622   4.599
 7274SOL    HW233451   2.769   1.512   4.634
 7275SOL     OW33452   1.297   4.073  25.764
 7275SOL    HW133453   1.316   4.047  25.674
 7275SOL    HW233454   1.260   3.995  25.805
 7276SOL     OW33455   2.876   2.300   1.580
 7276SOL    HW133456   2.927   2.288   1.660
 7276SOL    HW233457   2.939   2.331   1.515
 7277SOL     OW33458   3.151   0.796  25.848
 7277SOL    HW133459   3.129   0.779  25.940
 7277SOL    HW233460   3.193   0.716  25.818
 7278SOL     OW33461   0.906   1.651  19.828
 7278SOL    HW133462   0.857   1.664  19.909
 7278SOL    HW233463   0.840   1.625  19.764
 7279SOL     OW33464   3.130   4.691  26.850
 7279SOL    HW133465   3.045   4.689  26.894
 7279SOL    HW233466   3.115   4.646  26.767
 7280SOL     OW33467   4.566   1.368  27.462
 7280SOL    HW133468   4.604   1.347  27.547
 7280SOL    HW233469   4.640   1.399  27.410
 7281SOL     OW33470   3.965   3.335   2.953
 7281SOL    HW133471   3.879   3.367   2.924
 7281SOL    HW233472   3.952   3.312   3.045
 7282SOL     OW33473   3.001   1.340   4.723
 7282SOL    HW133474   3.068   1.273   4.714
 7282SOL    HW233475   3.026   1.389   4.801
 7283SOL     OW33476   2.870   1.049   4.701
 7283SOL    HW133477   2.880   0.962   4.663
 7283SOL    HW233478   2.928   1.105   4.648
 7284SOL     OW33479   1.242   3.510  21.235
 7284SOL    HW133480   1.163   3.511  21.289
 7284SOL    HW233481   1.291   3.587  21.264
 7285SOL     OW33482   0.682   3.595  11.285
 7285SOL    HW133483   0.686   3.604  11.190
 7285SOL    HW233484   0.773   3.603  11.314
 7286SOL     OW33485   1.688   4.043  19.096
 7286SOL    HW133486   1.774   4.073  19.066
 7286SOL    HW233487   1.626   4.084  19.036
 7287SOL     OW33488   1.149   4.482   7.880
 7287SOL    HW133489   1.119   4.572   7.865
 7287SOL    HW233490   1.215   4.467   7.813
 7288SOL     OW33491   1.698   2.563   7.090
 7288SOL    HW133492   1.730   2.519   7.011
 7288SOL    HW233493   1.676   2.492   7.150
 7289SOL     OW33494   2.241   3.567  21.855
 7289SOL    HW133495   2.315   3.588  21.798
 7289SOL    HW233496   2.173   3.535  21.795
 7290SOL     OW33497   2.174   2.130  21.810
 7290SOL    HW133498   2.089   2.085  21.806
 7290SOL    HW233499   2.238   2.059  21.819
 7291SOL     OW33500   0.402   2.663   0.888
 7291SOL    HW133501   0.434   2.701   0.970
 7291SOL    HW233502   0.308   2.651   0.903
 7292SOL     OW33503   0.772   4.283   1.741
 7292SOL    HW133504   0.804   4.373   1.746
 7292SOL    HW233505   0.708   4.277   1.812
 7293SOL     OW33506   3.426   2.717   5.983
 7293SOL    HW133507   3.374   2.702   6.062
 7293SOL    HW233508   3.515   2.693   6.008
 7294SOL     OW33509   4.633   1.989  24.735
 7294SOL    HW133510   4.712   1.987  24.789
 7294SOL    HW233511   4.606   2.081  24.735
 7295SOL     OW33512   3.395   1.781  23.364
 7295SOL    HW133513   3.480   1.774  23.321
 7295SOL    HW233514   3.391   1.872  23.393
 7296SOL     OW33515   1.654   0.419  21.543
 7296SOL    HW133516   1.736   0.401  21.496
 7296SOL    HW233517   1.665   0.508  21.576
 7297SOL     OW33518   1.997   0.124  19.481
 7297SOL    HW133519   1.921   0.182  19.490
 7297SOL    HW233520   1.994   0.096  19.389
 7298SOL     OW33521   4.095   1.371  19.574
 7298SOL    HW133522   4.010   1.331  19.590
 7298SOL    HW233523   4.094   1.395  19.481
 7299SOL     OW33524   4.518   4.095   4.313
 7299SOL    HW133525   4.557   4.014   4.346
 7299SOL    HW233526   4.453   4.119   4.379
 7300SOL     OW33527   2.852   4.485   1.806
 7300SOL    HW133528   2.891   4.572   1.809
 7300SOL    HW233529   2.789   4.490   1.734
 7301SOL     OW33530   2.242   0.503  26.966
 7301SOL    HW133531   2.298   0.502  26.889
 7301SOL    HW233532   2.191   0.422  26.960
 7302SOL     OW33533   4.019   2.891   5.799
 7302SOL    HW133534   4.054   2.816   5.751
 7302SOL    HW233535   4.079   2.903   5.872
 7303SOL     OW33536   3.865   1.361   6.429
 7303SOL    HW133537   3.956   1.342   6.452
 7303SOL    HW233538   3.814   1.295   6.476
 7304SOL     OW33539   2.633   1.088   6.438
 7304SOL    HW133540   2.599   1.156   6.380
 7304SOL    HW233541   2.683   1.136   6.504
 7305SOL     OW33542   0.390   4.208  20.778
 7305SOL    HW133543   0.352   4.126  20.747
 7305SOL    HW233544   0.476   4.212  20.736
 7306SOL     OW33545   1.863   2.607  27.702
 7306SOL    HW133546   1.953   2.576  27.707
 7306SOL    HW233547   1.840   2.599  27.609
 7307SOL     OW33548   0.139   0.226  23.097
 7307SOL    HW133549   0.118   0.184  23.180
 7307SOL    HW233550   0.088   0.307  23.098
 7308SOL     OW33551   2.763   1.812   2.698
 7308SOL    HW133552   2.682   1.836   2.653
 7308SOL    HW233553   2.737   1.743   2.759
 7309SOL     OW33554   2.666   2.698   8.950
 7309SOL    HW133555   2.738   2.684   9.011
 7309SOL    HW233556   2.653   2.613   8.908
 7310SOL     OW33557   0.616   1.538  21.276
 7310SOL    HW133558   0.690   1.484  21.305
 7310SOL    HW233559   0.648   1.583  21.198
 7311SOL     OW33560   0.875   3.596   4.129
 7311SOL    HW133561   0.871   3.671   4.069
 7311SOL    HW233562   0.844   3.522   4.077
 7312SOL     OW33563   1.674   4.234  10.826
 7312SOL    HW133564   1.724   4.157  10.800
 7312SOL    HW233565   1.594   4.199  10.866
 7313SOL     OW33566   0.797   3.414   7.876
 7313SOL    HW133567   0.849   3.354   7.823
 7313SOL    HW233568   0.828   3.401   7.966
 7314SOL     OW33569   3.562   2.090   0.076
 7314SOL    HW133570   3.510   2.112   0.153
 7314SOL    HW233571   3.646   2.062   0.111
 7315SOL     OW33572   3.614   4.042  22.221
 7315SOL    HW133573   3.586   4.112  22.162
 7315SOL    HW233574   3.540   4.030  22.281
 7316SOL     OW33575   3.947   4.456   1.813
 7316SOL    HW133576   3.930   4.549   1.829
 7316SOL    HW233577   4.040   4.453   1.792
 7317SOL     OW33578   3.582   3.040  19.679
 7317SOL    HW133579   3.575   3.069  19.588
 7317SOL    HW233580   3.606   2.948  19.673
 7318SOL     OW33581   4.728   0.324  25.926
 7318SOL    HW133582   0.004   0.292  25.856
 7318SOL    HW233583   0.007   0.357  25.993
 7319SOL     OW33584   4.156   1.541  24.740
 7319SOL    HW133585   4.202   1.560  24.822
 7319SOL    HW233586   4.168   1.447  24.726
 7320SOL     OW33587   3.120   2.080   0.906
 7320SOL    HW133588   3.127   2.030   0.987
 7320SOL    HW233589   3.113   2.014   0.837
 7321SOL     OW33590   1.064   0.746  10.828
 7321SOL    HW133591   1.068   0.832  10.870
 7321SOL    HW233592   0.972   0.721  10.834
 7322SOL     OW33593   1.646   4.492   6.313
 7322SOL    HW133594   1.583   4.539   6.258
 7322SOL    HW233595   1.729   4.536   6.298
 7323SOL     OW33596   3.482   1.214  24.117
 7323SOL    HW133597   3.500   1.187  24.027
 7323SOL    HW233598   3.415   1.281  24.109
 7324SOL     OW33599   3.926   2.873  23.828
 7324SOL    HW133600   3.976   2.824  23.893
 7324SOL    HW233601   3.991   2.901  23.764
 7325SOL     OW33602   4.403   0.782   1.379
 7325SOL    HW133603   4.486   0.739   1.358
 7325SOL    HW233604   4.349   0.713   1.419
 7326SOL     OW33605   2.449   3.940  11.130
 7326SOL    HW133606   2.485   4.024  11.101
 7326SOL    HW233607   2.445   3.947  11.225
 7327SOL     OW33608   3.255   2.580   7.202
 7327SOL    HW133609   3.331   2.607   7.150
 7327SOL    HW233610   3.273   2.488   7.224
 7328SOL     OW33611   4.358   2.458   5.002
 7328SOL    HW133612   4.335   2.415   4.920
 7328SOL    HW233613   4.452   2.441   5.012
 7329SOL     OW33614   2.563   0.062   4.244
 7329SOL    HW133615   2.615   0.121   4.298
 7329SOL    HW233616   2.491   0.116   4.211
 7330SOL     OW33617   3.097   0.285  10.023
 7330SOL    HW133618   3.095   0.220  10.093
 7330SOL    HW233619   3.184   0.275   9.984
 7331SOL     OW33620   3.342   0.004  10.532
 7331SOL    HW133621   3.287   4.774  10.610
 7331SOL    HW233622   3.324   4.708  10.478
 7332SOL     OW33623   2.612   4.295  10.811
 7332SOL    HW133624   2.563   4.277  10.891
 7332SOL    HW233625   2.658   4.377  10.829
 7333SOL     OW33626   2.050   3.954  27.190
 7333SOL    HW133627   2.062   4.022  27.124
 7333SOL    HW233628   1.973   3.982  27.240
 7334SOL     OW33629   2.097   2.981   3.749
 7334SOL    HW133630   2.061   2.923   3.682
 7334SOL    HW233631   2.036   3.055   3.751
 7335SOL     OW33632   2.429   0.854  26.045
 7335SOL    HW133633   2.406   0.761  26.042
 7335SOL    HW233634   2.428   0.881  25.953
 7336SOL     OW33635   4.209   4.298  11.167
 7336SOL    HW133636   4.184   4.207  11.180
 7336SOL    HW233637   4.223   4.332  11.255
 7337SOL     OW33638   0.360   3.719   3.403
 7337SOL    HW133639   0.325   3.802   3.372
 7337SOL    HW233640   0.284   3.671   3.435
 7338SOL     OW33641   4.267   2.209  28.503
 7338SOL    HW133642   4.280   2.270   0.053
 7338SOL    HW233643   4.350   2.210  28.455
 7339SOL     OW33644   2.204   3.914   4.386
 7339SOL    HW133645   2.188   3.883   4.297
 7339SOL    HW233646   2.297   3.938   4.387
 7340SOL     OW33647   2.732   1.866   1.172
 7340SOL    HW133648   2.800   1.924   1.137
 7340SOL    HW233649   2.677   1.923   1.225
 7341SOL     OW33650   4.548   2.739  18.616
 7341SOL    HW133651   4.611   2.754  18.545
 7341SOL    HW233652   4.473   2.698  18.573
 7342SOL     OW33653   4.322   3.438  23.478
 7342SOL    HW133654   4.326   3.478  23.565
 7342SOL    HW233655   4.282   3.505  23.423
 7343SOL     OW33656   0.026   0.213  21.974
 7343SOL    HW133657   0.051   0.209  21.882
 7343SOL    HW233658   0.055   0.129  22.010
 7344SOL     OW33659   4.402   3.458   2.091
 7344SOL    HW133660   4.444   3.443   2.175
 7344SOL    HW233661   4.400   3.553   2.082
 7345SOL     OW33662   4.291   1.894   2.424
 7345SOL    HW133663   4.348   1.888   2.501
 7345SOL    HW233664   4.303   1.810   2.379
 7346SOL     OW33665   4.412   1.630  22.967
 7346SOL    HW133666   4.507   1.640  22.964
 7346SOL    HW233667   4.379   1.719  22.981
 7347SOL     OW33668   0.553   0.138  19.109
 7347SOL    HW133669   0.551   0.227  19.073
 7347SOL    HW233670   0.478   0.135  19.169
 7348SOL     OW33671   3.395   1.800  20.967
 7348SOL    HW133672   3.488   1.802  20.991
 7348SOL    HW233673   3.393   1.831  20.877
 7349SOL     OW33674   1.005   0.946  11.009
 7349SOL    HW133675   0.934   0.954  11.072
 7349SOL    HW233676   1.059   1.023  11.024
 7350SOL     OW33677   2.685   2.473   7.224
 7350SOL    HW133678   2.764   2.452   7.175
 7350SOL    HW233679   2.617   2.418   7.186
 7351SOL     OW33680   3.824   0.105   5.412
 7351SOL    HW133681   3.858   0.190   5.439
 7351SOL    HW233682   3.796   0.064   5.494
 7352SOL     OW33683   4.020   1.881  27.907
 7352SOL    HW133684   4.101   1.899  27.954
 7352SOL    HW233685   3.968   1.961  27.916
 7353SOL     OW33686   1.391   4.280   6.062
 7353SOL    HW133687   1.466   4.268   6.004
 7353SOL    HW233688   1.315   4.271   6.005
 7354SOL     OW33689   2.728   1.823   9.545
 7354SOL    HW133690   2.726   1.801   9.638
 7354SOL    HW233691   2.796   1.767   9.508
 7355SOL     OW33692   0.969   1.846   2.362
 7355SOL    HW133693   1.042   1.907   2.353
 7355SOL    HW233694   0.970   1.796   2.281
 7356SOL     OW33695   2.631   3.812   7.191
 7356SOL    HW133696   2.648   3.788   7.282
 7356SOL    HW233697   2.688   3.887   7.175
 7357SOL     OW33698   1.566   2.238  20.609
 7357SOL    HW133699   1.500   2.307  20.605
 7357SOL    HW233700   1.641   2.279  20.651
 7358SOL     OW33701   4.513   1.618  27.994
 7358SOL    HW133702   4.503   1.574  27.909
 7358SOL    HW233703   4.461   1.565  28.054
 7359SOL     OW33704   4.479   2.736  23.953
 7359SOL    HW133705   4.531   2.807  23.914
 7359SOL    HW233706   4.504   2.737  24.046
 7360SOL     OW33707   0.346   0.410  17.572
 7360SOL    HW133708   0.433   0.435  17.541
 7360SOL    HW233709   0.346   0.314  17.566
 7361SOL     OW33710   3.649   1.456   7.969
 7361SOL    HW133711   3.581   1.451   7.901
 7361SOL    HW233712   3.722   1.405   7.934
 7362SOL     OW33713   1.297   4.397   0.747
 7362SOL    HW133714   1.221   4.455   0.758
 7362SOL    HW233715   1.307   4.387   0.652
 7363SOL     OW33716   1.226   4.583  25.500
 7363SOL    HW133717   1.278   4.641  25.555
 7363SOL    HW233718   1.136   4.612  25.512
 7364SOL     OW33719   0.646   0.614  20.801
 7364SOL    HW133720   0.693   0.606  20.718
 7364SOL    HW233721   0.610   0.527  20.816
 7365SOL     OW33722   4.459   3.008   1.979
 7365SOL    HW133723   4.400   2.948   2.024
 7365SOL    HW233724   4.504   2.953   1.915
 7366SOL     OW33725   3.276   4.123  27.577
 7366SOL    HW133726   3.239   4.038  27.553
 7366SOL    HW233727   3.368   4.105  27.594
 7367SOL     OW33728   4.315   3.180  25.211
 7367SOL    HW133729   4.349   3.212  25.294
 7367SOL    HW233730   4.236   3.131  25.235
 7368SOL     OW33731   2.832   2.187  26.117
 7368SOL    HW133732   2.870   2.275  26.119
 7368SOL    HW233733   2.846   2.153  26.205
 7369SOL     OW33734   4.496   0.443   5.614
 7369SOL    HW133735   4.498   0.522   5.560
 7369SOL    HW233736   4.573   0.393   5.586
 7370SOL     OW33737   3.489   3.428   3.485
 7370SOL    HW133738   3.524   3.496   3.428
 7370SOL    HW233739   3.403   3.461   3.512
 7371SOL     OW33740   1.805   3.333  24.922
 7371SOL    HW133741   1.739   3.392  24.885
 7371SOL    HW233742   1.769   3.308  25.007
 7372SOL     OW33743   0.792   4.005  20.394
 7372SOL    HW133744   0.854   3.932  20.389
 7372SOL    HW233745   0.803   4.051  20.311
 7373SOL     OW33746   2.918   1.326   0.793
 7373SOL    HW133747   2.917   1.279   0.876
 7373SOL    HW233748   3.008   1.317   0.762
 7374SOL     OW33749   4.117   0.957  18.227
 7374SOL    HW133750   4.135   0.883  18.284
 7374SOL    HW233751   4.035   0.934  18.183
 7375SOL     OW33752   0.521   1.734  23.867
 7375SOL    HW133753   0.591   1.736  23.932
 7375SOL    HW233754   0.520   1.643  23.836
 7376SOL     OW33755   1.661   4.617   1.982
 7376SOL    HW133756   1.616   4.670   1.917
 7376SOL    HW233757   1.720   4.562   1.931
 7377SOL     OW33758   0.821   2.021   2.544
 7377SOL    HW133759   0.907   2.055   2.567
 7377SOL    HW233760   0.839   1.950   2.483
 7378SOL     OW33761   3.041   3.883  17.878
 7378SOL    HW133762   3.137   3.881  17.883
 7378SOL    HW233763   3.022   3.934  17.799
 7379SOL     OW33764   2.255   3.790  22.604
 7379SOL    HW133765   2.217   3.791  22.692
 7379SOL    HW233766   2.342   3.829  22.615
 7380SOL     OW33767   4.460   2.238  10.832
 7380SOL    HW133768   4.466   2.154  10.787
 7380SOL    HW233769   4.547   2.251  10.869
 7381SOL     OW33770   2.486   2.739  22.455
 7381SOL    HW133771   2.520   2.820  22.418
 7381SOL    HW233772   2.422   2.708  22.391
 7382SOL     OW33773   1.063   2.536   5.849
 7382SOL    HW133774   1.152   2.507   5.829
 7382SOL    HW233775   1.075   2.608   5.911
 7383SOL     OW33776   4.594   4.565   0.877
 7383SOL    HW133777   4.631   4.555   0.965
 7383SOL    HW233778   4.663   4.533   0.818
 7384SOL     OW33779   1.918   4.559  22.800
 7384SOL    HW133780   1.985   4.599  22.855
 7384SOL    HW233781   1.838   4.607  22.821
 7385SOL     OW33782   2.090   1.221   0.561
 7385SOL    HW133783   2.044   1.286   0.614
 7385SOL    HW233784   2.181   1.251   0.558
 7386SOL     OW33785   0.473   3.007   7.534
 7386SOL    HW133786   0.470   3.043   7.445
 7386SOL    HW233787   0.458   3.083   7.591
 7387SOL     OW33788   3.024   4.259  26.168
 7387SOL    HW133789   2.993   4.198  26.234
 7387SOL    HW233790   3.007   4.215  26.085
 7388SOL     OW33791   1.552   4.712  22.475
 7388SOL    HW133792   1.580   4.639  22.420
 7388SOL    HW233793   1.564   0.009  22.421
 7389SOL     OW33794   0.097   0.457  24.894
 7389SOL    HW133795   0.025   0.488  24.840
 7389SOL    HW233796   0.176   0.484  24.847
 7390SOL     OW33797   2.705   1.751  22.855
 7390SOL    HW133798   2.673   1.754  22.765
 7390SOL    HW233799   2.768   1.679  22.855
 7391SOL     OW33800   4.184   4.306  20.557
 7391SOL    HW133801   4.179   4.238  20.624
 7391SOL    HW233802   4.277   4.330  20.554
 7392SOL     OW33803   3.182   3.265   0.100
 7392SOL    HW133804   3.103   3.302   0.062
 7392SOL    HW233805   3.156   3.239   0.188
 7393SOL     OW33806   1.657   3.531   1.522
 7393SOL    HW133807   1.668   3.555   1.614
 7393SOL    HW233808   1.616   3.608   1.482
 7394SOL     OW33809   2.573   2.419   6.790
 7394SOL    HW133810   2.542   2.344   6.739
 7394SOL    HW233811   2.599   2.381   6.874
 7395SOL     OW33812   4.557   0.116   9.131
 7395SOL    HW133813   4.590   0.151   9.048
 7395SOL    HW233814   4.628   0.131   9.194
 7396SOL     OW33815   1.050   0.117   1.442
 7396SOL    HW133816   1.137   0.154   1.456
 7396SOL    HW233817   1.016   0.100   1.530
 7397SOL     OW33818   3.511   1.222  28.226
 7397SOL    HW133819   3.469   1.223  28.140
 7397SOL    HW233820   3.491   1.308  28.263
 7398SOL     OW33821   3.443   2.267   8.313
 7398SOL    HW133822   3.366   2.270   8.256
 7398SOL    HW233823   3.434   2.343   8.370
 7399SOL     OW33824   1.499   3.787  25.164
 7399SOL    HW133825   1.568   3.788  25.230
 7399SOL    HW233826   1.439   3.856  25.192
 7400SOL     OW33827   2.261   2.603   7.672
 7400SOL    HW133828   2.246   2.650   7.590
 7400SOL    HW233829   2.287   2.671   7.734
 7401SOL     OW33830   1.082   3.583   7.693
 7401SOL    HW133831   1.161   3.601   7.642
 7401SOL    HW233832   1.052   3.497   7.663
 7402SOL     OW33833   2.655   2.778  24.241
 7402SOL    HW133834   2.693   2.724  24.310
 7402SOL    HW233835   2.583   2.825  24.284
 7403SOL     OW33836   2.332   3.290   8.742
 7403SOL    HW133837   2.364   3.208   8.704
 7403SOL    HW233838   2.298   3.339   8.667
 7404SOL     OW33839   0.521   2.261   1.958
 7404SOL    HW133840   0.434   2.293   1.933
 7404SOL    HW233841   0.510   2.230   2.048
 7405SOL     OW33842   1.834   3.684  18.669
 7405SOL    HW133843   1.901   3.689  18.737
 7405SOL    HW233844   1.790   3.769  18.672
 7406SOL     OW33845   1.895   3.301  27.682
 7406SOL    HW133846   1.896   3.206  27.690
 7406SOL    HW233847   1.883   3.333  27.771
 7407SOL     OW33848   0.840   2.438   4.424
 7407SOL    HW133849   0.792   2.359   4.447
 7407SOL    HW233850   0.887   2.415   4.344
 7408SOL     OW33851   0.818   0.889  24.812
 7408SOL    HW133852   0.892   0.829  24.805
 7408SOL    HW233853   0.791   0.884  24.904
 7409SOL     OW33854   1.238   4.648  26.616
 7409SOL    HW133855   1.161   4.632  26.670
 7409SOL    HW233856   1.207   4.637  26.526
 7410SOL     OW33857   1.875   2.590  21.368
 7410SOL    HW133858   1.930   2.515  21.392
 7410SOL    HW233859   1.905   2.614  21.280
 7411SOL     OW33860   2.972   1.315   5.487
 7411SOL    HW133861   3.044   1.350   5.539
 7411SOL    HW233862   2.960   1.226   5.519
 7412SOL     OW33863   1.384   1.621  18.788
 7412SOL    HW133864   1.471   1.662  18.792
 7412SOL    HW233865   1.373   1.598  18.696
 7413SOL     OW33866   1.895   3.501   9.146
 7413SOL    HW133867   1.944   3.541   9.074
 7413SOL    HW233868   1.863   3.575   9.198
 7414SOL     OW33869   2.983   2.112  27.964
 7414SOL    HW133870   2.895   2.076  27.966
 7414SOL    HW233871   3.039   2.037  27.944
 7415SOL     OW33872   0.253   4.536  19.363
 7415SOL    HW133873   0.259   4.476  19.437
 7415SOL    HW233874   0.295   4.616  19.393
 7416SOL     OW33875   0.733   0.045  22.631
 7416SOL    HW133876   0.828   0.034  22.625
 7416SOL    HW233877   0.711   0.103  22.558
 7417SOL     OW33878   1.636   4.049  27.138
 7417SOL    HW133879   1.681   4.130  27.162
 7417SOL    HW233880   1.544   4.066  27.159
 7418SOL     OW33881   4.617   2.800   1.843
 7418SOL    HW133882   4.671   2.802   1.764
 7418SOL    HW233883   4.562   2.722   1.833
 7419SOL     OW33884   3.673   4.167  23.210
 7419SOL    HW133885   3.602   4.174  23.274
 7419SOL    HW233886   3.631   4.185  23.126
 7420SOL     OW33887   0.613   3.694  20.506
 7420SOL    HW133888   0.566   3.623  20.549
 7420SOL    HW233889   0.694   3.654  20.474
 7421SOL     OW33890   3.021   4.102   0.108
 7421SOL    HW133891   2.956   4.131   0.172
 7421SOL    HW233892   3.077   4.179   0.095
 7422SOL     OW33893   0.491   3.015   5.150
 7422SOL    HW133894   0.584   3.005   5.130
 7422SOL    HW233895   0.450   3.029   5.065
 7423SOL     OW33896   3.807   0.511   0.271
 7423SOL    HW133897   3.900   0.511   0.295
 7423SOL    HW233898   3.761   0.523   0.354
 7424SOL     OW33899   1.311   0.678   9.662
 7424SOL    HW133900   1.274   0.622   9.730
 7424SOL    HW233901   1.352   0.750   9.710
 7425SOL     OW33902   1.644   3.763  19.508
 7425SOL    HW133903   1.619   3.788  19.419
 7425SOL    HW233904   1.740   3.758  19.505
 7426SOL     OW33905   2.608   4.682  19.504
 7426SOL    HW133906   2.672   4.661  19.436
 7426SOL    HW233907   2.523   4.663  19.464
 7427SOL     OW33908   0.684   1.440   4.155
 7427SOL    HW133909   0.605   1.490   4.137
 7427SOL    HW233910   0.704   1.460   4.247
 7428SOL     OW33911   2.009   2.824  25.860
 7428SOL    HW133912   1.915   2.825  25.880
 7428SOL    HW233913   2.047   2.769  25.928
 7429SOL     OW33914   2.391   2.385   5.709
 7429SOL    HW133915   2.415   2.478   5.711
 7429SOL    HW233916   2.296   2.385   5.700
 7430SOL     OW33917   0.864   3.463   3.459
 7430SOL    HW133918   0.790   3.524   3.459
 7430SOL    HW233919   0.908   3.478   3.543
 7431SOL     OW33920   1.066   0.854   1.693
 7431SOL    HW133921   1.036   0.909   1.766
 7431SOL    HW233922   1.161   0.863   1.695
 7432SOL     OW33923   4.591   1.423   8.663
 7432SOL    HW133924   4.538   1.499   8.689
 7432SOL    HW233925   4.602   1.433   8.568
 7433SOL     OW33926   0.816   4.040   4.011
 7433SOL    HW133927   0.744   4.084   3.965
 7433SOL    HW233928   0.895   4.080   3.974
 7434SOL     OW33929   4.164   2.349   7.762
 7434SOL    HW133930   4.230   2.350   7.693
 7434SOL    HW233931   4.212   2.374   7.841
 7435SOL     OW33932   4.672   4.623   9.152
 7435SOL    HW133933   4.608   4.693   9.158
 7435SOL    HW233934   4.709   4.632   9.064
 7436SOL     OW33935   1.550   2.629   6.031
 7436SOL    HW133936   1.516   2.540   6.037
 7436SOL    HW233937   1.645   2.618   6.032
 7437SOL     OW33938   2.496   3.688  24.010
 7437SOL    HW133939   2.547   3.608  24.023
 7437SOL    HW233940   2.547   3.756  24.053
 7438SOL     OW33941   0.631   0.335   2.640
 7438SOL    HW133942   0.692   0.298   2.576
 7438SOL    HW233943   0.684   0.397   2.690
 7439SOL     OW33944   0.944   3.037   7.651
 7439SOL    HW133945   0.955   3.066   7.560
 7439SOL    HW233946   0.991   2.954   7.656
 7440SOL     OW33947   2.331   4.187   3.943
 7440SOL    HW133948   2.424   4.202   3.929
 7440SOL    HW233949   2.289   4.221   3.864
 7441SOL     OW33950   0.762   4.183  23.163
 7441SOL    HW133951   0.731   4.119  23.227
 7441SOL    HW233952   0.693   4.250  23.161
 7442SOL     OW33953   1.224   2.190  23.315
 7442SOL    HW133954   1.187   2.226  23.235
 7442SOL    HW233955   1.293   2.251  23.339
 7443SOL     OW33956   1.493   3.919   3.343
 7443SOL    HW133957   1.584   3.917   3.315
 7443SOL    HW233958   1.469   4.012   3.341
 7444SOL     OW33959   2.515   3.087   8.678
 7444SOL    HW133960   2.508   3.030   8.755
 7444SOL    HW233961   2.540   3.028   8.607
 7445SOL     OW33962   0.924   4.713   8.335
 7445SOL    HW133963   0.930   0.014   8.285
 7445SOL    HW233964   1.012   4.699   8.370
 7446SOL     OW33965   1.273   1.466   4.804
 7446SOL    HW133966   1.195   1.519   4.820
 7446SOL    HW233967   1.280   1.460   4.709
 7447SOL     OW33968   0.025   3.329  23.259
 7447SOL    HW133969   0.047   3.421  23.246
 7447SOL    HW233970   0.053   3.310  23.349
 7448SOL     OW33971   3.017   4.678   6.409
 7448SOL    HW133972   2.922   4.680   6.422
 7448SOL    HW233973   3.053   4.699   6.495
 7449SOL     OW33974   4.340   3.653   8.209
 7449SOL    HW133975   4.267   3.633   8.268
 7449SOL    HW233976   4.356   3.746   8.222
 7450SOL     OW33977   0.755   1.394  27.779
 7450SOL    HW133978   0.710   1.376  27.696
 7450SOL    HW233979   0.845   1.413  27.753
 7451SOL     OW33980   2.978   0.677  25.236
 7451SOL    HW133981   2.937   0.761  25.258
 7451SOL    HW233982   2.905   0.615  25.233
 7452SOL     OW33983   3.047   4.184  22.681
 7452SOL    HW133984   3.140   4.200  22.663
 7452SOL    HW233985   3.013   4.269  22.710
 7453SOL     OW33986   1.849   4.459   7.127
 7453SOL    HW133987   1.862   4.542   7.174
 7453SOL    HW233988   1.847   4.393   7.196
 7454SOL     OW33989   1.040   1.770  22.859
 7454SOL    HW133990   0.950   1.769  22.827
 7454SOL    HW233991   1.063   1.678  22.870
 7455SOL     OW33992   2.783   0.559   3.042
 7455SOL    HW133993   2.769   0.553   3.137
 7455SOL    HW233994   2.864   0.609   3.033
 7456SOL     OW33995   3.270   2.167   6.446
 7456SOL    HW133996   3.203   2.223   6.405
 7456SOL    HW233997   3.250   2.170   6.539
 7457SOL     OW33998   1.243   0.041  22.634
 7457SOL    HW133999   1.266   0.047  22.727
 7457SOL    HW234000   1.195   0.122  22.616
 7458SOL     OW34001   0.066   1.726  21.096
 7458SOL    HW134002   4.762   1.769  21.084
 7458SOL    HW234003   0.045   1.641  21.135
 7459SOL     OW34004   1.496   2.630  25.361
 7459SOL    HW134005   1.461   2.583  25.437
 7459SOL    HW234006   1.467   2.720  25.373
 7460SOL     OW34007   0.949   1.460   3.036
 7460SOL    HW134008   0.905   1.523   2.979
 7460SOL    HW234009   0.881   1.396   3.058
 7461SOL     OW34010   1.820   0.785   1.393
 7461SOL    HW134011   1.882   0.754   1.327
 7461SOL    HW234012   1.746   0.725   1.386
 7462SOL     OW34013   1.497   1.678  21.260
 7462SOL    HW134014   1.498   1.635  21.175
 7462SOL    HW234015   1.521   1.769  21.241
 7463SOL     OW34016   0.267   1.302  21.337
 7463SOL    HW134017   0.261   1.341  21.424
 7463SOL    HW234018   0.284   1.376  21.279
 7464SOL     OW34019   1.836   4.378   5.953
 7464SOL    HW134020   1.799   4.466   5.949
 7464SOL    HW234021   1.866   4.361   5.864
 7465SOL     OW34022   4.151   0.020   2.903
 7465SOL    HW134023   4.205   0.057   2.973
 7465SOL    HW234024   4.062   0.048   2.925
 7466SOL     OW34025   4.779   4.713   9.958
 7466SOL    HW134026   4.709   4.659   9.921
 7466SOL    HW234027   0.017   4.673  10.043
 7467SOL     OW34028   1.819   0.058  24.069
 7467SOL    HW134029   1.880   4.768  24.049
 7467SOL    HW234030   1.732   0.019  24.058
 7468SOL     OW34031   1.198   2.556  23.447
 7468SOL    HW134032   1.111   2.516  23.452
 7468SOL    HW234033   1.216   2.586  23.536
 7469SOL     OW34034   1.436   2.027  24.910
 7469SOL    HW134035   1.517   1.979  24.926
 7469SOL    HW234036   1.428   2.086  24.985
 7470SOL     OW34037   2.423   1.214  21.033
 7470SOL    HW134038   2.475   1.200  21.112
 7470SOL    HW234039   2.486   1.210  20.961
 7471SOL     OW34040   4.069   3.566   4.886
 7471SOL    HW134041   4.150   3.552   4.838
 7471SOL    HW234042   4.050   3.481   4.927
 7472SOL     OW34043   3.549   0.315   1.087
 7472SOL    HW134044   3.529   0.223   1.067
 7472SOL    HW234045   3.637   0.328   1.053
 7473SOL     OW34046   2.833   1.889   9.188
 7473SOL    HW134047   2.864   1.814   9.239
 7473SOL    HW234048   2.904   1.953   9.193
 7474SOL     OW34049   1.256   4.342  25.881
 7474SOL    HW134050   1.305   4.371  25.804
 7474SOL    HW234051   1.269   4.247  25.882
 7475SOL     OW34052   1.063   4.757   7.809
 7475SOL    HW134053   0.973   0.008   7.803
 7475SOL    HW234054   1.095   4.757   7.719
 7476SOL     OW34055   1.160   1.493  24.698
 7476SOL    HW134056   1.197   1.487  24.610
 7476SOL    HW234057   1.097   1.565  24.693
 7477SOL     OW34058   2.317   2.037   6.549
 7477SOL    HW134059   2.267   2.097   6.605
 7477SOL    HW234060   2.296   1.950   6.582
 7478SOL     OW34061   3.094   3.543  16.241
 7478SOL    HW134062   3.019   3.602  16.240
 7478SOL    HW234063   3.057   3.458  16.265
 7479SOL     OW34064   3.509   0.450   5.638
 7479SOL    HW134065   3.596   0.489   5.634
 7479SOL    HW234066   3.461   0.491   5.566
 7480SOL     OW34067   0.082   1.310  25.477
 7480SOL    HW134068   4.775   1.297  25.440
 7480SOL    HW234069   0.110   1.394  25.442
 7481SOL     OW34070   4.173   0.793   1.245
 7481SOL    HW134071   4.262   0.788   1.280
 7481SOL    HW234072   4.185   0.811   1.152
 7482SOL     OW34073   4.359   0.791  24.228
 7482SOL    HW134074   4.439   0.842  24.218
 7482SOL    HW234075   4.290   0.856  24.241
 7483SOL     OW34076   3.742   3.647   4.065
 7483SOL    HW134077   3.665   3.591   4.060
 7483SOL    HW234078   3.785   3.621   4.146
 7484SOL     OW34079   4.515   4.110  24.943
 7484SOL    HW134080   4.475   4.174  25.002
 7484SOL    HW234081   4.452   4.102  24.871
 7485SOL     OW34082   0.752   1.564   4.382
 7485SOL    HW134083   0.715   1.652   4.386
 7485SOL    HW234084   0.843   1.575   4.409
 7486SOL     OW34085   1.521   1.256   4.573
 7486SOL    HW134086   1.432   1.221   4.570
 7486SOL    HW234087   1.556   1.240   4.486
 7487SOL     OW34088   3.409   0.383   8.979
 7487SOL    HW134089   3.416   0.298   8.936
 7487SOL    HW234090   3.317   0.390   9.003
 7488SOL     OW34091   4.529   4.080  20.523
 7488SOL    HW134092   4.590   4.011  20.495
 7488SOL    HW234093   4.460   4.079  20.457
 7489SOL     OW34094   3.195   4.096   6.076
 7489SOL    HW134095   3.211   4.162   6.009
 7489SOL    HW234096   3.127   4.134   6.131
 7490SOL     OW34097   2.790   2.012  18.953
 7490SOL    HW134098   2.759   1.963  19.029
 7490SOL    HW234099   2.739   2.093  18.955
 7491SOL     OW34100   4.219   0.336  20.857
 7491SOL    HW134101   4.181   0.352  20.771
 7491SOL    HW234102   4.221   0.241  20.866
 7492SOL     OW34103   4.167   3.124   3.834
 7492SOL    HW134104   4.093   3.075   3.869
 7492SOL    HW234105   4.235   3.058   3.820
 7493SOL     OW34106   3.546   3.194   0.580
 7493SOL    HW134107   3.609   3.123   0.572
 7493SOL    HW234108   3.576   3.260   0.517
 7494SOL     OW34109   1.226   1.387  19.762
 7494SOL    HW134110   1.220   1.422  19.673
 7494SOL    HW234111   1.312   1.346  19.766
 7495SOL     OW34112   1.807   0.135  27.513
 7495SOL    HW134113   1.856   0.064  27.472
 7495SOL    HW234114   1.758   0.175  27.441
 7496SOL     OW34115   0.459   4.252  18.811
 7496SOL    HW134116   0.482   4.310  18.739
 7496SOL    HW234117   0.391   4.299  18.859
 7497SOL     OW34118   1.824   1.593  19.983
 7497SOL    HW134119   1.887   1.661  20.007
 7497SOL    HW234120   1.815   1.539  20.062
 7498SOL     OW34121   1.503   3.169   6.637
 7498SOL    HW134122   1.515   3.262   6.618
 7498SOL    HW234123   1.531   3.159   6.728
 7499SOL     OW34124   2.907   4.138  25.253
 7499SOL    HW134125   2.928   4.231  25.243
 7499SOL    HW234126   2.977   4.104  25.309
 7500SOL     OW34127   0.652   0.775   5.750
 7500SOL    HW134128   0.610   0.810   5.672
 7500SOL    HW234129   0.740   0.812   5.748
 7501SOL     OW34130   0.044   0.178  23.822
 7501SOL    HW134131   4.753   0.190  23.884
 7501SOL    HW234132   0.056   0.083  23.817
 7502SOL     OW34133   4.214   2.577  17.280
 7502SOL    HW134134   4.283   2.554  17.342
 7502SOL    HW234135   4.201   2.498  17.228
 7503SOL     OW34136   2.941   0.979  20.442
 7503SOL    HW134137   2.973   0.996  20.353
 7503SOL    HW234138   3.003   0.915  20.478
 7504SOL     OW34139   4.510   3.756  28.308
 7504SOL    HW134140   4.528   3.713  28.392
 7504SOL    HW234141   4.461   3.835  28.331
 7505SOL     OW34142   0.927   1.302  22.065
 7505SOL    HW134143   0.855   1.266  22.013
 7505SOL    HW234144   0.896   1.296  22.155
 7506SOL     OW34145   3.268   3.297   2.945
 7506SOL    HW134146   3.215   3.298   2.865
 7506SOL    HW234147   3.255   3.209   2.981
 7507SOL     OW34148   1.770   2.396  10.714
 7507SOL    HW134149   1.855   2.359  10.691
 7507SOL    HW234150   1.790   2.485  10.743
 7508SOL     OW34151   0.238   4.564  24.674
 7508SOL    HW134152   0.278   4.651  24.671
 7508SOL    HW234153   0.241   4.539  24.766
 7509SOL     OW34154   2.997   2.275   4.433
 7509SOL    HW134155   3.045   2.199   4.400
 7509SOL    HW234156   2.913   2.240   4.463
 7510SOL     OW34157   3.482   0.182   1.848
 7510SOL    HW134158   3.541   0.115   1.883
 7510SOL    HW234159   3.493   0.257   1.907
 7511SOL     OW34160   1.503   4.484   2.398
 7511SOL    HW134161   1.479   4.391   2.391
 7511SOL    HW234162   1.461   4.525   2.323
 7512SOL     OW34163   3.127   4.372  24.458
 7512SOL    HW134164   3.197   4.364  24.523
 7512SOL    HW234165   3.087   4.457  24.476
 7513SOL     OW34166   4.308   2.098   2.182
 7513SOL    HW134167   4.261   2.030   2.230
 7513SOL    HW234168   4.390   2.109   2.230
 7514SOL     OW34169   1.760   4.422  28.428
 7514SOL    HW134170   1.818   4.366  28.479
 7514SOL    HW234171   1.696   4.454  28.492
 7515SOL     OW34172   0.298   1.829  21.408
 7515SOL    HW134173   0.382   1.797  21.442
 7515SOL    HW234174   0.308   1.825  21.313
 7516SOL     OW34175   2.262   1.026  22.967
 7516SOL    HW134176   2.240   1.018  22.874
 7516SOL    HW234177   2.224   0.948  23.008
 7517SOL     OW34178   2.990   1.712  22.108
 7517SOL    HW134179   2.908   1.670  22.082
 7517SOL    HW234180   3.057   1.645  22.094
 7518SOL     OW34181   2.455   4.200   8.114
 7518SOL    HW134182   2.412   4.269   8.063
 7518SOL    HW234183   2.479   4.134   8.049
 7519SOL     OW34184   1.990   1.835  21.312
 7519SOL    HW134185   2.072   1.875  21.283
 7519SOL    HW234186   1.997   1.744  21.284
 7520SOL     OW34187   1.409   0.871  24.614
 7520SOL    HW134188   1.373   0.958  24.631
 7520SOL    HW234189   1.483   0.887  24.555
 7521SOL     OW34190   1.550   0.078  24.516
 7521SOL    HW134191   1.626   0.099  24.461
 7521SOL    HW234192   1.511   0.163  24.537
 7522SOL     OW34193   3.829   0.463   8.216
 7522SOL    HW134194   3.784   0.381   8.237
 7522SOL    HW234195   3.834   0.510   8.299
 7523SOL     OW34196   1.059   4.392  26.063
 7523SOL    HW134197   1.075   4.351  26.148
 7523SOL    HW234198   1.143   4.387  26.018
 7524SOL     OW34199   3.293   3.186  20.367
 7524SOL    HW134200   3.226   3.167  20.433
 7524SOL    HW234201   3.282   3.279  20.349
 7525SOL     OW34202   1.255   3.878   5.924
 7525SOL    HW134203   1.293   3.797   5.958
 7525SOL    HW234204   1.329   3.938   5.915
 7526SOL     OW34205   3.282   1.735   8.555
 7526SOL    HW134206   3.270   1.820   8.512
 7526SOL    HW234207   3.300   1.675   8.483
 7527SOL     OW34208   2.709   1.004  26.509
 7527SOL    HW134209   2.640   0.993  26.574
 7527SOL    HW234210   2.673   0.966  26.429
 7528SOL     OW34211   3.381   3.818   3.915
 7528SOL    HW134212   3.474   3.842   3.911
 7528SOL    HW234213   3.367   3.790   4.005
 7529SOL     OW34214   2.358   3.282  20.018
 7529SOL    HW134215   2.423   3.212  20.008
 7529SOL    HW234216   2.408   3.356  20.052
 7530SOL     OW34217   1.255   3.136   5.177
 7530SOL    HW134218   1.306   3.068   5.222
 7530SOL    HW234219   1.320   3.200   5.149
 7531SOL     OW34220   2.840   3.261   5.656
 7531SOL    HW134221   2.849   3.337   5.598
 7531SOL    HW234222   2.794   3.196   5.604
 7532SOL     OW34223   3.407   3.029  19.903
 7532SOL    HW134224   3.456   3.021  19.821
 7532SOL    HW234225   3.364   3.114  19.897
 7533SOL     OW34226   1.193   0.692  26.230
 7533SOL    HW134227   1.121   0.738  26.273
 7533SOL    HW234228   1.179   0.709  26.137
 7534SOL     OW34229   2.870   3.862   8.460
 7534SOL    HW134230   2.913   3.778   8.478
 7534SOL    HW234231   2.778   3.847   8.480
 7535SOL     OW34232   2.638   1.906   5.283
 7535SOL    HW134233   2.581   1.928   5.357
 7535SOL    HW234234   2.614   1.816   5.261
 7536SOL     OW34235   0.572   2.049  23.268
 7536SOL    HW134236   0.515   2.082  23.199
 7536SOL    HW234237   0.522   2.062  23.349
 7537SOL     OW34238   2.488   1.188  20.522
 7537SOL    HW134239   2.543   1.114  20.496
 7537SOL    HW234240   2.444   1.215  20.441
 7538SOL     OW34241   2.455   2.927   6.994
 7538SOL    HW134242   2.527   2.871   6.964
 7538SOL    HW234243   2.495   2.984   7.060
 7539SOL     OW34244   1.779   4.108  10.143
 7539SOL    HW134245   1.708   4.172  10.145
 7539SOL    HW234246   1.763   4.056  10.064
 7540SOL     OW34247   0.443   1.228   4.426
 7540SOL    HW134248   0.352   1.208   4.406
 7540SOL    HW234249   0.442   1.256   4.517
 7541SOL     OW34250   3.888   4.475   4.057
 7541SOL    HW134251   3.927   4.482   3.970
 7541SOL    HW234252   3.899   4.383   4.082
 7542SOL     OW34253   1.873   1.703   4.781
 7542SOL    HW134254   1.932   1.778   4.772
 7542SOL    HW234255   1.888   1.670   4.870
 7543SOL     OW34256   3.271   3.528  28.047
 7543SOL    HW134257   3.338   3.461  28.037
 7543SOL    HW234258   3.247   3.552  27.957
 7544SOL     OW34259   1.623   4.220  23.591
 7544SOL    HW134260   1.664   4.236  23.676
 7544SOL    HW234261   1.567   4.296  23.577
 7545SOL     OW34262   0.861   1.592   4.035
 7545SOL    HW134263   0.800   1.522   4.057
 7545SOL    HW234264   0.929   1.587   4.102
 7546SOL     OW34265   3.470   4.107   5.720
 7546SOL    HW134266   3.379   4.079   5.732
 7546SOL    HW234267   3.522   4.045   5.771
 7547SOL     OW34268   1.242   3.663  10.865
 7547SOL    HW134269   1.304   3.693  10.931
 7547SOL    HW234270   1.158   3.660  10.911
 7548SOL     OW34271   2.514   4.094  25.927
 7548SOL    HW134272   2.456   4.045  25.986
 7548SOL    HW234273   2.545   4.029  25.864
 7549SOL     OW34274   3.126   3.340   3.917
 7549SOL    HW134275   3.067   3.265   3.918
 7549SOL    HW234276   3.174   3.331   3.835
 7550SOL     OW34277   1.709   4.263   9.285
 7550SOL    HW134278   1.733   4.319   9.211
 7550SOL    HW234279   1.665   4.322   9.347
 7551SOL     OW34280   0.553   3.865   2.619
 7551SOL    HW134281   0.576   3.773   2.634
 7551SOL    HW234282   0.463   3.873   2.649
 7552SOL     OW34283   2.136   1.220  23.097
 7552SOL    HW134284   2.074   1.179  23.036
 7552SOL    HW234285   2.217   1.170  23.087
 7553SOL     OW34286   4.293   3.813  10.793
 7553SOL    HW134287   4.290   3.771  10.879
 7553SOL    HW234288   4.243   3.894  10.804
 7554SOL     OW34289   4.556   0.657   2.375
 7554SOL    HW134290   4.508   0.739   2.367
 7554SOL    HW234291   4.648   0.682   2.365
 7555SOL     OW34292   3.669   3.475   8.241
 7555SOL    HW134293   3.659   3.518   8.156
 7555SOL    HW234294   3.755   3.433   8.236
 7556SOL     OW34295   0.082   2.298  19.012
 7556SOL    HW134296   0.105   2.361  19.080
 7556SOL    HW234297   0.008   2.338  18.966
 7557SOL     OW34298   2.296   2.209  10.179
 7557SOL    HW134299   2.358   2.236  10.111
 7557SOL    HW234300   2.219   2.179  10.130
 7558SOL     OW34301   2.495   4.170  10.197
 7558SOL    HW134302   2.570   4.125  10.159
 7558SOL    HW234303   2.435   4.183  10.124
 7559SOL     OW34304   3.806   0.562   3.870
 7559SOL    HW134305   3.725   0.516   3.891
 7559SOL    HW234306   3.862   0.495   3.831
 7560SOL     OW34307   0.217   3.610   4.235
 7560SOL    HW134308   0.247   3.522   4.259
 7560SOL    HW234309   0.209   3.657   4.318
 7561SOL     OW34310   3.794   0.180   6.044
 7561SOL    HW134311   3.735   0.196   5.970
 7561SOL    HW234312   3.882   0.179   6.005
 7562SOL     OW34313   2.420   2.503   4.525
 7562SOL    HW134314   2.460   2.470   4.605
 7562SOL    HW234315   2.462   2.587   4.509
 7563SOL     OW34316   3.090   2.626   1.984
 7563SOL    HW134317   3.144   2.585   2.051
 7563SOL    HW234318   3.153   2.663   1.922
 7564SOL     OW34319   0.308   0.234  20.109
 7564SOL    HW134320   0.360   0.278  20.042
 7564SOL    HW234321   0.271   0.158  20.065
 7565SOL     OW34322   1.634   0.199  12.062
 7565SOL    HW134323   1.578   0.226  12.135
 7565SOL    HW234324   1.679   0.120  12.093
 7566SOL     OW34325   3.335   0.733   1.939
 7566SOL    HW134326   3.283   0.729   1.859
 7566SOL    HW234327   3.272   0.759   2.007
 7567SOL     OW34328   1.348   3.310   3.068
 7567SOL    HW134329   1.257   3.312   3.099
 7567SOL    HW234330   1.355   3.229   3.018
 7568SOL     OW34331   3.671   1.760  25.900
 7568SOL    HW134332   3.712   1.759  25.814
 7568SOL    HW234333   3.711   1.686  25.946
 7569SOL     OW34334   4.218   0.939  20.606
 7569SOL    HW134335   4.263   0.934  20.521
 7569SOL    HW234336   4.150   0.872  20.601
 7570SOL     OW34337   4.083   3.541  24.507
 7570SOL    HW134338   4.040   3.466  24.548
 7570SOL    HW234339   4.024   3.614  24.524
 7571SOL     OW34340   1.487   0.810   1.173
 7571SOL    HW134341   1.400   0.829   1.208
 7571SOL    HW234342   1.494   0.715   1.176
 7572SOL     OW34343   1.349   1.677  17.405
 7572SOL    HW134344   1.404   1.665  17.328
 7572SOL    HW234345   1.399   1.639  17.477
 7573SOL     OW34346   1.968   1.087  11.315
 7573SOL    HW134347   2.047   1.088  11.369
 7573SOL    HW234348   1.996   1.124  11.231
 7574SOL     OW34349   3.989   0.282   8.929
 7574SOL    HW134350   3.968   0.196   8.892
 7574SOL    HW234351   3.904   0.324   8.943
 7575SOL     OW34352   1.579   2.027   3.417
 7575SOL    HW134353   1.571   2.030   3.322
 7575SOL    HW234354   1.602   2.117   3.442
 7576SOL     OW34355   3.833   2.674   5.603
 7576SOL    HW134356   3.908   2.649   5.657
 7576SOL    HW234357   3.866   2.672   5.513
 7577SOL     OW34358   3.755   4.485  21.827
 7577SOL    HW134359   3.692   4.418  21.801
 7577SOL    HW234360   3.702   4.560  21.852
 7578SOL     OW34361   2.862   0.356  20.263
 7578SOL    HW134362   2.791   0.389  20.317
 7578SOL    HW234363   2.867   0.417  20.189
 7579SOL     OW34364   2.595   2.110  22.537
 7579SOL    HW134365   2.629   2.194  22.506
 7579SOL    HW234366   2.533   2.133  22.606
 7580SOL     OW34367   1.752   2.880  10.511
 7580SOL    HW134368   1.802   2.836  10.442
 7580SOL    HW234369   1.710   2.809  10.559
 7581SOL     OW34370   1.067   4.398   7.535
 7581SOL    HW134371   0.981   4.364   7.512
 7581SOL    HW234372   1.126   4.360   7.470
 7582SOL     OW34373   1.975   4.596   5.317
 7582SOL    HW134374   1.925   4.557   5.246
 7582SOL    HW234375   1.920   4.583   5.395
 7583SOL     OW34376   0.858   0.330  26.705
 7583SOL    HW134377   0.784   0.317  26.764
 7583SOL    HW234378   0.879   0.423  26.712
 7584SOL     OW34379   2.573   3.781   6.055
 7584SOL    HW134380   2.634   3.745   6.119
 7584SOL    HW234381   2.589   3.731   5.975
 7585SOL     OW34382   4.334   4.463  21.566
 7585SOL    HW134383   4.328   4.524  21.640
 7585SOL    HW234384   4.243   4.446  21.541
 7586SOL     OW34385   4.575   4.571  23.116
 7586SOL    HW134386   4.532   4.496  23.156
 7586SOL    HW234387   4.504   4.619  23.073
 7587SOL     OW34388   3.344   2.074  26.250
 7587SOL    HW134389   3.341   2.082  26.155
 7587SOL    HW234390   3.387   1.990  26.266
 7588SOL     OW34391   0.507   3.032  20.281
 7588SOL    HW134392   0.564   3.109  20.281
 7588SOL    HW234393   0.459   3.038  20.198
 7589SOL     OW34394   2.506   2.627  28.067
 7589SOL    HW134395   2.594   2.654  28.042
 7589SOL    HW234396   2.465   2.600  27.985
 7590SOL     OW34397   1.285   0.189   1.550
 7590SOL    HW134398   1.298   0.273   1.505
 7590SOL    HW234399   1.344   0.193   1.625
 7591SOL     OW34400   0.821   0.067  27.216
 7591SOL    HW134401   0.750   0.110  27.264
 7591SOL    HW234402   0.776   0.016  27.148
 7592SOL     OW34403   2.600   3.796  17.115
 7592SOL    HW134404   2.615   3.832  17.027
 7592SOL    HW234405   2.605   3.872  17.173
 7593SOL     OW34406   0.795   4.646   3.472
 7593SOL    HW134407   0.873   4.665   3.419
 7593SOL    HW234408   0.764   4.561   3.439
 7594SOL     OW34409   2.112   4.129  27.014
 7594SOL    HW134410   2.054   4.150  26.941
 7594SOL    HW234411   2.185   4.191  27.005
 7595SOL     OW34412   1.736   0.597   0.295
 7595SOL    HW134413   1.743   0.646   0.213
 7595SOL    HW234414   1.784   0.516   0.279
 7596SOL     OW34415   0.500   1.722  23.221
 7596SOL    HW134416   0.544   1.637  23.226
 7596SOL    HW234417   0.571   1.786  23.221
 7597SOL     OW34418   3.400   2.343  19.617
 7597SOL    HW134419   3.476   2.290  19.642
 7597SOL    HW234420   3.350   2.287  19.557
 7598SOL     OW34421   0.413   0.279  23.069
 7598SOL    HW134422   0.394   0.349  23.131
 7598SOL    HW234423   0.329   0.262  23.026
 7599SOL     OW34424   4.725   4.537   4.177
 7599SOL    HW134425   4.698   4.445   4.174
 7599SOL    HW234426   4.727   4.558   4.270
 7600SOL     OW34427   1.192   2.587   7.084
 7600SOL    HW134428   1.262   2.617   7.026
 7600SOL    HW234429   1.235   2.523   7.142
 7601SOL     OW34430   3.710   0.346  26.525
 7601SOL    HW134431   3.615   0.348  26.535
 7601SOL    HW234432   3.726   0.271  26.467
 7602SOL     OW34433   2.050   3.482   0.508
 7602SOL    HW134434   2.141   3.468   0.535
 7602SOL    HW234435   2.028   3.405   0.456
 7603SOL     OW34436   3.047   0.516   6.278
 7603SOL    HW134437   3.135   0.483   6.262
 7603SOL    HW234438   3.059   0.587   6.341
 7604SOL     OW34439   0.698   3.919   6.337
 7604SOL    HW134440   0.720   3.919   6.430
 7604SOL    HW234441   0.604   3.902   6.334
 7605SOL     OW34442   3.209   1.977  20.755
 7605SOL    HW134443   3.279   2.042  20.760
 7605SOL    HW234444   3.135   2.025  20.718
 7606SOL     OW34445   1.436   4.760  26.756
 7606SOL    HW134446   1.407   0.068  26.738
 7606SOL    HW234447   1.369   4.704  26.716
 7607SOL     OW34448   1.289   3.123   7.358
 7607SOL    HW134449   1.285   3.039   7.403
 7607SOL    HW234450   1.266   3.103   7.267
 7608SOL     OW34451   3.138   1.762   0.533
 7608SOL    HW134452   3.188   1.761   0.615
 7608SOL    HW234453   3.110   1.671   0.521
 7609SOL     OW34454   1.191   3.427   4.273
 7609SOL    HW134455   1.235   3.374   4.340
 7609SOL    HW234456   1.114   3.375   4.249
 7610SOL     OW34457   4.442   3.128   2.501
 7610SOL    HW134458   4.452   3.205   2.444
 7610SOL    HW234459   4.379   3.156   2.568
 7611SOL     OW34460   0.148   3.691   7.235
 7611SOL    HW134461   0.094   3.753   7.285
 7611SOL    HW234462   0.237   3.708   7.265
 7612SOL     OW34463   3.351   2.305   8.845
 7612SOL    HW134464   3.358   2.330   8.753
 7612SOL    HW234465   3.379   2.214   8.847
 7613SOL     OW34466   4.400   2.188   6.475
 7613SOL    HW134467   4.346   2.135   6.417
 7613SOL    HW234468   4.480   2.206   6.425
 7614SOL     OW34469   4.007   2.904  21.780
 7614SOL    HW134470   4.048   2.818  21.791
 7614SOL    HW234471   4.074   2.958  21.739
 7615SOL     OW34472   3.299   0.128  26.743
 7615SOL    HW134473   3.282   0.213  26.783
 7615SOL    HW234474   3.247   0.066  26.794
 7616SOL     OW34475   1.927   4.528  24.584
 7616SOL    HW134476   1.836   4.502  24.600
 7616SOL    HW234477   1.927   4.565  24.496
 7617SOL     OW34478   2.396   3.197   0.371
 7617SOL    HW134479   2.349   3.114   0.379
 7617SOL    HW234480   2.457   3.197   0.445
 7618SOL     OW34481   1.708   2.425  21.856
 7618SOL    HW134482   1.624   2.444  21.813
 7618SOL    HW234483   1.696   2.455  21.946
 7619SOL     OW34484   0.953   3.791  11.182
 7619SOL    HW134485   0.925   3.758  11.267
 7619SOL    HW234486   1.046   3.809  11.193
 7620SOL     OW34487   0.310   3.119  22.734
 7620SOL    HW134488   0.303   3.214  22.730
 7620SOL    HW234489   0.271   3.089  22.652
 7621SOL     OW34490   2.051   2.174  23.287
 7621SOL    HW134491   2.031   2.192  23.195
 7621SOL    HW234492   2.131   2.223  23.304
 7622SOL     OW34493   4.097   0.678   8.896
 7622SOL    HW134494   4.189   0.653   8.902
 7622SOL    HW234495   4.095   0.771   8.919
 7623SOL     OW34496   0.732   4.310   4.293
 7623SOL    HW134497   0.790   4.386   4.290
 7623SOL    HW234498   0.670   4.324   4.221
 7624SOL     OW34499   0.942   0.669   2.643
 7624SOL    HW134500   0.871   0.724   2.675
 7624SOL    HW234501   0.898   0.592   2.607
 7625SOL     OW34502   2.233   2.406  23.180
 7625SOL    HW134503   2.181   2.485  23.196
 7625SOL    HW234504   2.191   2.365  23.104
 7626SOL     OW34505   2.009   1.816   7.985
 7626SOL    HW134506   2.098   1.851   7.984
 7626SOL    HW234507   1.953   1.892   7.970
 7627SOL     OW34508   1.378   0.380   4.794
 7627SOL    HW134509   1.383   0.461   4.743
 7627SOL    HW234510   1.468   0.347   4.795
 7628SOL     OW34511   1.644   2.233   6.844
 7628SOL    HW134512   1.690   2.182   6.777
 7628SOL    HW234513   1.702   2.307   6.862
 7629SOL     OW34514   0.339   1.471   3.417
 7629SOL    HW134515   0.267   1.519   3.458
 7629SOL    HW234516   0.415   1.529   3.425
 7630SOL     OW34517   3.062   0.794  16.442
 7630SOL    HW134518   3.084   0.872  16.392
 7630SOL    HW234519   3.063   0.723  16.377
 7631SOL     OW34520   4.596   1.028   0.007
 7631SOL    HW134521   4.681   1.035   0.051
 7631SOL    HW234522   4.616   1.035  28.436
 7632SOL     OW34523   0.426   2.450   0.134
 7632SOL    HW134524   0.515   2.472   0.105
 7632SOL    HW234525   0.387   2.534   0.158
 7633SOL     OW34526   1.813   4.716   6.289
 7633SOL    HW134527   1.834   0.012   6.236
 7633SOL    HW234528   1.742   4.746   6.347
 7634SOL     OW34529   0.103   2.000   2.092
 7634SOL    HW134530   0.023   1.960   2.126
 7634SOL    HW234531   0.169   1.931   2.098
 7635SOL     OW34532   3.915   2.959  22.679
 7635SOL    HW134533   3.999   2.965  22.633
 7635SOL    HW234534   3.911   3.038  22.733
 7636SOL     OW34535   1.223   1.653   2.847
 7636SOL    HW134536   1.203   1.659   2.940
 7636SOL    HW234537   1.194   1.737   2.811
 7637SOL     OW34538   1.728   3.435   0.307
 7637SOL    HW134539   1.786   3.370   0.348
 7637SOL    HW234540   1.671   3.464   0.378
 7638SOL     OW34541   0.314   4.633  20.474
 7638SOL    HW134542   0.299   4.554  20.526
 7638SOL    HW234543   0.291   4.608  20.385
 7639SOL     OW34544   3.364   0.126   8.948
 7639SOL    HW134545   3.319   0.041   8.947
 7639SOL    HW234546   3.453   0.106   8.919
 7640SOL     OW34547   3.361   2.582  10.060
 7640SOL    HW134548   3.301   2.510  10.042
 7640SOL    HW234549   3.321   2.629  10.133
 7641SOL     OW34550   1.405   4.599   6.080
 7641SOL    HW134551   1.407   4.542   6.004
 7641SOL    HW234552   1.329   4.570   6.130
 7642SOL     OW34553   1.259   0.732  10.100
 7642SOL    HW134554   1.288   0.799  10.039
 7642SOL    HW234555   1.284   0.765  10.186
 7643SOL     OW34556   0.116   4.677   3.248
 7643SOL    HW134557   0.196   4.636   3.280
 7643SOL    HW234558   0.046   4.639   3.301
 7644SOL     OW34559   0.404   3.348   6.560
 7644SOL    HW134560   0.356   3.279   6.606
 7644SOL    HW234561   0.395   3.425   6.616
 7645SOL     OW34562   2.048   3.129  11.720
 7645SOL    HW134563   1.995   3.168  11.790
 7645SOL    HW234564   1.984   3.098  11.656
 7646SOL     OW34565   4.619   2.996  20.714
 7646SOL    HW134566   4.593   3.079  20.673
 7646SOL    HW234567   4.709   2.983  20.685
 7647SOL     OW34568   1.335   0.865   1.743
 7647SOL    HW134569   1.330   0.782   1.789
 7647SOL    HW234570   1.392   0.847   1.668
 7648SOL     OW34571   3.076   3.073  18.099
 7648SOL    HW134572   3.071   3.154  18.150
 7648SOL    HW234573   3.080   3.103  18.008
 7649SOL     OW34574   1.133   4.679  21.349
 7649SOL    HW134575   1.104   4.616  21.415
 7649SOL    HW234576   1.211   4.720  21.388
 7650SOL     OW34577   4.720   3.985  25.075
 7650SOL    HW134578   4.739   3.907  25.023
 7650SOL    HW234579   4.667   4.040  25.018
 7651SOL     OW34580   1.857   1.526  27.510
 7651SOL    HW134581   1.916   1.602  27.510
 7651SOL    HW234582   1.882   1.476  27.432
 7652SOL     OW34583   2.397   2.917  20.620
 7652SOL    HW134584   2.411   2.892  20.529
 7652SOL    HW234585   2.331   2.855  20.652
 7653SOL     OW34586   3.709   1.359  23.784
 7653SOL    HW134587   3.726   1.435  23.728
 7653SOL    HW234588   3.619   1.371  23.815
 7654SOL     OW34589   0.932   2.760   8.386
 7654SOL    HW134590   0.846   2.778   8.425
 7654SOL    HW234591   0.913   2.743   8.294
 7655SOL     OW34592   2.884   2.695   4.689
 7655SOL    HW134593   2.872   2.611   4.646
 7655SOL    HW234594   2.952   2.739   4.638
 7656SOL     OW34595   0.792   1.274   4.525
 7656SOL    HW134596   0.722   1.222   4.486
 7656SOL    HW234597   0.780   1.362   4.489
 7657SOL     OW34598   4.077   4.171  21.172
 7657SOL    HW134599   4.123   4.167  21.256
 7657SOL    HW234600   4.132   4.227  21.117
 7658SOL     OW34601   2.756   3.871  23.867
 7658SOL    HW134602   2.678   3.921  23.842
 7658SOL    HW234603   2.761   3.880  23.962
 7659SOL     OW34604   1.549   4.014   6.884
 7659SOL    HW134605   1.505   3.945   6.934
 7659SOL    HW234606   1.513   4.006   6.796
 7660SOL     OW34607   0.062   3.646  11.736
 7660SOL    HW134608   0.053   3.706  11.810
 7660SOL    HW234609   0.153   3.655  11.709
 7661SOL     OW34610   4.317   3.571  24.661
 7661SOL    HW134611   4.249   3.560  24.595
 7661SOL    HW234612   4.386   3.620  24.617
 7662SOL     OW34613   2.649   0.395   7.663
 7662SOL    HW134614   2.625   0.331   7.730
 7662SOL    HW234615   2.745   0.395   7.663
 7663SOL     OW34616   2.624   1.843   3.555
 7663SOL    HW134617   2.613   1.758   3.597
 7663SOL    HW234618   2.681   1.892   3.614
 7664SOL     OW34619   0.750   1.112   3.289
 7664SOL    HW134620   0.809   1.126   3.363
 7664SOL    HW234621   0.808   1.105   3.213
 7665SOL     OW34622   0.903   1.910   1.979
 7665SOL    HW134623   0.979   1.923   1.922
 7665SOL    HW234624   0.930   1.842   2.040
 7666SOL     OW34625   3.830   3.899  27.607
 7666SOL    HW134626   3.815   3.934  27.695
 7666SOL    HW234627   3.903   3.950  27.572
 7667SOL     OW34628   2.111   2.645  25.675
 7667SOL    HW134629   2.071   2.706  25.737
 7667SOL    HW234630   2.065   2.661  25.593
 7668SOL     OW34631   0.297   2.181  27.092
 7668SOL    HW134632   0.300   2.254  27.154
 7668SOL    HW234633   0.244   2.214  27.019
 7669SOL     OW34634   0.266   0.156   8.764
 7669SOL    HW134635   0.333   0.143   8.831
 7669SOL    HW234636   0.315   0.179   8.685
 7670SOL     OW34637   3.446   3.684  24.108
 7670SOL    HW134638   3.475   3.675  24.199
 7670SOL    HW234639   3.412   3.597  24.086
 7671SOL     OW34640   3.358   2.238   1.069
 7671SOL    HW134641   3.277   2.188   1.063
 7671SOL    HW234642   3.376   2.245   1.163
 7672SOL     OW34643   3.801   4.592   6.634
 7672SOL    HW134644   3.802   4.660   6.702
 7672SOL    HW234645   3.886   4.601   6.590
 7673SOL     OW34646   1.067   1.707   7.766
 7673SOL    HW134647   1.134   1.664   7.819
 7673SOL    HW234648   1.040   1.641   7.702
 7674SOL     OW34649   2.263   2.228  20.113
 7674SOL    HW134650   2.212   2.217  20.033
 7674SOL    HW234651   2.199   2.220  20.184
 7675SOL     OW34652   4.197   1.758   8.376
 7675SOL    HW134653   4.157   1.845   8.379
 7675SOL    HW234654   4.291   1.775   8.367
 7676SOL     OW34655   2.349   4.633  27.861
 7676SOL    HW134656   2.256   4.640  27.882
 7676SOL    HW234657   2.392   4.684  27.930
 7677SOL     OW34658   4.106   3.100   6.224
 7677SOL    HW134659   4.127   3.072   6.313
 7677SOL    HW234660   4.022   3.057   6.205
 7678SOL     OW34661   4.289   4.676   6.700
 7678SOL    HW134662   4.373   4.705   6.666
 7678SOL    HW234663   4.304   4.665   6.794
 7679SOL     OW34664   3.140   0.720  23.181
 7679SOL    HW134665   3.144   0.799  23.235
 7679SOL    HW234666   3.116   0.752  23.094
 7680SOL     OW34667   3.642   2.702  26.843
 7680SOL    HW134668   3.633   2.611  26.815
 7680SOL    HW234669   3.614   2.701  26.935
 7681SOL     OW34670   3.354   2.849  25.821
 7681SOL    HW134671   3.427   2.855  25.759
 7681SOL    HW234672   3.390   2.800  25.895
 7682SOL     OW34673   0.584   4.140  23.461
 7682SOL    HW134674   0.538   4.182  23.389
 7682SOL    HW234675   0.561   4.047  23.454
 7683SOL     OW34676   0.591   3.206  24.588
 7683SOL    HW134677   0.617   3.266  24.518
 7683SOL    HW234678   0.560   3.128  24.543
 7684SOL     OW34679   1.059   2.358  20.619
 7684SOL    HW134680   1.084   2.445  20.587
 7684SOL    HW234681   0.981   2.374  20.673
 7685SOL     OW34682   1.354   0.886   9.852
 7685SOL    HW134683   1.268   0.928   9.860
 7685SOL    HW234684   1.410   0.953   9.813
 7686SOL     OW34685   0.993   3.363   2.930
 7686SOL    HW134686   1.036   3.287   2.890
 7686SOL    HW234687   1.055   3.435   2.917
 7687SOL     OW34688   4.599   0.222  21.564
 7687SOL    HW134689   4.526   0.160  21.567
 7687SOL    HW234690   4.613   0.237  21.471
 7688SOL     OW34691   3.215   2.303  10.082
 7688SOL    HW134692   3.215   2.360  10.159
 7688SOL    HW234693   3.154   2.233  10.103
 7689SOL     OW34694   1.780   3.739   3.656
 7689SOL    HW134695   1.704   3.682   3.671
 7689SOL    HW234696   1.790   3.787   3.738
 7690SOL     OW34697   1.590   1.496  26.348
 7690SOL    HW134698   1.580   1.439  26.272
 7690SOL    HW234699   1.502   1.531  26.364
 7691SOL     OW34700   0.569   2.870   3.061
 7691SOL    HW134701   0.484   2.897   3.026
 7691SOL    HW234702   0.624   2.855   2.984
 7692SOL     OW34703   2.233   0.035   3.949
 7692SOL    HW134704   2.243   0.105   3.885
 7692SOL    HW234705   2.229   4.736   3.897
 7693SOL     OW34706   0.172   4.760   6.281
 7693SOL    HW134707   0.144   4.677   6.242
 7693SOL    HW234708   0.255   4.780   6.238
 7694SOL     OW34709   4.588   0.626   7.187
 7694SOL    HW134710   4.509   0.593   7.144
 7694SOL    HW234711   4.558   0.704   7.234
 7695SOL     OW34712   3.025   3.379  24.023
 7695SOL    HW134713   3.088   3.348  24.088
 7695SOL    HW234714   3.001   3.467  24.052
 7696SOL     OW34715   4.487   0.443   7.433
 7696SOL    HW134716   4.408   0.405   7.394
 7696SOL    HW234717   4.457   0.525   7.472
 7697SOL     OW34718   2.737   2.124  24.514
 7697SOL    HW134719   2.667   2.073  24.555
 7697SOL    HW234720   2.817   2.095  24.558
 7698SOL     OW34721   4.180   2.203  11.585
 7698SOL    HW134722   4.129   2.243  11.656
 7698SOL    HW234723   4.263   2.250  11.585
 7699SOL     OW34724   1.864   0.064   9.581
 7699SOL    HW134725   1.840   0.153   9.608
 7699SOL    HW234726   1.783   0.014   9.591
 7700SOL     OW34727   4.664   0.153  26.857
 7700SOL    HW134728   4.585   0.200  26.884
 7700SOL    HW234729   4.660   0.154  26.761
 7701SOL     OW34730   0.745   1.587   8.874
 7701SOL    HW134731   0.719   1.504   8.914
 7701SOL    HW234732   0.702   1.654   8.927
 7702SOL     OW34733   4.326   4.316   8.704
 7702SOL    HW134734   4.302   4.326   8.612
 7702SOL    HW234735   4.318   4.222   8.721
 7703SOL     OW34736   1.840   3.332   0.704
 7703SOL    HW134737   1.871   3.416   0.739
 7703SOL    HW234738   1.918   3.277   0.701
 7704SOL     OW34739   4.508   0.263  26.068
 7704SOL    HW134740   4.441   0.329  26.048
 7704SOL    HW234741   4.588   0.296  26.027
 7705SOL     OW34742   3.675   3.774   2.468
 7705SOL    HW134743   3.763   3.755   2.499
 7705SOL    HW234744   3.617   3.736   2.534
 7706SOL     OW34745   0.229   1.589   4.693
 7706SOL    HW134746   0.201   1.501   4.720
 7706SOL    HW234747   0.325   1.585   4.695
 7707SOL     OW34748   1.677   4.397   1.243
 7707SOL    HW134749   1.682   4.315   1.194
 7707SOL    HW234750   1.585   4.423   1.235
 7708SOL     OW34751   3.117   2.817  26.561
 7708SOL    HW134752   3.198   2.803  26.511
 7708SOL    HW234753   3.111   2.912  26.570
 7709SOL     OW34754   0.496   0.972  28.320
 7709SOL    HW134755   0.586   0.944  28.304
 7709SOL    HW234756   0.457   0.978  28.233
 7710SOL     OW34757   0.807   4.559  20.442
 7710SOL    HW134758   0.733   4.526  20.493
 7710SOL    HW234759   0.860   4.606  20.506
 7711SOL     OW34760   0.964   4.190   7.201
 7711SOL    HW134761   1.021   4.176   7.126
 7711SOL    HW234762   0.883   4.144   7.179
 7712SOL     OW34763   3.129   2.101  22.258
 7712SOL    HW134764   3.107   2.075  22.169
 7712SOL    HW234765   3.065   2.168  22.280
 7713SOL     OW34766   2.871   4.760  24.401
 7713SOL    HW134767   2.782   4.737  24.375
 7713SOL    HW234768   2.927   4.702  24.350
 7714SOL     OW34769   0.016   3.808  23.432
 7714SOL    HW134770   0.085   3.816  23.497
 7714SOL    HW234771   4.769   3.898  23.415
 7715SOL     OW34772   2.365   0.899   4.701
 7715SOL    HW134773   2.361   0.911   4.606
 7715SOL    HW234774   2.276   0.875   4.726
 7716SOL     OW34775   2.873   4.017  25.035
 7716SOL    HW134776   2.789   4.046  24.998
 7716SOL    HW234777   2.879   4.062  25.119
 7717SOL     OW34778   3.472   2.758   7.446
 7717SOL    HW134779   3.423   2.699   7.388
 7717SOL    HW234780   3.431   2.748   7.532
 7718SOL     OW34781   2.800   3.299  22.835
 7718SOL    HW134782   2.839   3.247  22.906
 7718SOL    HW234783   2.744   3.362  22.880
 7719SOL     OW34784   4.373   0.880   4.727
 7719SOL    HW134785   4.417   0.910   4.648
 7719SOL    HW234786   4.290   0.843   4.696
 7720SOL     OW34787   3.608   0.129  19.893
 7720SOL    HW134788   3.687   0.100  19.848
 7720SOL    HW234789   3.596   0.066  19.964
 7721SOL     OW34790   0.661   0.704   0.625
 7721SOL    HW134791   0.683   0.619   0.587
 7721SOL    HW234792   0.637   0.684   0.716
 7722SOL     OW34793   0.891   0.035  23.535
 7722SOL    HW134794   0.850   0.076  23.611
 7722SOL    HW234795   0.856   4.727  23.535
 7723SOL     OW34796   4.645   0.767  16.423
 7723SOL    HW134797   4.611   0.850  16.457
 7723SOL    HW234798   4.595   0.700  16.470
 7724SOL     OW34799   2.621   3.966   0.172
 7724SOL    HW134800   2.636   4.001   0.084
 7724SOL    HW234801   2.657   3.877   0.169
 7725SOL     OW34802   2.594   0.505  25.989
 7725SOL    HW134803   2.509   0.541  26.013
 7725SOL    HW234804   2.655   0.544  26.052
 7726SOL     OW34805   3.506   4.014   8.091
 7726SOL    HW134806   3.576   3.964   8.133
 7726SOL    HW234807   3.530   4.015   7.998
 7727SOL     OW34808   2.905   2.104   6.294
 7727SOL    HW134809   2.892   2.173   6.359
 7727SOL    HW234810   2.960   2.144   6.227
 7728SOL     OW34811   4.612   3.321   6.011
 7728SOL    HW134812   4.651   3.234   6.009
 7728SOL    HW234813   4.527   3.308   6.053
 7729SOL     OW34814   0.560   1.136  27.849
 7729SOL    HW134815   0.549   1.222  27.889
 7729SOL    HW234816   0.514   1.143  27.765
 7730SOL     OW34817   1.919   0.170   7.835
 7730SOL    HW134818   1.890   0.101   7.895
 7730SOL    HW234819   1.866   0.246   7.859
 7731SOL     OW34820   4.022   2.404  27.125
 7731SOL    HW134821   4.087   2.339  27.096
 7731SOL    HW234822   4.074   2.473  27.166
 7732SOL     OW34823   3.882   0.892   6.162
 7732SOL    HW134824   3.916   0.843   6.237
 7732SOL    HW234825   3.926   0.854   6.086
 7733SOL     OW34826   2.385   4.576  20.534
 7733SOL    HW134827   2.399   4.559  20.441
 7733SOL    HW234828   2.295   4.609  20.540
 7734SOL     OW34829   1.708   2.752   0.581
 7734SOL    HW134830   1.778   2.800   0.536
 7734SOL    HW234831   1.752   2.676   0.619
 7735SOL     OW34832   4.720   1.192   9.541
 7735SOL    HW134833   4.695   1.111   9.497
 7735SOL    HW234834   4.759   1.164   9.624
 7736SOL     OW34835   0.206   3.745  27.584
 7736SOL    HW134836   0.124   3.755  27.536
 7736SOL    HW234837   0.182   3.760  27.676
 7737SOL     OW34838   1.312   2.557  19.432
 7737SOL    HW134839   1.270   2.495  19.492
 7737SOL    HW234840   1.314   2.640  19.480
 7738SOL     OW34841   1.300   4.615  24.784
 7738SOL    HW134842   1.269   4.564  24.709
 7738SOL    HW234843   1.394   4.626  24.768
 7739SOL     OW34844   2.079   4.307  24.535
 7739SOL    HW134845   2.038   4.386  24.570
 7739SOL    HW234846   2.172   4.329  24.528
 7740SOL     OW34847   3.124   0.532  27.854
 7740SOL    HW134848   3.187   0.464  27.878
 7740SOL    HW234849   3.169   0.585  27.788
 7741SOL     OW34850   2.404   2.650   8.492
 7741SOL    HW134851   2.496   2.672   8.479
 7741SOL    HW234852   2.391   2.655   8.587
 7742SOL     OW34853   4.116   0.783   3.999
 7742SOL    HW134854   4.049   0.850   4.010
 7742SOL    HW234855   4.123   0.770   3.904
 7743SOL     OW34856   4.124   4.317   6.143
 7743SOL    HW134857   4.117   4.402   6.187
 7743SOL    HW234858   4.044   4.310   6.090
 7744SOL     OW34859   0.366   0.269   7.481
 7744SOL    HW134860   0.343   0.188   7.527
 7744SOL    HW234861   0.455   0.288   7.511
 7745SOL     OW34862   2.827   3.394  17.984
 7745SOL    HW134863   2.874   3.320  17.946
 7745SOL    HW234864   2.796   3.444  17.909
 7746SOL     OW34865   1.819   3.983  21.830
 7746SOL    HW134866   1.859   3.946  21.909
 7746SOL    HW234867   1.782   4.067  21.858
 7747SOL     OW34868   3.486   1.618  26.984
 7747SOL    HW134869   3.440   1.630  27.067
 7747SOL    HW234870   3.417   1.618  26.918
 7748SOL     OW34871   3.700   1.879  19.087
 7748SOL    HW134872   3.650   1.946  19.133
 7748SOL    HW234873   3.637   1.808  19.073
 7749SOL     OW34874   1.148   1.990   3.659
 7749SOL    HW134875   1.083   2.035   3.606
 7749SOL    HW234876   1.216   1.964   3.596
 7750SOL     OW34877   3.133   2.183   8.646
 7750SOL    HW134878   3.087   2.241   8.585
 7750SOL    HW234879   3.065   2.153   8.706
 7751SOL     OW34880   3.127   0.128  19.651
 7751SOL    HW134881   3.200   0.131  19.713
 7751SOL    HW234882   3.051   0.157  19.702
 7752SOL     OW34883   3.925   3.423  20.575
 7752SOL    HW134884   4.003   3.477  20.561
 7752SOL    HW234885   3.922   3.364  20.499
 7753SOL     OW34886   3.443   1.267  25.920
 7753SOL    HW134887   3.385   1.222  25.858
 7753SOL    HW234888   3.432   1.360  25.899
 7754SOL     OW34889   1.747   0.080   7.407
 7754SOL    HW134890   1.745   0.042   7.495
 7754SOL    HW234891   1.797   0.161   7.417
 7755SOL     OW34892   2.518   3.944  10.798
 7755SOL    HW134893   2.518   3.993  10.880
 7755SOL    HW234894   2.593   3.885  10.805
 7756SOL     OW34895   0.547   4.064  26.870
 7756SOL    HW134896   0.592   4.025  26.795
 7756SOL    HW234897   0.500   3.991  26.910
 7757SOL     OW34898   2.943   1.626  19.014
 7757SOL    HW134899   2.909   1.584  18.935
 7757SOL    HW234900   2.983   1.707  18.982
 7758SOL     OW34901   1.559   2.612   7.840
 7758SOL    HW134902   1.503   2.690   7.839
 7758SOL    HW234903   1.498   2.538   7.832
 7759SOL     OW34904   4.540   1.059   0.733
 7759SOL    HW134905   4.532   1.125   0.802
 7759SOL    HW234906   4.588   0.987   0.774
 7760SOL     OW34907   1.928   0.184  11.435
 7760SOL    HW134908   1.836   0.196  11.458
 7760SOL    HW234909   1.970   0.266  11.459
 7761SOL     OW34910   2.182   2.623   1.869
 7761SOL    HW134911   2.164   2.593   1.780
 7761SOL    HW234912   2.210   2.714   1.859
 7762SOL     OW34913   2.392   1.481   6.591
 7762SOL    HW134914   2.418   1.468   6.682
 7762SOL    HW234915   2.307   1.438   6.585
 7763SOL     OW34916   2.369   4.588   2.792
 7763SOL    HW134917   2.380   4.582   2.697
 7763SOL    HW234918   2.275   4.577   2.807
 7764SOL     OW34919   1.219   3.966   5.635
 7764SOL    HW134920   1.196   3.928   5.720
 7764SOL    HW234921   1.279   3.903   5.596
 7765SOL     OW34922   2.680   2.331  11.707
 7765SOL    HW134923   2.600   2.318  11.656
 7765SOL    HW234924   2.747   2.281  11.660
 7766SOL     OW34925   4.312   2.708   3.140
 7766SOL    HW134926   4.355   2.769   3.200
 7766SOL    HW234927   4.250   2.660   3.195
 7767SOL     OW34928   2.308   4.191   9.996
 7767SOL    HW134929   2.301   4.282   9.966
 7767SOL    HW234930   2.217   4.161  10.002
 7768SOL     OW34931   0.690   4.370   9.347
 7768SOL    HW134932   0.596   4.378   9.363
 7768SOL    HW234933   0.731   4.422   9.416
 7769SOL     OW34934   0.507   3.081   6.974
 7769SOL    HW134935   0.555   2.998   6.969
 7769SOL    HW234936   0.553   3.132   7.041
 7770SOL     OW34937   3.399   0.629   5.470
 7770SOL    HW134938   3.430   0.690   5.403
 7770SOL    HW234939   3.308   0.654   5.486
 7771SOL     OW34940   3.498   3.598   5.624
 7771SOL    HW134941   3.406   3.624   5.630
 7771SOL    HW234942   3.524   3.625   5.536
 7772SOL     OW34943   0.459   1.265   7.729
 7772SOL    HW134944   0.492   1.304   7.810
 7772SOL    HW234945   0.531   1.211   7.697
 7773SOL     OW34946   1.532   2.241   5.211
 7773SOL    HW134947   1.468   2.285   5.155
 7773SOL    HW234948   1.494   2.154   5.226
 7774SOL     OW34949   2.209   1.341   5.739
 7774SOL    HW134950   2.183   1.337   5.647
 7774SOL    HW234951   2.200   1.434   5.762
 7775SOL     OW34952   3.441   0.303  26.551
 7775SOL    HW134953   3.365   0.274  26.500
 7775SOL    HW234954   3.427   0.266  26.638
 7776SOL     OW34955   4.710   4.656   5.955
 7776SOL    HW134956   4.673   4.616   6.034
 7776SOL    HW234957   4.692   4.749   5.964
 7777SOL     OW34958   3.080   3.357  19.716
 7777SOL    HW134959   3.156   3.302  19.697
 7777SOL    HW234960   3.106   3.408  19.793
 7778SOL     OW34961   3.092   3.271   1.446
 7778SOL    HW134962   3.022   3.309   1.393
 7778SOL    HW234963   3.133   3.206   1.389
 7779SOL     OW34964   3.968   3.352   4.051
 7779SOL    HW134965   4.009   3.273   4.087
 7779SOL    HW234966   3.893   3.320   4.001
 7780SOL     OW34967   3.862   1.121   9.298
 7780SOL    HW134968   3.867   1.127   9.203
 7780SOL    HW234969   3.779   1.077   9.315
 7781SOL     OW34970   3.259   2.628  26.030
 7781SOL    HW134971   3.279   2.544  26.072
 7781SOL    HW234972   3.340   2.679  26.039
 7782SOL     OW34973   0.551   4.425  24.798
 7782SOL    HW134974   0.511   4.470  24.724
 7782SOL    HW234975   0.611   4.362  24.758
 7783SOL     OW34976   0.938   2.549   6.656
 7783SOL    HW134977   0.909   2.532   6.745
 7783SOL    HW234978   0.858   2.551   6.604
 7784SOL     OW34979   0.682   0.693   9.416
 7784SOL    HW134980   0.778   0.696   9.413
 7784SOL    HW234981   0.657   0.645   9.337
 7785SOL     OW34982   4.569   0.557   9.672
 7785SOL    HW134983   4.537   0.480   9.624
 7785SOL    HW234984   4.664   0.545   9.675
 7786SOL     OW34985   3.700   4.779  23.775
 7786SOL    HW134986   3.647   0.037  23.705
 7786SOL    HW234987   3.648   4.705  23.806
 7787SOL     OW34988   1.307   2.262  26.730
 7787SOL    HW134989   1.277   2.174  26.752
 7787SOL    HW234990   1.270   2.278  26.643
 7788SOL     OW34991   4.657   4.139  22.029
 7788SOL    HW134992   4.708   4.214  21.999
 7788SOL    HW234993   4.636   4.091  21.949
 7789SOL     OW34994   3.875   1.419  11.573
 7789SOL    HW134995   3.928   1.371  11.637
 7789SOL    HW234996   3.785   1.407  11.603
 7790SOL     OW34997   3.615   3.669   0.205
 7790SOL    HW134998   3.700   3.647   0.242
 7790SOL    HW234999   3.556   3.601   0.238
 7791SOL     OW35000   2.504   1.408  26.637
 7791SOL    HW135001   2.423   1.359  26.621
 7791SOL    HW235002   2.512   1.467  26.562
 7792SOL     OW35003   3.643   3.897   0.068
 7792SOL    HW135004   3.655   3.817   0.119
 7792SOL    HW235005   3.679   3.875  28.504
 7793SOL     OW35006   3.984   2.498  26.210
 7793SOL    HW135007   3.946   2.413  26.230
 7793SOL    HW235008   3.939   2.559  26.269
 7794SOL     OW35009   2.654   2.210  23.560
 7794SOL    HW135010   2.711   2.247  23.628
 7794SOL    HW235011   2.569   2.250  23.576
 7795SOL     OW35012   1.443   0.308  20.494
 7795SOL    HW135013   1.350   0.316  20.473
 7795SOL    HW235014   1.446   0.258  20.575
 7796SOL     OW35015   0.526   4.497   6.815
 7796SOL    HW135016   0.529   4.404   6.794
 7796SOL    HW235017   0.498   4.501   6.906
 7797SOL     OW35018   2.133   0.084  22.528
 7797SOL    HW135019   2.165   0.173  22.542
 7797SOL    HW235020   2.154   0.066  22.436
 7798SOL     OW35021   3.528   3.640  24.997
 7798SOL    HW135022   3.582   3.613  24.923
 7798SOL    HW235023   3.453   3.684  24.957
 7799SOL     OW35024   1.833   0.799   1.873
 7799SOL    HW135025   1.894   0.727   1.889
 7799SOL    HW235026   1.854   0.829   1.785
 7800SOL     OW35027   3.349   2.972   5.869
 7800SOL    HW135028   3.346   3.036   5.940
 7800SOL    HW235029   3.310   2.893   5.906
 7801SOL     OW35030   4.281   3.612  10.624
 7801SOL    HW135031   4.271   3.684  10.686
 7801SOL    HW235032   4.231   3.540  10.663
 7802SOL     OW35033   0.083   3.718   4.002
 7802SOL    HW135034   0.133   3.676   3.932
 7802SOL    HW235035   0.131   3.697   4.082
 7803SOL     OW35036   4.751   0.323   5.579
 7803SOL    HW135037   0.041   0.264   5.555
 7803SOL    HW235038   4.768   0.345   5.671
 7804SOL     OW35039   4.689   0.796  20.536
 7804SOL    HW135040   4.680   0.701  20.533
 7804SOL    HW235041   4.630   0.824  20.606
 7805SOL     OW35042   1.627   4.191  23.332
 7805SOL    HW135043   1.640   4.192  23.427
 7805SOL    HW235044   1.582   4.273  23.313
 7806SOL     OW35045   4.248   1.933  10.894
 7806SOL    HW135046   4.197   2.012  10.914
 7806SOL    HW235047   4.183   1.863  10.893
 7807SOL     OW35048   0.940   4.135  10.124
 7807SOL    HW135049   1.028   4.171  10.131
 7807SOL    HW235050   0.952   4.041  10.138
 7808SOL     OW35051   3.499   4.644   7.566
 7808SOL    HW135052   3.475   4.609   7.480
 7808SOL    HW235053   3.492   4.739   7.556
 7809SOL     OW35054   2.383   2.755  24.708
 7809SOL    HW135055   2.372   2.662  24.726
 7809SOL    HW235056   2.427   2.789  24.786
 7810SOL     OW35057   0.213   1.515  24.644
 7810SOL    HW135058   0.280   1.498  24.578
 7810SOL    HW235059   0.250   1.482  24.726
 7811SOL     OW35060   2.699   2.592   6.645
 7811SOL    HW135061   2.781   2.555   6.678
 7811SOL    HW235062   2.632   2.555   6.702
 7812SOL     OW35063   0.031   0.266   0.676
 7812SOL    HW135064   0.088   0.208   0.727
 7812SOL    HW235065   0.081   0.285   0.597
 7813SOL     OW35066   3.389   2.432   6.837
 7813SOL    HW135067   3.456   2.417   6.770
 7813SOL    HW235068   3.435   2.478   6.907
 7814SOL     OW35069   3.383   1.970   5.178
 7814SOL    HW135070   3.454   2.002   5.234
 7814SOL    HW235071   3.426   1.949   5.095
 7815SOL     OW35072   2.902   4.455  11.231
 7815SOL    HW135073   2.992   4.483  11.245
 7815SOL    HW235074   2.849   4.517  11.281
 7816SOL     OW35075   0.855   1.969  25.378
 7816SOL    HW135076   0.872   2.063  25.368
 7816SOL    HW235077   0.789   1.964  25.447
 7817SOL     OW35078   2.575   0.939  21.948
 7817SOL    HW135079   2.610   0.896  21.870
 7817SOL    HW235080   2.521   1.010  21.914
 7818SOL     OW35081   1.500   0.020  24.055
 7818SOL    HW135082   1.507   4.746  24.133
 7818SOL    HW235083   1.552   4.755  23.988
 7819SOL     OW35084   1.196   4.019   1.454
 7819SOL    HW135085   1.181   4.112   1.469
 7819SOL    HW235086   1.174   4.006   1.362
 7820SOL     OW35087   1.329   1.387  18.950
 7820SOL    HW135088   1.270   1.334  18.896
 7820SOL    HW235089   1.368   1.449  18.888
 7821SOL     OW35090   1.716   4.288   3.579
 7821SOL    HW135091   1.645   4.343   3.613
 7821SOL    HW235092   1.743   4.332   3.499
 7822SOL     OW35093   2.223   0.668   8.078
 7822SOL    HW135094   2.238   0.760   8.055
 7822SOL    HW235095   2.263   0.618   8.007
 7823SOL     OW35096   1.483   4.505   0.967
 7823SOL    HW135097   1.487   4.499   0.872
 7823SOL    HW235098   1.485   4.414   0.996
 7824SOL     OW35099   2.665   0.160   1.013
 7824SOL    HW135100   2.676   0.116   1.097
 7824SOL    HW235101   2.572   0.182   1.010
 7825SOL     OW35102   2.996   1.007  10.075
 7825SOL    HW135103   2.909   1.022  10.112
 7825SOL    HW235104   3.056   1.028  10.146
 7826SOL     OW35105   1.887   3.980  22.863
 7826SOL    HW135106   1.846   3.953  22.781
 7826SOL    HW235107   1.910   4.072  22.849
 7827SOL     OW35108   3.068   0.771  22.935
 7827SOL    HW135109   3.084   0.828  22.859
 7827SOL    HW235110   2.974   0.753  22.932
 7828SOL     OW35111   0.104   0.738  25.537
 7828SOL    HW135112   0.161   0.794  25.589
 7828SOL    HW235113   0.125   0.759  25.446
 7829SOL     OW35114   0.134   2.770   1.253
 7829SOL    HW135115   0.084   2.839   1.210
 7829SOL    HW235116   0.222   2.806   1.262
 7830SOL     OW35117   0.729   3.461   5.246
 7830SOL    HW135118   0.770   3.430   5.165
 7830SOL    HW235119   0.762   3.550   5.258
 7831SOL     OW35120   0.369   2.369  20.148
 7831SOL    HW135121   0.318   2.410  20.218
 7831SOL    HW235122   0.360   2.429  20.074
 7832SOL     OW35123   3.645   2.032   5.427
 7832SOL    HW135124   3.630   1.996   5.514
 7832SOL    HW235125   3.720   1.983   5.393
 7833SOL     OW35126   3.336   2.706  18.111
 7833SOL    HW135127   3.377   2.655  18.181
 7833SOL    HW235128   3.409   2.743  18.062
 7834SOL     OW35129   4.622   1.461  24.149
 7834SOL    HW135130   4.679   1.385  24.142
 7834SOL    HW235131   4.675   1.534  24.117
 7835SOL     OW35132   1.088   1.075   3.471
 7835SOL    HW135133   1.143   1.142   3.430
 7835SOL    HW235134   1.128   1.060   3.557
 7836SOL     OW35135   2.844   4.606  19.992
 7836SOL    HW135136   2.756   4.609  20.030
 7836SOL    HW235137   2.866   4.698  19.975
 7837SOL     OW35138   0.660   4.636  26.248
 7837SOL    HW135139   0.651   4.629  26.343
 7837SOL    HW235140   0.589   4.694  26.221
 7838SOL     OW35141   2.680   2.362   6.209
 7838SOL    HW135142   2.652   2.281   6.166
 7838SOL    HW235143   2.607   2.423   6.196
 7839SOL     OW35144   3.784   2.034  20.647
 7839SOL    HW135145   3.835   1.954  20.660
 7839SOL    HW235146   3.696   2.003  20.624
 7840SOL     OW35147   4.777   1.788  27.802
 7840SOL    HW135148   4.764   1.839  27.882
 7840SOL    HW235149   4.763   1.697  27.829
 7841SOL     OW35150   0.363   0.548   0.776
 7841SOL    HW135151   0.365   0.522   0.684
 7841SOL    HW235152   0.384   0.641   0.775
 7842SOL     OW35153   4.119   3.329   3.389
 7842SOL    HW135154   4.096   3.417   3.359
 7842SOL    HW235155   4.111   3.334   3.484
 7843SOL     OW35156   4.248   1.812  20.560
 7843SOL    HW135157   4.282   1.838  20.474
 7843SOL    HW235158   4.159   1.781  20.543
 7844SOL     OW35159   4.167   0.427  24.801
 7844SOL    HW135160   4.210   0.358  24.851
 7844SOL    HW235161   4.228   0.446  24.729
 7845SOL     OW35162   1.966   0.256   6.957
 7845SOL    HW135163   2.023   0.199   7.008
 7845SOL    HW235164   1.877   0.230   6.982
 7846SOL     OW35165   3.173   1.120   9.925
 7846SOL    HW135166   3.252   1.069   9.943
 7846SOL    HW235167   3.105   1.080   9.979
 7847SOL     OW35168   2.805   1.963  22.409
 7847SOL    HW135169   2.758   1.881  22.392
 7847SOL    HW235170   2.746   2.012  22.466
 7848SOL     OW35171   1.267   0.703   2.133
 7848SOL    HW135172   1.277   0.685   2.039
 7848SOL    HW235173   1.248   0.618   2.172
 7849SOL     OW35174   0.176   1.706   5.059
 7849SOL    HW135175   0.151   1.731   5.148
 7849SOL    HW235176   0.093   1.700   5.011
 7850SOL     OW35177   4.259   4.629   2.724
 7850SOL    HW135178   4.302   4.569   2.785
 7850SOL    HW235179   4.221   4.697   2.779
 7851SOL     OW35180   2.538   4.483   4.582
 7851SOL    HW135181   2.490   4.418   4.531
 7851SOL    HW235182   2.593   4.432   4.641
 7852SOL     OW35183   1.549   3.220   6.998
 7852SOL    HW135184   1.560   3.310   7.027
 7852SOL    HW235185   1.636   3.193   6.968
 7853SOL     OW35186   3.475   3.011  25.599
 7853SOL    HW135187   3.516   2.975  25.520
 7853SOL    HW235188   3.384   3.028  25.573
 7854SOL     OW35189   3.892   0.587   5.250
 7854SOL    HW135190   3.809   0.550   5.280
 7854SOL    HW235191   3.908   0.545   5.165
 7855SOL     OW35192   1.208   1.061  21.049
 7855SOL    HW135193   1.239   1.125  21.112
 7855SOL    HW235194   1.113   1.071  21.049
 7856SOL     OW35195   1.401   1.189   1.576
 7856SOL    HW135196   1.337   1.146   1.520
 7856SOL    HW235197   1.455   1.117   1.609
 7857SOL     OW35198   1.470   0.989   9.470
 7857SOL    HW135199   1.533   1.047   9.427
 7857SOL    HW235200   1.448   1.034   9.552
 7858SOL     OW35201   1.673   4.727  17.180
 7858SOL    HW135202   1.768   4.733  17.189
 7858SOL    HW235203   1.659   4.648  17.128
 7859SOL     OW35204   4.545   1.708  24.536
 7859SOL    HW135205   4.625   1.700  24.589
 7859SOL    HW235206   4.478   1.737  24.598
 7860SOL     OW35207   0.406   0.068   9.860
 7860SOL    HW135208   0.420   4.756   9.879
 7860SOL    HW235209   0.311   0.078   9.861
 7861SOL     OW35210   1.819   4.314  21.456
 7861SOL    HW135211   1.804   4.394  21.506
 7861SOL    HW235212   1.868   4.342  21.379
 7862SOL     OW35213   2.022   2.407   2.567
 7862SOL    HW135214   2.031   2.334   2.628
 7862SOL    HW235215   2.022   2.366   2.480
 7863SOL     OW35216   2.388   0.264  19.553
 7863SOL    HW135217   2.452   0.212  19.504
 7863SOL    HW235218   2.309   0.210  19.554
 7864SOL     OW35219   3.864   1.015  22.256
 7864SOL    HW135220   3.857   0.978  22.344
 7864SOL    HW235221   3.827   1.103  22.264
 7865SOL     OW35222   0.839   0.645  25.009
 7865SOL    HW135223   0.827   0.607  24.922
 7865SOL    HW235224   0.771   0.713  25.015
 7866SOL     OW35225   1.173   0.262  20.386
 7866SOL    HW135226   1.192   0.169  20.373
 7866SOL    HW235227   1.138   0.291  20.302
 7867SOL     OW35228   2.595   4.460   2.160
 7867SOL    HW135229   2.568   4.528   2.098
 7867SOL    HW235230   2.638   4.394   2.106
 7868SOL     OW35231   0.586   3.613   2.446
 7868SOL    HW135232   0.492   3.621   2.431
 7868SOL    HW235233   0.601   3.519   2.455
 7869SOL     OW35234   0.383   4.055  28.249
 7869SOL    HW135235   0.364   3.963  28.232
 7869SOL    HW235236   0.313   4.083  28.308
 7870SOL     OW35237   3.337   0.629  21.304
 7870SOL    HW135238   3.415   0.605  21.253
 7870SOL    HW235239   3.286   0.548  21.308
 7871SOL     OW35240   3.287   3.515   0.145
 7871SOL    HW135241   3.266   3.559   0.227
 7871SOL    HW235242   3.271   3.422   0.163
 7872SOL     OW35243   1.837   2.785   4.432
 7872SOL    HW135244   1.908   2.725   4.407
 7872SOL    HW235245   1.760   2.729   4.438
 7873SOL     OW35246   3.655   3.304   4.263
 7873SOL    HW135247   3.727   3.367   4.261
 7873SOL    HW235248   3.598   3.330   4.191
 7874SOL     OW35249   1.215   4.093  21.635
 7874SOL    HW135250   1.252   4.124  21.718
 7874SOL    HW235251   1.157   4.163  21.607
 7875SOL     OW35252   3.085   2.913   4.487
 7875SOL    HW135253   3.113   2.999   4.457
 7875SOL    HW235254   3.163   2.858   4.479
 7876SOL     OW35255   2.730   2.963   2.964
 7876SOL    HW135256   2.780   3.008   3.032
 7876SOL    HW235257   2.797   2.930   2.904
 7877SOL     OW35258   4.035   0.775   3.732
 7877SOL    HW135259   4.022   0.685   3.702
 7877SOL    HW235260   4.002   0.829   3.661
 7878SOL     OW35261   3.880   0.456   3.225
 7878SOL    HW135262   3.900   0.407   3.305
 7878SOL    HW235263   3.787   0.439   3.209
 7879SOL     OW35264   3.448   3.452   2.504
 7879SOL    HW135265   3.535   3.416   2.519
 7879SOL    HW235266   3.459   3.513   2.431
 7880SOL     OW35267   3.000   4.285  27.091
 7880SOL    HW135268   2.913   4.298  27.129
 7880SOL    HW235269   3.042   4.221  27.148
 7881SOL     OW35270   4.516   2.088  18.816
 7881SOL    HW135271   4.496   2.110  18.907
 7881SOL    HW235272   4.591   2.029  18.822
 7882SOL     OW35273   2.901   4.441   3.386
 7882SOL    HW135274   2.940   4.421   3.301
 7882SOL    HW235275   2.906   4.536   3.392
 7883SOL     OW35276   4.176   4.689   6.067
 7883SOL    HW135277   4.183   4.774   6.024
 7883SOL    HW235278   4.210   4.626   6.003
 7884SOL     OW35279   2.155   0.705  20.126
 7884SOL    HW135280   2.212   0.774  20.161
 7884SOL    HW235281   2.073   0.715  20.174
 7885SOL     OW35282   1.370   3.334   1.081
 7885SOL    HW135283   1.464   3.350   1.076
 7885SOL    HW235284   1.360   3.269   1.150
 7886SOL     OW35285   0.129   2.152  17.034
 7886SOL    HW135286   0.213   2.190  17.008
 7886SOL    HW235287   0.124   2.069  16.988
 7887SOL     OW35288   1.699   4.453  26.218
 7887SOL    HW135289   1.645   4.501  26.281
 7887SOL    HW235290   1.637   4.397  26.170
 7888SOL     OW35291   4.772   0.826  27.449
 7888SOL    HW135292   0.017   0.918  27.439
 7888SOL    HW235293   0.053   0.778  27.394
 7889SOL     OW35294   0.105   4.494   8.993
 7889SOL    HW135295   0.043   4.425   8.971
 7889SOL    HW235296   0.131   4.530   8.908
 7890SOL     OW35297   1.361   3.579  26.478
 7890SOL    HW135298   1.387   3.491  26.451
 7890SOL    HW235299   1.352   3.627  26.396
 7891SOL     OW35300   1.527   0.644   5.361
 7891SOL    HW135301   1.491   0.726   5.328
 7891SOL    HW235302   1.461   0.612   5.423
 7892SOL     OW35303   3.416   4.344  25.835
 7892SOL    HW135304   3.436   4.406  25.765
 7892SOL    HW235305   3.499   4.299  25.851
 7893SOL     OW35306   1.639   3.038  23.505
 7893SOL    HW135307   1.672   2.956  23.542
 7893SOL    HW235308   1.628   3.020  23.412
 7894SOL     OW35309   3.821   3.410  25.778
 7894SOL    HW135310   3.774   3.368  25.850
 7894SOL    HW235311   3.767   3.393  25.701
 7895SOL     OW35312   1.404   1.886   4.380
 7895SOL    HW135313   1.366   1.861   4.464
 7895SOL    HW235314   1.451   1.967   4.398
 7896SOL     OW35315   3.198   3.100   7.984
 7896SOL    HW135316   3.273   3.160   7.980
 7896SOL    HW235317   3.175   3.083   7.893
 7897SOL     OW35318   0.613   1.816  26.918
 7897SOL    HW135319   0.597   1.722  26.920
 7897SOL    HW235320   0.577   1.848  27.001
 7898SOL     OW35321   3.486   1.432   4.690
 7898SOL    HW135322   3.506   1.525   4.700
 7898SOL    HW235323   3.454   1.405   4.776
 7899SOL     OW35324   0.780   0.757  21.637
 7899SOL    HW135325   0.721   0.681  21.633
 7899SOL    HW235326   0.858   0.729  21.590
 7900SOL     OW35327   4.047   1.725  11.945
 7900SOL    HW135328   4.128   1.685  11.913
 7900SOL    HW235329   4.075   1.785  12.014
 7901SOL     OW35330   2.022   3.442   5.380
 7901SOL    HW135331   2.110   3.443   5.342
 7901SOL    HW235332   2.018   3.520   5.435
 7902SOL     OW35333   4.000   3.791  20.710
 7902SOL    HW135334   3.958   3.759  20.630
 7902SOL    HW235335   3.936   3.852  20.747
 7903SOL     OW35336   0.935   1.985   7.729
 7903SOL    HW135337   0.915   2.068   7.772
 7903SOL    HW235338   1.009   1.949   7.779
 7904SOL     OW35339   3.216   3.522   8.057
 7904SOL    HW135340   3.139   3.567   8.023
 7904SOL    HW235341   3.199   3.512   8.151
 7905SOL     OW35342   2.535   0.116  21.785
 7905SOL    HW135343   2.597   0.177  21.745
 7905SOL    HW235344   2.455   0.126  21.733
 7906SOL     OW35345   3.719   3.735  19.277
 7906SOL    HW135346   3.748   3.747  19.368
 7906SOL    HW235347   3.711   3.824  19.243
 7907SOL     OW35348   4.190   3.091  22.611
 7907SOL    HW135349   4.135   3.168  22.626
 7907SOL    HW235350   4.271   3.110  22.658
 7908SOL     OW35351   0.995   0.363  16.973
 7908SOL    HW135352   1.066   0.375  16.910
 7908SOL    HW235353   0.996   0.269  16.993
 7909SOL     OW35354   3.824   1.528  11.931
 7909SOL    HW135355   3.737   1.491  11.944
 7909SOL    HW235356   3.878   1.486  11.997
 7910SOL     OW35357   1.088   3.506   0.087
 7910SOL    HW135358   1.133   3.437   0.136
 7910SOL    HW235359   1.050   3.562   0.155
 7911SOL     OW35360   1.082   2.174  20.311
 7911SOL    HW135361   1.076   2.086  20.273
 7911SOL    HW235362   1.000   2.185  20.360
 7912SOL     OW35363   1.756   1.150  25.101
 7912SOL    HW135364   1.702   1.158  25.179
 7912SOL    HW235365   1.713   1.082  25.049
 7913SOL     OW35366   4.721   1.866  26.927
 7913SOL    HW135367   4.708   1.834  26.838
 7913SOL    HW235368   4.655   1.820  26.978
 7914SOL     OW35369   2.375   2.601  10.350
 7914SOL    HW135370   2.311   2.620  10.281
 7914SOL    HW235371   2.459   2.595  10.304
 7915SOL     OW35372   3.520   2.389   0.446
 7915SOL    HW135373   3.457   2.342   0.501
 7915SOL    HW235374   3.598   2.334   0.447
 7916SOL     OW35375   1.305   4.200  21.869
 7916SOL    HW135376   1.292   4.294  21.860
 7916SOL    HW235377   1.361   4.190  21.946
 7917SOL     OW35378   4.525   0.097  27.458
 7917SOL    HW135379   4.474   0.171  27.424
 7917SOL    HW235380   4.477   0.069  27.536
 7918SOL     OW35381   4.530   1.528  26.298
 7918SOL    HW135382   4.495   1.443  26.272
 7918SOL    HW235383   4.625   1.516  26.300
 7919SOL     OW35384   1.308   3.667   7.545
 7919SOL    HW135385   1.283   3.740   7.602
 7919SOL    HW235386   1.338   3.709   7.464
 7920SOL     OW35387   3.232   1.726  22.566
 7920SOL    HW135388   3.219   1.749  22.474
 7920SOL    HW235389   3.146   1.737  22.606
 7921SOL     OW35390   0.545   0.632  24.838
 7921SOL    HW135391   0.497   0.661  24.916
 7921SOL    HW235392   0.546   0.537  24.844
 7922SOL     OW35393   2.502   4.187  11.031
 7922SOL    HW135394   2.423   4.234  11.059
 7922SOL    HW235395   2.571   4.221  11.088
 7923SOL     OW35396   4.249   2.750  25.169
 7923SOL    HW135397   4.318   2.792  25.220
 7923SOL    HW235398   4.291   2.728  25.086
 7924SOL     OW35399   3.875   3.741   0.663
 7924SOL    HW135400   3.784   3.715   0.675
 7924SOL    HW235401   3.885   3.818   0.719
 7925SOL     OW35402   1.301   1.029  17.587
 7925SOL    HW135403   1.327   0.938  17.575
 7925SOL    HW235404   1.222   1.039  17.533
 7926SOL     OW35405   4.427   3.049   0.148
 7926SOL    HW135406   4.457   3.117   0.208
 7926SOL    HW235407   4.425   3.091   0.062
 7927SOL     OW35408   1.066   1.508   7.291
 7927SOL    HW135409   1.146   1.508   7.343
 7927SOL    HW235410   1.030   1.420   7.302
 7928SOL     OW35411   3.391   3.114  19.172
 7928SOL    HW135412   3.327   3.043  19.175
 7928SOL    HW235413   3.475   3.069  19.167
 7929SOL     OW35414   2.415   3.051  25.773
 7929SOL    HW135415   2.412   2.959  25.748
 7929SOL    HW235416   2.471   3.092  25.707
 7930SOL     OW35417   0.630   4.059  22.650
 7930SOL    HW135418   0.550   4.020  22.614
 7930SOL    HW235419   0.687   4.071  22.574
 7931SOL     OW35420   2.188   3.470  28.422
 7931SOL    HW135421   2.268   3.495  28.376
 7931SOL    HW235422   2.217   3.443  28.509
 7932SOL     OW35423   4.379   0.837  27.722
 7932SOL    HW135424   4.304   0.849  27.781
 7932SOL    HW235425   4.441   0.785  27.773
 7933SOL     OW35426   2.230   3.553  27.237
 7933SOL    HW135427   2.229   3.476  27.181
 7933SOL    HW235428   2.159   3.539  27.299
 7934SOL     OW35429   1.146   3.548   8.372
 7934SOL    HW135430   1.135   3.533   8.466
 7934SOL    HW235431   1.189   3.468   8.340
 7935SOL     OW35432   1.249   0.361   7.193
 7935SOL    HW135433   1.178   0.349   7.256
 7935SOL    HW235434   1.276   0.272   7.170
 7936SOL     OW35435   2.572   0.361  27.125
 7936SOL    HW135436   2.643   0.316  27.170
 7936SOL    HW235437   2.587   0.342  27.032
 7937SOL     OW35438   2.393   3.472  10.382
 7937SOL    HW135439   2.318   3.495  10.327
 7937SOL    HW235440   2.359   3.404  10.441
 7938SOL     OW35441   1.390   4.035   2.154
 7938SOL    HW135442   1.314   4.087   2.129
 7938SOL    HW235443   1.451   4.044   2.081
 7939SOL     OW35444   3.153   3.826  20.388
 7939SOL    HW135445   3.121   3.844  20.300
 7939SOL    HW235446   3.089   3.765  20.425
 7940SOL     OW35447   4.485   4.538   8.703
 7940SOL    HW135448   4.442   4.452   8.698
 7940SOL    HW235449   4.577   4.520   8.686
 7941SOL     OW35450   3.513   2.436   7.490
 7941SOL    HW135451   3.553   2.522   7.476
 7941SOL    HW235452   3.585   2.374   7.476
 7942SOL     OW35453   4.105   2.425  23.302
 7942SOL    HW135454   4.174   2.417  23.236
 7942SOL    HW235455   4.152   2.433  23.385
 7943SOL     OW35456   2.693   4.391  26.243
 7943SOL    HW135457   2.651   4.474  26.220
 7943SOL    HW235458   2.786   4.413  26.253
 7944SOL     OW35459   1.012   4.703   7.289
 7944SOL    HW135460   0.937   4.751   7.254
 7944SOL    HW235461   0.998   4.613   7.260
 7945SOL     OW35462   1.722   4.193   6.179
 7945SOL    HW135463   1.723   4.279   6.138
 7945SOL    HW235464   1.770   4.137   6.118
 7946SOL     OW35465   0.300   3.398  22.798
 7946SOL    HW135466   0.243   3.465  22.836
 7946SOL    HW235467   0.310   3.425  22.707
 7947SOL     OW35468   3.433   0.562   4.080
 7947SOL    HW135469   3.473   0.538   4.164
 7947SOL    HW235470   3.455   0.655   4.069
 7948SOL     OW35471   2.807   3.147  20.794
 7948SOL    HW135472   2.763   3.204  20.732
 7948SOL    HW235473   2.740   3.085  20.821
 7949SOL     OW35474   3.724   2.383  19.699
 7949SOL    HW135475   3.695   2.449  19.762
 7949SOL    HW235476   3.684   2.301  19.728
 7950SOL     OW35477   3.389   4.665   6.360
 7950SOL    HW135478   3.338   4.640   6.283
 7950SOL    HW235479   3.446   4.590   6.377
 7951SOL     OW35480   3.175   3.496   6.180
 7951SOL    HW135481   3.192   3.535   6.266
 7951SOL    HW235482   3.092   3.534   6.152
 7952SOL     OW35483   1.884   1.207   6.211
 7952SOL    HW135484   1.938   1.230   6.136
 7952SOL    HW235485   1.864   1.291   6.253
 7953SOL     OW35486   4.751   0.788   3.507
 7953SOL    HW135487   4.763   0.879   3.481
 7953SOL    HW235488   0.032   0.739   3.453
 7954SOL     OW35489   3.250   0.402   0.161
 7954SOL    HW135490   3.179   0.364   0.109
 7954SOL    HW235491   3.217   0.402   0.251
 7955SOL     OW35492   4.296   3.840   3.543
 7955SOL    HW135493   4.337   3.857   3.458
 7955SOL    HW235494   4.368   3.812   3.599
 7956SOL     OW35495   0.660   3.263  18.669
 7956SOL    HW135496   0.696   3.266  18.580
 7956SOL    HW235497   0.585   3.203  18.662
 7957SOL     OW35498   2.713   4.512   8.103
 7957SOL    HW135499   2.658   4.507   8.181
 7957SOL    HW235500   2.655   4.546   8.035
 7958SOL     OW35501   3.298   2.074  18.213
 7958SOL    HW135502   3.274   1.996  18.162
 7958SOL    HW235503   3.245   2.067  18.293
 7959SOL     OW35504   3.161   3.449   3.477
 7959SOL    HW135505   3.186   3.455   3.385
 7959SOL    HW235506   3.090   3.513   3.486
 7960SOL     OW35507   3.892   2.510  25.030
 7960SOL    HW135508   3.952   2.535  25.100
 7960SOL    HW235509   3.850   2.592  25.003
 7961SOL     OW35510   4.078   0.343  25.734
 7961SOL    HW135511   4.066   0.436  25.756
 7961SOL    HW235512   4.008   0.298  25.782
 7962SOL     OW35513   0.394   1.952  20.877
 7962SOL    HW135514   0.407   2.016  20.807
 7962SOL    HW235515   0.348   2.001  20.945
 7963SOL     OW35516   3.471   0.791  23.335
 7963SOL    HW135517   3.439   0.878  23.311
 7963SOL    HW235518   3.395   0.748  23.373
 7964SOL     OW35519   4.497   0.351   3.075
 7964SOL    HW135520   4.551   0.428   3.056
 7964SOL    HW235521   4.410   0.386   3.092
 7965SOL     OW35522   2.881   3.594   4.219
 7965SOL    HW135523   2.789   3.607   4.196
 7965SOL    HW235524   2.879   3.562   4.309
 7966SOL     OW35525   2.030   1.150   2.064
 7966SOL    HW135526   2.073   1.225   2.023
 7966SOL    HW235527   2.074   1.140   2.148
 7967SOL     OW35528   1.614   3.579  24.229
 7967SOL    HW135529   1.556   3.635  24.177
 7967SOL    HW235530   1.675   3.542  24.166
 7968SOL     OW35531   0.095   0.319   6.202
 7968SOL    HW135532   0.055   0.241   6.165
 7968SOL    HW235533   0.047   0.335   6.283
 7969SOL     OW35534   3.947   0.612  21.453
 7969SOL    HW135535   3.882   0.544  21.439
 7969SOL    HW235536   3.950   0.624  21.548
 7970SOL     OW35537   1.483   3.023   1.021
 7970SOL    HW135538   1.544   3.082   0.976
 7970SOL    HW235539   1.488   3.048   1.113
 7971SOL     OW35540   3.773   1.788  12.053
 7971SOL    HW135541   3.683   1.820  12.043
 7971SOL    HW235542   3.793   1.802  12.146
 7972SOL     OW35543   0.575   3.747   3.856
 7972SOL    HW135544   0.508   3.806   3.889
 7972SOL    HW235545   0.619   3.797   3.787
 7973SOL     OW35546   4.094   2.986  25.222
 7973SOL    HW135547   4.143   2.907  25.198
 7973SOL    HW235548   4.023   2.990  25.158
 7974SOL     OW35549   1.338   3.860   9.337
 7974SOL    HW135550   1.340   3.815   9.253
 7974SOL    HW235551   1.262   3.917   9.332
 7975SOL     OW35552   1.104   1.564   5.362
 7975SOL    HW135553   1.072   1.613   5.286
 7975SOL    HW235554   1.175   1.510   5.327
 7976SOL     OW35555   0.690   1.120  26.271
 7976SOL    HW135556   0.641   1.106  26.190
 7976SOL    HW235557   0.762   1.178  26.246
 7977SOL     OW35558   0.351   1.830   4.872
 7977SOL    HW135559   0.282   1.864   4.930
 7977SOL    HW235560   0.364   1.740   4.900
 7978SOL     OW35561   4.611   0.079  28.480
 7978SOL    HW135562   4.701   0.046  28.490
 7978SOL    HW235563   4.556   0.005  28.506
 7979SOL     OW35564   2.117   4.334  22.208
 7979SOL    HW135565   2.044   4.364  22.153
 7979SOL    HW235566   2.076   4.279  22.274
 7980SOL     OW35567   3.670   2.239  26.036
 7980SOL    HW135568   3.648   2.146  26.028
 7980SOL    HW235569   3.708   2.262  25.951
 7981SOL     OW35570   3.976   3.300   2.503
 7981SOL    HW135571   3.913   3.306   2.431
 7981SOL    HW235572   3.926   3.263   2.576
 7982SOL     OW35573   3.725   0.386   9.006
 7982SOL    HW135574   3.640   0.399   9.047
 7982SOL    HW235575   3.771   0.469   9.019
 7983SOL     OW35576   3.906   2.825   3.205
 7983SOL    HW135577   3.968   2.876   3.256
 7983SOL    HW235578   3.844   2.890   3.171
 7984SOL     OW35579   1.561   4.041   8.331
 7984SOL    HW135580   1.563   3.948   8.352
 7984SOL    HW235581   1.474   4.069   8.359
 7985SOL     OW35582   0.188   2.127   7.540
 7985SOL    HW135583   0.221   2.201   7.591
 7985SOL    HW235584   0.244   2.053   7.564
 7986SOL     OW35585   4.155   3.983   2.967
 7986SOL    HW135586   4.061   3.982   2.986
 7986SOL    HW235587   4.197   3.985   3.053
 7987SOL     OW35588   1.408   3.263   1.748
 7987SOL    HW135589   1.477   3.201   1.772
 7987SOL    HW235590   1.416   3.334   1.812
 7988SOL     OW35591   4.091   0.331  23.516
 7988SOL    HW135592   4.003   0.297  23.533
 7988SOL    HW235593   4.081   0.385  23.437
 7989SOL     OW35594   3.579   0.294  21.111
 7989SOL    HW135595   3.599   0.209  21.150
 7989SOL    HW235596   3.574   0.277  21.017
 7990SOL     OW35597   0.309   3.650   6.561
 7990SOL    HW135598   0.230   3.685   6.520
 7990SOL    HW235599   0.277   3.601   6.637
 7991SOL     OW35600   0.153   4.321   8.137
 7991SOL    HW135601   0.126   4.231   8.121
 7991SOL    HW235602   0.144   4.365   8.052
 7992SOL     OW35603   1.496   0.881   5.214
 7992SOL    HW135604   1.450   0.942   5.272
 7992SOL    HW235605   1.565   0.934   5.173
 7993SOL     OW35606   0.948   2.433  23.433
 7993SOL    HW135607   0.876   2.488  23.402
 7993SOL    HW235608   0.905   2.356  23.471
 7994SOL     OW35609   0.874   4.001   5.491
 7994SOL    HW135610   0.843   3.920   5.531
 7994SOL    HW235611   0.800   4.061   5.498
 7995SOL     OW35612   3.919   1.317  24.004
 7995SOL    HW135613   3.906   1.379  24.076
 7995SOL    HW235614   3.845   1.332  23.945
 7996SOL     OW35615   3.853   3.388  21.102
 7996SOL    HW135616   3.845   3.392  21.007
 7996SOL    HW235617   3.929   3.332  21.118
 7997SOL     OW35618   3.464   4.714  25.919
 7997SOL    HW135619   3.520   0.011  25.915
 7997SOL    HW235620   3.459   4.683  25.828
 7998SOL     OW35621   2.089   4.327  24.139
 7998SOL    HW135622   2.061   4.323  24.047
 7998SOL    HW235623   2.034   4.262  24.183
 7999SOL     OW35624   2.791   0.022  26.350
 7999SOL    HW135625   2.825   4.754  26.425
 7999SOL    HW235626   2.850   4.781  26.278
 8000SOL     OW35627   1.346   0.586   0.230
 8000SOL    HW135628   1.413   0.619   0.171
 8000SOL    HW235629   1.394   0.538   0.297
 8001SOL     OW35630   1.508   4.419  11.650
 8001SOL    HW135631   1.561   4.476  11.595
 8001SOL    HW235632   1.473   4.477  11.718
 8002SOL     OW35633   0.939   4.580   9.030
 8002SOL    HW135634   1.004   4.520   8.995
 8002SOL    HW235635   0.976   4.609   9.114
 8003SOL     OW35636   1.212   3.035   5.817
 8003SOL    HW135637   1.162   2.977   5.760
 8003SOL    HW235638   1.149   3.065   5.882
 8004SOL     OW35639   2.920   1.259  22.662
 8004SOL    HW135640   2.880   1.311  22.593
 8004SOL    HW235641   2.848   1.238  22.722
 8005SOL     OW35642   0.329   2.200  25.169
 8005SOL    HW135643   0.284   2.230  25.090
 8005SOL    HW235644   0.271   2.224  25.241
 8006SOL     OW35645   3.394   0.787   8.477
 8006SOL    HW135646   3.476   0.834   8.462
 8006SOL    HW235647   3.416   0.720   8.542
 8007SOL     OW35648   3.928   0.870  25.304
 8007SOL    HW135649   3.968   0.805  25.362
 8007SOL    HW235650   3.930   0.951  25.355
 8008SOL     OW35651   3.126   2.930  19.976
 8008SOL    HW135652   3.139   2.863  20.043
 8008SOL    HW235653   3.214   2.963  19.959
 8009SOL     OW35654   1.472   2.783   5.009
 8009SOL    HW135655   1.401   2.810   4.951
 8009SOL    HW235656   1.430   2.774   5.095
 8010SOL     OW35657   2.623   2.949  11.894
 8010SOL    HW135658   2.529   2.965  11.883
 8010SOL    HW235659   2.655   2.931  11.806
 8011SOL     OW35660   2.912   1.339  24.759
 8011SOL    HW135661   2.892   1.432  24.748
 8011SOL    HW235662   2.908   1.303  24.670
 8012SOL     OW35663   4.226   3.427  21.583
 8012SOL    HW135664   4.153   3.377  21.619
 8012SOL    HW235665   4.226   3.405  21.490
 8013SOL     OW35666   0.898   0.206  26.260
 8013SOL    HW135667   0.935   0.121  26.238
 8013SOL    HW235668   0.858   0.194  26.346
 8014SOL     OW35669   1.308   0.754  23.753
 8014SOL    HW135670   1.320   0.660  23.737
 8014SOL    HW235671   1.233   0.759  23.812
 8015SOL     OW35672   1.415   0.460  27.016
 8015SOL    HW135673   1.442   0.478  26.926
 8015SOL    HW235674   1.323   0.485  27.018
 8016SOL     OW35675   4.498   3.247   1.193
 8016SOL    HW135676   4.507   3.211   1.105
 8016SOL    HW235677   4.504   3.342   1.181
 8017SOL     OW35678   1.836   0.354  20.809
 8017SOL    HW135679   1.787   0.273  20.825
 8017SOL    HW235680   1.781   0.404  20.749
 8018SOL     OW35681   2.823   3.737   5.386
 8018SOL    HW135682   2.779   3.812   5.347
 8018SOL    HW235683   2.762   3.705   5.452
 8019SOL     OW35684   4.671   3.202   4.884
 8019SOL    HW135685   4.680   3.237   4.973
 8019SOL    HW235686   4.728   3.126   4.882
 8020SOL     OW35687   3.456   3.585   1.603
 8020SOL    HW135688   3.444   3.497   1.568
 8020SOL    HW235689   3.449   3.574   1.698
 8021SOL     OW35690   0.884   3.929  28.309
 8021SOL    HW135691   0.791   3.948  28.316
 8021SOL    HW235692   0.887   3.843  28.266
 8022SOL     OW35693   4.521   0.614  25.811
 8022SOL    HW135694   4.575   0.609  25.890
 8022SOL    HW235695   4.445   0.558  25.831
 8023SOL     OW35696   3.592   2.023  21.466
 8023SOL    HW135697   3.560   1.988  21.383
 8023SOL    HW235698   3.632   1.948  21.509
 8024SOL     OW35699   2.400   1.517   4.907
 8024SOL    HW135700   2.479   1.488   4.953
 8024SOL    HW235701   2.371   1.439   4.859
 8025SOL     OW35702   2.141   3.981   6.808
 8025SOL    HW135703   2.222   3.955   6.764
 8025SOL    HW235704   2.101   4.045   6.749
 8026SOL     OW35705   0.943   4.662   2.658
 8026SOL    HW135706   0.860   4.669   2.611
 8026SOL    HW235707   0.987   4.745   2.640
 8027SOL     OW35708   3.899   4.220  27.361
 8027SOL    HW135709   3.831   4.266  27.410
 8027SOL    HW235710   3.945   4.289  27.314
 8028SOL     OW35711   0.836   4.548   4.553
 8028SOL    HW135712   0.775   4.482   4.587
 8028SOL    HW235713   0.795   4.632   4.574
 8029SOL     OW35714   2.253   2.622  23.817
 8029SOL    HW135715   2.277   2.637  23.908
 8029SOL    HW235716   2.326   2.658  23.767
 8030SOL     OW35717   0.526   0.983   7.952
 8030SOL    HW135718   0.462   0.914   7.937
 8030SOL    HW235719   0.582   0.982   7.874
 8031SOL     OW35720   3.449   2.896  27.427
 8031SOL    HW135721   3.526   2.952  27.414
 8031SOL    HW235722   3.374   2.955  27.417
 8032SOL     OW35723   3.934   1.649  11.699
 8032SOL    HW135724   4.029   1.659  11.707
 8032SOL    HW235725   3.922   1.566  11.654
 8033SOL     OW35726   1.157   2.148  20.805
 8033SOL    HW135727   1.110   2.231  20.802
 8033SOL    HW235728   1.199   2.141  20.719
 8034SOL     OW35729   0.528   0.377  28.493
 8034SOL    HW135730   0.605   0.412  28.448
 8034SOL    HW235731   0.533   0.414   0.059
 8035SOL     OW35732   2.042   2.937  19.957
 8035SOL    HW135733   2.028   2.849  19.922
 8035SOL    HW235734   2.020   2.996  19.884
 8036SOL     OW35735   4.422   4.457   2.236
 8036SOL    HW135736   4.402   4.540   2.279
 8036SOL    HW235737   4.516   4.444   2.252
 8037SOL     OW35738   4.333   0.349  17.474
 8037SOL    HW135739   4.395   0.360  17.546
 8037SOL    HW235740   4.383   0.373  17.396
 8038SOL     OW35741   1.317   1.876   3.971
 8038SOL    HW135742   1.242   1.826   3.939
 8038SOL    HW235743   1.355   1.821   4.040
 8039SOL     OW35744   2.652   1.785   8.792
 8039SOL    HW135745   2.703   1.866   8.790
 8039SOL    HW235746   2.631   1.772   8.885
 8040SOL     OW35747   4.337   0.662   8.553
 8040SOL    HW135748   4.341   0.577   8.598
 8040SOL    HW235749   4.245   0.687   8.558
 8041SOL     OW35750   2.299   1.719  23.427
 8041SOL    HW135751   2.291   1.792  23.488
 8041SOL    HW235752   2.373   1.743  23.371
 8042SOL     OW35753   0.433   4.204   7.036
 8042SOL    HW135754   0.445   4.169   6.948
 8042SOL    HW235755   0.365   4.271   7.026
 8043SOL     OW35756   1.110   1.747  26.693
 8043SOL    HW135757   1.187   1.692  26.707
 8043SOL    HW235758   1.036   1.692  26.720
 8044SOL     OW35759   1.463   1.122   7.869
 8044SOL    HW135760   1.543   1.171   7.850
 8044SOL    HW235761   1.486   1.065   7.942
 8045SOL     OW35762   1.308   1.024  22.782
 8045SOL    HW135763   1.387   1.020  22.728
 8045SOL    HW235764   1.283   0.932  22.794
 8046SOL     OW35765   0.615   0.274  27.295
 8046SOL    HW135766   0.521   0.258  27.292
 8046SOL    HW235767   0.634   0.287  27.388
 8047SOL     OW35768   1.751   0.863  25.370
 8047SOL    HW135769   1.735   0.806  25.295
 8047SOL    HW235770   1.675   0.851  25.426
 8048SOL     OW35771   2.465   4.280   0.073
 8048SOL    HW135772   2.497   4.265  28.506
 8048SOL    HW235773   2.408   4.205   0.091
 8049SOL     OW35774   4.541   2.128   2.293
 8049SOL    HW135775   4.603   2.200   2.307
 8049SOL    HW235776   4.538   2.083   2.377
 8050SOL     OW35777   1.373   3.660   1.436
 8050SOL    HW135778   1.315   3.623   1.370
 8050SOL    HW235779   1.411   3.584   1.480
 8051SOL     OW35780   1.402   1.289   4.982
 8051SOL    HW135781   1.373   1.373   4.947
 8051SOL    HW235782   1.324   1.252   5.024
 8052SOL     OW35783   4.445   2.965   8.117
 8052SOL    HW135784   4.470   2.883   8.160
 8052SOL    HW235785   4.356   2.950   8.086
 8053SOL     OW35786   4.523   3.879   9.111
 8053SOL    HW135787   4.577   3.890   9.189
 8053SOL    HW235788   4.579   3.831   9.050
 8054SOL     OW35789   1.113   3.551   7.965
 8054SOL    HW135790   1.208   3.538   7.962
 8054SOL    HW235791   1.090   3.583   7.878
 8055SOL     OW35792   3.716   2.870  27.075
 8055SOL    HW135793   3.652   2.823  27.129
 8055SOL    HW235794   3.788   2.808  27.063
 8056SOL     OW35795   4.628   1.662   9.824
 8056SOL    HW135796   4.543   1.707   9.829
 8056SOL    HW235797   4.657   1.677   9.734
 8057SOL     OW35798   3.331   2.500   4.506
 8057SOL    HW135799   3.403   2.549   4.545
 8057SOL    HW235800   3.372   2.421   4.471
 8058SOL     OW35801   3.094   4.353  26.842
 8058SOL    HW135802   3.075   4.363  26.935
 8058SOL    HW235803   3.189   4.338  26.838
 8059SOL     OW35804   2.925   1.953   5.929
 8059SOL    HW135805   2.928   1.869   5.974
 8059SOL    HW235806   2.938   1.931   5.837
 8060SOL     OW35807   2.970   1.327  27.124
 8060SOL    HW135808   2.942   1.360  27.038
 8060SOL    HW235809   3.062   1.352  27.130
 8061SOL     OW35810   0.032   3.474  22.845
 8061SOL    HW135811   0.009   3.468  22.752
 8061SOL    HW235812   4.766   3.551  22.876
 8062SOL     OW35813   0.894   1.336  20.376
 8062SOL    HW135814   0.927   1.425  20.366
 8062SOL    HW235815   0.933   1.305  20.458
 8063SOL     OW35816   1.183   4.239   7.354
 8063SOL    HW135817   1.243   4.175   7.316
 8063SOL    HW235818   1.097   4.216   7.318
 8064SOL     OW35819   3.156   0.441   5.168
 8064SOL    HW135820   3.093   0.500   5.127
 8064SOL    HW235821   3.191   0.389   5.095
 8065SOL     OW35822   0.448   4.233  22.390
 8065SOL    HW135823   0.364   4.208  22.429
 8065SOL    HW235824   0.474   4.312  22.437
 8066SOL     OW35825   2.714   4.010  10.168
 8066SOL    HW135826   2.757   4.057  10.097
 8066SOL    HW235827   2.757   4.042  10.247
 8067SOL     OW35828   2.402   0.822   3.274
 8067SOL    HW135829   2.388   0.751   3.211
 8067SOL    HW235830   2.472   0.790   3.331
 8068SOL     OW35831   3.200   0.605   5.933
 8068SOL    HW135832   3.205   0.556   6.015
 8068SOL    HW235833   3.183   0.695   5.960
 8069SOL     OW35834   3.908   4.751  25.122
 8069SOL    HW135835   3.827   4.750  25.071
 8069SOL    HW235836   3.911   4.665  25.163
 8070SOL     OW35837   1.111   0.661   4.585
 8070SOL    HW135838   1.078   0.671   4.674
 8070SOL    HW235839   1.198   0.622   4.595
 8071SOL     OW35840   1.882   4.564  10.089
 8071SOL    HW135841   1.888   4.650  10.131
 8071SOL    HW235842   1.836   4.509  10.152
 8072SOL     OW35843   1.947   4.461   6.849
 8072SOL    HW135844   1.942   4.474   6.944
 8072SOL    HW235845   1.857   4.442   6.823
 8073SOL     OW35846   1.014   2.174  22.363
 8073SOL    HW135847   0.922   2.147  22.355
 8073SOL    HW235848   1.063   2.103  22.322
 8074SOL     OW35849   1.002   1.817  26.417
 8074SOL    HW135850   1.017   1.768  26.498
 8074SOL    HW235851   0.929   1.876  26.438
 8075SOL     OW35852   3.953   3.011   5.521
 8075SOL    HW135853   4.041   3.036   5.492
 8075SOL    HW235854   3.965   2.980   5.611
 8076SOL     OW35855   4.207   4.120  22.795
 8076SOL    HW135856   4.296   4.108  22.761
 8076SOL    HW235857   4.205   4.210  22.827
 8077SOL     OW35858   2.245   1.352  27.526
 8077SOL    HW135859   2.271   1.377  27.437
 8077SOL    HW235860   2.305   1.401  27.583
 8078SOL     OW35861   3.253   3.848   9.814
 8078SOL    HW135862   3.233   3.760   9.845
 8078SOL    HW235863   3.337   3.839   9.769
 8079SOL     OW35864   2.545   4.200   5.287
 8079SOL    HW135865   2.614   4.250   5.331
 8079SOL    HW235866   2.498   4.156   5.358
 8080SOL     OW35867   0.886   2.472  20.333
 8080SOL    HW135868   0.970   2.496  20.373
 8080SOL    HW235869   0.868   2.385  20.368
 8081SOL     OW35870   1.077   3.678  10.240
 8081SOL    HW135871   1.046   3.668  10.330
 8081SOL    HW235872   1.092   3.589  10.209
 8082SOL     OW35873   0.196   1.136  20.401
 8082SOL    HW135874   0.251   1.059  20.416
 8082SOL    HW235875   0.248   1.209  20.435
 8083SOL     OW35876   2.129   1.170   1.299
 8083SOL    HW135877   2.190   1.239   1.273
 8083SOL    HW235878   2.147   1.156   1.392
 8084SOL     OW35879   1.818   2.853   7.274
 8084SOL    HW135880   1.891   2.895   7.320
 8084SOL    HW235881   1.854   2.830   7.188
 8085SOL     OW35882   2.346   0.975   5.628
 8085SOL    HW135883   2.394   0.893   5.641
 8085SOL    HW235884   2.264   0.948   5.587
 8086SOL     OW35885   3.481   1.261  17.133
 8086SOL    HW135886   3.423   1.192  17.164
 8086SOL    HW235887   3.475   1.257  17.038
 8087SOL     OW35888   4.178   1.907  24.906
 8087SOL    HW135889   4.110   1.943  24.849
 8087SOL    HW235890   4.218   1.838  24.853
 8088SOL     OW35891   0.874   2.212  26.955
 8088SOL    HW135892   0.920   2.189  27.036
 8088SOL    HW235893   0.781   2.205  26.977
 8089SOL     OW35894   4.672   1.625   9.550
 8089SOL    HW135895   4.617   1.690   9.506
 8089SOL    HW235896   4.614   1.550   9.563
 8090SOL     OW35897   0.299   3.981   5.391
 8090SOL    HW135898   0.261   3.901   5.428
 8090SOL    HW235899   0.281   3.975   5.297
 8091SOL     OW35900   3.885   1.911  11.804
 8091SOL    HW135901   3.815   1.976  11.797
 8091SOL    HW235902   3.960   1.952  11.760
 8092SOL     OW35903   4.372   4.642   5.374
 8092SOL    HW135904   4.420   4.721   5.398
 8092SOL    HW235905   4.335   4.662   5.288
 8093SOL     OW35906   4.228   1.294  28.415
 8093SOL    HW135907   4.179   1.270  28.493
 8093SOL    HW235908   4.165   1.340  28.360
 8094SOL     OW35909   1.418   2.661   5.287
 8094SOL    HW135910   1.332   2.623   5.303
 8094SOL    HW235911   1.468   2.591   5.244
 8095SOL     OW35912   2.115   3.605  25.729
 8095SOL    HW135913   2.038   3.639  25.683
 8095SOL    HW235914   2.114   3.511  25.711
 8096SOL     OW35915   2.802   4.277   1.355
 8096SOL    HW135916   2.804   4.281   1.259
 8096SOL    HW235917   2.810   4.368   1.383
 8097SOL     OW35918   4.495   3.168  26.270
 8097SOL    HW135919   4.481   3.079  26.301
 8097SOL    HW235920   4.582   3.166  26.229
 8098SOL     OW35921   1.950   3.212   4.547
 8098SOL    HW135922   1.926   3.146   4.482
 8098SOL    HW235923   1.870   3.263   4.559
 8099SOL     OW35924   1.419   4.664   6.583
 8099SOL    HW135925   1.363   4.666   6.505
 8099SOL    HW235926   1.361   4.690   6.654
 8100SOL     OW35927   2.810   1.410  19.470
 8100SOL    HW135928   2.790   1.317  19.461
 8100SOL    HW235929   2.831   1.439  19.381
 8101SOL     OW35930   1.100   3.004  12.862
 8101SOL    HW135931   1.111   2.909  12.868
 8101SOL    HW235932   1.138   3.038  12.943
 8102SOL     OW35933   2.091   3.569   3.590
 8102SOL    HW135934   2.021   3.549   3.653
 8102SOL    HW235935   2.116   3.659   3.610
 8103SOL     OW35936   4.212   4.522   7.538
 8103SOL    HW135937   4.294   4.530   7.587
 8103SOL    HW235938   4.173   4.609   7.543
 8104SOL     OW35939   0.971   2.841  25.676
 8104SOL    HW135940   0.991   2.794  25.757
 8104SOL    HW235941   0.876   2.832  25.666
 8105SOL     OW35942   3.626   1.309  18.878
 8105SOL    HW135943   3.664   1.248  18.815
 8105SOL    HW235944   3.687   1.308  18.952
 8106SOL     OW35945   4.179   2.177  25.685
 8106SOL    HW135946   4.192   2.249  25.746
 8106SOL    HW235947   4.148   2.105  25.739
 8107SOL     OW35948   2.494   3.724   7.779
 8107SOL    HW135949   2.457   3.677   7.854
 8107SOL    HW235950   2.543   3.658   7.731
 8108SOL     OW35951   1.998   1.230   4.432
 8108SOL    HW135952   2.005   1.215   4.338
 8108SOL    HW235953   1.982   1.324   4.441
 8109SOL     OW35954   0.894   0.051  27.674
 8109SOL    HW135955   0.931   0.113  27.737
 8109SOL    HW235956   0.957   0.049  27.602
 8110SOL     OW35957   2.272   4.231   7.624
 8110SOL    HW135958   2.363   4.247   7.598
 8110SOL    HW235959   2.225   4.311   7.601
 8111SOL     OW35960   2.528   3.527  19.786
 8111SOL    HW135961   2.564   3.581  19.716
 8111SOL    HW235962   2.573   3.443  19.778
 8112SOL     OW35963   2.788   0.234  25.497
 8112SOL    HW135964   2.848   0.306  25.476
 8112SOL    HW235965   2.711   0.252  25.443
 8113SOL     OW35966   1.327   2.640  26.486
 8113SOL    HW135967   1.322   2.608  26.396
 8113SOL    HW235968   1.383   2.577  26.530
 8114SOL     OW35969   1.992   3.835   8.768
 8114SOL    HW135970   1.968   3.922   8.737
 8114SOL    HW235971   2.078   3.818   8.730
 8115SOL     OW35972   3.393   0.156  22.214
 8115SOL    HW135973   3.462   0.201  22.263
 8115SOL    HW235974   3.434   0.075  22.184
 8116SOL     OW35975   1.715   2.685   7.619
 8116SOL    HW135976   1.787   2.622   7.614
 8116SOL    HW235977   1.687   2.682   7.710
 8117SOL     OW35978   4.449   1.909  27.660
 8117SOL    HW135979   4.378   1.872  27.712
 8117SOL    HW235980   4.511   1.943  27.724
 8118SOL     OW35981   0.278   2.543  26.621
 8118SOL    HW135982   0.183   2.537  26.610
 8118SOL    HW235983   0.311   2.456  26.598
 8119SOL     OW35984   4.099   4.049  25.389
 8119SOL    HW135985   4.027   4.102  25.355
 8119SOL    HW235986   4.072   3.959  25.371
 8120SOL     OW35987   3.158   0.330   8.558
 8120SOL    HW135988   3.136   0.238   8.570
 8120SOL    HW235989   3.242   0.329   8.511
 8121SOL     OW35990   3.203   1.285  21.397
 8121SOL    HW135991   3.140   1.331  21.452
 8121SOL    HW235992   3.228   1.349  21.330
 8122SOL     OW35993   0.934   2.131   4.004
 8122SOL    HW135994   0.898   2.101   3.921
 8122SOL    HW235995   0.959   2.051   4.050
 8123SOL     OW35996   2.706   0.935   4.004
 8123SOL    HW135997   2.668   0.902   4.086
 8123SOL    HW235998   2.764   1.006   4.031
 8124SOL     OW35999   4.430   4.637  21.153
 8124SOL    HW136000   4.395   4.580  21.222
 8124SOL    HW236001   4.353   4.680  21.117
 8125SOL     OW36002   3.909   3.950  26.616
 8125SOL    HW136003   3.898   3.896  26.537
 8125SOL    HW236004   3.849   4.023  26.604
 8126SOL     OW36005   3.203   0.772  26.150
 8126SOL    HW136006   3.151   0.699  26.116
 8126SOL    HW236007   3.180   0.777  26.243
 8127SOL     OW36008   4.666   4.639  19.156
 8127SOL    HW136009   4.582   4.593  19.150
 8127SOL    HW236010   4.729   4.577  19.119
 8128SOL     OW36011   3.667   1.724  11.803
 8128SOL    HW136012   3.644   1.714  11.711
 8128SOL    HW236013   3.583   1.736  11.847
 8129SOL     OW36014   4.259   1.720   2.089
 8129SOL    HW136015   4.342   1.734   2.134
 8129SOL    HW236016   4.193   1.761   2.145
 8130SOL     OW36017   4.371   4.569   4.728
 8130SOL    HW136018   4.362   4.505   4.657
 8130SOL    HW236019   4.292   4.558   4.781
 8131SOL     OW36020   4.513   4.488  11.354
 8131SOL    HW136021   4.438   4.433  11.376
 8131SOL    HW236022   4.494   4.572  11.395
 8132SOL     OW36023   4.202   3.727  26.557
 8132SOL    HW136024   4.123   3.717  26.610
 8132SOL    HW236025   4.232   3.816  26.574
 8133SOL     OW36026   0.368   4.475  27.180
 8133SOL    HW136027   0.279   4.441  27.185
 8133SOL    HW236028   0.381   4.521  27.263
 8134SOL     OW36029   0.936   2.430  20.891
 8134SOL    HW136030   0.915   2.351  20.941
 8134SOL    HW236031   1.019   2.460  20.928
 8135SOL     OW36032   2.569   0.234  25.877
 8135SOL    HW136033   2.569   0.319  25.922
 8135SOL    HW236034   2.478   0.204  25.883
 8136SOL     OW36035   3.298   4.001  27.227
 8136SOL    HW136036   3.383   4.018  27.267
 8136SOL    HW236037   3.310   4.023  27.135
 8137SOL     OW36038   3.653   3.046  11.699
 8137SOL    HW136039   3.628   3.138  11.708
 8137SOL    HW236040   3.745   3.049  11.673
 8138SOL     OW36041   3.546   0.845   6.296
 8138SOL    HW136042   3.584   0.923   6.255
 8138SOL    HW236043   3.542   0.780   6.226
 8139SOL     OW36044   1.323   0.253   9.157
 8139SOL    HW136045   1.347   0.196   9.084
 8139SOL    HW236046   1.276   0.326   9.116
 8140SOL     OW36047   4.339   3.470   4.758
 8140SOL    HW136048   4.307   3.484   4.669
 8140SOL    HW236049   4.396   3.393   4.751
 8141SOL     OW36050   0.763   4.779  20.282
 8141SOL    HW136051   0.792   4.704  20.333
 8141SOL    HW236052   0.701   0.044  20.339
 8142SOL     OW36053   2.096   0.017   9.380
 8142SOL    HW136054   2.032   0.036   9.449
 8142SOL    HW236055   2.139   0.101   9.363
 8143SOL     OW36056   4.363   0.035   7.304
 8143SOL    HW136057   4.339   4.724   7.291
 8143SOL    HW236058   4.451   0.043   7.266
 8144SOL     OW36059   1.167   2.792   1.689
 8144SOL    HW136060   1.143   2.804   1.781
 8144SOL    HW236061   1.249   2.840   1.679
 8145SOL     OW36062   2.518   1.619   3.736
 8145SOL    HW136063   2.522   1.556   3.808
 8145SOL    HW236064   2.431   1.608   3.699
 8146SOL     OW36065   1.872   0.435  27.875
 8146SOL    HW136066   1.945   0.373  27.875
 8146SOL    HW236067   1.909   0.517  27.908
 8147SOL     OW36068   0.588   3.677   0.598
 8147SOL    HW136069   0.561   3.624   0.523
 8147SOL    HW236070   0.668   3.721   0.569
 8148SOL     OW36071   2.980   0.088   7.923
 8148SOL    HW136072   2.965   0.013   7.865
 8148SOL    HW236073   2.903   0.089   7.980
 8149SOL     OW36074   4.245   0.688  26.040
 8149SOL    HW136075   4.219   0.674  25.949
 8149SOL    HW236076   4.211   0.612  26.087
 8150SOL     OW36077   1.484   0.533   1.234
 8150SOL    HW136078   1.404   0.516   1.285
 8150SOL    HW236079   1.473   0.482   1.154
 8151SOL     OW36080   3.001   0.109  28.176
 8151SOL    HW136081   3.060   0.082  28.106
 8151SOL    HW236082   2.917   0.122  28.132
 8152SOL     OW36083   1.281   3.642  24.323
 8152SOL    HW136084   1.272   3.547  24.330
 8152SOL    HW236085   1.198   3.677  24.356
 8153SOL     OW36086   1.940   2.625  12.743
 8153SOL    HW136087   1.888   2.676  12.805
 8153SOL    HW236088   1.913   2.534  12.757
 8154SOL     OW36089   0.846   3.503   0.634
 8154SOL    HW136090   0.882   3.569   0.693
 8154SOL    HW236091   0.784   3.551   0.579
 8155SOL     OW36092   0.972   0.870  23.600
 8155SOL    HW136093   0.965   0.849  23.693
 8155SOL    HW236094   0.883   0.895  23.575
 8156SOL     OW36095   0.452   2.924   6.698
 8156SOL    HW136096   0.394   2.999   6.683
 8156SOL    HW236097   0.455   2.914   6.793
 8157SOL     OW36098   0.336   1.405  24.841
 8157SOL    HW136099   0.323   1.397  24.936
 8157SOL    HW236100   0.422   1.447  24.832
 8158SOL     OW36101   3.425   1.718   6.014
 8158SOL    HW136102   3.415   1.810   5.990
 8158SOL    HW236103   3.442   1.720   6.108
 8159SOL     OW36104   1.593   1.453  18.156
 8159SOL    HW136105   1.536   1.432  18.082
 8159SOL    HW236106   1.599   1.372  18.206
 8160SOL     OW36107   3.390   3.704   7.181
 8160SOL    HW136108   3.304   3.745   7.177
 8160SOL    HW236109   3.373   3.610   7.174
 8161SOL     OW36110   2.216   2.789  22.545
 8161SOL    HW136111   2.186   2.707  22.584
 8161SOL    HW236112   2.311   2.786  22.551
 8162SOL     OW36113   2.566   1.454   0.383
 8162SOL    HW136114   2.623   1.447   0.306
 8162SOL    HW236115   2.617   1.415   0.454
 8163SOL     OW36116   4.262   0.130  23.431
 8163SOL    HW136117   4.237   0.208  23.481
 8163SOL    HW236118   4.358   0.133  23.428
 8164SOL     OW36119   0.233   4.474   9.244
 8164SOL    HW136120   0.181   4.538   9.292
 8164SOL    HW236121   0.202   4.481   9.154
 8165SOL     OW36122   3.708   4.396  27.824
 8165SOL    HW136123   3.798   4.429  27.817
 8165SOL    HW236124   3.657   4.450  27.764
 8166SOL     OW36125   2.745   1.789  21.215
 8166SOL    HW136126   2.791   1.771  21.297
 8166SOL    HW236127   2.652   1.788  21.239
 8167SOL     OW36128   3.638   3.267   6.052
 8167SOL    HW136129   3.616   3.246   5.961
 8167SOL    HW236130   3.728   3.236   6.063
 8168SOL     OW36131   3.663   3.293   6.569
 8168SOL    HW136132   3.643   3.338   6.487
 8168SOL    HW236133   3.641   3.356   6.638
 8169SOL     OW36134   0.011   0.004  10.359
 8169SOL    HW136135   0.023   4.733  10.439
 8169SOL    HW236136   0.089   4.766  10.306
 8170SOL     OW36137   2.128   2.497  10.565
 8170SOL    HW136138   2.177   2.445  10.629
 8170SOL    HW236139   2.159   2.466  10.480
 8171SOL     OW36140   1.420   1.491   2.724
 8171SOL    HW136141   1.376   1.416   2.684
 8171SOL    HW236142   1.352   1.535   2.775
 8172SOL     OW36143   2.882   1.978  27.337
 8172SOL    HW136144   2.890   1.973  27.432
 8172SOL    HW236145   2.956   1.927  27.304
 8173SOL     OW36146   2.522   3.058  24.377
 8173SOL    HW136147   2.611   3.031  24.397
 8173SOL    HW236148   2.473   3.043  24.458
 8174SOL     OW36149   1.438   2.523  20.969
 8174SOL    HW136150   1.514   2.575  20.995
 8174SOL    HW236151   1.445   2.517  20.874
 8175SOL     OW36152   2.126   2.907  21.986
 8175SOL    HW136153   2.056   2.970  21.969
 8175SOL    HW236154   2.124   2.894  22.081
 8176SOL     OW36155   0.034   2.936  17.031
 8176SOL    HW136156   0.015   2.964  16.941
 8176SOL    HW236157   0.114   2.982  17.054
 8177SOL     OW36158   1.131   1.967  25.250
 8177SOL    HW136159   1.047   1.937  25.286
 8177SOL    HW236160   1.158   1.897  25.191
 8178SOL     OW36161   0.047   3.082   7.711
 8178SOL    HW136162   4.778   3.030   7.773
 8178SOL    HW236163   4.763   3.116   7.650
 8179SOL     OW36164   1.171   2.545   2.460
 8179SOL    HW136165   1.207   2.632   2.478
 8179SOL    HW236166   1.147   2.548   2.367
 8180SOL     OW36167   3.414   1.110  21.943
 8180SOL    HW136168   3.396   1.028  21.896
 8180SOL    HW236169   3.500   1.137  21.911
 8181SOL     OW36170   3.071   4.048   1.911
 8181SOL    HW136171   3.009   4.036   1.839
 8181SOL    HW236172   3.016   4.061   1.988
 8182SOL     OW36173   3.183   2.782  20.648
 8182SOL    HW136174   3.196   2.744  20.561
 8182SOL    HW236175   3.228   2.867  20.644
 8183SOL     OW36176   1.164   0.219   6.802
 8183SOL    HW136177   1.160   0.289   6.867
 8183SOL    HW236178   1.110   0.149   6.839
 8184SOL     OW36179   2.642   4.700  25.368
 8184SOL    HW136180   2.697   4.676  25.442
 8184SOL    HW236181   2.559   4.656  25.385
 8185SOL     OW36182   4.032   1.894   2.192
 8185SOL    HW136183   3.962   1.896   2.257
 8185SOL    HW236184   4.026   1.979   2.148
 8186SOL     OW36185   1.694   3.468   2.987
 8186SOL    HW136186   1.778   3.469   2.941
 8186SOL    HW236187   1.696   3.545   3.043
 8187SOL     OW36188   2.825   4.560  28.168
 8187SOL    HW136189   2.803   4.489  28.107
 8187SOL    HW236190   2.755   4.624  28.157
 8188SOL     OW36191   3.337   4.344  27.366
 8188SOL    HW136192   3.268   4.282  27.342
 8188SOL    HW236193   3.412   4.289  27.389
 8189SOL     OW36194   4.642   4.658   3.133
 8189SOL    HW136195   4.635   4.748   3.166
 8189SOL    HW236196   4.735   4.636   3.141
 8190SOL     OW36197   0.206   3.766   3.749
 8190SOL    HW136198   0.142   3.836   3.736
 8190SOL    HW236199   0.272   3.805   3.806
 8191SOL     OW36200   1.834   4.115  20.229
 8191SOL    HW136201   1.929   4.125  20.237
 8191SOL    HW236202   1.806   4.193  20.181
 8192SOL     OW36203   0.037   1.051   3.439
 8192SOL    HW136204   0.064   1.068   3.529
 8192SOL    HW236205   0.033   1.138   3.398
 8193SOL     OW36206   2.454   2.578  25.003
 8193SOL    HW136207   2.398   2.546  25.073
 8193SOL    HW236208   2.411   2.549  24.922
 8194SOL     OW36209   3.134   2.822   7.518
 8194SOL    HW136210   3.162   2.890   7.456
 8194SOL    HW236211   3.199   2.825   7.588
 8195SOL     OW36212   3.025   3.666  24.439
 8195SOL    HW136213   2.969   3.743  24.453
 8195SOL    HW236214   2.978   3.595  24.482
 8196SOL     OW36215   4.126   2.791   5.044
 8196SOL    HW136216   4.153   2.883   5.042
 8196SOL    HW236217   4.208   2.742   5.041
 8197SOL     OW36218   1.196   4.207  10.125
 8197SOL    HW136219   1.248   4.150  10.069
 8197SOL    HW236220   1.245   4.289  10.128
 8198SOL     OW36221   3.121   1.610  24.255
 8198SOL    HW136222   3.125   1.649  24.168
 8198SOL    HW236223   3.034   1.570  24.259
 8199SOL     OW36224   3.598   0.405   2.891
 8199SOL    HW136225   3.529   0.350   2.854
 8199SOL    HW236226   3.598   0.484   2.837
 8200SOL     OW36227   1.822   2.089  27.374
 8200SOL    HW136228   1.840   2.168  27.323
 8200SOL    HW236229   1.836   2.017  27.313
 8201SOL     OW36230   3.577   2.074   2.629
 8201SOL    HW136231   3.523   2.039   2.700
 8201SOL    HW236232   3.663   2.086   2.668
 8202SOL     OW36233   4.674   4.254   6.125
 8202SOL    HW136234   4.611   4.319   6.094
 8202SOL    HW236235   4.678   4.267   6.220
 8203SOL     OW36236   2.956   1.641  27.327
 8203SOL    HW136237   2.867   1.669  27.307
 8203SOL    HW236238   3.002   1.647  27.243
 8204SOL     OW36239   0.860   4.649  20.731
 8204SOL    HW136240   0.937   4.678  20.682
 8204SOL    HW236241   0.884   4.562  20.764
 8205SOL     OW36242   4.728   4.681  10.625
 8205SOL    HW136243   4.675   4.604  10.602
 8205SOL    HW236244   4.779   4.654  10.701
 8206SOL     OW36245   1.132   4.172   3.486
 8206SOL    HW136246   1.210   4.165   3.541
 8206SOL    HW236247   1.087   4.250   3.519
 8207SOL     OW36248   4.742   2.398  19.592
 8207SOL    HW136249   4.752   2.450  19.513
 8207SOL    HW236250   4.650   2.407  19.616
 8208SOL     OW36251   0.946   0.569   0.930
 8208SOL    HW136252   0.937   0.662   0.950
 8208SOL    HW236253   1.040   0.556   0.916
 8209SOL     OW36254   2.515   3.865   9.489
 8209SOL    HW136255   2.479   3.847   9.576
 8209SOL    HW236256   2.547   3.780   9.458
 8210SOL     OW36257   3.819   1.972  23.261
 8210SOL    HW136258   3.889   1.926  23.216
 8210SOL    HW236259   3.746   1.971  23.199
 8211SOL     OW36260   4.707   3.917  21.441
 8211SOL    HW136261   4.756   3.989  21.479
 8211SOL    HW236262   4.726   3.922  21.347
 8212SOL     OW36263   4.038   3.728  26.074
 8212SOL    HW136264   4.133   3.721  26.061
 8212SOL    HW236265   4.028   3.800  26.137
 8213SOL     OW36266   1.223   4.309  26.610
 8213SOL    HW136267   1.169   4.230  26.605
 8213SOL    HW236268   1.290   4.289  26.675
 8214SOL     OW36269   4.655   3.847   5.369
 8214SOL    HW136270   4.654   3.882   5.458
 8214SOL    HW236271   4.728   3.785   5.369
 8215SOL     OW36272   2.043   3.213   2.853
 8215SOL    HW136273   1.996   3.149   2.907
 8215SOL    HW236274   1.975   3.269   2.816
 8216SOL     OW36275   0.136   0.110   9.841
 8216SOL    HW136276   0.069   0.167   9.803
 8216SOL    HW236277   0.090   0.059   9.907
 8217SOL     OW36278   2.361   3.942  26.072
 8217SOL    HW136279   2.288   3.904  26.024
 8217SOL    HW236280   2.328   3.955  26.161
 8218SOL     OW36281   3.033   3.533   4.967
 8218SOL    HW136282   3.086   3.527   5.047
 8218SOL    HW236283   2.967   3.600   4.987
 8219SOL     OW36284   3.020   3.751  19.870
 8219SOL    HW136285   2.991   3.683  19.809
 8219SOL    HW236286   2.979   3.831  19.838
 8220SOL     OW36287   2.817   2.735  12.196
 8220SOL    HW136288   2.887   2.669  12.201
 8220SOL    HW236289   2.784   2.741  12.286
 8221SOL     OW36290   3.345   2.715   7.675
 8221SOL    HW136291   3.421   2.687   7.725
 8221SOL    HW236292   3.274   2.657   7.704
 8222SOL     OW36293   0.104   3.018  25.418
 8222SOL    HW136294   0.173   3.071  25.458
 8222SOL    HW236295   0.148   2.937  25.392
 8223SOL     OW36296   4.737   2.571  22.513
 8223SOL    HW136297   4.744   2.498  22.575
 8223SOL    HW236298   0.038   2.619  22.524
 8224SOL     OW36299   0.520   3.452  24.418
 8224SOL    HW136300   0.525   3.424  24.327
 8224SOL    HW236301   0.502   3.546  24.413
 8225SOL     OW36302   4.634   3.225  23.816
 8225SOL    HW136303   4.557   3.241  23.871
 8225SOL    HW236304   4.601   3.227  23.726
 8226SOL     OW36305   4.635   0.558  22.864
 8226SOL    HW136306   4.674   0.494  22.924
 8226SOL    HW236307   4.710   0.604  22.827
 8227SOL     OW36308   0.624   2.133   5.895
 8227SOL    HW136309   0.665   2.218   5.878
 8227SOL    HW236310   0.530   2.149   5.885
 8228SOL     OW36311   0.902   1.256  22.595
 8228SOL    HW136312   0.988   1.216  22.580
 8228SOL    HW236313   0.840   1.195  22.554
 8229SOL     OW36314   2.870   3.629   9.574
 8229SOL    HW136315   2.888   3.626   9.668
 8229SOL    HW236316   2.878   3.722   9.551
 8230SOL     OW36317   1.022   1.654  25.177
 8230SOL    HW136318   1.067   1.689  25.100
 8230SOL    HW236319   1.082   1.588  25.212
 8231SOL     OW36320   4.239   1.710   6.109
 8231SOL    HW136321   4.147   1.702   6.134
 8231SOL    HW236322   4.249   1.652   6.034
 8232SOL     OW36323   1.137   0.467   6.952
 8232SOL    HW136324   1.098   0.547   6.986
 8232SOL    HW236325   1.199   0.440   7.020
 8233SOL     OW36326   2.985   3.617  21.741
 8233SOL    HW136327   3.002   3.526  21.764
 8233SOL    HW236328   3.035   3.668  21.805
 8234SOL     OW36329   0.431   0.197   5.015
 8234SOL    HW136330   0.373   0.169   5.085
 8234SOL    HW236331   0.381   0.264   4.967
 8235SOL     OW36332   4.352   4.174  10.876
 8235SOL    HW136333   4.398   4.136  10.801
 8235SOL    HW236334   4.266   4.132  10.874
 8236SOL     OW36335   0.749   1.188  21.890
 8236SOL    HW136336   0.756   1.131  21.813
 8236SOL    HW236337   0.690   1.259  21.863
 8237SOL     OW36338   3.467   1.654  19.053
 8237SOL    HW136339   3.447   1.602  18.975
 8237SOL    HW236340   3.382   1.672  19.093
 8238SOL     OW36341   0.350   1.073   0.952
 8238SOL    HW136342   0.340   1.021   0.872
 8238SOL    HW236343   0.305   1.023   1.020
 8239SOL     OW36344   0.628   1.149   4.216
 8239SOL    HW136345   0.573   1.213   4.261
 8239SOL    HW236346   0.684   1.202   4.159
 8240SOL     OW36347   0.441   0.584  26.031
 8240SOL    HW136348   0.445   0.544  26.118
 8240SOL    HW236349   0.456   0.677  26.047
 8241SOL     OW36350   1.208   2.459   1.010
 8241SOL    HW136351   1.290   2.506   0.999
 8241SOL    HW236352   1.144   2.527   1.033
 8242SOL     OW36353   0.693   3.694   8.200
 8242SOL    HW136354   0.789   3.692   8.203
 8242SOL    HW236355   0.668   3.604   8.177
 8243SOL     OW36356   2.173   4.273  17.736
 8243SOL    HW136357   2.153   4.180  17.728
 8243SOL    HW236358   2.236   4.290  17.666
 8244SOL     OW36359   2.092   3.751  15.437
 8244SOL    HW136360   2.099   3.727  15.345
 8244SOL    HW236361   2.177   3.790  15.458
 8245SOL     OW36362   3.422   2.516  11.101
 8245SOL    HW136363   3.489   2.451  11.078
 8245SOL    HW236364   3.465   2.573  11.164
 8246SOL     OW36365   2.537   2.777  12.099
 8246SOL    HW136366   2.505   2.701  12.147
 8246SOL    HW236367   2.458   2.817  12.062
 8247SOL     OW36368   1.759   1.790  28.171
 8247SOL    HW136369   1.678   1.776  28.122
 8247SOL    HW236370   1.828   1.768  28.109
 8248SOL     OW36371   0.392   1.847   1.553
 8248SOL    HW136372   0.343   1.847   1.635
 8248SOL    HW236373   0.325   1.840   1.485
 8249SOL     OW36374   0.665   0.950  10.003
 8249SOL    HW136375   0.644   0.914   9.917
 8249SOL    HW236376   0.749   0.995   9.990
 8250SOL     OW36377   4.384   4.167   3.487
 8250SOL    HW136378   4.290   4.175   3.499
 8250SOL    HW236379   4.420   4.251   3.515
 8251SOL     OW36380   0.672   1.051  10.278
 8251SOL    HW136381   0.644   1.123  10.335
 8251SOL    HW236382   0.767   1.060  10.272
 8252SOL     OW36383   3.524   0.516  21.641
 8252SOL    HW136384   3.473   0.582  21.689
 8252SOL    HW236385   3.613   0.526  21.674
 8253SOL     OW36386   3.803   1.727  21.818
 8253SOL    HW136387   3.723   1.706  21.867
 8253SOL    HW236388   3.859   1.772  21.881
 8254SOL     OW36389   2.915   3.265   4.272
 8254SOL    HW136390   2.917   3.361   4.277
 8254SOL    HW236391   3.007   3.239   4.276
 8255SOL     OW36392   1.388   1.246   5.590
 8255SOL    HW136393   1.317   1.263   5.528
 8255SOL    HW236394   1.358   1.171   5.641
 8256SOL     OW36395   0.512   1.464   9.640
 8256SOL    HW136396   0.565   1.411   9.581
 8256SOL    HW236397   0.570   1.535   9.667
 8257SOL     OW36398   1.144   4.678   4.786
 8257SOL    HW136399   1.206   4.739   4.826
 8257SOL    HW236400   1.058   4.711   4.811
 8258SOL     OW36401   1.643   3.122   3.048
 8258SOL    HW136402   1.735   3.095   3.051
 8258SOL    HW236403   1.630   3.172   3.129
 8259SOL     OW36404   1.868   1.899   7.654
 8259SOL    HW136405   1.829   1.814   7.673
 8259SOL    HW236406   1.856   1.950   7.734
 8260SOL     OW36407   0.709   1.584   6.896
 8260SOL    HW136408   0.709   1.656   6.833
 8260SOL    HW236409   0.757   1.619   6.972
 8261SOL     OW36410   0.917   3.799   6.238
 8261SOL    HW136411   0.852   3.846   6.289
 8261SOL    HW236412   0.999   3.810   6.287
 8262SOL     OW36413   2.118   4.228  21.932
 8262SOL    HW136414   2.103   4.290  22.003
 8262SOL    HW236415   2.071   4.265  21.858
 8263SOL     OW36416   1.408   2.959   5.302
 8263SOL    HW136417   1.420   2.865   5.318
 8263SOL    HW236418   1.497   2.994   5.297
 8264SOL     OW36419   4.731   3.870  26.276
 8264SOL    HW136420   4.778   3.950  26.252
 8264SOL    HW236421   4.708   3.882  26.368
 8265SOL     OW36422   1.491   0.735   7.641
 8265SOL    HW136423   1.558   0.694   7.586
 8265SOL    HW236424   1.534   0.749   7.725
 8266SOL     OW36425   1.701   2.274   0.587
 8266SOL    HW136426   1.695   2.317   0.502
 8266SOL    HW236427   1.777   2.217   0.580
 8267SOL     OW36428   0.919   4.435  20.222
 8267SOL    HW136429   0.880   4.450  20.308
 8267SOL    HW236430   0.864   4.484  20.161
 8268SOL     OW36431   1.330   3.591   5.561
 8268SOL    HW136432   1.267   3.609   5.631
 8268SOL    HW236433   1.366   3.677   5.538
 8269SOL     OW36434   0.462   1.797   9.470
 8269SOL    HW136435   0.388   1.829   9.419
 8269SOL    HW236436   0.525   1.766   9.405
 8270SOL     OW36437   1.314   2.791   8.430
 8270SOL    HW136438   1.339   2.717   8.374
 8270SOL    HW236439   1.326   2.758   8.519
 8271SOL     OW36440   0.663   2.270   4.647
 8271SOL    HW136441   0.650   2.342   4.708
 8271SOL    HW236442   0.756   2.249   4.653
 8272SOL     OW36443   0.494   4.466   4.955
 8272SOL    HW136444   0.422   4.522   4.983
 8272SOL    HW236445   0.546   4.521   4.897
 8273SOL     OW36446   2.946   3.112   8.088
 8273SOL    HW136447   2.918   3.022   8.073
 8273SOL    HW236448   3.038   3.113   8.061
 8274SOL     OW36449   3.370   4.578  23.522
 8274SOL    HW136450   3.340   4.662  23.556
 8274SOL    HW236451   3.430   4.545  23.589
 8275SOL     OW36452   0.872   1.742   7.992
 8275SOL    HW136453   0.925   1.788   7.927
 8275SOL    HW236454   0.913   1.763   8.076
 8276SOL     OW36455   1.297   1.842  24.761
 8276SOL    HW136456   1.338   1.914  24.808
 8276SOL    HW236457   1.367   1.804  24.708
 8277SOL     OW36458   2.282   1.931   9.018
 8277SOL    HW136459   2.260   1.852   8.968
 8277SOL    HW236460   2.360   1.965   8.975
 8278SOL     OW36461   1.198   0.820  24.206
 8278SOL    HW136462   1.179   0.831  24.299
 8278SOL    HW236463   1.198   0.909  24.171
 8279SOL     OW36464   0.450   1.129  10.116
 8279SOL    HW136465   0.359   1.156  10.103
 8279SOL    HW236466   0.500   1.211  10.117
 8280SOL     OW36467   1.241   4.496   2.849
 8280SOL    HW136468   1.248   4.582   2.890
 8280SOL    HW236469   1.164   4.503   2.792
 8281SOL     OW36470   4.085   2.033  22.881
 8281SOL    HW136471   4.177   2.061  22.885
 8281SOL    HW236472   4.035   2.115  22.887
 8282SOL     OW36473   4.035   0.240  26.612
 8282SOL    HW136474   4.123   0.275  26.601
 8282SOL    HW236475   4.022   0.181  26.538
 8283SOL     OW36476   2.311   4.065   3.588
 8283SOL    HW136477   2.361   4.070   3.506
 8283SOL    HW236478   2.284   4.155   3.605
 8284SOL     OW36479   2.345   3.371  25.698
 8284SOL    HW136480   2.251   3.366  25.683
 8284SOL    HW236481   2.381   3.295  25.652
 8285SOL     OW36482   2.546   3.837  11.685
 8285SOL    HW136483   2.616   3.896  11.711
 8285SOL    HW236484   2.583   3.749  11.695
 8286SOL     OW36485   4.116   3.693   0.834
 8286SOL    HW136486   4.171   3.643   0.895
 8286SOL    HW236487   4.041   3.720   0.887
 8287SOL     OW36488   2.206   2.694  20.000
 8287SOL    HW136489   2.208   2.728  19.910
 8287SOL    HW236490   2.204   2.599  19.990
 8288SOL     OW36491   3.194   1.272   0.701
 8288SOL    HW136492   3.171   1.280   0.608
 8288SOL    HW236493   3.288   1.256   0.700
 8289SOL     OW36494   3.642   3.486   2.045
 8289SOL    HW136495   3.618   3.510   2.135
 8289SOL    HW236496   3.668   3.569   2.005
 8290SOL     OW36497   4.526   1.650   7.131
 8290SOL    HW136498   4.436   1.665   7.160
 8290SOL    HW236499   4.518   1.598   7.051
 8291SOL     OW36500   3.962   1.772   6.112
 8291SOL    HW136501   3.988   1.845   6.056
 8291SOL    HW236502   3.932   1.704   6.051
 8292SOL     OW36503   3.534   0.424  23.426
 8292SOL    HW136504   3.591   0.500  23.430
 8292SOL    HW236505   3.473   0.443  23.354
 8293SOL     OW36506   4.539   0.821  23.941
 8293SOL    HW136507   4.598   0.852  23.873
 8293SOL    HW236508   4.573   0.859  24.022
 8294SOL     OW36509   0.786   2.187   1.903
 8294SOL    HW136510   0.816   2.110   1.951
 8294SOL    HW236511   0.694   2.197   1.928
 8295SOL     OW36512   1.743   3.286   6.328
 8295SOL    HW136513   1.696   3.346   6.270
 8295SOL    HW236514   1.674   3.241   6.377
 8296SOL     OW36515   1.732   0.892  22.022
 8296SOL    HW136516   1.741   0.808  21.977
 8296SOL    HW236517   1.668   0.876  22.091
 8297SOL     OW36518   4.537   0.005  24.478
 8297SOL    HW136519   4.548   0.084  24.531
 8297SOL    HW236520   4.455   0.018  24.431
 8298SOL     OW36521   1.491   0.430  27.271
 8298SOL    HW136522   1.471   0.504  27.329
 8298SOL    HW236523   1.456   0.456  27.186
 8299SOL     OW36524   4.380   0.136  20.364
 8299SOL    HW136525   4.453   0.129  20.425
 8299SOL    HW236526   4.400   0.213  20.310
 8300SOL     OW36527   1.417   1.446  22.633
 8300SOL    HW136528   1.379   1.503  22.566
 8300SOL    HW236529   1.446   1.506  22.702
 8301SOL     OW36530   0.740   1.601   6.514
 8301SOL    HW136531   0.772   1.625   6.427
 8301SOL    HW236532   0.820   1.591   6.566
 8302SOL     OW36533   1.350   3.719   9.108
 8302SOL    HW136534   1.434   3.703   9.065
 8302SOL    HW236535   1.294   3.755   9.039
 8303SOL     OW36536   2.780   0.428  21.256
 8303SOL    HW136537   2.859   0.463  21.215
 8303SOL    HW236538   2.715   0.498  21.249
 8304SOL     OW36539   2.546   1.122  26.161
 8304SOL    HW136540   2.635   1.144  26.134
 8304SOL    HW236541   2.513   1.067  26.091
 8305SOL     OW36542   0.051   4.006  21.070
 8305SOL    HW136543   4.753   4.031  21.119
 8305SOL    HW236544   0.019   3.984  20.983
 8306SOL     OW36545   1.646   1.202  24.817
 8306SOL    HW136546   1.595   1.126  24.788
 8306SOL    HW236547   1.652   1.192  24.912
 8307SOL     OW36548   2.676   3.004  12.187
 8307SOL    HW136549   2.598   3.015  12.242
 8307SOL    HW236550   2.732   3.079  12.209
 8308SOL     OW36551   0.843   2.799   0.904
 8308SOL    HW136552   0.794   2.830   0.980
 8308SOL    HW236553   0.825   2.705   0.901
 8309SOL     OW36554   0.597   4.466  20.575
 8309SOL    HW136555   0.623   4.383  20.615
 8309SOL    HW236556   0.554   4.441  20.493
 8310SOL     OW36557   3.523   1.053  19.626
 8310SOL    HW136558   3.586   1.037  19.696
 8310SOL    HW236559   3.577   1.066  19.548
 8311SOL     OW36560   0.203   4.370   0.671
 8311SOL    HW136561   0.183   4.352   0.579
 8311SOL    HW236562   0.291   4.407   0.669
 8312SOL     OW36563   4.750   3.444  22.581
 8312SOL    HW136564   0.047   3.469  22.532
 8312SOL    HW236565   4.695   3.400  22.517
 8313SOL     OW36566   2.004   1.260  26.568
 8313SOL    HW136567   2.033   1.307  26.646
 8313SOL    HW236568   2.085   1.235  26.524
 8314SOL     OW36569   1.140   3.756   3.901
 8314SOL    HW136570   1.146   3.731   3.993
 8314SOL    HW236571   1.121   3.850   3.902
 8315SOL     OW36572   2.100   0.307  26.552
 8315SOL    HW136573   2.090   0.213  26.540
 8315SOL    HW236574   2.013   0.337  26.579
 8316SOL     OW36575   2.943   4.651  10.551
 8316SOL    HW136576   2.914   4.593  10.481
 8316SOL    HW236577   2.967   4.592  10.623
 8317SOL     OW36578   1.760   2.459  28.111
 8317SOL    HW136579   1.821   2.395  28.149
 8317SOL    HW236580   1.674   2.430  28.141
 8318SOL     OW36581   3.517   4.334   7.351
 8318SOL    HW136582   3.514   4.307   7.443
 8318SOL    HW236583   3.441   4.292   7.311
 8319SOL     OW36584   0.616   0.766  10.234
 8319SOL    HW136585   0.612   0.706  10.309
 8319SOL    HW236586   0.653   0.714  10.163
 8320SOL     OW36587   2.254   4.679   0.107
 8320SOL    HW136588   2.251   4.737   0.183
 8320SOL    HW236589   2.318   4.612   0.130
 8321SOL     OW36590   1.581   3.006  21.526
 8321SOL    HW136591   1.607   2.925  21.570
 8321SOL    HW236592   1.580   3.072  21.596
 8322SOL     OW36593   2.485   0.861   8.641
 8322SOL    HW136594   2.415   0.900   8.589
 8322SOL    HW236595   2.450   0.858   8.730
 8323SOL     OW36596   3.742   1.728   3.479
 8323SOL    HW136597   3.749   1.635   3.501
 8323SOL    HW236598   3.685   1.764   3.546
 8324SOL     OW36599   0.155   3.096   4.522
 8324SOL    HW136600   0.086   3.154   4.554
 8324SOL    HW236601   0.177   3.131   4.435
 8325SOL     OW36602   3.531   2.923   0.835
 8325SOL    HW136603   3.475   2.973   0.776
 8325SOL    HW236604   3.608   2.901   0.783
 8326SOL     OW36605   4.129   3.701  21.756
 8326SOL    HW136606   4.073   3.739  21.824
 8326SOL    HW236607   4.163   3.620  21.795
 8327SOL     OW36608   3.374   4.233  19.782
 8327SOL    HW136609   3.456   4.244  19.733
 8327SOL    HW236610   3.396   4.173  19.853
 8328SOL     OW36611   2.587   1.347   6.823
 8328SOL    HW136612   2.665   1.378   6.869
 8328SOL    HW236613   2.514   1.377   6.877
 8329SOL     OW36614   3.613   3.059  11.278
 8329SOL    HW136615   3.607   3.150  11.306
 8329SOL    HW236616   3.696   3.028  11.314
 8330SOL     OW36617   1.097   2.728   3.096
 8330SOL    HW136618   1.043   2.793   3.051
 8330SOL    HW236619   1.162   2.702   3.031
 8331SOL     OW36620   3.151   2.203   2.288
 8331SOL    HW136621   3.229   2.196   2.344
 8331SOL    HW236622   3.183   2.244   2.207
 8332SOL     OW36623   4.578   2.874  22.659
 8332SOL    HW136624   4.662   2.843  22.627
 8332SOL    HW236625   4.515   2.848  22.592
 8333SOL     OW36626   3.765   0.834   6.852
 8333SOL    HW136627   3.695   0.865   6.909
 8333SOL    HW236628   3.829   0.795   6.911
 8334SOL     OW36629   2.460   3.950   4.321
 8334SOL    HW136630   2.487   3.858   4.319
 8334SOL    HW236631   2.518   3.991   4.385
 8335SOL     OW36632   1.189   4.355   8.493
 8335SOL    HW136633   1.100   4.390   8.490
 8335SOL    HW236634   1.186   4.277   8.438
 8336SOL     OW36635   0.567   0.438  10.910
 8336SOL    HW136636   0.582   0.429  11.004
 8336SOL    HW236637   0.637   0.387  10.870
 8337SOL     OW36638   4.450   1.215   4.109
 8337SOL    HW136639   4.444   1.216   4.013
 8337SOL    HW236640   4.371   1.168   4.137
 8338SOL     OW36641   2.272   4.376   3.057
 8338SOL    HW136642   2.365   4.354   3.061
 8338SOL    HW236643   2.230   4.295   3.029
 8339SOL     OW36644   0.421   0.939  10.340
 8339SOL    HW136645   0.414   0.866  10.402
 8339SOL    HW236646   0.362   1.006  10.375
 8340SOL     OW36647   0.327   0.189  19.619
 8340SOL    HW136648   0.373   0.260  19.574
 8340SOL    HW236649   0.234   0.212  19.612
 8341SOL     OW36650   2.235   2.479  25.852
 8341SOL    HW136651   2.329   2.475  25.833
 8341SOL    HW236652   2.199   2.532  25.781
 8342SOL     OW36653   2.630   0.498   9.204
 8342SOL    HW136654   2.595   0.511   9.292
 8342SOL    HW236655   2.564   0.445   9.160
 8343SOL     OW36656   3.148   1.382   1.781
 8343SOL    HW136657   3.213   1.409   1.716
 8343SOL    HW236658   3.196   1.380   1.864
 8344SOL     OW36659   1.961   4.011  19.035
 8344SOL    HW136660   2.049   4.047  19.049
 8344SOL    HW236661   1.946   3.955  19.111
 8345SOL     OW36662   2.749   0.091  23.639
 8345SOL    HW136663   2.821   0.077  23.577
 8345SOL    HW236664   2.687   0.147  23.592
 8346SOL     OW36665   0.408   0.822  10.077
 8346SOL    HW136666   0.413   0.744  10.021
 8346SOL    HW236667   0.315   0.845  10.078
 8347SOL     OW36668   4.134   3.290   8.152
 8347SOL    HW136669   4.153   3.204   8.189
 8347SOL    HW236670   4.208   3.307   8.094
 8348SOL     OW36671   3.923   3.143   6.645
 8348SOL    HW136672   3.845   3.194   6.621
 8348SOL    HW236673   3.895   3.091   6.720
 8349SOL     OW36674   2.029   2.266   8.896
 8349SOL    HW136675   1.943   2.235   8.866
 8349SOL    HW236676   2.030   2.247   8.990
 8350SOL     OW36677   3.877   1.849  19.642
 8350SOL    HW136678   3.870   1.889  19.729
 8350SOL    HW236679   3.910   1.761  19.659
 8351SOL     OW36680   1.066   2.135  27.533
 8351SOL    HW136681   0.997   2.201  27.536
 8351SOL    HW236682   1.021   2.053  27.554
 8352SOL     OW36683   1.558   4.382   8.507
 8352SOL    HW136684   1.519   4.468   8.525
 8352SOL    HW236685   1.512   4.350   8.429
 8353SOL     OW36686   3.360   3.747   3.398
 8353SOL    HW136687   3.286   3.781   3.348
 8353SOL    HW236688   3.320   3.702   3.472
 8354SOL     OW36689   1.613   1.361   5.693
 8354SOL    HW136690   1.602   1.454   5.674
 8354SOL    HW236691   1.539   1.319   5.650
 8355SOL     OW36692   1.714   1.133   4.718
 8355SOL    HW136693   1.757   1.189   4.783
 8355SOL    HW236694   1.646   1.189   4.680
 8356SOL     OW36695   0.358   3.039   9.400
 8356SOL    HW136696   0.346   3.024   9.306
 8356SOL    HW236697   0.444   3.080   9.407
 8357SOL     OW36698   1.054   3.973  10.764
 8357SOL    HW136699   1.028   4.027  10.689
 8357SOL    HW236700   0.974   3.927  10.789
 8358SOL     OW36701   2.080   4.569   3.662
 8358SOL    HW136702   1.995   4.525   3.658
 8358SOL    HW236703   2.059   4.662   3.653
 8359SOL     OW36704   1.148   1.832   5.715
 8359SOL    HW136705   1.173   1.799   5.801
 8359SOL    HW236706   1.105   1.758   5.673
 8360SOL     OW36707   3.735   4.033  28.096
 8360SOL    HW136708   3.657   4.086  28.112
 8360SOL    HW236709   3.723   3.956  28.152
 8361SOL     OW36710   3.723   3.693  23.127
 8361SOL    HW136711   3.654   3.681  23.192
 8361SOL    HW236712   3.779   3.761  23.163
 8362SOL     OW36713   1.272   3.382  22.923
 8362SOL    HW136714   1.190   3.355  22.965
 8362SOL    HW236715   1.248   3.458  22.870
 8363SOL     OW36716   1.879   2.529   9.076
 8363SOL    HW136717   1.937   2.572   9.013
 8363SOL    HW236718   1.798   2.580   9.072
 8364SOL     OW36719   0.740   3.213  22.365
 8364SOL    HW136720   0.815   3.173  22.321
 8364SOL    HW236721   0.687   3.139  22.394
 8365SOL     OW36722   2.431   1.277   8.489
 8365SOL    HW136723   2.432   1.368   8.518
 8365SOL    HW236724   2.400   1.281   8.398
 8366SOL     OW36725   2.752   2.710  11.919
 8366SOL    HW136726   2.695   2.633  11.916
 8366SOL    HW236727   2.797   2.710  11.834
 8367SOL     OW36728   1.253   1.596  23.804
 8367SOL    HW136729   1.340   1.617  23.837
 8367SOL    HW236730   1.262   1.508  23.768
 8368SOL     OW36731   0.902   1.321   2.529
 8368SOL    HW136732   0.807   1.310   2.532
 8368SOL    HW236733   0.917   1.382   2.457
 8369SOL     OW36734   0.940   1.078   1.873
 8369SOL    HW136735   0.969   1.014   1.938
 8369SOL    HW236736   1.002   1.151   1.882
 8370SOL     OW36737   3.244   4.118  28.344
 8370SOL    HW136738   3.215   4.100  28.255
 8370SOL    HW236739   3.282   4.206  28.340
 8371SOL     OW36740   2.834   4.058  22.959
 8371SOL    HW136741   2.857   4.150  22.946
 8371SOL    HW236742   2.781   4.035  22.882
 8372SOL     OW36743   1.925   1.485  22.882
 8372SOL    HW136744   1.930   1.532  22.965
 8372SOL    HW236745   1.892   1.398  22.906
 8373SOL     OW36746   1.026   1.066   2.532
 8373SOL    HW136747   0.965   1.024   2.471
 8373SOL    HW236748   0.974   1.133   2.576
 8374SOL     OW36749   1.219   2.576  25.295
 8374SOL    HW136750   1.298   2.630  25.295
 8374SOL    HW236751   1.228   2.521  25.373
 8375SOL     OW36752   0.566   3.826  23.702
 8375SOL    HW136753   0.524   3.812  23.617
 8375SOL    HW236754   0.515   3.774  23.763
 8376SOL     OW36755   1.741   4.244   7.796
 8376SOL    HW136756   1.652   4.259   7.828
 8376SOL    HW236757   1.771   4.330   7.766
 8377SOL     OW36758   3.511   3.238  24.552
 8377SOL    HW136759   3.550   3.298  24.616
 8377SOL    HW236760   3.560   3.157  24.563
 8378SOL     OW36761   4.484   1.764  17.832
 8378SOL    HW136762   4.428   1.750  17.756
 8378SOL    HW236763   4.431   1.737  17.907
 8379SOL     OW36764   3.022   1.598  27.695
 8379SOL    HW136765   3.026   1.668  27.630
 8379SOL    HW236766   2.933   1.563  27.686
 8380SOL     OW36767   0.742   3.189  20.992
 8380SOL    HW136768   0.821   3.243  20.985
 8380SOL    HW236769   0.671   3.252  21.002
 8381SOL     OW36770   1.853   0.365  26.623
 8381SOL    HW136771   1.806   0.413  26.691
 8381SOL    HW236772   1.797   0.290  26.603
 8382SOL     OW36773   4.475   1.301   7.762
 8382SOL    HW136774   4.430   1.305   7.678
 8382SOL    HW236775   4.555   1.352   7.749
 8383SOL     OW36776   0.703   3.921   3.688
 8383SOL    HW136777   0.795   3.934   3.711
 8383SOL    HW236778   0.700   3.930   3.593
 8384SOL     OW36779   2.439   3.984  27.880
 8384SOL    HW136780   2.419   4.000  27.788
 8384SOL    HW236781   2.424   4.068  27.923
 8385SOL     OW36782   1.804   3.575  28.188
 8385SOL    HW136783   1.786   3.661  28.150
 8385SOL    HW236784   1.873   3.591  28.252
 8386SOL     OW36785   2.964   4.298  28.358
 8386SOL    HW136786   3.033   4.255  28.409
 8386SOL    HW236787   3.003   4.381  28.330
 8387SOL     OW36788   1.950   4.019  27.607
 8387SOL    HW136789   1.920   4.001  27.518
 8387SOL    HW236790   1.947   4.114  27.615
 8388SOL     OW36791   0.865   1.623  27.415
 8388SOL    HW136792   0.830   1.671  27.490
 8388SOL    HW236793   0.960   1.636  27.420
 8389SOL     OW36794   2.489   1.244  16.915
 8389SOL    HW136795   2.498   1.183  16.841
 8389SOL    HW236796   2.522   1.327  16.882
 8390SOL     OW36797   0.690   2.456  10.962
 8390SOL    HW136798   0.618   2.443  10.901
 8390SOL    HW236799   0.674   2.542  11.000
 8391SOL     OW36800   2.039   0.663  25.093
 8391SOL    HW136801   2.113   0.723  25.091
 8391SOL    HW236802   2.073   0.584  25.134
 8392SOL     OW36803   1.635   1.359   5.106
 8392SOL    HW136804   1.553   1.334   5.063
 8392SOL    HW236805   1.694   1.381   5.034
 8393SOL     OW36806   4.512   3.800   5.968
 8393SOL    HW136807   4.594   3.771   5.928
 8393SOL    HW236808   4.463   3.719   5.983
 8394SOL     OW36809   3.919   0.915   2.152
 8394SOL    HW136810   3.984   0.959   2.207
 8394SOL    HW236811   3.945   0.823   2.153
 8395SOL     OW36812   1.924   4.107  21.589
 8395SOL    HW136813   1.857   4.166  21.555
 8395SOL    HW236814   1.883   4.066  21.665
 8396SOL     OW36815   3.859   4.019   3.946
 8396SOL    HW136816   3.846   4.013   3.851
 8396SOL    HW236817   3.898   4.105   3.960
 8397SOL     OW36818   3.080   2.034  25.204
 8397SOL    HW136819   3.107   2.068  25.119
 8397SOL    HW236820   3.162   2.011  25.248
 8398SOL     OW36821   4.188   4.372   4.861
 8398SOL    HW136822   4.100   4.410   4.853
 8398SOL    HW236823   4.193   4.308   4.790
 8399SOL     OW36824   4.734   0.521  21.331
 8399SOL    HW136825   4.683   0.440  21.335
 8399SOL    HW236826   0.044   0.492  21.333
 8400SOL     OW36827   2.878   1.924  24.221
 8400SOL    HW136828   2.937   1.938  24.295
 8400SOL    HW236829   2.845   1.835  24.233
 8401SOL     OW36830   0.128   0.163  21.309
 8401SOL    HW136831   0.150   0.143  21.218
 8401SOL    HW236832   0.162   0.251  21.324
 8402SOL     OW36833   2.290   2.855  12.390
 8402SOL    HW136834   2.355   2.925  12.399
 8402SOL    HW236835   2.336   2.776  12.420
 8403SOL     OW36836   2.893   2.938  11.992
 8403SOL    HW136837   2.932   3.016  12.032
 8403SOL    HW236838   2.950   2.919  11.917
 8404SOL     OW36839   2.743   0.939   9.480
 8404SOL    HW136840   2.726   0.954   9.573
 8404SOL    HW236841   2.766   0.846   9.474
 8405SOL     OW36842   4.583   1.663   9.216
 8405SOL    HW136843   4.546   1.583   9.253
 8405SOL    HW236844   4.664   1.677   9.264
 8406SOL     OW36845   2.768   1.479  18.529
 8406SOL    HW136846   2.832   1.474  18.600
 8406SOL    HW236847   2.792   1.558  18.480
 8407SOL     OW36848   3.292   1.956   5.931
 8407SOL    HW136849   3.340   2.038   5.940
 8407SOL    HW236850   3.233   1.971   5.857
 8408SOL     OW36851   2.936   2.576   1.235
 8408SOL    HW136852   2.977   2.663   1.233
 8408SOL    HW236853   2.850   2.591   1.275
 8409SOL     OW36854   2.639   3.632   5.564
 8409SOL    HW136855   2.545   3.642   5.549
 8409SOL    HW236856   2.664   3.557   5.510
 8410SOL     OW36857   3.465   4.615  11.837
 8410SOL    HW136858   3.506   4.646  11.918
 8410SOL    HW236859   3.382   4.576  11.866
 8411SOL     OW36860   1.213   4.571   4.375
 8411SOL    HW136861   1.276   4.513   4.418
 8411SOL    HW236862   1.243   4.575   4.284
 8412SOL     OW36863   0.316   1.417  10.427
 8412SOL    HW136864   0.349   1.443  10.341
 8412SOL    HW236865   0.393   1.421  10.484
 8413SOL     OW36866   0.169   4.536   1.454
 8413SOL    HW136867   0.261   4.550   1.477
 8413SOL    HW236868   0.154   4.442   1.467
 8414SOL     OW36869   4.710   4.465   4.461
 8414SOL    HW136870   4.732   4.385   4.509
 8414SOL    HW236871   0.002   4.525   4.478
 8415SOL     OW36872   3.377   2.165  20.786
 8415SOL    HW136873   3.472   2.170  20.780
 8415SOL    HW236874   3.356   2.209  20.869
 8416SOL     OW36875   0.973   0.765  27.914
 8416SOL    HW136876   1.051   0.799  27.958
 8416SOL    HW236877   1.007   0.706  27.847
 8417SOL     OW36878   1.312   0.008  19.474
 8417SOL    HW136879   1.366   4.736  19.416
 8417SOL    HW236880   1.362   0.088  19.487
 8418SOL     OW36881   1.424   3.767  23.425
 8418SOL    HW136882   1.422   3.690  23.369
 8418SOL    HW236883   1.436   3.732  23.513
 8419SOL     OW36884   0.725   1.783  12.778
 8419SOL    HW136885   0.730   1.696  12.818
 8419SOL    HW236886   0.668   1.833  12.837
 8420SOL     OW36887   3.823   4.245   7.177
 8420SOL    HW136888   3.909   4.252   7.136
 8420SOL    HW236889   3.801   4.334   7.203
 8421SOL     OW36890   0.933   0.094  11.543
 8421SOL    HW136891   0.950   0.035  11.616
 8421SOL    HW236892   1.009   0.152  11.540
 8422SOL     OW36893   3.092   3.933  24.887
 8422SOL    HW136894   3.006   3.936  24.928
 8422SOL    HW236895   3.153   3.949  24.959
 8423SOL     OW36896   0.921   0.443   3.566
 8423SOL    HW136897   0.964   0.516   3.522
 8423SOL    HW236898   0.874   0.398   3.496
 8424SOL     OW36899   3.349   4.160   3.146
 8424SOL    HW136900   3.369   4.244   3.105
 8424SOL    HW236901   3.271   4.129   3.100
 8425SOL     OW36902   2.997   4.337  13.487
 8425SOL    HW136903   2.928   4.341  13.554
 8425SOL    HW236904   3.016   4.244  13.478
 8426SOL     OW36905   1.619   2.227   9.500
 8426SOL    HW136906   1.646   2.205   9.411
 8426SOL    HW236907   1.667   2.307   9.520
 8427SOL     OW36908   0.147   1.563   8.665
 8427SOL    HW136909   0.078   1.513   8.709
 8427SOL    HW236910   0.112   1.652   8.661
 8428SOL     OW36911   3.121   3.847   3.250
 8428SOL    HW136912   3.073   3.779   3.204
 8428SOL    HW236913   3.114   3.924   3.193
 8429SOL     OW36914   3.109   3.259   9.673
 8429SOL    HW136915   3.020   3.223   9.677
 8429SOL    HW236916   3.142   3.232   9.587
 8430SOL     OW36917   1.403   2.216  21.258
 8430SOL    HW136918   1.314   2.222  21.224
 8430SOL    HW236919   1.458   2.240  21.184
 8431SOL     OW36920   3.192   0.282   5.394
 8431SOL    HW136921   3.136   0.209   5.368
 8431SOL    HW236922   3.204   0.333   5.314
 8432SOL     OW36923   3.934   1.005  28.486
 8432SOL    HW136924   3.848   1.046  28.473
 8432SOL    HW236925   3.990   1.076  28.516
 8433SOL     OW36926   3.668   3.749  11.265
 8433SOL    HW136927   3.607   3.805  11.313
 8433SOL    HW236928   3.713   3.699  11.333
 8434SOL     OW36929   2.759   2.387  23.083
 8434SOL    HW136930   2.669   2.358  23.100
 8434SOL    HW236931   2.814   2.317  23.119
 8435SOL     OW36932   4.541   0.828  12.393
 8435SOL    HW136933   4.502   0.914  12.412
 8435SOL    HW236934   4.541   0.783  12.477
 8436SOL     OW36935   0.528   0.269  24.144
 8436SOL    HW136936   0.454   0.295  24.088
 8436SOL    HW236937   0.505   0.182  24.175
 8437SOL     OW36938   3.366   4.503  20.833
 8437SOL    HW136939   3.315   4.486  20.912
 8437SOL    HW236940   3.452   4.528  20.866
 8438SOL     OW36941   1.756   2.678   4.965
 8438SOL    HW136942   1.838   2.696   5.011
 8438SOL    HW236943   1.688   2.688   5.032
 8439SOL     OW36944   3.208   1.441  27.109
 8439SOL    HW136945   3.209   1.535  27.128
 8439SOL    HW236946   3.265   1.431  27.033
 8440SOL     OW36947   2.631   3.623   6.971
 8440SOL    HW136948   2.609   3.697   7.028
 8440SOL    HW236949   2.576   3.552   7.003
 8441SOL     OW36950   1.849   3.546   9.960
 8441SOL    HW136951   1.824   3.485  10.029
 8441SOL    HW236952   1.815   3.506   9.880
 8442SOL     OW36953   3.971   2.432  23.966
 8442SOL    HW136954   4.013   2.501  24.017
 8442SOL    HW236955   3.978   2.461  23.875
 8443SOL     OW36956   3.406   0.912  22.141
 8443SOL    HW136957   3.469   0.892  22.071
 8443SOL    HW236958   3.394   1.007  22.136
 8444SOL     OW36959   1.356   2.985  22.713
 8444SOL    HW136960   1.361   3.080  22.723
 8444SOL    HW236961   1.378   2.951  22.800
 8445SOL     OW36962   0.037   2.176  21.990
 8445SOL    HW136963   0.075   2.250  22.037
 8445SOL    HW236964   0.078   2.099  22.029
 8446SOL     OW36965   4.382   1.307  26.248
 8446SOL    HW136966   4.293   1.313  26.283
 8446SOL    HW236967   4.371   1.289  26.155
 8447SOL     OW36968   3.447   1.627   1.254
 8447SOL    HW136969   3.390   1.694   1.291
 8447SOL    HW236970   3.428   1.628   1.160
 8448SOL     OW36971   0.529   2.657   6.146
 8448SOL    HW136972   0.444   2.698   6.129
 8448SOL    HW236973   0.515   2.605   6.225
 8449SOL     OW36974   1.543   0.668   6.103
 8449SOL    HW136975   1.495   0.719   6.169
 8449SOL    HW236976   1.619   0.722   6.082
 8450SOL     OW36977   0.358   1.216  20.927
 8450SOL    HW136978   0.265   1.197  20.917
 8450SOL    HW236979   0.369   1.302  20.887
 8451SOL     OW36980   0.283   3.888  11.857
 8451SOL    HW136981   0.337   3.810  11.869
 8451SOL    HW236982   0.201   3.868  11.902
 8452SOL     OW36983   0.338   0.603  22.975
 8452SOL    HW136984   0.346   0.528  23.033
 8452SOL    HW236985   0.371   0.677  23.026
 8453SOL     OW36986   2.162   2.603  11.645
 8453SOL    HW136987   2.111   2.522  11.649
 8453SOL    HW236988   2.250   2.578  11.673
 8454SOL     OW36989   1.073   1.397  25.884
 8454SOL    HW136990   1.031   1.335  25.824
 8454SOL    HW236991   1.047   1.483  25.851
 8455SOL     OW36992   2.180   2.064  20.527
 8455SOL    HW136993   2.145   2.147  20.494
 8455SOL    HW236994   2.238   2.032  20.457
 8456SOL     OW36995   3.823   1.973   8.362
 8456SOL    HW136996   3.862   1.899   8.408
 8456SOL    HW236997   3.868   1.976   8.277
 8457SOL     OW36998   1.098   0.864  25.047
 8457SOL    HW136999   1.097   0.799  25.117
 8457SOL    HW237000   1.066   0.817  24.970
 8458SOL     OW37001   4.600   3.810   8.439
 8458SOL    HW137002   4.583   3.894   8.396
 8458SOL    HW237003   4.674   3.773   8.391
 8459SOL     OW37004   1.620   4.590  19.073
 8459SOL    HW137005   1.625   4.612  18.980
 8459SOL    HW237006   1.686   4.521  19.085
 8460SOL     OW37007   1.039   2.475   3.798
 8460SOL    HW137008   1.022   2.470   3.892
 8460SOL    HW237009   1.001   2.558   3.770
 8461SOL     OW37010   0.608   0.049  22.881
 8461SOL    HW137011   0.641   0.036  22.792
 8461SOL    HW237012   0.516   0.073  22.869
 8462SOL     OW37013   0.526   3.691   7.341
 8462SOL    HW137014   0.614   3.688   7.378
 8462SOL    HW237015   0.478   3.751   7.398
 8463SOL     OW37016   2.558   1.854  10.758
 8463SOL    HW137017   2.586   1.800  10.684
 8463SOL    HW237018   2.512   1.793  10.816
 8464SOL     OW37019   4.391   3.397  19.842
 8464SOL    HW137020   4.406   3.309  19.877
 8464SOL    HW237021   4.360   3.448  19.917
 8465SOL     OW37022   4.036   1.535  21.769
 8465SOL    HW137023   4.018   1.525  21.675
 8465SOL    HW237024   3.956   1.573  21.804
 8466SOL     OW37025   1.448   2.447  20.395
 8466SOL    HW137026   1.436   2.478  20.305
 8466SOL    HW237027   1.453   2.352  20.387
 8467SOL     OW37028   3.701   2.451  23.146
 8467SOL    HW137029   3.653   2.412  23.073
 8467SOL    HW237030   3.760   2.382  23.175
 8468SOL     OW37031   3.335   0.875   4.373
 8468SOL    HW137032   3.345   0.868   4.468
 8468SOL    HW237033   3.259   0.821   4.353
 8469SOL     OW37034   1.173   3.596   1.764
 8469SOL    HW137035   1.259   3.583   1.804
 8469SOL    HW237036   1.167   3.691   1.751
 8470SOL     OW37037   4.691   0.899   4.824
 8470SOL    HW137038   4.660   0.866   4.740
 8470SOL    HW237039   4.680   0.994   4.819
 8471SOL     OW37040   3.103   0.886  26.385
 8471SOL    HW137041   3.021   0.915  26.345
 8471SOL    HW237042   3.147   0.967  26.412
 8472SOL     OW37043   3.276   3.137   2.261
 8472SOL    HW137044   3.188   3.102   2.250
 8472SOL    HW237045   3.262   3.230   2.280
 8473SOL     OW37046   2.601   0.321  23.507
 8473SOL    HW137047   2.625   0.405  23.467
 8473SOL    HW237048   2.555   0.345  23.588
 8474SOL     OW37049   4.692   0.991  21.932
 8474SOL    HW137050   4.780   0.994  21.970
 8474SOL    HW237051   4.673   0.898  21.922
 8475SOL     OW37052   1.044   2.711   3.393
 8475SOL    HW137053   1.066   2.686   3.303
 8475SOL    HW237054   1.031   2.806   3.390
 8476SOL     OW37055   2.693   1.348  25.110
 8476SOL    HW137056   2.660   1.432  25.141
 8476SOL    HW237057   2.754   1.320  25.178
 8477SOL     OW37058   3.144   4.342   0.042
 8477SOL    HW137059   3.115   4.428   0.073
 8477SOL    HW237060   3.232   4.331   0.078
 8478SOL     OW37061   2.125   0.299  12.423
 8478SOL    HW137062   2.078   0.266  12.500
 8478SOL    HW237063   2.085   0.384  12.405
 8479SOL     OW37064   0.484   1.970  26.277
 8479SOL    HW137065   0.517   2.056  26.301
 8479SOL    HW237066   0.554   1.931  26.225
 8480SOL     OW37067   0.698   0.251   6.399
 8480SOL    HW137068   0.613   0.284   6.429
 8480SOL    HW237069   0.681   0.216   6.311
 8481SOL     OW37070   2.113   2.018   6.916
 8481SOL    HW137071   2.175   2.064   6.859
 8481SOL    HW237072   2.089   2.083   6.982
 8482SOL     OW37073   3.585   4.324  11.939
 8482SOL    HW137074   3.498   4.306  11.976
 8482SOL    HW237075   3.632   4.370  12.009
 8483SOL     OW37076   3.804   4.725  11.848
 8483SOL    HW137077   3.746   0.019  11.836
 8483SOL    HW237078   3.842   4.738  11.935
 8484SOL     OW37079   3.454   1.282  27.944
 8484SOL    HW137080   3.547   1.305  27.947
 8484SOL    HW237081   3.409   1.363  27.967
 8485SOL     OW37082   0.831   4.200  20.900
 8485SOL    HW137083   0.908   4.150  20.927
 8485SOL    HW237084   0.861   4.291  20.899
 8486SOL     OW37085   1.847   1.361   4.861
 8486SOL    HW137086   1.893   1.426   4.915
 8486SOL    HW237087   1.884   1.372   4.774
 8487SOL     OW37088   2.856   1.935   8.033
 8487SOL    HW137089   2.901   1.855   8.006
 8487SOL    HW237090   2.855   1.930   8.129
 8488SOL     OW37091   2.180   4.756  11.889
 8488SOL    HW137092   2.133   0.020  11.960
 8488SOL    HW237093   2.126   4.770  11.812
 8489SOL     OW37094   0.752   4.099   9.372
 8489SOL    HW137095   0.812   4.084   9.299
 8489SOL    HW237096   0.732   4.192   9.367
 8490SOL     OW37097   3.295   2.129  21.266
 8490SOL    HW137098   3.277   2.155  21.356
 8490SOL    HW237099   3.220   2.075  21.242
 8491SOL     OW37100   3.148   2.080   9.674
 8491SOL    HW137101   3.159   1.992   9.709
 8491SOL    HW237102   3.143   2.067   9.579
 8492SOL     OW37103   1.452   4.530   9.312
 8492SOL    HW137104   1.543   4.542   9.341
 8492SOL    HW237105   1.408   4.490   9.387
 8493SOL     OW37106   2.645   2.147   0.334
 8493SOL    HW137107   2.707   2.189   0.394
 8493SOL    HW237108   2.643   2.056   0.362
 8494SOL     OW37109   2.094   4.602   8.794
 8494SOL    HW137110   2.165   4.660   8.823
 8494SOL    HW237111   2.093   4.610   8.699
 8495SOL     OW37112   0.128   2.832  10.481
 8495SOL    HW137113   0.110   2.913  10.529
 8495SOL    HW237114   0.165   2.862  10.398
 8496SOL     OW37115   0.938   2.564   7.379
 8496SOL    HW137116   0.902   2.647   7.410
 8496SOL    HW237117   1.013   2.548   7.436
 8497SOL     OW37118   3.409   4.492  22.765
 8497SOL    HW137119   3.413   4.571  22.710
 8497SOL    HW237120   3.398   4.525  22.854
 8498SOL     OW37121   3.944   4.174  12.589
 8498SOL    HW137122   3.938   4.260  12.630
 8498SOL    HW237123   4.038   4.159  12.578
 8499SOL     OW37124   0.462   0.303  11.400
 8499SOL    HW137125   0.454   0.239  11.471
 8499SOL    HW237126   0.384   0.290  11.346
 8500SOL     OW37127   4.693   3.833  13.056
 8500SOL    HW137128   4.713   3.917  13.015
 8500SOL    HW237129   4.764   3.819  13.119
 8501SOL     OW37130   0.572   0.012  12.466
 8501SOL    HW137131   0.625   0.005  12.387
 8501SOL    HW237132   0.635   0.002  12.538
 8502SOL     OW37133   2.763   1.483   7.310
 8502SOL    HW137134   2.848   1.444   7.329
 8502SOL    HW237135   2.747   1.543   7.383
 8503SOL     OW37136   3.131   4.735  11.876
 8503SOL    HW137137   3.120   0.045  11.902
 8503SOL    HW237138   3.163   4.691  11.955
 8504SOL     OW37139   0.455   0.118  11.595
 8504SOL    HW137140   0.432   0.150  11.682
 8504SOL    HW237141   0.434   0.025  11.598
 8505SOL     OW37142   2.882   0.432  11.574
 8505SOL    HW137143   2.808   0.476  11.617
 8505SOL    HW237144   2.949   0.500  11.567
 8506SOL     OW37145   0.311   0.313  10.964
 8506SOL    HW137146   0.250   0.368  11.013
 8506SOL    HW237147   0.389   0.368  10.952
 8507SOL     OW37148   4.384   4.337  11.839
 8507SOL    HW137149   4.397   4.411  11.780
 8507SOL    HW237150   4.383   4.376  11.927
 8508SOL     OW37151   4.384   2.003  11.684
 8508SOL    HW137152   4.297   2.041  11.674
 8508SOL    HW237153   4.372   1.932  11.748
 8509SOL     OW37154   4.624   0.039  12.841
 8509SOL    HW137155   4.532   0.056  12.822
 8509SOL    HW237156   4.650   0.109  12.900
 8510SOL     OW37157   2.625   0.396  13.203
 8510SOL    HW137158   2.705   0.344  13.203
 8510SOL    HW237159   2.636   0.457  13.276
 8511SOL     OW37160   2.977   3.830   5.613
 8511SOL    HW137161   2.933   3.779   5.545
 8511SOL    HW237162   3.037   3.887   5.565
 8512SOL     OW37163   3.479   1.888   9.079
 8512SOL    HW137164   3.520   1.882   9.165
 8512SOL    HW237165   3.482   1.799   9.044
 8513SOL     OW37166   4.309   0.645   9.266
 8513SOL    HW137167   4.377   0.579   9.282
 8513SOL    HW237168   4.228   0.604   9.296
 8514SOL     OW37169   0.889   3.656  13.182
 8514SOL    HW137170   0.924   3.744  13.194
 8514SOL    HW237171   0.868   3.652  13.089
 8515SOL     OW37172   4.687   4.127  13.235
 8515SOL    HW137173   4.681   4.127  13.139
 8515SOL    HW237174   4.636   4.203  13.262
 8516SOL     OW37175   4.475   4.561  11.720
 8516SOL    HW137176   4.526   4.627  11.766
 8516SOL    HW237177   4.449   4.603  11.638
 8517SOL     OW37178   0.353   4.655  12.379
 8517SOL    HW137179   0.413   4.701  12.437
 8517SOL    HW237180   0.312   4.724  12.327
 8518SOL     OW37181   4.199   1.601  11.721
 8518SOL    HW137182   4.205   1.539  11.649
 8518SOL    HW237183   4.284   1.596  11.765
 8519SOL     OW37184   0.382   3.803  12.901
 8519SOL    HW137185   0.299   3.833  12.939
 8519SOL    HW237186   0.357   3.734  12.839
 8520SOL     OW37187   0.033   2.433  12.819
 8520SOL    HW137188   4.727   2.395  12.828
 8520SOL    HW237189   0.017   2.520  12.783
 8521SOL     OW37190   4.581   4.771  12.077
 8521SOL    HW137191   4.578   0.065  12.017
 8521SOL    HW237192   4.632   4.705  12.030
 8522SOL     OW37193   4.524   3.240  11.620
 8522SOL    HW137194   4.611   3.226  11.582
 8522SOL    HW237195   4.541   3.292  11.699
 8523SOL     OW37196   4.712   4.094  12.968
 8523SOL    HW137197   4.683   4.167  12.913
 8523SOL    HW237198   0.023   4.080  12.944
 8524SOL     OW37199   3.527   2.343   3.858
 8524SOL    HW137200   3.584   2.415   3.832
 8524SOL    HW237201   3.439   2.380   3.854
 8525SOL     OW37202   0.657   2.001   6.513
 8525SOL    HW137203   0.696   2.005   6.426
 8525SOL    HW237204   0.615   2.086   6.525
 8526SOL     OW37205   2.798   4.632  25.157
 8526SOL    HW137206   2.730   4.605  25.096
 8526SOL    HW237207   2.752   4.686  25.222
 8527SOL     OW37208   4.670   3.872  11.101
 8527SOL    HW137209   4.688   3.906  11.013
 8527SOL    HW237210   4.603   3.930  11.136
 8528SOL     OW37211   4.735   3.591  12.951
 8528SOL    HW137212   4.736   3.614  12.858
 8528SOL    HW237213   4.717   3.674  12.996
 8529SOL     OW37214   0.036   3.640  12.652
 8529SOL    HW137215   0.048   3.552  12.618
 8529SOL    HW237216   4.744   3.676  12.602
 8530SOL     OW37217   4.737   4.660  11.537
 8530SOL    HW137218   4.692   4.701  11.611
 8530SOL    HW237219   4.667   4.624  11.483
 8531SOL     OW37220   4.074   0.520  12.935
 8531SOL    HW137221   4.015   0.524  13.010
 8531SOL    HW237222   4.019   0.542  12.860
 8532SOL     OW37223   4.458   4.145  12.716
 8532SOL    HW137224   4.525   4.212  12.730
 8532SOL    HW237225   4.507   4.069  12.684
 8533SOL     OW37226   0.957   1.787  12.614
 8533SOL    HW137227   0.900   1.774  12.690
 8533SOL    HW237228   0.898   1.791  12.539
 8534SOL     OW37229   4.356   0.589  12.950
 8534SOL    HW137230   4.421   0.519  12.950
 8534SOL    HW237231   4.276   0.547  12.981
 8535SOL     OW37232   2.381   4.666  21.482
 8535SOL    HW137233   2.327   4.590  21.458
 8535SOL    HW237234   2.346   4.695  21.566
 8536SOL     OW37235   4.536   4.325  13.335
 8536SOL    HW137236   4.526   4.314  13.430
 8536SOL    HW237237   4.478   4.397  13.313
 8537SOL     OW37238   4.611   3.902  12.653
 8537SOL    HW137239   4.532   3.892  12.706
 8537SOL    HW237240   4.624   3.816  12.614
 8538SOL     OW37241   4.379   4.525  12.051
 8538SOL    HW137242   4.305   4.563  12.099
 8538SOL    HW237243   4.425   4.600  12.014
 8539SOL     OW37244   4.276   3.882  12.529
 8539SOL    HW137245   4.294   3.874  12.623
 8539SOL    HW237246   4.266   3.792  12.498
 8540SOL     OW37247   4.226   4.153  12.552
 8540SOL    HW137248   4.230   4.059  12.536
 8540SOL    HW237249   4.293   4.169  12.619
 8541SOL     OW37250   1.226   0.487  12.826
 8541SOL    HW137251   1.237   0.481  12.921
 8541SOL    HW237252   1.153   0.428  12.806
 8542SOL     OW37253   0.351   4.641  11.548
 8542SOL    HW137254   0.305   4.651  11.465
 8542SOL    HW237255   0.356   4.546  11.562
 8543SOL     OW37256   3.343   2.638  13.680
 8543SOL    HW137257   3.379   2.551  13.696
 8543SOL    HW237258   3.248   2.626  13.682
 8544SOL     OW37259   3.122   0.516  14.335
 8544SOL    HW137260   3.116   0.600  14.381
 8544SOL    HW237261   3.211   0.515  14.300
 8545SOL     OW37262   3.938   4.410  12.695
 8545SOL    HW137263   3.888   4.427  12.775
 8545SOL    HW237264   4.018   4.461  12.705
 8546SOL     OW37265   3.853   0.067  12.979
 8546SOL    HW137266   3.848   0.155  13.016
 8546SOL    HW237267   3.849   0.080  12.884
 8547SOL     OW37268   3.260   0.385  13.355
 8547SOL    HW137269   3.236   0.476  13.337
 8547SOL    HW237270   3.341   0.391  13.406
 8548SOL     OW37271   3.655   4.405  12.887
 8548SOL    HW137272   3.654   4.469  12.958
 8548SOL    HW237273   3.704   4.331  12.922
 8549SOL     OW37274   3.260   0.814  13.625
 8549SOL    HW137275   3.328   0.880  13.639
 8549SOL    HW237276   3.192   0.835  13.689
 8550SOL     OW37277   3.336   0.114  12.970
 8550SOL    HW137278   3.267   0.076  13.025
 8550SOL    HW237279   3.414   0.062  12.989
 8551SOL     OW37280   1.332   4.129  13.558
 8551SOL    HW137281   1.257   4.074  13.582
 8551SOL    HW237282   1.355   4.175  13.639
 8552SOL     OW37283   4.453   4.718  11.471
 8552SOL    HW137284   4.476   0.023  11.435
 8552SOL    HW237285   4.370   4.732  11.516
 8553SOL     OW37286   4.107   4.543  14.307
 8553SOL    HW137287   4.013   4.550  14.321
 8553SOL    HW237288   4.115   4.511  14.217
 8554SOL     OW37289   0.257   0.166  13.734
 8554SOL    HW137290   0.339   0.205  13.764
 8554SOL    HW237291   0.235   0.101  13.801
 8555SOL     OW37292   1.429   2.703  11.949
 8555SOL    HW137293   1.405   2.776  12.006
 8555SOL    HW237294   1.446   2.630  12.009
 8556SOL     OW37295   3.736   0.472  13.896
 8556SOL    HW137296   3.664   0.465  13.959
 8556SOL    HW237297   3.705   0.426  13.818
 8557SOL     OW37298   0.213   3.583  14.127
 8557SOL    HW137299   0.281   3.613  14.067
 8557SOL    HW237300   0.261   3.548  14.202
 8558SOL     OW37301   0.271   0.237  14.423
 8558SOL    HW137302   0.289   0.269  14.335
 8558SOL    HW237303   0.357   0.234  14.466
 8559SOL     OW37304   0.409   4.549  14.011
 8559SOL    HW137305   0.355   4.627  13.999
 8559SOL    HW237306   0.387   4.492  13.937
 8560SOL     OW37307   4.356   3.818  14.262
 8560SOL    HW137308   4.301   3.863  14.198
 8560SOL    HW237309   4.295   3.764  14.312
 8561SOL     OW37310   3.874   0.439  14.321
 8561SOL    HW137311   3.788   0.406  14.295
 8561SOL    HW237312   3.905   0.376  14.386
 8562SOL     OW37313   0.398   3.494  14.298
 8562SOL    HW137314   0.485   3.490  14.258
 8562SOL    HW237315   0.413   3.535  14.383
 8563SOL     OW37316   0.200   3.857  12.640
 8563SOL    HW137317   0.290   3.826  12.647
 8563SOL    HW237318   0.147   3.777  12.640
 8564SOL     OW37319   0.273   3.980  13.875
 8564SOL    HW137320   0.215   3.922  13.925
 8564SOL    HW237321   0.252   4.068  13.907
 8565SOL     OW37322   1.376   4.211  13.814
 8565SOL    HW137323   1.290   4.215  13.856
 8565SOL    HW237324   1.401   4.303  13.804
 8566SOL     OW37325   4.123   3.671  13.402
 8566SOL    HW137326   4.218   3.668  13.388
 8566SOL    HW237327   4.113   3.703  13.492
 8567SOL     OW37328   0.132   4.468  13.925
 8567SOL    HW137329   0.162   4.451  13.836
 8567SOL    HW237330   0.135   4.382  13.968
 8568SOL     OW37331   3.670   4.394  13.860
 8568SOL    HW137332   3.658   4.371  13.768
 8568SOL    HW237333   3.747   4.451  13.861
 8569SOL     OW37334   0.521   4.140  14.891
 8569SOL    HW137335   0.489   4.129  14.801
 8569SOL    HW237336   0.477   4.218  14.923
 8570SOL     OW37337   4.629   0.166  14.997
 8570SOL    HW137338   4.587   0.161  14.911
 8570SOL    HW237339   4.583   0.101  15.050
 8571SOL     OW37340   3.957   3.864  13.325
 8571SOL    HW137341   3.893   3.859  13.396
 8571SOL    HW237342   4.024   3.799  13.349
 8572SOL     OW37343   3.447   0.426  13.821
 8572SOL    HW137344   3.356   0.410  13.846
 8572SOL    HW237345   3.492   0.444  13.904
 8573SOL     OW37346   4.092   4.589  13.739
 8573SOL    HW137347   4.143   4.650  13.793
 8573SOL    HW237348   4.002   4.599  13.770
 8574SOL     OW37349   4.679   3.675  15.296
 8574SOL    HW137350   4.765   3.656  15.259
 8574SOL    HW237351   4.645   3.590  15.324
 8575SOL     OW37352   4.765   3.561  14.903
 8575SOL    HW137353   4.696   3.594  14.846
 8575SOL    HW237354   4.741   3.470  14.920
 8576SOL     OW37355   4.083   3.731  14.226
 8576SOL    HW137356   3.990   3.728  14.205
 8576SOL    HW237357   4.086   3.752  14.319
 8577SOL     OW37358   0.100   0.611  13.350
 8577SOL    HW137359   0.149   0.588  13.429
 8577SOL    HW237360   0.054   0.691  13.373
 8578SOL     OW37361   0.374   0.252  13.486
 8578SOL    HW137362   0.399   0.271  13.576
 8578SOL    HW237363   0.325   0.170  13.491
 8579SOL     OW37364   1.176   4.706  13.730
 8579SOL    HW137365   1.265   4.736  13.748
 8579SOL    HW237366   1.120   4.779  13.756
 8580SOL     OW37367   0.973   0.764  11.918
 8580SOL    HW137368   1.045   0.790  11.860
 8580SOL    HW237369   1.003   0.683  11.959
 8581SOL     OW37370   4.290   4.555  13.531
 8581SOL    HW137371   4.298   4.645  13.562
 8581SOL    HW237372   4.254   4.507  13.606
 8582SOL     OW37373   0.002   4.218  13.544
 8582SOL    HW137374   4.701   4.259  13.571
 8582SOL    HW237375   4.756   4.145  13.489
 8583SOL     OW37376   4.335   4.494  13.274
 8583SOL    HW137377   4.277   4.422  13.250
 8583SOL    HW237378   4.324   4.503  13.369
 8584SOL     OW37379   3.818   3.701  14.116
 8584SOL    HW137380   3.812   3.643  14.040
 8584SOL    HW237381   3.740   3.756  14.111
 8585SOL     OW37382   0.237   4.751  13.914
 8585SOL    HW137383   0.165   4.698  13.880
 8585SOL    HW237384   0.217   4.763  14.007
 8586SOL     OW37385   0.355   3.519  15.086
 8586SOL    HW137386   0.341   3.444  15.028
 8586SOL    HW237387   0.449   3.535  15.081
 8587SOL     OW37388   3.496   3.612  13.941
 8587SOL    HW137389   3.453   3.558  14.007
 8587SOL    HW237390   3.531   3.686  13.990
 8588SOL     OW37391   4.180   3.944  14.072
 8588SOL    HW137392   4.178   3.935  13.977
 8588SOL    HW237393   4.129   3.870  14.104
 8589SOL     OW37394   3.863   4.583  13.891
 8589SOL    HW137395   3.918   4.563  13.967
 8589SOL    HW237396   3.790   4.634  13.926
 8590SOL     OW37397   0.083   3.810  14.056
 8590SOL    HW137398   0.134   3.740  14.097
 8590SOL    HW237399   0.013   3.829  14.118
 8591SOL     OW37400   4.590   3.815  14.152
 8591SOL    HW137401   4.518   3.817  14.215
 8591SOL    HW237402   4.564   3.876  14.083
 8592SOL     OW37403   4.071   3.313  14.998
 8592SOL    HW137404   4.115   3.263  15.067
 8592SOL    HW237405   4.001   3.256  14.967
 8593SOL     OW37406   4.543   4.616  15.704
 8593SOL    HW137407   4.596   4.665  15.642
 8593SOL    HW237408   4.606   4.570  15.759
 8594SOL     OW37409   3.865   4.560  15.321
 8594SOL    HW137410   3.945   4.518  15.290
 8594SOL    HW237411   3.892   4.648  15.346
 8595SOL     OW37412   2.769   3.904  17.424
 8595SOL    HW137413   2.799   3.852  17.349
 8595SOL    HW237414   2.690   3.948  17.392
 8596SOL     OW37415   3.817   2.404  19.388
 8596SOL    HW137416   3.871   2.349  19.332
 8596SOL    HW237417   3.750   2.345  19.422
 8597SOL     OW37418   1.630   2.201  17.222
 8597SOL    HW137419   1.684   2.139  17.172
 8597SOL    HW237420   1.542   2.190  17.186
 8598SOL     OW37421   1.058   4.659  15.693
 8598SOL    HW137422   1.024   4.572  15.715
 8598SOL    HW237423   1.136   4.669  15.747
 8599SOL     OW37424   3.168   0.280  17.372
 8599SOL    HW137425   3.254   0.319  17.357
 8599SOL    HW237426   3.108   0.355  17.373
 8600SOL     OW37427   3.904   0.072  15.201
 8600SOL    HW137428   3.993   0.075  15.236
 8600SOL    HW237429   3.915   0.046  15.110
 8601SOL     OW37430   4.763   0.495  15.886
 8601SOL    HW137431   4.712   0.422  15.920
 8601SOL    HW237432   4.749   0.493  15.791
 8602SOL     OW37433   0.240   0.437  15.664
 8602SOL    HW137434   0.208   0.372  15.601
 8602SOL    HW237435   0.169   0.447  15.727
 8603SOL     OW37436   0.155   4.124  15.403
 8603SOL    HW137437   0.233   4.179  15.397
 8603SOL    HW237438   0.147   4.084  15.316
 8604SOL     OW37439   0.194   3.448  15.956
 8604SOL    HW137440   0.249   3.425  15.881
 8604SOL    HW237441   0.196   3.544  15.958
 8605SOL     OW37442   0.022   0.214  14.534
 8605SOL    HW137443   4.744   0.255  14.470
 8605SOL    HW237444   0.108   0.215  14.492
 8606SOL     OW37445   4.656   4.220  14.874
 8606SOL    HW137446   4.746   4.187  14.878
 8606SOL    HW237447   4.609   4.157  14.820
 8607SOL     OW37448   4.337   3.619  14.908
 8607SOL    HW137449   4.399   3.589  14.842
 8607SOL    HW237450   4.387   3.681  14.961
 8608SOL     OW37451   4.445   4.220  17.908
 8608SOL    HW137452   4.511   4.288  17.920
 8608SOL    HW237453   4.415   4.231  17.818
 8609SOL     OW37454   0.895   0.197  15.632
 8609SOL    HW137455   0.846   0.166  15.556
 8609SOL    HW237456   0.975   0.235  15.595
 8610SOL     OW37457   4.615   4.478  14.878
 8610SOL    HW137458   4.702   4.511  14.855
 8610SOL    HW237459   4.621   4.383  14.865
 8611SOL     OW37460   3.249   4.013  17.512
 8611SOL    HW137461   3.211   3.935  17.472
 8611SOL    HW237462   3.302   4.053  17.443
 8612SOL     OW37463   4.054   0.254  15.429
 8612SOL    HW137464   4.127   0.241  15.369
 8612SOL    HW237465   4.024   0.343  15.411
 8613SOL     OW37466   3.862   4.233  15.073
 8613SOL    HW137467   3.883   4.304  15.013
 8613SOL    HW237468   3.882   4.153  15.024
 8614SOL     OW37469   4.666   4.085  15.825
 8614SOL    HW137470   4.669   4.079  15.729
 8614SOL    HW237471   4.638   4.175  15.843
 8615SOL     OW37472   3.951   3.624  15.168
 8615SOL    HW137473   3.881   3.564  15.141
 8615SOL    HW237474   4.012   3.624  15.095
 8616SOL     OW37475   3.980   2.907  15.043
 8616SOL    HW137476   4.055   2.864  15.003
 8616SOL    HW237477   4.019   2.967  15.107
 8617SOL     OW37478   0.217   3.623  17.885
 8617SOL    HW137479   0.282   3.611  17.816
 8617SOL    HW237480   0.268   3.642  17.964
 8618SOL     OW37481   0.621   0.534  15.138
 8618SOL    HW137482   0.626   0.555  15.045
 8618SOL    HW237483   0.641   0.616  15.182
 8619SOL     OW37484   4.073   4.465  15.184
 8619SOL    HW137485   4.018   4.440  15.110
 8619SOL    HW237486   4.153   4.413  15.173
 8620SOL     OW37487   3.892   0.053  15.526
 8620SOL    HW137488   3.942   0.133  15.512
 8620SOL    HW237489   3.818   0.060  15.466
 8621SOL     OW37490   0.334   0.070  14.799
 8621SOL    HW137491   0.384   0.137  14.752
 8621SOL    HW237492   0.257   0.117  14.833
 8622SOL     OW37493   0.287   0.638  15.048
 8622SOL    HW137494   0.357   0.607  14.991
 8622SOL    HW237495   0.210   0.588  15.021
 8623SOL     OW37496   0.826   2.652  15.104
 8623SOL    HW137497   0.829   2.657  15.009
 8623SOL    HW237498   0.867   2.733  15.134
 8624SOL     OW37499   4.371   4.084  15.774
 8624SOL    HW137500   4.370   4.157  15.712
 8624SOL    HW237501   4.456   4.091  15.818
 8625SOL     OW37502   0.133   3.857  16.537
 8625SOL    HW137503   0.168   3.845  16.625
 8625SOL    HW237504   0.166   3.943  16.510
 8626SOL     OW37505   4.020   0.604  14.183
 8626SOL    HW137506   4.013   0.675  14.247
 8626SOL    HW237507   3.969   0.533  14.221
 8627SOL     OW37508   0.163   3.626  16.191
 8627SOL    HW137509   0.074   3.647  16.165
 8627SOL    HW237510   0.218   3.663  16.122
 8628SOL     OW37511   0.829   0.412  15.788
 8628SOL    HW137512   0.862   0.343  15.731
 8628SOL    HW237513   0.773   0.465  15.732
 8629SOL     OW37514   4.095   3.948  15.757
 8629SOL    HW137515   4.167   4.006  15.783
 8629SOL    HW237516   4.035   4.005  15.709
 8630SOL     OW37517   4.492   4.148  15.082
 8630SOL    HW137518   4.569   4.165  15.028
 8630SOL    HW237519   4.527   4.113  15.164
 8631SOL     OW37520   3.543   3.583  16.330
 8631SOL    HW137521   3.581   3.498  16.351
 8631SOL    HW237522   3.617   3.636  16.301
 8632SOL     OW37523   2.459   3.604  15.776
 8632SOL    HW137524   2.483   3.553  15.854
 8632SOL    HW237525   2.364   3.598  15.772
 8633SOL     OW37526   4.265   4.297  15.042
 8633SOL    HW137527   4.334   4.234  15.063
 8633SOL    HW237528   4.241   4.277  14.951
 8634SOL     OW37529   4.742   0.332  15.193
 8634SOL    HW137530   0.046   0.342  15.151
 8634SOL    HW237531   4.686   0.294  15.125
 8635SOL     OW37532   0.417   3.590  14.574
 8635SOL    HW137533   0.467   3.510  14.592
 8635SOL    HW237534   0.350   3.592  14.643
 8636SOL     OW37535   3.943   3.762  15.939
 8636SOL    HW137536   4.008   3.699  15.969
 8636SOL    HW237537   3.991   3.820  15.880
 8637SOL     OW37538   4.137   4.729  15.422
 8637SOL    HW137539   4.079   0.003  15.475
 8637SOL    HW237540   4.166   0.004  15.350
 8638SOL     OW37541   4.556   3.808  15.635
 8638SOL    HW137542   4.475   3.822  15.684
 8638SOL    HW237543   4.573   3.892  15.593
 8639SOL     OW37544   4.386   0.624  16.937
 8639SOL    HW137545   4.456   0.559  16.930
 8639SOL    HW237546   4.430   0.704  16.965
 8640SOL     OW37547   0.904   3.673  16.923
 8640SOL    HW137548   0.988   3.650  16.882
 8640SOL    HW237549   0.928   3.705  17.010
 8641SOL     OW37550   3.460   4.709  13.381
 8641SOL    HW137551   3.549   4.742  13.388
 8641SOL    HW237552   3.471   4.615  13.365
 8642SOL     OW37553   3.357   0.679  17.473
 8642SOL    HW137554   3.284   0.700  17.532
 8642SOL    HW237555   3.320   0.689  17.385
 8643SOL     OW37556   4.701   3.800  26.702
 8643SOL    HW137557   4.762   3.846  26.760
 8643SOL    HW237558   4.662   3.869  26.648
 8644SOL     OW37559   4.477   3.760  15.083
 8644SOL    HW137560   4.554   3.803  15.045
 8644SOL    HW237561   4.513   3.697  15.145
 8645SOL     OW37562   1.250   3.742  15.457
 8645SOL    HW137563   1.202   3.698  15.387
 8645SOL    HW237564   1.340   3.745  15.426
 8646SOL     OW37565   3.681   0.089  15.352
 8646SOL    HW137566   3.635   0.008  15.329
 8646SOL    HW237567   3.740   0.105  15.278
 8647SOL     OW37568   4.192   0.134  15.225
 8647SOL    HW137569   4.211   0.070  15.156
 8647SOL    HW237570   4.215   0.219  15.187
 8648SOL     OW37571   3.946   0.265  14.520
 8648SOL    HW137572   4.039   0.282  14.508
 8648SOL    HW237573   3.936   0.172  14.499
 8649SOL     OW37574   4.719   3.924  15.025
 8649SOL    HW137575   4.678   3.932  14.939
 8649SOL    HW237576   0.030   3.905  15.006
 8650SOL     OW37577   4.658   3.532  15.644
 8650SOL    HW137578   4.662   3.527  15.739
 8650SOL    HW237579   4.634   3.623  15.625
 8651SOL     OW37580   3.953   4.449  14.914
 8651SOL    HW137581   3.977   4.416  14.827
 8651SOL    HW237582   3.947   4.544  14.902
 8652SOL     OW37583   3.442   3.246  14.937
 8652SOL    HW137584   3.351   3.267  14.957
 8652SOL    HW237585   3.468   3.183  15.004
 8653SOL     OW37586   4.714   2.909  15.206
 8653SOL    HW137587   4.656   2.848  15.161
 8653SOL    HW237588   4.658   2.983  15.229
 8654SOL     OW37589   4.706   4.048  15.558
 8654SOL    HW137590   0.011   4.088  15.544
 8654SOL    HW237591   4.683   4.011  15.473
 8655SOL     OW37592   0.137   4.125  15.119
 8655SOL    HW137593   0.114   4.215  15.143
 8655SOL    HW237594   0.138   4.125  15.023
 8656SOL     OW37595   4.357   4.535  14.923
 8656SOL    HW137596   4.445   4.503  14.904
 8656SOL    HW237597   4.318   4.466  14.976
 8657SOL     OW37598   4.075   4.668  14.654
 8657SOL    HW137599   4.004   4.705  14.602
 8657SOL    HW237600   4.138   4.740  14.664
 8658SOL     OW37601   0.132   4.118  14.848
 8658SOL    HW137602   0.184   4.138  14.771
 8658SOL    HW237603   0.153   4.027  14.869
 8659SOL     OW37604   0.779   4.547  16.006
 8659SOL    HW137605   0.717   4.475  16.013
 8659SOL    HW237606   0.731   4.616  15.959
 8660SOL     OW37607   0.671   4.779  15.207
 8660SOL    HW137608   0.723   0.061  15.157
 8660SOL    HW237609   0.588   4.774  15.160
 8661SOL     OW37610   4.313   4.532  16.380
 8661SOL    HW137611   4.219   4.538  16.365
 8661SOL    HW237612   4.340   4.623  16.395
 8662SOL     OW37613   1.031   4.602  15.118
 8662SOL    HW137614   0.952   4.599  15.063
 8662SOL    HW237615   1.069   4.514  15.110
 8663SOL     OW37616   4.551   2.900  15.945
 8663SOL    HW137617   4.521   2.924  15.857
 8663SOL    HW237618   4.498   2.955  16.004
 8664SOL     OW37619   4.254   4.234  17.295
 8664SOL    HW137620   4.237   4.194  17.209
 8664SOL    HW237621   4.238   4.327  17.282
 8665SOL     OW37622   0.865   3.930  17.362
 8665SOL    HW137623   0.926   4.003  17.372
 8665SOL    HW237624   0.778   3.971  17.368
 8666SOL     OW37625   4.768   4.314  16.519
 8666SOL    HW137626   0.061   4.366  16.487
 8666SOL    HW237627   4.733   4.271  16.441
 8667SOL     OW37628   0.573   3.379  17.627
 8667SOL    HW137629   0.649   3.416  17.672
 8667SOL    HW237630   0.498   3.411  17.677
 8668SOL     OW37631   3.881   3.567  18.292
 8668SOL    HW137632   3.919   3.652  18.270
 8668SOL    HW237633   3.873   3.569  18.387
 8669SOL     OW37634   0.957   0.975  17.200
 8669SOL    HW137635   0.920   0.897  17.158
 8669SOL    HW237636   0.894   1.044  17.181
 8670SOL     OW37637   4.604   2.320  18.495
 8670SOL    HW137638   4.553   2.338  18.574
 8670SOL    HW237639   4.635   2.230  18.506
 8671SOL     OW37640   1.439   4.067  16.865
 8671SOL    HW137641   1.503   3.997  16.881
 8671SOL    HW237642   1.358   4.034  16.903
 8672SOL     OW37643   1.087   3.893  16.128
 8672SOL    HW137644   1.069   3.825  16.063
 8672SOL    HW237645   1.056   3.974  16.088
 8673SOL     OW37646   1.946   3.571  15.190
 8673SOL    HW137647   1.986   3.501  15.242
 8673SOL    HW237648   2.019   3.628  15.166
 8674SOL     OW37649   3.100   1.991  19.653
 8674SOL    HW137650   3.194   1.978  19.640
 8674SOL    HW237651   3.062   1.977  19.566
 8675SOL     OW37652   0.844   3.832  27.261
 8675SOL    HW137653   0.756   3.866  27.246
 8675SOL    HW237654   0.863   3.780  27.183
 8676SOL     OW37655   3.646   2.214  18.978
 8676SOL    HW137656   3.632   2.162  19.057
 8676SOL    HW237657   3.721   2.173  18.936
 8677SOL     OW37658   2.465   1.733  27.899
 8677SOL    HW137659   2.467   1.828  27.887
 8677SOL    HW237660   2.500   1.719  27.987
 8678SOL     OW37661   2.982   2.639  24.599
 8678SOL    HW137662   3.066   2.685  24.593
 8678SOL    HW237663   2.992   2.580  24.674
 8679SOL     OW37664   4.465   3.901  17.127
 8679SOL    HW137665   4.424   3.817  17.146
 8679SOL    HW237666   4.393   3.956  17.096
 8680SOL     OW37667   1.834   2.220  19.388
 8680SOL    HW137668   1.743   2.238  19.410
 8680SOL    HW237669   1.876   2.306  19.387
 8681SOL     OW37670   3.478   4.321  16.880
 8681SOL    HW137671   3.531   4.379  16.935
 8681SOL    HW237672   3.422   4.380  16.829
 8682SOL     OW37673   0.329   1.182   2.402
 8682SOL    HW137674   0.271   1.152   2.332
 8682SOL    HW237675   0.417   1.159   2.372
 8683SOL     OW37676   2.582   4.041  15.867
 8683SOL    HW137677   2.527   4.094  15.810
 8683SOL    HW237678   2.610   4.101  15.936
 8684SOL     OW37679   0.456   0.886  15.759
 8684SOL    HW137680   0.363   0.895  15.779
 8684SOL    HW237681   0.466   0.795  15.732
 8685SOL     OW37682   1.191   2.301   6.831
 8685SOL    HW137683   1.101   2.273   6.817
 8685SOL    HW237684   1.192   2.335   6.921
 8686SOL     OW37685   1.900   0.061  10.226
 8686SOL    HW137686   1.818   0.083  10.270
 8686SOL    HW237687   1.957   0.028  10.296
 8687SOL     OW37688   1.159   0.769  25.970
 8687SOL    HW137689   1.091   0.708  25.943
 8687SOL    HW237690   1.113   0.837  26.018
 8688SOL     OW37691   0.143   1.555  15.901
 8688SOL    HW137692   0.090   1.589  15.829
 8688SOL    HW237693   0.196   1.629  15.930
 8689SOL     OW37694   0.002   4.479  18.761
 8689SOL    HW137695   4.695   4.471  18.725
 8689SOL    HW237696   0.048   4.401  18.731
 8690SOL     OW37697   4.700   3.319  18.058
 8690SOL    HW137698   4.704   3.397  18.002
 8690SOL    HW237699   4.607   3.309  18.077
 8691SOL     OW37700   0.249   2.660   4.069
 8691SOL    HW137701   0.327   2.707   4.100
 8691SOL    HW237702   0.180   2.684   4.131
 8692SOL     OW37703   1.895   0.142  18.971
 8692SOL    HW137704   1.981   0.179  18.952
 8692SOL    HW237705   1.867   0.103  18.888
 8693SOL     OW37706   4.588   1.155  16.866
 8693SOL    HW137707   4.529   1.117  16.801
 8693SOL    HW237708   4.646   1.083  16.892
 8694SOL     OW37709   0.264   2.752  22.718
 8694SOL    HW137710   0.294   2.665  22.692
 8694SOL    HW237711   0.343   2.806  22.720
 8695SOL     OW37712   2.601   2.107  20.414
 8695SOL    HW137713   2.516   2.092  20.372
 8695SOL    HW237714   2.637   2.019  20.428
 8696SOL     OW37715   0.145   0.561  17.655
 8696SOL    HW137716   0.082   0.495  17.684
 8696SOL    HW237717   0.214   0.511  17.612
 8697SOL     OW37718   1.010   4.032  16.910
 8697SOL    HW137719   0.976   3.974  16.978
 8697SOL    HW237720   0.990   3.987  16.828
 8698SOL     OW37721   4.746   3.175  17.197
 8698SOL    HW137722   0.044   3.149  17.149
 8698SOL    HW237723   4.680   3.188  17.129
 8699SOL     OW37724   0.440   2.087  15.554
 8699SOL    HW137725   0.478   2.152  15.612
 8699SOL    HW237726   0.504   2.016  15.552
 8700SOL     OW37727   3.602   3.702  17.087
 8700SOL    HW137728   3.567   3.613  17.092
 8700SOL    HW237729   3.529   3.758  17.115
 8701SOL     OW37730   4.384   4.601  15.928
 8701SOL    HW137731   4.436   4.645  15.860
 8701SOL    HW237732   4.328   4.540  15.880
 8702SOL     OW37733   3.545   3.509  18.394
 8702SOL    HW137734   3.576   3.549  18.313
 8702SOL    HW237735   3.608   3.440  18.413
 8703SOL     OW37736   2.865   3.180  18.343
 8703SOL    HW137737   2.849   3.241  18.415
 8703SOL    HW237738   2.925   3.226  18.285
 8704SOL     OW37739   1.582   3.992  16.299
 8704SOL    HW137740   1.499   3.997  16.251
 8704SOL    HW237741   1.626   3.915  16.263
 8705SOL     OW37742   4.113   4.124  17.506
 8705SOL    HW137743   4.143   4.170  17.428
 8705SOL    HW237744   4.164   4.043  17.507
 8706SOL     OW37745   1.094   4.776  18.147
 8706SOL    HW137746   1.140   0.063  18.197
 8706SOL    HW237747   1.019   4.753  18.201
 8707SOL     OW37748   0.333   3.582  18.146
 8707SOL    HW137749   0.266   3.524  18.182
 8707SOL    HW237750   0.401   3.523  18.114
 8708SOL     OW37751   1.419   3.724  18.506
 8708SOL    HW137752   1.433   3.770  18.423
 8708SOL    HW237753   1.367   3.785  18.559
 8709SOL     OW37754   3.003   1.302  25.339
 8709SOL    HW137755   3.006   1.243  25.414
 8709SOL    HW237756   3.026   1.247  25.264
 8710SOL     OW37757   1.316   2.734  22.539
 8710SOL    HW137758   1.361   2.810  22.575
 8710SOL    HW237759   1.261   2.703  22.611
 8711SOL     OW37760   3.229   4.565  21.780
 8711SOL    HW137761   3.135   4.574  21.765
 8711SOL    HW237762   3.237   4.554  21.875
 8712SOL     OW37763   1.210   4.740  15.478
 8712SOL    HW137764   1.172   4.718  15.563
 8712SOL    HW237765   1.136   4.773  15.427
 8713SOL     OW37766   0.123   4.609  19.744
 8713SOL    HW137767   0.059   4.558  19.793
 8713SOL    HW237768   0.071   4.653  19.677
 8714SOL     OW37769   0.269   1.858  16.207
 8714SOL    HW137770   0.360   1.870  16.233
 8714SOL    HW237771   0.273   1.802  16.130
 8715SOL     OW37772   3.451   4.208  17.407
 8715SOL    HW137773   3.522   4.234  17.349
 8715SOL    HW237774   3.453   4.272  17.478
 8716SOL     OW37775   3.677   4.340  17.251
 8716SOL    HW137776   3.688   4.422  17.299
 8716SOL    HW237777   3.644   4.366  17.165
 8717SOL     OW37778   0.613   0.556  17.071
 8717SOL    HW137779   0.556   0.593  17.004
 8717SOL    HW237780   0.554   0.532  17.142
 8718SOL     OW37781   0.121   0.691  16.325
 8718SOL    HW137782   0.174   0.758  16.282
 8718SOL    HW237783   0.041   0.736  16.350
 8719SOL     OW37784   0.621   0.113  16.099
 8719SOL    HW137785   0.643   0.143  16.011
 8719SOL    HW237786   0.702   0.075  16.132
 8720SOL     OW37787   4.535   0.849  17.015
 8720SOL    HW137788   4.623   0.866  16.981
 8720SOL    HW237789   4.550   0.818  17.104
 8721SOL     OW37790   3.458   0.075  16.581
 8721SOL    HW137791   3.411   0.154  16.606
 8721SOL    HW237792   3.547   0.105  16.563
 8722SOL     OW37793   0.253   3.848  17.410
 8722SOL    HW137794   0.224   3.757  17.403
 8722SOL    HW237795   0.344   3.846  17.380
 8723SOL     OW37796   1.173   3.739  17.279
 8723SOL    HW137797   1.241   3.747  17.346
 8723SOL    HW237798   1.208   3.674  17.218
 8724SOL     OW37799   4.407   0.015  21.504
 8724SOL    HW137800   4.359   4.758  21.577
 8724SOL    HW237801   4.339   0.052  21.448
 8725SOL     OW37802   2.982   1.194  20.898
 8725SOL    HW137803   2.942   1.180  20.812
 8725SOL    HW237804   2.948   1.123  20.953
 8726SOL     OW37805   1.223   0.345  16.791
 8726SOL    HW137806   1.299   0.367  16.737
 8726SOL    HW237807   1.235   0.253  16.813
 8727SOL     OW37808   4.533   4.316  15.917
 8727SOL    HW137809   4.493   4.342  16.000
 8727SOL    HW237810   4.592   4.388  15.896
 8728SOL     OW37811   0.668   3.942  17.106
 8728SOL    HW137812   0.702   3.916  17.021
 8728SOL    HW237813   0.711   4.026  17.125
 8729SOL     OW37814   2.261   1.400  18.552
 8729SOL    HW137815   2.225   1.449  18.626
 8729SOL    HW237816   2.186   1.388  18.493
 8730SOL     OW37817   3.131   4.338  17.418
 8730SOL    HW137818   3.046   4.377  17.398
 8730SOL    HW237819   3.190   4.413  17.424
 8731SOL     OW37820   4.046   0.749  19.037
 8731SOL    HW137821   4.139   0.728  19.036
 8731SOL    HW237822   4.013   0.717  18.953
 8732SOL     OW37823   0.993   4.112  16.025
 8732SOL    HW137824   1.053   4.156  15.964
 8732SOL    HW237825   0.942   4.183  16.063
 8733SOL     OW37826   2.099   0.993   8.696
 8733SOL    HW137827   2.105   0.925   8.629
 8733SOL    HW237828   2.181   1.042   8.688
 8734SOL     OW37829   4.597   2.703  24.219
 8734SOL    HW137830   4.682   2.662  24.203
 8734SOL    HW237831   4.547   2.637  24.267
 8735SOL     OW37832   0.576   0.428  15.385
 8735SOL    HW137833   0.603   0.460  15.299
 8735SOL    HW237834   0.626   0.347  15.397
 8736SOL     OW37835   0.032   1.410  25.748
 8736SOL    HW137836   0.006   1.356  25.673
 8736SOL    HW237837   0.125   1.426  25.734
 8737SOL     OW37838   0.625   1.119  18.674
 8737SOL    HW137839   0.536   1.083  18.673
 8737SOL    HW237840   0.613   1.213  18.663
 8738SOL     OW37841   4.348   4.738  17.402
 8738SOL    HW137842   4.380   0.023  17.341
 8738SOL    HW237843   4.308   0.007  17.473
 8739SOL     OW37844   4.335   2.385  23.125
 8739SOL    HW137845   4.397   2.433  23.180
 8739SOL    HW237846   4.321   2.442  23.049
 8740SOL     OW37847   0.523   1.048   4.898
 8740SOL    HW137848   0.579   0.984   4.853
 8740SOL    HW237849   0.571   1.069   4.978
 8741SOL     OW37850   2.872   4.192   5.749
 8741SOL    HW137851   2.858   4.162   5.839
 8741SOL    HW237852   2.930   4.268   5.758
 8742SOL     OW37853   1.934   0.601   2.218
 8742SOL    HW137854   2.005   0.657   2.248
 8742SOL    HW237855   1.860   0.623   2.274
 8743SOL     OW37856   4.580   0.507  26.371
 8743SOL    HW137857   4.602   0.498  26.464
 8743SOL    HW237858   4.487   0.529  26.370
 8744SOL     OW37859   2.284   4.643  17.717
 8744SOL    HW137860   2.319   4.581  17.653
 8744SOL    HW237861   2.360   4.696  17.743
 8745SOL     OW37862   4.032   0.074   2.484
 8745SOL    HW137863   4.082   0.127   2.545
 8745SOL    HW237864   4.058   4.765   2.503
 8746SOL     OW37865   3.139   0.084  27.951
 8746SOL    HW137866   3.224   0.087  27.907
 8746SOL    HW237867   3.076   0.072  27.880
 8747SOL     OW37868   4.078   2.676  24.371
 8747SOL    HW137869   4.135   2.626  24.430
 8747SOL    HW237870   3.989   2.648  24.394
 8748SOL     OW37871   2.113   0.824  17.032
 8748SOL    HW137872   2.080   0.887  17.096
 8748SOL    HW237873   2.170   0.875  16.975
 8749SOL     OW37874   2.262   3.093  23.846
 8749SOL    HW137875   2.301   3.022  23.795
 8749SOL    HW237876   2.211   3.049  23.914
 8750SOL     OW37877   3.296   4.462   4.066
 8750SOL    HW137878   3.377   4.420   4.093
 8750SOL    HW237879   3.289   4.539   4.123
 8751SOL     OW37880   4.334   1.077   7.635
 8751SOL    HW137881   4.387   1.050   7.560
 8751SOL    HW237882   4.341   1.172   7.636
 8752SOL     OW37883   2.619   1.694   9.046
 8752SOL    HW137884   2.635   1.754   9.119
 8752SOL    HW237885   2.561   1.627   9.082
 8753SOL     OW37886   1.958   2.510  23.495
 8753SOL    HW137887   2.017   2.460  23.551
 8753SOL    HW237888   1.881   2.454  23.485
 8754SOL     OW37889   0.615   4.251  23.980
 8754SOL    HW137890   0.555   4.183  24.009
 8754SOL    HW237891   0.698   4.206  23.966
 8755SOL     OW37892   0.090   3.641   0.706
 8755SOL    HW137893   0.133   3.710   0.756
 8755SOL    HW237894   0.109   3.663   0.615
 8756SOL     OW37895   3.767   1.936   7.638
 8756SOL    HW137896   3.700   1.955   7.704
 8756SOL    HW237897   3.748   1.997   7.567
 8757SOL     OW37898   1.055   1.118  17.476
 8757SOL    HW137899   1.066   1.062  17.399
 8757SOL    HW237900   1.063   1.207  17.443
 8758SOL     OW37901   1.076   0.991   7.108
 8758SOL    HW137902   1.106   1.081   7.123
 8758SOL    HW237903   1.059   0.987   7.014
 8759SOL     OW37904   1.858   3.237  25.862
 8759SOL    HW137905   1.916   3.249  25.937
 8759SOL    HW237906   1.915   3.248  25.786
 8760SOL     OW37907   1.301   3.642  22.818
 8760SOL    HW137908   1.223   3.666  22.869
 8760SOL    HW237909   1.374   3.652  22.880
 8761SOL     OW37910   0.105   1.591  11.334
 8761SOL    HW137911   0.011   1.609  11.331
 8761SOL    HW237912   0.112   1.499  11.307
 8762SOL     OW37913   0.031   2.495  16.283
 8762SOL    HW137914   4.723   2.475  16.252
 8762SOL    HW237915   0.049   2.583  16.249
 8763SOL     OW37916   0.377   0.429   3.119
 8763SOL    HW137917   0.299   0.474   3.087
 8763SOL    HW237918   0.449   0.487   3.097
 8764SOL     OW37919   4.041   0.296  20.657
 8764SOL    HW137920   3.995   0.237  20.718
 8764SOL    HW237921   4.070   0.239  20.586
 8765SOL     OW37922   0.885   0.738  24.505
 8765SOL    HW137923   0.831   0.754  24.428
 8765SOL    HW237924   0.949   0.809  24.505
 8766SOL     OW37925   0.827   1.916   2.803
 8766SOL    HW137926   0.745   1.875   2.830
 8766SOL    HW237927   0.808   1.955   2.718
 8767SOL     OW37928   3.631   3.745  21.997
 8767SOL    HW137929   3.717   3.752  21.955
 8767SOL    HW237930   3.604   3.655  21.980
 8768SOL     OW37931   0.315   0.768   2.805
 8768SOL    HW137932   0.263   0.831   2.856
 8768SOL    HW237933   0.337   0.699   2.867
 8769SOL     OW37934   1.615   1.823  20.307
 8769SOL    HW137935   1.581   1.740  20.273
 8769SOL    HW237936   1.543   1.860  20.359
 8770SOL     OW37937   4.670   4.723  26.137
 8770SOL    HW137938   4.602   4.656  26.130
 8770SOL    HW237939   4.729   4.690  26.205
 8771SOL     OW37940   4.040   0.300  19.983
 8771SOL    HW137941   4.102   0.228  19.971
 8771SOL    HW237942   4.006   0.317  19.895
 8772SOL     OW37943   0.993   1.282   9.449
 8772SOL    HW137944   1.063   1.241   9.399
 8772SOL    HW237945   0.993   1.373   9.420
 8773SOL     OW37946   1.019   0.922  22.372
 8773SOL    HW137947   0.991   0.836  22.341
 8773SOL    HW237948   1.056   0.965  22.295
 8774SOL     OW37949   4.150   1.320  26.647
 8774SOL    HW137950   4.191   1.377  26.712
 8774SOL    HW237951   4.101   1.379  26.591
 8775SOL     OW37952   3.441   1.968  21.810
 8775SOL    HW137953   3.389   1.965  21.891
 8775SOL    HW237954   3.386   1.923  21.745
 8776SOL     OW37955   0.474   3.808  17.225
 8776SOL    HW137956   0.536   3.877  17.201
 8776SOL    HW237957   0.527   3.729  17.229
 8777SOL     OW37958   2.124   2.878  22.284
 8777SOL    HW137959   2.151   2.845  22.370
 8777SOL    HW237960   2.173   2.959  22.272
 8778SOL     OW37961   4.404   2.476  19.214
 8778SOL    HW137962   4.342   2.464  19.286
 8778SOL    HW237963   4.349   2.491  19.137
 8779SOL     OW37964   4.173   1.241   4.796
 8779SOL    HW137965   4.258   1.267   4.760
 8779SOL    HW237966   4.131   1.324   4.820
 8780SOL     OW37967   3.238   2.719  20.086
 8780SOL    HW137968   3.213   2.663  20.159
 8780SOL    HW237969   3.314   2.768  20.118
 8781SOL     OW37970   1.105   4.518  18.807
 8781SOL    HW137971   1.097   4.440  18.752
 8781SOL    HW237972   1.127   4.588  18.746
 8782SOL     OW37973   3.104   1.435   5.252
 8782SOL    HW137974   3.051   1.514   5.263
 8782SOL    HW237975   3.072   1.375   5.320
 8783SOL     OW37976   0.521   4.005  18.653
 8783SOL    HW137977   0.510   4.075  18.718
 8783SOL    HW237978   0.605   3.965  18.674
 8784SOL     OW37979   0.864   0.882   4.774
 8784SOL    HW137980   0.852   0.920   4.687
 8784SOL    HW237981   0.938   0.930   4.811
 8785SOL     OW37982   0.284   0.411  25.223
 8785SOL    HW137983   0.330   0.374  25.148
 8785SOL    HW237984   0.196   0.430  25.190
 8786SOL     OW37985   2.588   2.114   3.194
 8786SOL    HW137986   2.569   2.205   3.171
 8786SOL    HW237987   2.604   2.116   3.288
 8787SOL     OW37988   1.614   1.926  27.493
 8787SOL    HW137989   1.682   1.992  27.479
 8787SOL    HW237990   1.606   1.881  27.409
 8788SOL     OW37991   1.356   4.529  11.866
 8788SOL    HW137992   1.427   4.512  11.928
 8788SOL    HW237993   1.296   4.455  11.879
 8789SOL     OW37994   4.112   2.307  24.340
 8789SOL    HW137995   4.112   2.357  24.421
 8789SOL    HW237996   4.195   2.260  24.340
 8790SOL     OW37997   3.954   3.768   4.665
 8790SOL    HW137998   3.914   3.719   4.593
 8790SOL    HW237999   3.972   3.702   4.732
 8791SOL     OW38000   1.006   2.534   4.102
 8791SOL    HW138001   1.094   2.571   4.094
 8791SOL    HW238002   1.021   2.442   4.123
 8792SOL     OW38003   0.557   0.690   1.205
 8792SOL    HW138004   0.495   0.617   1.205
 8792SOL    HW238005   0.502   0.767   1.191
 8793SOL     OW38006   0.226   3.298  21.113
 8793SOL    HW138007   0.266   3.315  21.198
 8793SOL    HW238008   0.165   3.370  21.101
 8794SOL     OW38009   1.595   0.776  12.361
 8794SOL    HW138010   1.641   0.767  12.445
 8794SOL    HW238011   1.637   0.851  12.319
 8795SOL     OW38012   0.820   2.950  19.720
 8795SOL    HW138013   0.765   3.013  19.674
 8795SOL    HW238014   0.862   3.001  19.790
 8796SOL     OW38015   2.586   3.426  19.476
 8796SOL    HW138016   2.678   3.403  19.489
 8796SOL    HW238017   2.576   3.432  19.381
 8797SOL     OW38018   4.762   1.700  24.066
 8797SOL    HW138019   4.750   1.746  23.983
 8797SOL    HW238020   4.751   1.767  24.133
 8798SOL     OW38021   2.539   4.461  26.868
 8798SOL    HW138022   2.603   4.397  26.836
 8798SOL    HW238023   2.460   4.443  26.817
 8799SOL     OW38024   4.523   1.212   0.933
 8799SOL    HW138025   4.602   1.263   0.951
 8799SOL    HW238026   4.516   1.151   1.007
 8800SOL     OW38027   3.776   4.054   8.285
 8800SOL    HW138028   3.855   4.018   8.246
 8800SOL    HW238029   3.710   3.986   8.272
 8801SOL     OW38030   0.598   2.794  10.007
 8801SOL    HW138031   0.536   2.825   9.942
 8801SOL    HW238032   0.573   2.839  10.088
 8802SOL     OW38033   0.732   2.940   8.487
 8802SOL    HW138034   0.776   2.995   8.422
 8802SOL    HW238035   0.648   2.984   8.503
 8803SOL     OW38036   0.924   2.083   0.249
 8803SOL    HW138037   0.871   2.038   0.314
 8803SOL    HW238038   0.971   2.013   0.203
 8804SOL     OW38039   2.686   2.636  28.382
 8804SOL    HW138040   2.613   2.649  28.322
 8804SOL    HW238041   2.758   2.687  28.344
 8805SOL     OW38042   0.217   0.953  28.389
 8805SOL    HW138043   0.189   0.946  28.480
 8805SOL    HW238044   0.305   0.991  28.394
 8806SOL     OW38045   1.987   3.428  19.600
 8806SOL    HW138046   2.079   3.402  19.594
 8806SOL    HW238047   1.939   3.346  19.589
 8807SOL     OW38048   0.612   1.089  25.414
 8807SOL    HW138049   0.694   1.044  25.392
 8807SOL    HW238050   0.544   1.041  25.367
 8808SOL     OW38051   1.838   0.715  23.517
 8808SOL    HW138052   1.748   0.702  23.547
 8808SOL    HW238053   1.850   0.650  23.448
 8809SOL     OW38054   1.798   3.557  23.376
 8809SOL    HW138055   1.861   3.538  23.307
 8809SOL    HW238056   1.728   3.493  23.364
 8810SOL     OW38057   4.651   0.556   8.550
 8810SOL    HW138058   4.661   0.508   8.632
 8810SOL    HW238059   4.639   0.488   8.484
 8811SOL     OW38060   2.388   4.049   1.744
 8811SOL    HW138061   2.309   4.001   1.769
 8811SOL    HW238062   2.450   3.981   1.717
 8812SOL     OW38063   3.144   2.625  26.750
 8812SOL    HW138064   3.214   2.571  26.712
 8812SOL    HW238065   3.140   2.702  26.693
 8813SOL     OW38066   3.133   2.482   3.163
 8813SOL    HW138067   3.084   2.402   3.144
 8813SOL    HW238068   3.223   2.452   3.175
 8814SOL     OW38069   3.931   2.624   0.381
 8814SOL    HW138070   3.866   2.687   0.349
 8814SOL    HW238071   3.920   2.624   0.476
 8815SOL     OW38072   3.123   1.931   1.542
 8815SOL    HW138073   3.095   1.890   1.624
 8815SOL    HW238074   3.099   2.023   1.551
 8816SOL     OW38075   2.710   2.932  26.733
 8816SOL    HW138076   2.684   2.840  26.743
 8816SOL    HW238077   2.758   2.934  26.650
 8817SOL     OW38078   0.437   2.439   8.183
 8817SOL    HW138079   0.402   2.361   8.226
 8817SOL    HW238080   0.473   2.491   8.255
 8818SOL     OW38081   3.441   0.332  20.598
 8818SOL    HW138082   3.396   0.405  20.555
 8818SOL    HW238083   3.508   0.306  20.535
 8819SOL     OW38084   4.563   2.522   1.805
 8819SOL    HW138085   4.594   2.503   1.716
 8819SOL    HW238086   4.583   2.443   1.855
 8820SOL     OW38087   3.158   0.537   3.953
 8820SOL    HW138088   3.164   0.445   3.929
 8820SOL    HW238089   3.232   0.552   4.012
 8821SOL     OW38090   4.710   4.394  20.506
 8821SOL    HW138091   4.767   4.318  20.517
 8821SOL    HW238092   4.746   4.459  20.566
 8822SOL     OW38093   1.304   0.615   8.069
 8822SOL    HW138094   1.375   0.671   8.039
 8822SOL    HW238095   1.255   0.670   8.131
 8823SOL     OW38096   0.258   2.134  22.318
 8823SOL    HW138097   0.231   2.058  22.369
 8823SOL    HW238098   0.242   2.209  22.376
 8824SOL     OW38099   0.868   1.863   3.450
 8824SOL    HW138100   0.856   1.831   3.540
 8824SOL    HW238101   0.819   1.945   3.447
 8825SOL     OW38102   1.936   3.675  19.487
 8825SOL    HW138103   1.967   3.603  19.543
 8825SOL    HW238104   1.930   3.637  19.400
 8826SOL     OW38105   3.996   2.346  28.511
 8826SOL    HW138106   4.037   2.268   0.025
 8826SOL    HW238107   3.902   2.329  28.517
 8827SOL     OW38108   1.845   3.825   3.913
 8827SOL    HW138109   1.933   3.796   3.890
 8827SOL    HW238110   1.852   3.920   3.918
 8828SOL     OW38111   0.203   0.170   3.577
 8828SOL    HW138112   0.260   0.120   3.635
 8828SOL    HW238113   0.218   0.261   3.601
 8829SOL     OW38114   1.269   3.013  23.341
 8829SOL    HW138115   1.210   3.058  23.280
 8829SOL    HW238116   1.212   2.983  23.412
 8830SOL     OW38117   4.717   3.948   2.278
 8830SOL    HW138118   4.674   3.871   2.314
 8830SOL    HW238119   4.664   3.972   2.202
 8831SOL     OW38120   0.514   0.574   9.648
 8831SOL    HW138121   0.526   0.509   9.578
 8831SOL    HW238122   0.456   0.531   9.711
 8832SOL     OW38123   4.412   2.070  20.652
 8832SOL    HW138124   4.332   2.017  20.657
 8832SOL    HW238125   4.470   2.032  20.718
 8833SOL     OW38126   4.495   3.614   0.473
 8833SOL    HW138127   4.553   3.680   0.510
 8833SOL    HW238128   4.409   3.656   0.471
 8834SOL     OW38129   4.573   3.582  24.266
 8834SOL    HW138130   4.539   3.536  24.342
 8834SOL    HW238131   4.505   3.646  24.244
 8835SOL     OW38132   1.188   3.918   7.473
 8835SOL    HW138133   1.165   3.905   7.381
 8835SOL    HW238134   1.104   3.935   7.516
 8836SOL     OW38135   0.138   3.810  11.234
 8836SOL    HW138136   0.050   3.821  11.198
 8836SOL    HW238137   0.149   3.885  11.293
 8837SOL     OW38138   2.751   3.807  24.421
 8837SOL    HW138139   2.680   3.743  24.429
 8837SOL    HW238140   2.777   3.825  24.511
 8838SOL     OW38141   3.156   1.748  20.529
 8838SOL    HW138142   3.095   1.796  20.584
 8838SOL    HW238143   3.242   1.769  20.564
 8839SOL     OW38144   3.612   3.753  27.121
 8839SOL    HW138145   3.581   3.690  27.186
 8839SOL    HW238146   3.669   3.702  27.063
 8840SOL     OW38147   3.258   4.701  26.198
 8840SOL    HW138148   3.297   4.656  26.273
 8840SOL    HW238149   3.293   4.654  26.122
 8841SOL     OW38150   4.418   3.563  27.479
 8841SOL    HW138151   4.451   3.484  27.521
 8841SOL    HW238152   4.326   3.543  27.459
 8842SOL     OW38153   4.473   0.474  18.638
 8842SOL    HW138154   4.560   0.474  18.678
 8842SOL    HW238155   4.489   0.482  18.544
 8843SOL     OW38156   3.432   2.053  23.442
 8843SOL    HW138157   3.354   2.098  23.475
 8843SOL    HW238158   3.496   2.060  23.513
 8844SOL     OW38159   2.807   3.482   6.405
 8844SOL    HW138160   2.806   3.577   6.392
 8844SOL    HW238161   2.725   3.452   6.366
 8845SOL     OW38162   3.409   2.957  17.164
 8845SOL    HW138163   3.495   2.972  17.203
 8845SOL    HW238164   3.389   2.866  17.186
 8846SOL     OW38165   3.156   2.457   0.530
 8846SOL    HW138166   3.220   2.528   0.532
 8846SOL    HW238167   3.208   2.378   0.520
 8847SOL     OW38168   3.589   2.317   8.071
 8847SOL    HW138169   3.563   2.318   8.163
 8847SOL    HW238170   3.682   2.339   8.073
 8848SOL     OW38171   2.059   1.122   8.155
 8848SOL    HW138172   1.983   1.075   8.188
 8848SOL    HW238173   2.023   1.188   8.096
 8849SOL     OW38174   1.764   0.057   6.702
 8849SOL    HW138175   1.733   0.007   6.777
 8849SOL    HW238176   1.690   0.058   6.642
 8850SOL     OW38177   2.347   0.598  26.036
 8850SOL    HW138178   2.335   0.516  26.084
 8850SOL    HW238179   2.328   0.576  25.945
 8851SOL     OW38180   0.043   2.430  21.329
 8851SOL    HW138181   4.753   2.365  21.328
 8851SOL    HW238182   0.073   2.434  21.238
 8852SOL     OW38183   4.780   2.960  18.831
 8852SOL    HW138184   4.741   2.876  18.855
 8852SOL    HW238185   0.038   2.945  18.745
 8853SOL     OW38186   0.847   0.388   7.885
 8853SOL    HW138187   0.920   0.370   7.826
 8853SOL    HW238188   0.887   0.433   7.959
 8854SOL     OW38189   2.901   2.475   6.786
 8854SOL    HW138190   2.989   2.505   6.764
 8854SOL    HW238191   2.911   2.430   6.870
 8855SOL     OW38192   0.339   3.464  24.793
 8855SOL    HW138193   0.313   3.372  24.797
 8855SOL    HW238194   0.309   3.493  24.707
 8856SOL     OW38195   1.703   4.144   8.936
 8856SOL    HW138196   1.749   4.061   8.948
 8856SOL    HW238197   1.703   4.157   8.841
 8857SOL     OW38198   1.466   4.165  10.971
 8857SOL    HW138199   1.467   4.143  11.064
 8857SOL    HW238200   1.374   4.159  10.946
 8858SOL     OW38201   1.960   2.632   6.174
 8858SOL    HW138202   2.040   2.661   6.130
 8858SOL    HW238203   1.912   2.713   6.193
 8859SOL     OW38204   2.784   3.411   8.774
 8859SOL    HW138205   2.704   3.397   8.824
 8859SOL    HW238206   2.771   3.363   8.693
 8860SOL     OW38207   2.496   3.823  26.348
 8860SOL    HW138208   2.465   3.822  26.257
 8860SOL    HW238209   2.591   3.832  26.341
 8861SOL     OW38210   4.773   2.363  22.685
 8861SOL    HW138211   4.733   2.402  22.763
 8861SOL    HW238212   4.746   2.271  22.689
 8862SOL     OW38213   2.496   0.556  21.253
 8862SOL    HW138214   2.433   0.502  21.206
 8862SOL    HW238215   2.521   0.503  21.329
 8863SOL     OW38216   2.925   0.057  22.204
 8863SOL    HW138217   2.832   0.050  22.185
 8863SOL    HW238218   2.953   4.748  22.221
 8864SOL     OW38219   0.724   0.794  27.698
 8864SOL    HW138220   0.794   0.780  27.762
 8864SOL    HW238221   0.754   0.749  27.619
 8865SOL     OW38222   4.466   0.596  28.322
 8865SOL    HW138223   4.472   0.501  28.335
 8865SOL    HW238224   4.412   0.627  28.395
 8866SOL     OW38225   4.626   2.406   5.059
 8866SOL    HW138226   4.635   2.444   5.146
 8866SOL    HW238227   4.709   2.426   5.015
 8867SOL     OW38228   4.215   4.182  19.985
 8867SOL    HW138229   4.235   4.188  20.078
 8867SOL    HW238230   4.295   4.213  19.942
 8868SOL     OW38231   3.935   4.535   4.446
 8868SOL    HW138232   3.984   4.578   4.376
 8868SOL    HW238233   3.846   4.529   4.413
 8869SOL     OW38234   0.926   0.555  10.598
 8869SOL    HW138235   0.962   0.588  10.680
 8869SOL    HW238236   0.832   0.571  10.605
 8870SOL     OW38237   0.884   3.444   4.981
 8870SOL    HW138238   0.857   3.534   4.961
 8870SOL    HW238239   0.979   3.443   4.967
 8871SOL     OW38240   0.427   0.767  18.909
 8871SOL    HW138241   0.509   0.778  18.958
 8871SOL    HW238242   0.441   0.688  18.857
 8872SOL     OW38243   2.257   3.577  27.532
 8872SOL    HW138244   2.225   3.667  27.543
 8872SOL    HW238245   2.178   3.525  27.519
 8873SOL     OW38246   2.573   0.383   4.948
 8873SOL    HW138247   2.531   0.418   5.027
 8873SOL    HW238248   2.650   0.336   4.981
 8874SOL     OW38249   3.911   2.362   4.076
 8874SOL    HW138250   3.948   2.417   4.007
 8874SOL    HW238251   3.866   2.292   4.028
 8875SOL     OW38252   2.991   1.688  22.693
 8875SOL    HW138253   2.971   1.647  22.777
 8875SOL    HW238254   2.908   1.686  22.645
 8876SOL     OW38255   3.222   4.446   2.348
 8876SOL    HW138256   3.270   4.455   2.265
 8876SOL    HW238257   3.289   4.457   2.415
 8877SOL     OW38258   2.062   3.901   0.781
 8877SOL    HW138259   2.073   3.988   0.744
 8877SOL    HW238260   2.004   3.914   0.856
 8878SOL     OW38261   2.443   1.710   5.229
 8878SOL    HW138262   2.441   1.748   5.317
 8878SOL    HW238263   2.447   1.616   5.243
 8879SOL     OW38264   4.710   0.136   5.835
 8879SOL    HW138265   4.639   0.201   5.839
 8879SOL    HW238266   4.676   0.067   5.777
 8880SOL     OW38267   3.293   0.242  24.975
 8880SOL    HW138268   3.215   0.203  24.935
 8880SOL    HW238269   3.361   0.232  24.908
 8881SOL     OW38270   3.467   4.279  20.677
 8881SOL    HW138271   3.430   4.339  20.742
 8881SOL    HW238272   3.513   4.336  20.615
 8882SOL     OW38273   1.317   4.644   1.785
 8882SOL    HW138274   1.375   4.714   1.756
 8882SOL    HW238275   1.248   4.688   1.835
 8883SOL     OW38276   4.011   0.817   4.959
 8883SOL    HW138277   3.916   0.814   4.950
 8883SOL    HW238278   4.037   0.893   4.906
 8884SOL     OW38279   0.617   2.614   3.676
 8884SOL    HW138280   0.544   2.581   3.728
 8884SOL    HW238281   0.577   2.676   3.615
 8885SOL     OW38282   2.178   2.252  19.625
 8885SOL    HW138283   2.128   2.333  19.623
 8885SOL    HW238284   2.245   2.264  19.558
 8886SOL     OW38285   1.044   0.103   9.512
 8886SOL    HW138286   1.128   0.071   9.479
 8886SOL    HW238287   1.067   0.178   9.567
 8887SOL     OW38288   4.150   4.433   5.136
 8887SOL    HW138289   4.179   4.524   5.129
 8887SOL    HW238290   4.169   4.395   5.050
 8888SOL     OW38291   4.115   2.710   4.326
 8888SOL    HW138292   4.050   2.678   4.389
 8888SOL    HW238293   4.104   2.805   4.326
 8889SOL     OW38294   1.228   4.424  27.743
 8889SOL    HW138295   1.217   4.331  27.763
 8889SOL    HW238296   1.196   4.470  27.821
 8890SOL     OW38297   1.497   3.334   9.205
 8890SOL    HW138298   1.580   3.309   9.245
 8890SOL    HW238299   1.516   3.339   9.111
 8891SOL     OW38300   4.300   1.242  20.589
 8891SOL    HW138301   4.253   1.286  20.518
 8891SOL    HW238302   4.231   1.209  20.647
 8892SOL     OW38303   0.172   4.134  28.403
 8892SOL    HW138304   0.105   4.068  28.388
 8892SOL    HW238305   0.146   4.177  28.484
 8893SOL     OW38306   4.719   3.632  27.144
 8893SOL    HW138307   4.653   3.571  27.177
 8893SOL    HW238308   4.705   3.712  27.195
 8894SOL     OW38309   4.759   2.818   6.661
 8894SOL    HW138310   4.711   2.735   6.662
 8894SOL    HW238311   0.061   2.797   6.618
 8895SOL     OW38312   1.744   2.742   8.794
 8895SOL    HW138313   1.691   2.728   8.873
 8895SOL    HW238314   1.834   2.731   8.824
 8896SOL     OW38315   0.593   1.115  20.201
 8896SOL    HW138316   0.589   1.147  20.111
 8896SOL    HW238317   0.527   1.166  20.248
 8897SOL     OW38318   4.033   0.750  23.156
 8897SOL    HW138319   4.118   0.735  23.114
 8897SOL    HW238320   3.970   0.747  23.084
 8898SOL     OW38321   3.799   1.467   1.914
 8898SOL    HW138322   3.835   1.525   1.847
 8898SOL    HW238323   3.720   1.511   1.944
 8899SOL     OW38324   2.762   4.130   0.528
 8899SOL    HW138325   2.670   4.151   0.543
 8899SOL    HW238326   2.805   4.147   0.612
 8900SOL     OW38327   1.888   1.945  26.882
 8900SOL    HW138328   1.960   2.005  26.860
 8900SOL    HW238329   1.851   1.919  26.798
 8901SOL     OW38330   3.802   4.181  19.606
 8901SOL    HW138331   3.771   4.221  19.687
 8901SOL    HW238332   3.865   4.115  19.635
 8902SOL     OW38333   4.617   3.984  23.787
 8902SOL    HW138334   4.661   4.065  23.760
 8902SOL    HW238335   4.595   3.940  23.705
 8903SOL     OW38336   3.873   3.436  27.269
 8903SOL    HW138337   3.827   3.420  27.352
 8903SOL    HW238338   3.815   3.495  27.221
 8904SOL     OW38339   1.253   4.384  26.359
 8904SOL    HW138340   1.262   4.390  26.454
 8904SOL    HW238341   1.219   4.296  26.344
 8905SOL     OW38342   2.721   3.621  27.487
 8905SOL    HW138343   2.805   3.590  27.453
 8905SOL    HW238344   2.675   3.655  27.410
 8906SOL     OW38345   3.576   0.284  21.460
 8906SOL    HW138346   3.634   0.331  21.400
 8906SOL    HW238347   3.516   0.351  21.492
 8907SOL     OW38348   0.280   1.932  25.020
 8907SOL    HW138349   0.370   1.928  24.988
 8907SOL    HW238350   0.238   1.855  24.982
 8908SOL     OW38351   2.377   1.819  24.504
 8908SOL    HW138352   2.340   1.840  24.418
 8908SOL    HW238353   2.338   1.735  24.528
 8909SOL     OW38354   1.816   1.610   3.105
 8909SOL    HW138355   1.784   1.565   3.027
 8909SOL    HW238356   1.803   1.547   3.176
 8910SOL     OW38357   2.573   0.770   9.066
 8910SOL    HW138358   2.557   0.804   9.154
 8910SOL    HW238359   2.635   0.698   9.079
 8911SOL     OW38360   4.308   4.133   3.933
 8911SOL    HW138361   4.269   4.123   4.020
 8911SOL    HW238362   4.322   4.043   3.903
 8912SOL     OW38363   2.032   2.601   2.098
 8912SOL    HW138364   2.091   2.609   2.023
 8912SOL    HW238365   1.972   2.675   2.089
 8913SOL     OW38366   2.728   1.328   3.991
 8913SOL    HW138367   2.735   1.399   4.055
 8913SOL    HW238368   2.634   1.312   3.983
 8914SOL     OW38369   1.663   0.830  23.234
 8914SOL    HW138370   1.645   0.771  23.307
 8914SOL    HW238371   1.690   0.912  23.275
 8915SOL     OW38372   1.221   1.596  20.693
 8915SOL    HW138373   1.223   1.587  20.598
 8915SOL    HW238374   1.270   1.676  20.711
 8916SOL     OW38375   4.203   2.782  22.750
 8916SOL    HW138376   4.250   2.866  22.753
 8916SOL    HW238377   4.116   2.802  22.783
 8917SOL     OW38378   0.704   1.710  21.092
 8917SOL    HW138379   0.738   1.705  21.003
 8917SOL    HW238380   0.678   1.802  21.102
 8918SOL     OW38381   4.779   3.560   6.830
 8918SOL    HW138382   4.702   3.617   6.837
 8918SOL    HW238383   0.061   3.597   6.893
 8919SOL     OW38384   0.342   2.449   7.103
 8919SOL    HW138385   0.358   2.469   7.011
 8919SOL    HW238386   0.422   2.478   7.147
 8920SOL     OW38387   2.951   0.612  18.439
 8920SOL    HW138388   3.035   0.644  18.473
 8920SOL    HW238389   2.924   0.679  18.376
 8921SOL     OW38390   2.559   1.654   6.481
 8921SOL    HW138391   2.485   1.594   6.489
 8921SOL    HW238392   2.633   1.607   6.520
 8922SOL     OW38393   1.380   4.282  26.858
 8922SOL    HW138394   1.366   4.278  26.952
 8922SOL    HW238395   1.472   4.259  26.847
 8923SOL     OW38396   1.948   1.694   1.152
 8923SOL    HW138397   2.030   1.674   1.107
 8923SOL    HW238398   1.913   1.609   1.179
 8924SOL     OW38399   1.295   3.016  21.517
 8924SOL    HW138400   1.388   3.038  21.507
 8924SOL    HW238401   1.283   2.939  21.461
 8925SOL     OW38402   0.316   2.766  26.317
 8925SOL    HW138403   0.388   2.703  26.324
 8925SOL    HW238404   0.359   2.851  26.321
 8926SOL     OW38405   4.356   4.397  26.395
 8926SOL    HW138406   4.419   4.335  26.431
 8926SOL    HW238407   4.290   4.407  26.463
 8927SOL     OW38408   1.479   2.529  21.702
 8927SOL    HW138409   1.474   2.624  21.693
 8927SOL    HW238410   1.476   2.496  21.612
 8928SOL     OW38411   4.601   4.655  28.170
 8928SOL    HW138412   4.586   4.749  28.162
 8928SOL    HW238413   4.590   4.621  28.081
 8929SOL     OW38414   3.689   3.478   1.015
 8929SOL    HW138415   3.727   3.434   1.091
 8929SOL    HW238416   3.694   3.571   1.036
 8930SOL     OW38417   2.116   1.909   0.625
 8930SOL    HW138418   2.207   1.926   0.649
 8930SOL    HW238419   2.069   1.909   0.708
 8931SOL     OW38420   4.080   4.538  22.723
 8931SOL    HW138421   4.024   4.584  22.785
 8931SOL    HW238422   4.029   4.535  22.642
 8932SOL     OW38423   4.509   3.277  21.595
 8932SOL    HW138424   4.472   3.260  21.509
 8932SOL    HW238425   4.547   3.364  21.588
 8933SOL     OW38426   3.416   2.034   2.860
 8933SOL    HW138427   3.464   1.970   2.912
 8933SOL    HW238428   3.384   2.098   2.923
 8934SOL     OW38429   3.873   3.393   1.624
 8934SOL    HW138430   3.810   3.323   1.644
 8934SOL    HW238431   3.854   3.462   1.688
 8935SOL     OW38432   1.264   4.130  10.486
 8935SOL    HW138433   1.281   4.049  10.534
 8935SOL    HW238434   1.170   4.126  10.466
 8936SOL     OW38435   3.056   1.702   8.730
 8936SOL    HW138436   3.139   1.728   8.690
 8936SOL    HW238437   3.069   1.611   8.756
 8937SOL     OW38438   4.066   0.728  27.891
 8937SOL    HW138439   4.059   0.803  27.950
 8937SOL    HW238440   4.089   0.654  27.947
 8938SOL     OW38441   2.271   3.768  25.860
 8938SOL    HW138442   2.226   3.701  25.809
 8938SOL    HW238443   2.340   3.800  25.802
 8939SOL     OW38444   2.455   1.346   2.508
 8939SOL    HW138445   2.508   1.267   2.512
 8939SOL    HW238446   2.408   1.340   2.425
 8940SOL     OW38447   4.471   1.041  17.912
 8940SOL    HW138448   4.479   1.132  17.882
 8940SOL    HW238449   4.558   1.004  17.900
 8941SOL     OW38450   1.550   0.642  21.257
 8941SOL    HW138451   1.605   0.699  21.203
 8941SOL    HW238452   1.555   0.680  21.345
 8942SOL     OW38453   0.696   2.780  25.654
 8942SOL    HW138454   0.640   2.780  25.577
 8942SOL    HW238455   0.661   2.851  25.709
 8943SOL     OW38456   1.070   2.797  25.375
 8943SOL    HW138457   1.094   2.708  25.351
 8943SOL    HW238458   1.021   2.788  25.456
 8944SOL     OW38459   1.371   4.030  28.471
 8944SOL    HW138460   1.442   3.972  28.444
 8944SOL    HW238461   1.413   4.095   0.005
 8945SOL     OW38462   2.518   3.579   2.504
 8945SOL    HW138463   2.464   3.500   2.504
 8945SOL    HW238464   2.563   3.577   2.420
 8946SOL     OW38465   0.464   1.061  21.374
 8946SOL    HW138466   0.405   0.992  21.344
 8946SOL    HW238467   0.406   1.133  21.399
 8947SOL     OW38468   1.917   0.287  27.301
 8947SOL    HW138469   1.881   0.371  27.330
 8947SOL    HW238470   1.852   0.253  27.239
 8948SOL     OW38471   3.490   2.698  10.739
 8948SOL    HW138472   3.542   2.632  10.785
 8948SOL    HW238473   3.413   2.711  10.795
 8949SOL     OW38474   3.462   0.717  10.919
 8949SOL    HW138475   3.538   0.706  10.861
 8949SOL    HW238476   3.498   0.756  10.998
 8950SOL     OW38477   0.542   1.111  26.040
 8950SOL    HW138478   0.530   1.190  25.987
 8950SOL    HW238479   0.460   1.102  26.089
 8951SOL     OW38480   2.684   3.247  10.650
 8951SOL    HW138481   2.690   3.213  10.739
 8951SOL    HW238482   2.677   3.342  10.661
 8952SOL     OW38483   1.186   3.847   2.185
 8952SOL    HW138484   1.255   3.905   2.218
 8952SOL    HW238485   1.111   3.905   2.170
 8953SOL     OW38486   0.972   2.659  26.250
 8953SOL    HW138487   1.009   2.574  26.227
 8953SOL    HW238488   0.946   2.697  26.166
 8954SOL     OW38489   4.191   1.163   8.669
 8954SOL    HW138490   4.196   1.135   8.761
 8954SOL    HW238491   4.281   1.158   8.638
 8955SOL     OW38492   4.551   1.776   8.504
 8955SOL    HW138493   4.561   1.716   8.578
 8955SOL    HW238494   4.571   1.723   8.427
 8956SOL     OW38495   0.222   0.996   3.217
 8956SOL    HW138496   0.202   0.988   3.310
 8956SOL    HW238497   0.314   1.023   3.214
 8957SOL     OW38498   0.127   4.304   2.048
 8957SOL    HW138499   0.190   4.264   1.989
 8957SOL    HW238500   0.110   4.237   2.115
 8958SOL     OW38501   4.388   2.130   8.378
 8958SOL    HW138502   4.320   2.067   8.401
 8958SOL    HW238503   4.451   2.124   8.449
 8959SOL     OW38504   2.445   0.389  23.954
 8959SOL    HW138505   2.483   0.444  23.885
 8959SOL    HW238506   2.445   0.301  23.917
 8960SOL     OW38507   0.997   3.114  27.240
 8960SOL    HW138508   1.025   3.159  27.319
 8960SOL    HW238509   0.909   3.148  27.223
 8961SOL     OW38510   0.077   2.758   4.245
 8961SOL    HW138511   0.024   2.778   4.167
 8961SOL    HW238512   0.030   2.687   4.288
 8962SOL     OW38513   0.172   2.650   3.062
 8962SOL    HW138514   0.083   2.682   3.048
 8962SOL    HW238515   0.162   2.578   3.125
 8963SOL     OW38516   2.811   0.262  25.762
 8963SOL    HW138517   2.797   0.244  25.669
 8963SOL    HW238518   2.725   0.249  25.802
 8964SOL     OW38519   1.875   3.386  21.066
 8964SOL    HW138520   1.781   3.386  21.085
 8964SOL    HW238521   1.880   3.385  20.970
 8965SOL     OW38522   3.848   0.892  21.595
 8965SOL    HW138523   3.846   0.976  21.642
 8965SOL    HW238524   3.940   0.882  21.569
 8966SOL     OW38525   4.555   1.021   1.185
 8966SOL    HW138526   4.630   1.014   1.245
 8966SOL    HW238527   4.500   1.089   1.223
 8967SOL     OW38528   4.198   1.622  16.466
 8967SOL    HW138529   4.280   1.578  16.444
 8967SOL    HW238530   4.159   1.643  16.381
 8968SOL     OW38531   0.426   4.250   1.061
 8968SOL    HW138532   0.360   4.275   1.126
 8968SOL    HW238533   0.378   4.245   0.979
 8969SOL     OW38534   4.391   4.518  24.688
 8969SOL    HW138535   4.349   4.524  24.602
 8969SOL    HW238536   4.385   4.425  24.711
 8970SOL     OW38537   1.469   0.759  21.856
 8970SOL    HW138538   1.470   0.715  21.771
 8970SOL    HW238539   1.516   0.699  21.914
 8971SOL     OW38540   4.732   2.485   4.311
 8971SOL    HW138541   4.675   2.460   4.384
 8971SOL    HW238542   4.709   2.423   4.241
 8972SOL     OW38543   4.636   2.953   2.577
 8972SOL    HW138544   4.572   3.006   2.529
 8972SOL    HW238545   4.701   2.929   2.511
 8973SOL     OW38546   3.609   1.340  24.314
 8973SOL    HW138547   3.587   1.309  24.226
 8973SOL    HW238548   3.604   1.262  24.369
 8974SOL     OW38549   4.155   0.947  23.543
 8974SOL    HW138550   4.126   1.035  23.568
 8974SOL    HW238551   4.247   0.944  23.569
 8975SOL     OW38552   2.144   3.751   2.794
 8975SOL    HW138553   2.201   3.819   2.829
 8975SOL    HW238554   2.149   3.680   2.858
 8976SOL     OW38555   0.030   1.178   1.232
 8976SOL    HW138556   0.004   1.256   1.183
 8976SOL    HW238557   4.765   1.186   1.316
 8977SOL     OW38558   2.782   0.875   5.297
 8977SOL    HW138559   2.687   0.876   5.307
 8977SOL    HW238560   2.804   0.782   5.287
 8978SOL     OW38561   1.165   2.501  20.992
 8978SOL    HW138562   1.260   2.492  20.982
 8978SOL    HW238563   1.154   2.582  21.042
 8979SOL     OW38564   2.382   0.166  24.762
 8979SOL    HW138565   2.449   0.171  24.693
 8979SOL    HW238566   2.330   0.089  24.739
 8980SOL     OW38567   4.403   2.861  25.722
 8980SOL    HW138568   4.354   2.796  25.771
 8980SOL    HW238569   4.403   2.939  25.778
 8981SOL     OW38570   2.379   2.948   4.346
 8981SOL    HW138571   2.395   2.934   4.253
 8981SOL    HW238572   2.414   2.870   4.389
 8982SOL     OW38573   2.606   1.842  25.620
 8982SOL    HW138574   2.646   1.871  25.538
 8982SOL    HW238575   2.631   1.908  25.684
 8983SOL     OW38576   3.572   1.198  22.654
 8983SOL    HW138577   3.585   1.241  22.739
 8983SOL    HW238578   3.551   1.270  22.594
 8984SOL     OW38579   0.898   4.278   0.812
 8984SOL    HW138580   0.849   4.360   0.814
 8984SOL    HW238581   0.989   4.304   0.825
 8985SOL     OW38582   3.642   2.785  20.672
 8985SOL    HW138583   3.567   2.769  20.729
 8985SOL    HW238584   3.703   2.714  20.691
 8986SOL     OW38585   3.046   1.456   7.362
 8986SOL    HW138586   3.085   1.451   7.449
 8986SOL    HW238587   3.097   1.523   7.317
 8987SOL     OW38588   2.946   0.504   3.680
 8987SOL    HW138589   2.851   0.511   3.669
 8987SOL    HW238590   2.957   0.468   3.768
 8988SOL     OW38591   2.363   2.974  27.939
 8988SOL    HW138592   2.396   2.965  28.028
 8988SOL    HW238593   2.309   2.896  27.926
 8989SOL     OW38594   2.528   2.290  24.766
 8989SOL    HW138595   2.612   2.251  24.789
 8989SOL    HW238596   2.463   2.232  24.806
 8990SOL     OW38597   4.237   1.083   1.035
 8990SOL    HW138598   4.246   1.152   0.969
 8990SOL    HW238599   4.170   1.024   1.000
 8991SOL     OW38600   3.463   2.741   6.815
 8991SOL    HW138601   3.515   2.752   6.736
 8991SOL    HW238602   3.387   2.798   6.802
 8992SOL     OW38603   1.326   1.357  11.192
 8992SOL    HW138604   1.382   1.407  11.252
 8992SOL    HW238605   1.369   1.366  11.107
 8993SOL     OW38606   4.145   0.818   7.921
 8993SOL    HW138607   4.127   0.907   7.950
 8993SOL    HW238608   4.121   0.763   7.995
 8994SOL     OW38609   2.389   1.953  10.186
 8994SOL    HW138610   2.418   1.928  10.274
 8994SOL    HW238611   2.366   2.046  10.194
 8995SOL     OW38612   1.349   0.940  22.426
 8995SOL    HW138613   1.300   0.858  22.422
 8995SOL    HW238614   1.420   0.923  22.488
 8996SOL     OW38615   4.247   2.630  19.013
 8996SOL    HW138616   4.185   2.700  19.034
 8996SOL    HW238617   4.302   2.666  18.944
 8997SOL     OW38618   1.756   1.745  26.096
 8997SOL    HW138619   1.702   1.806  26.046
 8997SOL    HW238620   1.711   1.661  26.087
 8998SOL     OW38621   3.448   2.310  20.104
 8998SOL    HW138622   3.416   2.334  20.017
 8998SOL    HW238623   3.516   2.374  20.124
 8999SOL     OW38624   0.895   1.826   0.940
 8999SOL    HW138625   0.862   1.745   0.979
 8999SOL    HW238626   0.948   1.797   0.866
 9000SOL     OW38627   2.466   0.600   1.146
 9000SOL    HW138628   2.426   0.626   1.229
 9000SOL    HW238629   2.556   0.631   1.152
 9001SOL     OW38630   4.683   4.115   7.581
 9001SOL    HW138631   4.725   4.105   7.495
 9001SOL    HW238632   4.622   4.042   7.587
 9002SOL     OW38633   3.099   1.315  26.074
 9002SOL    HW138634   3.075   1.392  26.023
 9002SOL    HW238635   3.052   1.243  26.032
 9003SOL     OW38636   0.860   3.757  22.225
 9003SOL    HW138637   0.915   3.833  22.241
 9003SOL    HW238638   0.903   3.685  22.272
 9004SOL     OW38639   3.878   2.547  22.521
 9004SOL    HW138640   3.941   2.586  22.460
 9004SOL    HW238641   3.907   2.456  22.530
 9005SOL     OW38642   1.308   0.515  19.170
 9005SOL    HW138643   1.400   0.507  19.195
 9005SOL    HW238644   1.270   0.429  19.187
 9006SOL     OW38645   2.253   3.279  26.763
 9006SOL    HW138646   2.225   3.190  26.740
 9006SOL    HW238647   2.304   3.267  26.843
 9007SOL     OW38648   2.897   2.633   1.602
 9007SOL    HW138649   2.831   2.638   1.533
 9007SOL    HW238650   2.847   2.622   1.683
 9008SOL     OW38651   0.154   3.336  21.640
 9008SOL    HW138652   0.127   3.303  21.554
 9008SOL    HW238653   0.218   3.404  21.620
 9009SOL     OW38654   0.211   4.133   8.763
 9009SOL    HW138655   0.230   4.209   8.708
 9009SOL    HW238656   0.115   4.129   8.767
 9010SOL     OW38657   0.650   3.672  26.908
 9010SOL    HW138658   0.695   3.641  26.830
 9010SOL    HW238659   0.557   3.669  26.885
 9011SOL     OW38660   0.593   1.517   0.454
 9011SOL    HW138661   0.606   1.424   0.471
 9011SOL    HW238662   0.617   1.528   0.362
 9012SOL     OW38663   4.646   2.870  21.819
 9012SOL    HW138664   4.649   2.886  21.913
 9012SOL    HW238665   4.709   2.931  21.782
 9013SOL     OW38666   1.907   2.038   2.408
 9013SOL    HW138667   1.848   1.981   2.457
 9013SOL    HW238668   1.940   1.983   2.337
 9014SOL     OW38669   0.714   0.653  20.482
 9014SOL    HW138670   0.745   0.585  20.423
 9014SOL    HW238671   0.621   0.633  20.494
 9015SOL     OW38672   3.921   3.991   6.326
 9015SOL    HW138673   3.844   4.046   6.339
 9015SOL    HW238674   3.894   3.925   6.262
 9016SOL     OW38675   3.353   4.277  22.574
 9016SOL    HW138676   3.431   4.228  22.600
 9016SOL    HW238677   3.348   4.349  22.637
 9017SOL     OW38678   4.319   1.218  17.090
 9017SOL    HW138679   4.331   1.145  17.030
 9017SOL    HW238680   4.407   1.237  17.123
 9018SOL     OW38681   1.397   3.671  24.090
 9018SOL    HW138682   1.360   3.669  24.178
 9018SOL    HW238683   1.389   3.581  24.059
 9019SOL     OW38684   0.544   3.711   9.252
 9019SOL    HW138685   0.609   3.726   9.183
 9019SOL    HW238686   0.555   3.785   9.311
 9020SOL     OW38687   4.526   2.177  19.164
 9020SOL    HW138688   4.519   2.199  19.257
 9020SOL    HW238689   4.450   2.219  19.124
 9021SOL     OW38690   3.963   1.277  24.409
 9021SOL    HW138691   3.929   1.327  24.334
 9021SOL    HW238692   3.915   1.311  24.484
 9022SOL     OW38693   3.550   0.986  20.324
 9022SOL    HW138694   3.638   1.023  20.330
 9022SOL    HW238695   3.541   0.931  20.402
 9023SOL     OW38696   1.910   3.228   9.139
 9023SOL    HW138697   1.843   3.194   9.198
 9023SOL    HW238698   1.933   3.313   9.176
 9024SOL     OW38699   4.207   3.743  27.959
 9024SOL    HW138700   4.142   3.811  27.976
 9024SOL    HW238701   4.164   3.662  27.986
 9025SOL     OW38702   3.648   4.661  22.356
 9025SOL    HW138703   3.668   4.586  22.301
 9025SOL    HW238704   3.730   4.710  22.361
 9026SOL     OW38705   4.381   0.917  11.351
 9026SOL    HW138706   4.400   0.936  11.259
 9026SOL    HW238707   4.450   0.856  11.377
 9027SOL     OW38708   3.052   2.007  22.000
 9027SOL    HW138709   2.969   1.962  21.985
 9027SOL    HW238710   3.117   1.937  22.004
 9028SOL     OW38711   3.948   0.500  28.518
 9028SOL    HW138712   3.912   0.430  28.463
 9028SOL    HW238713   3.934   0.470   0.085
 9029SOL     OW38714   4.281   0.730  21.287
 9029SOL    HW138715   4.326   0.655  21.248
 9029SOL    HW238716   4.334   0.752  21.363
 9030SOL     OW38717   2.201   1.563   7.190
 9030SOL    HW138718   2.240   1.563   7.278
 9030SOL    HW238719   2.212   1.653   7.159
 9031SOL     OW38720   3.522   3.203   4.981
 9031SOL    HW138721   3.525   3.164   5.068
 9031SOL    HW238722   3.612   3.233   4.964
 9032SOL     OW38723   4.180   0.035  18.864
 9032SOL    HW138724   4.233   0.112  18.844
 9032SOL    HW238725   4.211   0.006  18.950
 9033SOL     OW38726   2.613   2.438   8.886
 9033SOL    HW138727   2.685   2.387   8.849
 9033SOL    HW238728   2.600   2.402   8.974
 9034SOL     OW38729   4.545   0.797   4.262
 9034SOL    HW138730   4.587   0.819   4.179
 9034SOL    HW238731   4.460   0.760   4.237
 9035SOL     OW38732   2.211   3.123  20.673
 9035SOL    HW138733   2.297   3.081  20.668
 9035SOL    HW238734   2.189   3.143  20.582
 9036SOL     OW38735   2.249   0.399   2.031
 9036SOL    HW138736   2.154   0.408   2.031
 9036SOL    HW238737   2.273   0.407   2.123
 9037SOL     OW38738   1.868   3.055   1.118
 9037SOL    HW138739   1.862   3.035   1.025
 9037SOL    HW238740   1.879   3.150   1.122
 9038SOL     OW38741   0.167   3.036   0.861
 9038SOL    HW138742   0.212   3.085   0.792
 9038SOL    HW238743   0.094   2.994   0.816
 9039SOL     OW38744   0.314   0.505  23.229
 9039SOL    HW138745   0.307   0.484  23.322
 9039SOL    HW238746   0.291   0.598  23.224
 9040SOL     OW38747   1.998   1.628  20.746
 9040SOL    HW138748   2.020   1.539  20.772
 9040SOL    HW238749   1.915   1.646  20.790
 9041SOL     OW38750   1.551   0.148  19.456
 9041SOL    HW138751   1.623   0.108  19.506
 9041SOL    HW238752   1.557   0.108  19.369
 9042SOL     OW38753   4.464   3.125  16.108
 9042SOL    HW138754   4.495   3.208  16.072
 9042SOL    HW238755   4.374   3.116  16.076
 9043SOL     OW38756   3.271   1.882  16.672
 9043SOL    HW138757   3.205   1.813  16.671
 9043SOL    HW238758   3.289   1.900  16.580
 9044SOL     OW38759   1.093   3.338   5.721
 9044SOL    HW138760   1.016   3.283   5.735
 9044SOL    HW238761   1.093   3.399   5.795
 9045SOL     OW38762   3.949   4.048   7.423
 9045SOL    HW138763   4.042   4.038   7.401
 9045SOL    HW238764   3.922   4.127   7.377
 9046SOL     OW38765   4.589   2.240   1.559
 9046SOL    HW138766   4.508   2.190   1.569
 9046SOL    HW238767   4.562   2.332   1.562
 9047SOL     OW38768   2.294   4.035   8.600
 9047SOL    HW138769   2.202   4.060   8.588
 9047SOL    HW238770   2.292   3.940   8.609
 9048SOL     OW38771   3.790   3.415  22.253
 9048SOL    HW138772   3.741   3.474  22.310
 9048SOL    HW238773   3.765   3.327  22.281
 9049SOL     OW38774   2.304   3.789  10.017
 9049SOL    HW138775   2.213   3.768   9.996
 9049SOL    HW238776   2.301   3.824  10.106
 9050SOL     OW38777   2.583   2.267  27.554
 9050SOL    HW138778   2.508   2.211  27.534
 9050SOL    HW238779   2.614   2.297  27.469
 9051SOL     OW38780   0.451   1.193   1.793
 9051SOL    HW138781   0.526   1.135   1.803
 9051SOL    HW238782   0.472   1.247   1.717
 9052SOL     OW38783   0.879   0.357   4.286
 9052SOL    HW138784   0.878   0.433   4.344
 9052SOL    HW238785   0.892   0.394   4.199
 9053SOL     OW38786   0.485   3.832  21.546
 9053SOL    HW138787   0.418   3.784  21.595
 9053SOL    HW238788   0.564   3.823  21.599
 9054SOL     OW38789   4.632   0.635  25.562
 9054SOL    HW138790   4.607   0.629  25.654
 9054SOL    HW238791   4.705   0.697  25.561
 9055SOL     OW38792   3.029   4.734   1.701
 9055SOL    HW138793   3.047   0.034   1.750
 9055SOL    HW238794   3.114   4.708   1.666
 9056SOL     OW38795   1.930   3.870   5.228
 9056SOL    HW138796   1.955   3.911   5.145
 9056SOL    HW238797   1.923   3.777   5.207
 9057SOL     OW38798   1.500   2.212  22.803
 9057SOL    HW138799   1.557   2.230  22.728
 9057SOL    HW238800   1.421   2.262  22.786
 9058SOL     OW38801   0.108   1.323  18.227
 9058SOL    HW138802   0.199   1.305  18.250
 9058SOL    HW238803   0.088   1.260  18.157
 9059SOL     OW38804   2.611   2.325  22.400
 9059SOL    HW138805   2.518   2.315  22.381
 9059SOL    HW238806   2.655   2.294  22.321
 9060SOL     OW38807   4.315   4.219  24.642
 9060SOL    HW138808   4.280   4.156  24.705
 9060SOL    HW238809   4.254   4.217  24.569
 9061SOL     OW38810   2.094   4.543  17.048
 9061SOL    HW138811   2.053   4.577  16.968
 9061SOL    HW238812   2.060   4.599  17.118
 9062SOL     OW38813   4.619   2.108   3.394
 9062SOL    HW138814   4.555   2.162   3.440
 9062SOL    HW238815   4.700   2.158   3.399
 9063SOL     OW38816   3.464   1.736   4.372
 9063SOL    HW138817   3.472   1.725   4.277
 9063SOL    HW238818   3.547   1.774   4.399
 9064SOL     OW38819   3.941   1.841  25.716
 9064SOL    HW138820   3.945   1.911  25.651
 9064SOL    HW238821   4.011   1.862  25.778
 9065SOL     OW38822   1.269   2.164   5.297
 9065SOL    HW138823   1.259   2.074   5.329
 9065SOL    HW238824   1.215   2.217   5.356
 9066SOL     OW38825   1.986   2.464  24.228
 9066SOL    HW138826   2.081   2.460  24.220
 9066SOL    HW238827   1.955   2.495  24.143
 9067SOL     OW38828   3.586   1.556  25.610
 9067SOL    HW138829   3.593   1.641  25.566
 9067SOL    HW238830   3.656   1.503  25.571
 9068SOL     OW38831   2.346   3.326  27.441
 9068SOL    HW138832   2.259   3.288  27.452
 9068SOL    HW238833   2.332   3.420  27.448
 9069SOL     OW38834   4.061   3.999  20.939
 9069SOL    HW138835   4.064   4.060  21.013
 9069SOL    HW238836   3.969   3.974  20.933
 9070SOL     OW38837   4.004   2.200  20.829
 9070SOL    HW138838   4.018   2.228  20.920
 9070SOL    HW238839   3.973   2.110  20.836
 9071SOL     OW38840   4.709   1.005  20.779
 9071SOL    HW138841   4.620   0.970  20.769
 9071SOL    HW238842   4.766   0.928  20.773
 9072SOL     OW38843   4.162   2.590   1.383
 9072SOL    HW138844   4.218   2.520   1.349
 9072SOL    HW238845   4.223   2.661   1.403
 9073SOL     OW38846   3.242   0.403   8.227
 9073SOL    HW138847   3.196   0.485   8.242
 9073SOL    HW238848   3.296   0.391   8.305
 9074SOL     OW38849   0.227   1.254  21.734
 9074SOL    HW138850   0.236   1.323  21.668
 9074SOL    HW238851   0.149   1.205  21.708
 9075SOL     OW38852   0.349   4.495   3.010
 9075SOL    HW138853   0.309   4.554   2.946
 9075SOL    HW238854   0.395   4.430   2.957
 9076SOL     OW38855   1.228   1.388  27.199
 9076SOL    HW138856   1.284   1.323  27.155
 9076SOL    HW238857   1.170   1.336  27.255
 9077SOL     OW38858   4.238   0.289   4.422
 9077SOL    HW138859   4.258   0.378   4.450
 9077SOL    HW238860   4.196   0.300   4.337
 9078SOL     OW38861   2.694   2.024  25.456
 9078SOL    HW138862   2.771   1.977  25.422
 9078SOL    HW238863   2.633   2.025  25.383
 9079SOL     OW38864   2.698   0.638  28.141
 9079SOL    HW138865   2.793   0.632  28.130
 9079SOL    HW238866   2.662   0.619  28.054
 9080SOL     OW38867   2.948   1.426   2.858
 9080SOL    HW138868   2.941   1.477   2.938
 9080SOL    HW238869   3.041   1.430   2.835
 9081SOL     OW38870   0.098   4.779  26.781
 9081SOL    HW138871   0.079   4.686  26.789
 9081SOL    HW238872   0.037   0.041  26.841
 9082SOL     OW38873   0.810   3.679   4.905
 9082SOL    HW138874   0.726   3.693   4.949
 9082SOL    HW238875   0.787   3.660   4.814
 9083SOL     OW38876   0.935   2.252   7.426
 9083SOL    HW138877   0.982   2.263   7.344
 9083SOL    HW238878   0.936   2.158   7.443
 9084SOL     OW38879   2.511   3.307   5.852
 9084SOL    HW138880   2.438   3.347   5.899
 9084SOL    HW238881   2.501   3.337   5.762
 9085SOL     OW38882   0.236   3.962  25.825
 9085SOL    HW138883   0.209   3.882  25.871
 9085SOL    HW238884   0.158   4.018  25.828
 9086SOL     OW38885   3.867   3.876   6.706
 9086SOL    HW138886   3.881   3.962   6.745
 9086SOL    HW238887   3.947   3.858   6.656
 9087SOL     OW38888   3.825   2.130  23.856
 9087SOL    HW138889   3.822   2.226  23.862
 9087SOL    HW238890   3.880   2.103  23.930
 9088SOL     OW38891   3.623   4.663   8.111
 9088SOL    HW138892   3.694   4.696   8.056
 9088SOL    HW238893   3.651   4.575   8.135
 9089SOL     OW38894   2.191   1.227  24.380
 9089SOL    HW138895   2.213   1.173  24.304
 9089SOL    HW238896   2.228   1.179  24.454
 9090SOL     OW38897   2.999   3.827   6.395
 9090SOL    HW138898   3.051   3.907   6.403
 9090SOL    HW238899   3.064   3.757   6.393
 9091SOL     OW38900   0.640   0.041   3.660
 9091SOL    HW138901   0.697   0.026   3.585
 9091SOL    HW238902   0.672   4.762   3.727
 9092SOL     OW38903   2.839   4.394  20.318
 9092SOL    HW138904   2.781   4.336  20.366
 9092SOL    HW238905   2.795   4.479  20.321
 9093SOL     OW38906   2.418   1.316  24.849
 9093SOL    HW138907   2.363   1.379  24.895
 9093SOL    HW238908   2.507   1.335  24.878
 9094SOL     OW38909   1.430   1.380   0.103
 9094SOL    HW138910   1.450   1.303   0.156
 9094SOL    HW238911   1.376   1.435   0.159
 9095SOL     OW38912   1.566   0.578   3.927
 9095SOL    HW138913   1.516   0.610   3.852
 9095SOL    HW238914   1.530   0.624   4.002
 9096SOL     OW38915   2.744   4.764   6.893
 9096SOL    HW138916   2.760   4.672   6.872
 9096SOL    HW238917   2.831   0.023   6.894
 9097SOL     OW38918   2.113   4.674  26.868
 9097SOL    HW138919   2.187   4.734  26.879
 9097SOL    HW238920   2.036   4.731  26.865
 9098SOL     OW38921   1.528   1.645  23.854
 9098SOL    HW138922   1.541   1.640  23.759
 9098SOL    HW238923   1.601   1.596  23.891
 9099SOL     OW38924   0.669   2.279  22.224
 9099SOL    HW138925   0.611   2.290  22.149
 9099SOL    HW238926   0.730   2.352  22.219
 9100SOL     OW38927   4.143   0.771   4.585
 9100SOL    HW138928   4.142   0.831   4.511
 9100SOL    HW238929   4.051   0.758   4.607
 9101SOL     OW38930   2.607   2.616  22.956
 9101SOL    HW138931   2.602   2.627  22.861
 9101SOL    HW238932   2.642   2.528  22.968
 9102SOL     OW38933   3.206   4.114  22.394
 9102SOL    HW138934   3.258   4.162  22.458
 9102SOL    HW238935   3.197   4.174  22.320
 9103SOL     OW38936   2.179   1.991  25.183
 9103SOL    HW138937   2.087   1.977  25.206
 9103SOL    HW238938   2.217   1.903  25.184
 9104SOL     OW38939   4.523   4.145   3.727
 9104SOL    HW138940   4.466   4.118   3.655
 9104SOL    HW238941   4.465   4.152   3.803
 9105SOL     OW38942   2.387   1.736  22.971
 9105SOL    HW138943   2.343   1.661  23.011
 9105SOL    HW238944   2.332   1.759  22.896
 9106SOL     OW38945   0.615   3.214   7.187
 9106SOL    HW138946   0.551   3.285   7.187
 9106SOL    HW238947   0.575   3.145   7.240
 9107SOL     OW38948   3.060   1.135  25.134
 9107SOL    HW138949   3.145   1.094  25.120
 9107SOL    HW238950   2.997   1.071  25.101
 9108SOL     OW38951   1.176   2.220  24.656
 9108SOL    HW138952   1.255   2.175  24.625
 9108SOL    HW238953   1.207   2.278  24.725
 9109SOL     OW38954   3.168   3.057  25.791
 9109SOL    HW138955   3.193   3.047  25.699
 9109SOL    HW238956   3.199   2.977  25.834
 9110SOL     OW38957   2.529   0.472   1.638
 9110SOL    HW138958   2.564   0.393   1.679
 9110SOL    HW238959   2.434   0.464   1.648
 9111SOL     OW38960   1.163   3.683  23.470
 9111SOL    HW138961   1.165   3.642  23.383
 9111SOL    HW238962   1.232   3.749  23.467
 9112SOL     OW38963   3.573   3.138   8.606
 9112SOL    HW138964   3.478   3.145   8.605
 9112SOL    HW238965   3.592   3.075   8.675
 9113SOL     OW38966   0.421   0.946  18.690
 9113SOL    HW138967   0.359   0.891  18.642
 9113SOL    HW238968   0.423   0.909  18.778
 9114SOL     OW38969   0.873   4.505  18.957
 9114SOL    HW138970   0.952   4.535  18.911
 9114SOL    HW238971   0.903   4.433  19.012
 9115SOL     OW38972   0.017   2.114   7.961
 9115SOL    HW138973   4.753   2.174   8.020
 9115SOL    HW238974   0.098   2.092   8.006
 9116SOL     OW38975   1.100   1.228  25.186
 9116SOL    HW138976   1.119   1.307  25.237
 9116SOL    HW238977   1.059   1.260  25.106
 9117SOL     OW38978   4.638   1.709  20.764
 9117SOL    HW138979   4.719   1.661  20.781
 9117SOL    HW238980   4.580   1.687  20.837
 9118SOL     OW38981   3.020   4.435  20.099
 9118SOL    HW138982   3.102   4.482  20.086
 9118SOL    HW238983   2.953   4.493  20.062
 9119SOL     OW38984   3.890   1.271   8.791
 9119SOL    HW138985   3.812   1.320   8.766
 9119SOL    HW238986   3.963   1.328   8.767
 9120SOL     OW38987   3.826   1.702  20.033
 9120SOL    HW138988   3.831   1.606  20.034
 9120SOL    HW238989   3.798   1.726  20.121
 9121SOL     OW38990   0.835   1.667   6.265
 9121SOL    HW138991   0.815   1.751   6.224
 9121SOL    HW238992   0.913   1.635   6.219
 9122SOL     OW38993   0.146   3.210  22.039
 9122SOL    HW138994   0.083   3.282  22.039
 9122SOL    HW238995   0.231   3.253  22.049
 9123SOL     OW38996   2.629   2.257  10.794
 9123SOL    HW138997   2.576   2.195  10.843
 9123SOL    HW238998   2.602   2.245  10.703
 9124SOL     OW38999   1.882   0.131   2.289
 9124SOL    HW139000   1.820   0.058   2.286
 9124SOL    HW239001   1.963   0.093   2.322
 9125SOL     OW39002   2.344   1.459   6.946
 9125SOL    HW139003   2.284   1.465   7.020
 9125SOL    HW239004   2.292   1.419   6.876
 9126SOL     OW39005   0.430   1.843   8.749
 9126SOL    HW139006   0.465   1.776   8.691
 9126SOL    HW239007   0.414   1.797   8.832
 9127SOL     OW39008   4.188   0.460  27.305
 9127SOL    HW139009   4.108   0.451  27.357
 9127SOL    HW239010   4.239   0.382  27.326
 9128SOL     OW39011   4.223   3.256   7.250
 9128SOL    HW139012   4.213   3.218   7.163
 9128SOL    HW239013   4.140   3.302   7.266
 9129SOL     OW39014   2.718   2.751   4.026
 9129SOL    HW139015   2.758   2.767   3.940
 9129SOL    HW239016   2.786   2.774   4.089
 9130SOL     OW39017   2.686   0.077  21.487
 9130SOL    HW139018   2.607   0.128  21.467
 9130SOL    HW239019   2.758   0.139  21.475
 9131SOL     OW39020   4.628   1.870  28.205
 9131SOL    HW139021   4.617   1.940  28.270
 9131SOL    HW239022   4.654   1.793  28.256
 9132SOL     OW39023   4.620   1.591   1.511
 9132SOL    HW139024   4.622   1.686   1.522
 9132SOL    HW239025   4.709   1.568   1.485
 9133SOL     OW39026   2.330   0.647  23.231
 9133SOL    HW139027   2.257   0.694  23.190
 9133SOL    HW239028   2.317   0.659  23.325
 9134SOL     OW39029   1.176   2.846   7.165
 9134SOL    HW139030   1.211   2.866   7.078
 9134SOL    HW239031   1.178   2.751   7.171
 9135SOL     OW39032   1.783   4.355   3.308
 9135SOL    HW139033   1.779   4.279   3.250
 9135SOL    HW239034   1.859   4.405   3.278
 9136SOL     OW39035   4.180   0.230  24.400
 9136SOL    HW139036   4.185   0.182  24.482
 9136SOL    HW239037   4.108   0.292  24.413
 9137SOL     OW39038   2.980   4.704   4.518
 9137SOL    HW139039   3.008   0.013   4.499
 9137SOL    HW239040   2.893   4.697   4.479
 9138SOL     OW39041   2.768   2.202   4.018
 9138SOL    HW139042   2.699   2.249   3.971
 9138SOL    HW239043   2.846   2.255   4.006
 9139SOL     OW39044   2.313   3.604  21.125
 9139SOL    HW139045   2.403   3.583  21.151
 9139SOL    HW239046   2.261   3.591  21.204
 9140SOL     OW39047   3.007   2.629  22.515
 9140SOL    HW139048   2.934   2.613  22.574
 9140SOL    HW239049   2.974   2.693  22.452
 9141SOL     OW39050   4.388   0.542   4.934
 9141SOL    HW139051   4.409   0.633   4.914
 9141SOL    HW239052   4.394   0.497   4.850
 9142SOL     OW39053   3.984   4.277   8.019
 9142SOL    HW139054   4.013   4.367   8.003
 9142SOL    HW239055   4.002   4.231   7.937
 9143SOL     OW39056   4.572   3.917   9.629
 9143SOL    HW139057   4.609   3.940   9.714
 9143SOL    HW239058   4.596   3.825   9.616
 9144SOL     OW39059   1.409   0.323  10.240
 9144SOL    HW139060   1.322   0.362  10.227
 9144SOL    HW239061   1.422   0.325  10.335
 9145SOL     OW39062   1.502   2.183   7.093
 9145SOL    HW139063   1.547   2.199   7.010
 9145SOL    HW239064   1.500   2.088   7.101
 9146SOL     OW39065   4.498   2.547  27.521
 9146SOL    HW139066   4.486   2.455  27.496
 9146SOL    HW239067   4.538   2.588  27.444
 9147SOL     OW39068   1.433   2.781  22.947
 9147SOL    HW139069   1.425   2.807  23.039
 9147SOL    HW239070   1.482   2.699  22.950
 9148SOL     OW39071   0.913   1.924   8.801
 9148SOL    HW139072   0.852   1.874   8.856
 9148SOL    HW239073   0.858   1.989   8.758
 9149SOL     OW39074   4.543   0.121   4.194
 9149SOL    HW139075   4.604   0.090   4.261
 9149SOL    HW239076   4.550   0.217   4.198
 9150SOL     OW39077   3.630   1.354   8.742
 9150SOL    HW139078   3.617   1.446   8.720
 9150SOL    HW239079   3.612   1.348   8.836
 9151SOL     OW39080   0.557   0.496   9.203
 9151SOL    HW139081   0.582   0.456   9.287
 9151SOL    HW239082   0.480   0.446   9.175
 9152SOL     OW39083   2.937   4.112  20.351
 9152SOL    HW139084   2.886   4.031  20.353
 9152SOL    HW239085   2.975   4.119  20.438
 9153SOL     OW39086   1.999   3.743  25.328
 9153SOL    HW139087   1.988   3.784  25.242
 9153SOL    HW239088   2.010   3.817  25.388
 9154SOL     OW39089   0.353   0.326   2.337
 9154SOL    HW139090   0.403   0.383   2.395
 9154SOL    HW239091   0.367   0.238   2.372
 9155SOL     OW39092   1.389   2.329   2.025
 9155SOL    HW139093   1.330   2.261   2.057
 9155SOL    HW239094   1.390   2.395   2.094
 9156SOL     OW39095   3.088   0.945  21.349
 9156SOL    HW139096   3.086   1.040  21.356
 9156SOL    HW239097   3.162   0.918  21.403
 9157SOL     OW39098   1.685   2.649   6.488
 9157SOL    HW139099   1.750   2.640   6.418
 9157SOL    HW239100   1.625   2.717   6.457
 9158SOL     OW39101   0.416   3.361  27.275
 9158SOL    HW139102   0.321   3.365  27.285
 9158SOL    HW239103   0.430   3.313  27.194
 9159SOL     OW39104   0.219   0.298   1.734
 9159SOL    HW139105   0.297   0.337   1.694
 9159SOL    HW239106   0.244   0.207   1.751
 9160SOL     OW39107   3.606   3.771   8.948
 9160SOL    HW139108   3.600   3.866   8.962
 9160SOL    HW239109   3.605   3.734   9.036
 9161SOL     OW39110   3.894   2.305  21.641
 9161SOL    HW139111   3.893   2.242  21.713
 9161SOL    HW239112   3.930   2.256  21.567
 9162SOL     OW39113   1.527   1.031   8.116
 9162SOL    HW139114   1.466   1.005   8.185
 9162SOL    HW239115   1.539   1.125   8.128
 9163SOL     OW39116   3.431   4.398   1.695
 9163SOL    HW139117   3.404   4.378   1.785
 9163SOL    HW239118   3.512   4.448   1.705
 9164SOL     OW39119   0.927   4.584  21.768
 9164SOL    HW139120   0.955   4.598  21.678
 9164SOL    HW239121   0.834   4.608  21.768
 9165SOL     OW39122   2.632   3.185  18.579
 9165SOL    HW139123   2.595   3.224  18.500
 9165SOL    HW239124   2.716   3.230  18.590
 9166SOL     OW39125   3.778   3.858  18.524
 9166SOL    HW139126   3.716   3.878  18.454
 9166SOL    HW239127   3.768   3.931  18.586
 9167SOL     OW39128   2.866   3.323   7.619
 9167SOL    HW139129   2.814   3.257   7.665
 9167SOL    HW239130   2.957   3.294   7.630
 9168SOL     OW39131   2.491   4.688   1.526
 9168SOL    HW139132   2.496   0.003   1.530
 9168SOL    HW239133   2.414   4.671   1.472
 9169SOL     OW39134   4.371   0.582   8.109
 9169SOL    HW139135   4.396   0.664   8.151
 9169SOL    HW239136   4.279   0.570   8.133
 9170SOL     OW39137   1.010   4.054  22.265
 9170SOL    HW139138   1.023   4.045  22.171
 9170SOL    HW239139   1.082   4.109  22.294
 9171SOL     OW39140   1.164   1.226   6.087
 9171SOL    HW139141   1.164   1.154   6.150
 9171SOL    HW239142   1.249   1.268   6.098
 9172SOL     OW39143   4.153   1.302  25.602
 9172SOL    HW139144   4.229   1.276  25.654
 9172SOL    HW239145   4.109   1.368  25.656
 9173SOL     OW39146   3.251   2.081   4.490
 9173SOL    HW139147   3.170   2.076   4.540
 9173SOL    HW239148   3.228   2.045   4.404
 9174SOL     OW39149   2.835   4.193  20.103
 9174SOL    HW139150   2.757   4.146  20.134
 9174SOL    HW239151   2.835   4.181  20.008
 9175SOL     OW39152   4.234   3.987  21.843
 9175SOL    HW139153   4.272   3.977  21.930
 9175SOL    HW239154   4.256   3.905  21.798
 9176SOL     OW39155   2.882   1.697  18.423
 9176SOL    HW139156   2.883   1.714  18.329
 9176SOL    HW239157   2.960   1.741  18.456
 9177SOL     OW39158   0.036   4.480  25.446
 9177SOL    HW139159   0.041   4.573  25.422
 9177SOL    HW239160   4.727   4.455  25.426
 9178SOL     OW39161   2.963   1.621  25.291
 9178SOL    HW139162   2.902   1.599  25.361
 9178SOL    HW239163   3.010   1.539  25.273
 9179SOL     OW39164   0.005   1.847   9.379
 9179SOL    HW139165   0.085   1.815   9.420
 9179SOL    HW239166   0.026   1.936   9.351
 9180SOL     OW39167   2.669   3.149  21.653
 9180SOL    HW139168   2.650   3.158  21.746
 9180SOL    HW239169   2.761   3.175  21.644
 9181SOL     OW39170   2.833   0.662  22.230
 9181SOL    HW139171   2.803   0.602  22.299
 9181SOL    HW239172   2.924   0.637  22.215
 9182SOL     OW39173   0.888   2.694   2.015
 9182SOL    HW139174   0.857   2.736   1.935
 9182SOL    HW239175   0.822   2.628   2.034
 9183SOL     OW39176   3.159   0.514   3.521
 9183SOL    HW139177   3.095   0.504   3.592
 9183SOL    HW239178   3.164   0.609   3.507
 9184SOL     OW39179   0.806   4.228   6.914
 9184SOL    HW139180   0.802   4.310   6.865
 9184SOL    HW239181   0.840   4.253   7.000
 9185SOL     OW39182   4.315   4.189   2.310
 9185SOL    HW139183   4.389   4.213   2.254
 9185SOL    HW239184   4.327   4.096   2.327
 9186SOL     OW39185   0.603   0.858  25.811
 9186SOL    HW139186   0.611   0.819  25.898
 9186SOL    HW239187   0.636   0.947  25.821
 9187SOL     OW39188   1.090   2.712  27.863
 9187SOL    HW139189   1.072   2.719  27.769
 9187SOL    HW239190   1.183   2.689  27.868
 9188SOL     OW39191   1.802   3.559   4.745
 9188SOL    HW139192   1.846   3.640   4.770
 9188SOL    HW239193   1.826   3.497   4.814
 9189SOL     OW39194   1.957   2.470   7.357
 9189SOL    HW139195   1.877   2.497   7.312
 9189SOL    HW239196   1.927   2.442   7.443
 9190SOL     OW39197   2.519   2.146  28.444
 9190SOL    HW139198   2.573   2.225  28.443
 9190SOL    HW239199   2.431   2.178  28.462
 9191SOL     OW39200   0.539   0.556  24.176
 9191SOL    HW139201   0.507   0.578  24.264
 9191SOL    HW239202   0.569   0.465  24.183
 9192SOL     OW39203   1.378   0.357  18.916
 9192SOL    HW139204   1.374   0.315  19.002
 9192SOL    HW239205   1.379   0.451  18.936
 9193SOL     OW39206   2.166   0.401  23.647
 9193SOL    HW139207   2.179   0.362  23.733
 9193SOL    HW239208   2.126   0.486  23.665
 9194SOL     OW39209   3.807   4.384   4.772
 9194SOL    HW139210   3.839   4.415   4.857
 9194SOL    HW239211   3.791   4.291   4.786
 9195SOL     OW39212   3.909   0.408  26.976
 9195SOL    HW139213   3.836   0.441  27.028
 9195SOL    HW239214   3.868   0.365  26.901
 9196SOL     OW39215   3.515   0.920  26.595
 9196SOL    HW139216   3.595   0.964  26.566
 9196SOL    HW239217   3.451   0.991  26.603
 9197SOL     OW39218   2.130   0.244  23.421
 9197SOL    HW139219   2.149   0.310  23.487
 9197SOL    HW239220   2.188   0.171  23.442
 9198SOL     OW39221   0.955   0.850   9.778
 9198SOL    HW139222   1.039   0.896   9.780
 9198SOL    HW239223   0.892   0.917   9.753
 9199SOL     OW39224   2.785   3.133   7.855
 9199SOL    HW139225   2.834   3.186   7.917
 9199SOL    HW239226   2.822   3.045   7.863
 9200SOL     OW39227   1.997   1.058   6.537
 9200SOL    HW139228   1.954   0.986   6.492
 9200SOL    HW239229   2.082   1.067   6.493
 9201SOL     OW39230   0.714   0.608   8.556
 9201SOL    HW139231   0.738   0.639   8.469
 9201SOL    HW239232   0.705   0.513   8.546
 9202SOL     OW39233   0.657   0.326  10.074
 9202SOL    HW139234   0.671   0.268  10.149
 9202SOL    HW239235   0.682   0.273   9.998
 9203SOL     OW39236   3.116   4.133  20.133
 9203SOL    HW139237   3.189   4.135  20.071
 9203SOL    HW239238   3.099   4.040  20.147
 9204SOL     OW39239   0.631   3.673   2.909
 9204SOL    HW139240   0.707   3.732   2.906
 9204SOL    HW239241   0.583   3.701   2.987
 9205SOL     OW39242   2.530   3.641  24.416
 9205SOL    HW139243   2.539   3.576  24.486
 9205SOL    HW239244   2.440   3.631  24.385
 9206SOL     OW39245   1.858   4.707   4.228
 9206SOL    HW139246   1.782   4.761   4.206
 9206SOL    HW239247   1.820   4.626   4.263
 9207SOL     OW39248   0.186   0.564  21.784
 9207SOL    HW139249   0.184   0.630  21.714
 9207SOL    HW239250   0.098   0.566  21.821
 9208SOL     OW39251   4.610   0.949  25.583
 9208SOL    HW139252   4.648   0.954  25.495
 9208SOL    HW239253   4.665   1.006  25.636
 9209SOL     OW39254   3.102   4.688   0.118
 9209SOL    HW139255   3.188   4.688   0.077
 9209SOL    HW239256   3.041   4.704   0.046
 9210SOL     OW39257   0.994   3.801   5.982
 9210SOL    HW139258   1.082   3.826   6.011
 9210SOL    HW239259   0.942   3.798   6.062
 9211SOL     OW39260   2.241   1.630  19.306
 9211SOL    HW139261   2.180   1.684  19.356
 9211SOL    HW239262   2.301   1.594  19.371
 9212SOL     OW39263   1.547   3.412   3.605
 9212SOL    HW139264   1.479   3.401   3.539
 9212SOL    HW239265   1.622   3.447   3.557
 9213SOL     OW39266   4.115   1.529  26.044
 9213SOL    HW139267   4.119   1.579  25.963
 9213SOL    HW239268   4.164   1.449  26.025
 9214SOL     OW39269   3.635   4.778   0.262
 9214SOL    HW139270   3.694   0.061   0.222
 9214SOL    HW239271   3.615   0.033   0.349
 9215SOL     OW39272   0.011   0.003  25.097
 9215SOL    HW139273   0.025   0.093  25.069
 9215SOL    HW239274   0.040   4.731  25.023
 9216SOL     OW39275   0.601   3.446  26.528
 9216SOL    HW139276   0.602   3.401  26.613
 9216SOL    HW239277   0.671   3.511  26.535
 9217SOL     OW39278   0.023   4.415  20.852
 9217SOL    HW139279   0.060   4.493  20.892
 9217SOL    HW239280   4.750   4.375  20.921
 9218SOL     OW39281   1.195   1.154  17.969
 9218SOL    HW139282   1.248   1.074  17.968
 9218SOL    HW239283   1.134   1.141  18.041
 9219SOL     OW39284   1.449   0.187  26.149
 9219SOL    HW139285   1.366   0.234  26.140
 9219SOL    HW239286   1.476   0.169  26.059
 9220SOL     OW39287   2.409   0.215   0.582
 9220SOL    HW139288   2.493   0.178   0.553
 9220SOL    HW239289   2.379   0.267   0.507
 9221SOL     OW39290   3.928   0.981   8.739
 9221SOL    HW139291   3.951   0.964   8.830
 9221SOL    HW239292   3.935   1.076   8.729
 9222SOL     OW39293   3.117   4.449  23.795
 9222SOL    HW139294   3.135   4.522  23.854
 9222SOL    HW239295   3.063   4.389  23.847
 9223SOL     OW39296   2.157   1.094   7.779
 9223SOL    HW139297   2.221   1.164   7.795
 9223SOL    HW239298   2.109   1.122   7.701
 9224SOL     OW39299   4.409   2.922   7.784
 9224SOL    HW139300   4.473   2.938   7.853
 9224SOL    HW239301   4.458   2.934   7.703
 9225SOL     OW39302   4.459   3.322  26.555
 9225SOL    HW139303   4.374   3.335  26.514
 9225SOL    HW239304   4.494   3.410  26.566
 9226SOL     OW39305   3.198   3.388  26.218
 9226SOL    HW139306   3.164   3.386  26.128
 9226SOL    HW239307   3.219   3.480  26.233
 9227SOL     OW39308   3.823   3.556  20.219
 9227SOL    HW139309   3.803   3.471  20.258
 9227SOL    HW239310   3.874   3.535  20.141
 9228SOL     OW39311   3.225   1.137  26.405
 9228SOL    HW139312   3.162   1.188  26.455
 9228SOL    HW239313   3.284   1.100  26.471
 9229SOL     OW39314   1.686   3.132   9.309
 9229SOL    HW139315   1.657   3.054   9.357
 9229SOL    HW239316   1.741   3.179   9.372
 9230SOL     OW39317   3.870   4.347  23.259
 9230SOL    HW139318   3.839   4.435  23.239
 9230SOL    HW239319   3.793   4.291  23.245
 9231SOL     OW39320   4.526   1.739   3.994
 9231SOL    HW139321   4.529   1.830   3.963
 9231SOL    HW239322   4.490   1.745   4.082
 9232SOL     OW39323   4.440   1.698  24.203
 9232SOL    HW139324   4.380   1.637  24.246
 9232SOL    HW239325   4.501   1.642  24.155
 9233SOL     OW39326   4.260   4.091   1.793
 9233SOL    HW139327   4.206   4.078   1.715
 9233SOL    HW239328   4.213   4.045   1.862
 9234SOL     OW39329   4.130   4.213  22.548
 9234SOL    HW139330   4.043   4.181  22.523
 9234SOL    HW239331   4.152   4.163  22.627
 9235SOL     OW39332   3.797   2.312  17.441
 9235SOL    HW139333   3.820   2.279  17.528
 9235SOL    HW239334   3.724   2.257  17.413
 9236SOL     OW39335   0.408   0.650  22.203
 9236SOL    HW139336   0.477   0.700  22.247
 9236SOL    HW239337   0.426   0.662  22.110
 9237SOL     OW39338   0.151   0.918  24.628
 9237SOL    HW139339   0.087   0.988  24.643
 9237SOL    HW239340   0.227   0.943  24.680
 9238SOL     OW39341   0.825   4.149   3.172
 9238SOL    HW139342   0.904   4.097   3.184
 9238SOL    HW239343   0.845   4.205   3.097
 9239SOL     OW39344   0.134   2.938  24.442
 9239SOL    HW139345   0.122   3.002  24.512
 9239SOL    HW239346   0.139   2.991  24.362
 9240SOL     OW39347   3.711   3.290   5.281
 9240SOL    HW139348   3.619   3.280   5.305
 9240SOL    HW239349   3.751   3.336   5.355
 9241SOL     OW39350   2.016   2.374  20.829
 9241SOL    HW139351   2.100   2.391  20.786
 9241SOL    HW239352   2.038   2.366  20.922
 9242SOL     OW39353   4.053   0.054   1.560
 9242SOL    HW139354   3.965   0.085   1.580
 9242SOL    HW239355   4.064   4.756   1.613
 9243SOL     OW39356   4.230   2.354   2.433
 9243SOL    HW139357   4.144   2.349   2.475
 9243SOL    HW239358   4.293   2.352   2.505
 9244SOL     OW39359   2.972   4.122  22.137
 9244SOL    HW139360   2.941   4.034  22.116
 9244SOL    HW239361   2.962   4.171  22.055
 9245SOL     OW39362   1.046   2.052   5.024
 9245SOL    HW139363   1.121   2.085   5.073
 9245SOL    HW239364   0.980   2.032   5.090
 9246SOL     OW39365   3.796   4.136  23.752
 9246SOL    HW139366   3.709   4.149  23.791
 9246SOL    HW239367   3.833   4.224  23.746
 9247SOL     OW39368   3.105   2.356  17.764
 9247SOL    HW139369   3.114   2.261  17.753
 9247SOL    HW239370   3.031   2.380  17.708
 9248SOL     OW39371   4.560   2.337  23.505
 9248SOL    HW139372   4.531   2.247  23.490
 9248SOL    HW239373   4.604   2.362  23.424
 9249SOL     OW39374   1.837   3.057  27.478
 9249SOL    HW139375   1.858   3.034  27.388
 9249SOL    HW239376   1.844   3.152  27.481
 9250SOL     OW39377   1.288   4.595  19.020
 9250SOL    HW139378   1.350   4.548  18.964
 9250SOL    HW239379   1.206   4.595  18.970
 9251SOL     OW39380   3.196   3.965  23.470
 9251SOL    HW139381   3.145   3.884  23.473
 9251SOL    HW239382   3.132   4.034  23.487
 9252SOL     OW39383   4.428   4.384  20.189
 9252SOL    HW139384   4.445   4.376  20.095
 9252SOL    HW239385   4.431   4.478  20.206
 9253SOL     OW39386   2.152   1.076  28.484
 9253SOL    HW139387   2.149   1.013  28.412
 9253SOL    HW239388   2.132   1.160  28.443
 9254SOL     OW39389   3.904   4.226  22.291
 9254SOL    HW139390   3.866   4.273  22.365
 9254SOL    HW239391   3.919   4.137  22.324
 9255SOL     OW39392   0.492   0.810   5.995
 9255SOL    HW139393   0.535   0.807   5.910
 9255SOL    HW239394   0.464   0.901   6.004
 9256SOL     OW39395   4.498   1.410   9.305
 9256SOL    HW139396   4.504   1.397   9.400
 9256SOL    HW239397   4.566   1.353   9.268
 9257SOL     OW39398   0.646   2.531  26.923
 9257SOL    HW139399   0.723   2.588  26.931
 9257SOL    HW239400   0.643   2.508  26.830
 9258SOL     OW39401   4.522   3.578  23.719
 9258SOL    HW139402   4.433   3.546  23.735
 9258SOL    HW239403   4.561   3.586  23.806
 9259SOL     OW39404   2.900   4.421  22.432
 9259SOL    HW139405   2.811   4.457  22.428
 9259SOL    HW239406   2.887   4.326  22.437
 9260SOL     OW39407   3.126   4.326  20.365
 9260SOL    HW139408   3.114   4.342  20.459
 9260SOL    HW239409   3.220   4.339  20.350
 9261SOL     OW39410   3.279   1.216   0.969
 9261SOL    HW139411   3.255   1.290   0.914
 9261SOL    HW239412   3.304   1.255   1.053
 9262SOL     OW39413   4.614   0.546  24.846
 9262SOL    HW139414   4.582   0.510  24.928
 9262SOL    HW239415   4.564   0.500  24.778
 9263SOL     OW39416   1.348   4.447   4.846
 9263SOL    HW139417   1.335   4.395   4.926
 9263SOL    HW239418   1.378   4.532   4.877
 9264SOL     OW39419   1.339   0.633   7.189
 9264SOL    HW139420   1.313   0.541   7.194
 9264SOL    HW239421   1.412   0.641   7.250
 9265SOL     OW39422   0.977   2.738  23.551
 9265SOL    HW139423   0.935   2.685  23.618
 9265SOL    HW239424   1.029   2.675  23.500
 9266SOL     OW39425   4.182   2.694  22.305
 9266SOL    HW139426   4.200   2.788  22.298
 9266SOL    HW239427   4.268   2.652  22.297
 9267SOL     OW39428   1.979   0.319   2.087
 9267SOL    HW139429   1.927   0.270   2.150
 9267SOL    HW239430   1.969   0.411   2.113
 9268SOL     OW39431   2.465   4.176   0.535
 9268SOL    HW139432   2.393   4.150   0.593
 9268SOL    HW239433   2.422   4.223   0.463
 9269SOL     OW39434   4.684   4.541   7.442
 9269SOL    HW139435   4.610   4.594   7.412
 9269SOL    HW239436   4.649   4.491   7.516
 9270SOL     OW39437   4.027   3.566  26.686
 9270SOL    HW139438   3.983   3.526  26.611
 9270SOL    HW239439   4.010   3.506  26.759
 9271SOL     OW39440   0.543   3.288   1.158
 9271SOL    HW139441   0.472   3.230   1.132
 9271SOL    HW239442   0.620   3.255   1.111
 9272SOL     OW39443   1.660   0.053  21.595
 9272SOL    HW139444   1.755   0.063  21.605
 9272SOL    HW239445   1.644   0.076  21.503
 9273SOL     OW39446   3.296   4.296  24.249
 9273SOL    HW139447   3.366   4.241  24.285
 9273SOL    HW239448   3.240   4.316  24.324
 9274SOL     OW39449   1.615   2.123  10.849
 9274SOL    HW139450   1.641   2.210  10.819
 9274SOL    HW239451   1.697   2.082  10.878
 9275SOL     OW39452   1.743   0.513   5.497
 9275SOL    HW139453   1.721   0.433   5.545
 9275SOL    HW239454   1.659   0.545   5.464
 9276SOL     OW39455   3.011   2.306   3.889
 9276SOL    HW139456   3.092   2.357   3.895
 9276SOL    HW239457   3.040   2.217   3.870
 9277SOL     OW39458   2.648   3.485  22.672
 9277SOL    HW139459   2.704   3.414  22.702
 9277SOL    HW239460   2.563   3.466  22.711
 9278SOL     OW39461   1.722   3.964  27.966
 9278SOL    HW139462   1.747   3.901  27.898
 9278SOL    HW239463   1.805   4.004  27.993
 9279SOL     OW39464   0.863   4.601  26.582
 9279SOL    HW139465   0.788   4.551  26.551
 9279SOL    HW239466   0.921   4.607  26.506
 9280SOL     OW39467   2.895   2.435   4.882
 9280SOL    HW139468   2.983   2.456   4.914
 9280SOL    HW239469   2.842   2.511   4.906
 9281SOL     OW39470   2.113   3.765  22.857
 9281SOL    HW139471   2.046   3.831  22.871
 9281SOL    HW239472   2.147   3.746  22.945
 9282SOL     OW39473   2.695   1.100   5.459
 9282SOL    HW139474   2.750   1.079   5.534
 9282SOL    HW239475   2.716   1.033   5.394
 9283SOL     OW39476   3.552   2.241  25.444
 9283SOL    HW139477   3.509   2.326  25.443
 9283SOL    HW239478   3.598   2.239  25.528
 9284SOL     OW39479   3.378   2.136   0.283
 9284SOL    HW139480   3.382   2.228   0.308
 9284SOL    HW239481   3.298   2.129   0.231
 9285SOL     OW39482   0.600   2.345   1.374
 9285SOL    HW139483   0.542   2.271   1.356
 9285SOL    HW239484   0.656   2.315   1.445
 9286SOL     OW39485   4.459   4.122  26.685
 9286SOL    HW139486   4.457   4.216  26.669
 9286SOL    HW239487   4.512   4.112  26.764
 9287SOL     OW39488   0.058   4.186  24.840
 9287SOL    HW139489   0.140   4.234  24.828
 9287SOL    HW239490   0.060   4.117  24.774
 9288SOL     OW39491   1.317   4.370   1.783
 9288SOL    HW139492   1.229   4.375   1.746
 9288SOL    HW239493   1.353   4.458   1.769
 9289SOL     OW39494   0.159   1.910  22.462
 9289SOL    HW139495   0.088   1.875  22.517
 9289SOL    HW239496   0.228   1.933  22.524
 9290SOL     OW39497   0.840   0.360  22.774
 9290SOL    HW139498   0.872   0.427  22.834
 9290SOL    HW239499   0.746   0.356  22.789
 9291SOL     OW39500   2.933   3.106  20.332
 9291SOL    HW139501   2.838   3.098  20.341
 9291SOL    HW239502   2.963   3.141  20.416
 9292SOL     OW39503   2.341   3.721  23.671
 9292SOL    HW139504   2.306   3.642  23.630
 9292SOL    HW239505   2.275   3.788  23.654
 9293SOL     OW39506   2.894   0.339  11.298
 9293SOL    HW139507   2.799   0.330  11.303
 9293SOL    HW239508   2.919   0.368  11.386
 9294SOL     OW39509   1.102   1.945   7.945
 9294SOL    HW139510   1.185   1.924   7.988
 9294SOL    HW239511   1.067   2.019   7.995
 9295SOL     OW39512   1.098   1.529  18.753
 9295SOL    HW139513   1.117   1.561  18.665
 9295SOL    HW239514   1.144   1.445  18.758
 9296SOL     OW39515   0.194   4.402   3.422
 9296SOL    HW139516   0.144   4.323   3.440
 9296SOL    HW239517   0.239   4.422   3.504
 9297SOL     OW39518   0.348   2.340  25.501
 9297SOL    HW139519   0.275   2.285  25.471
 9297SOL    HW239520   0.320   2.372  25.587
 9298SOL     OW39521   1.389   3.608  19.871
 9298SOL    HW139522   1.411   3.669  19.800
 9298SOL    HW239523   1.373   3.524  19.827
 9299SOL     OW39524   2.639   3.322   8.551
 9299SOL    HW139525   2.672   3.303   8.463
 9299SOL    HW239526   2.598   3.240   8.579
 9300SOL     OW39527   2.054   1.634  23.418
 9300SOL    HW139528   2.144   1.665  23.419
 9300SOL    HW239529   2.010   1.685  23.487
 9301SOL     OW39530   2.451   1.230  22.692
 9301SOL    HW139531   2.373   1.190  22.732
 9301SOL    HW239532   2.436   1.223  22.598
 9302SOL     OW39533   1.719   0.153   9.874
 9302SOL    HW139534   1.705   0.231   9.821
 9302SOL    HW239535   1.664   0.167   9.952
 9303SOL     OW39536   2.367   2.971  28.407
 9303SOL    HW139537   2.278   3.001  28.390
 9303SOL    HW239538   2.415   3.051  28.429
 9304SOL     OW39539   4.324   1.118   9.264
 9304SOL    HW139540   4.390   1.169   9.310
 9304SOL    HW239541   4.241   1.142   9.306
 9305SOL     OW39542   1.760   1.946   9.429
 9305SOL    HW139543   1.715   1.862   9.435
 9305SOL    HW239544   1.702   2.001   9.376
 9306SOL     OW39545   0.344   2.345   0.368
 9306SOL    HW139546   0.270   2.384   0.414
 9306SOL    HW239547   0.322   2.352   0.275
 9307SOL     OW39548   2.226   0.740   3.827
 9307SOL    HW139549   2.193   0.678   3.762
 9307SOL    HW239550   2.153   0.800   3.843
 9308SOL     OW39551   3.728   0.075  22.691
 9308SOL    HW139552   3.748   0.075  22.785
 9308SOL    HW239553   3.809   0.103  22.649
 9309SOL     OW39554   3.552   0.968   6.530
 9309SOL    HW139555   3.556   0.908   6.456
 9309SOL    HW239556   3.462   1.001   6.529
 9310SOL     OW39557   1.223   0.555   9.901
 9310SOL    HW139558   1.241   0.618   9.970
 9310SOL    HW239559   1.127   0.550   9.898
 9311SOL     OW39560   3.546   1.768  19.493
 9311SOL    HW139561   3.619   1.830  19.490
 9311SOL    HW239562   3.562   1.707  19.421
 9312SOL     OW39563   0.471   1.388  25.386
 9312SOL    HW139564   0.524   1.313  25.357
 9312SOL    HW239565   0.482   1.453  25.317
 9313SOL     OW39566   3.775   3.833  26.330
 9313SOL    HW139567   3.721   3.892  26.278
 9313SOL    HW239568   3.719   3.807  26.403
 9314SOL     OW39569   1.842   0.151  20.440
 9314SOL    HW139570   1.786   0.169  20.515
 9314SOL    HW239571   1.927   0.189  20.464
 9315SOL     OW39572   3.971   2.269  18.819
 9315SOL    HW139573   3.998   2.177  18.823
 9315SOL    HW239574   4.043   2.314  18.775
 9316SOL     OW39575   4.378   1.826   4.738
 9316SOL    HW139576   4.445   1.889   4.765
 9316SOL    HW239577   4.312   1.879   4.694
 9317SOL     OW39578   3.435   1.943   4.642
 9317SOL    HW139579   3.391   1.921   4.724
 9317SOL    HW239580   3.365   1.971   4.583
 9318SOL     OW39581   3.451   3.305   1.515
 9318SOL    HW139582   3.521   3.259   1.468
 9318SOL    HW239583   3.431   3.249   1.590
 9319SOL     OW39584   0.719   4.218   6.409
 9319SOL    HW139585   0.772   4.213   6.329
 9319SOL    HW239586   0.780   4.199   6.480
 9320SOL     OW39587   1.035   1.090  25.494
 9320SOL    HW139588   0.956   1.066  25.446
 9320SOL    HW239589   1.103   1.034  25.457
 9321SOL     OW39590   2.795   2.158   5.371
 9321SOL    HW139591   2.704   2.187   5.374
 9321SOL    HW239592   2.791   2.071   5.332
 9322SOL     OW39593   2.571   4.492   8.356
 9322SOL    HW139594   2.581   4.399   8.374
 9322SOL    HW239595   2.652   4.532   8.387
 9323SOL     OW39596   0.678   2.043  21.634
 9323SOL    HW139597   0.692   1.953  21.603
 9323SOL    HW239598   0.583   2.056  21.630
 9324SOL     OW39599   0.224   1.705   2.727
 9324SOL    HW139600   0.138   1.682   2.691
 9324SOL    HW239601   0.206   1.780   2.784
 9325SOL     OW39602   2.160   2.214  24.793
 9325SOL    HW139603   2.100   2.160  24.843
 9325SOL    HW239604   2.140   2.304  24.820
 9326SOL     OW39605   3.530   4.019   9.035
 9326SOL    HW139606   3.507   4.080   8.965
 9326SOL    HW239607   3.465   4.035   9.104
 9327SOL     OW39608   3.062   4.211  23.622
 9327SOL    HW139609   3.095   4.289  23.577
 9327SOL    HW239610   2.970   4.230  23.639
 9328SOL     OW39611   0.250   2.191  19.455
 9328SOL    HW139612   0.289   2.269  19.495
 9328SOL    HW239613   0.253   2.208  19.361
 9329SOL     OW39614   4.467   0.901  20.737
 9329SOL    HW139615   4.445   0.876  20.827
 9329SOL    HW239616   4.385   0.933  20.700
 9330SOL     OW39617   0.609   1.518   3.674
 9330SOL    HW139618   0.680   1.477   3.625
 9330SOL    HW239619   0.561   1.569   3.608
 9331SOL     OW39620   3.551   0.825   8.933
 9331SOL    HW139621   3.522   0.752   8.987
 9331SOL    HW239622   3.617   0.870   8.986
 9332SOL     OW39623   4.229   3.036  24.958
 9332SOL    HW139624   4.193   3.103  24.899
 9332SOL    HW239625   4.270   3.086  25.029
 9333SOL     OW39626   4.201   0.121   5.489
 9333SOL    HW139627   4.147   0.169   5.426
 9333SOL    HW239628   4.152   0.041   5.506
 9334SOL     OW39629   1.108   3.018   3.902
 9334SOL    HW139630   1.039   2.959   3.931
 9334SOL    HW239631   1.177   2.960   3.870
 9335SOL     OW39632   3.735   4.727  27.954
 9335SOL    HW139633   3.692   4.708  28.037
 9335SOL    HW239634   3.686   4.676  27.889
 9336SOL     OW39635   4.131   4.092   8.663
 9336SOL    HW139636   4.082   4.113   8.583
 9336SOL    HW239637   4.191   4.022   8.637
 9337SOL     OW39638   4.339   0.006  24.253
 9337SOL    HW139639   4.251   4.759  24.277
 9337SOL    HW239640   4.330   0.099  24.231
 9338SOL     OW39641   4.674   0.562   4.308
 9338SOL    HW139642   4.666   0.521   4.394
 9338SOL    HW239643   4.636   0.649   4.320
 9339SOL     OW39644   3.940   0.756   6.372
 9339SOL    HW139645   3.931   0.816   6.446
 9339SOL    HW239646   3.933   0.669   6.410
 9340SOL     OW39647   4.483   2.710   9.398
 9340SOL    HW139648   4.450   2.707   9.488
 9340SOL    HW239649   4.559   2.652   9.399
 9341SOL     OW39650   0.606   1.331  10.136
 9341SOL    HW139651   0.602   1.357  10.228
 9341SOL    HW239652   0.643   1.407  10.091
 9342SOL     OW39653   4.422   4.212  21.678
 9342SOL    HW139654   4.347   4.183  21.627
 9342SOL    HW239655   4.419   4.308  21.674
 9343SOL     OW39656   3.555   2.228  22.613
 9343SOL    HW139657   3.464   2.245  22.639
 9343SOL    HW239658   3.575   2.298  22.551
 9344SOL     OW39659   0.038   2.628  27.491
 9344SOL    HW139660   0.107   2.638  27.426
 9344SOL    HW239661   4.743   2.599  27.441
 9345SOL     OW39662   2.818   2.145  25.185
 9345SOL    HW139663   2.834   2.236  25.209
 9345SOL    HW239664   2.905   2.108  25.171
 9346SOL     OW39665   1.328   0.404  28.434
 9346SOL    HW139666   1.375   0.455  28.501
 9346SOL    HW239667   1.382   0.413  28.355
 9347SOL     OW39668   1.543   3.787  16.791
 9347SOL    HW139669   1.582   3.703  16.768
 9347SOL    HW239670   1.449   3.776  16.775
 9348SOL     OW39671   1.512   4.036  24.275
 9348SOL    HW139672   1.596   4.039  24.320
 9348SOL    HW239673   1.500   4.124  24.240
 9349SOL     OW39674   4.092   2.444  22.319
 9349SOL    HW139675   4.170   2.402  22.356
 9349SOL    HW239676   4.116   2.536  22.310
 9350SOL     OW39677   2.579   3.481  21.111
 9350SOL    HW139678   2.612   3.460  21.024
 9350SOL    HW239679   2.556   3.396  21.149
 9351SOL     OW39680   2.235   2.051  27.046
 9351SOL    HW139681   2.171   2.115  27.077
 9351SOL    HW239682   2.307   2.056  27.109
 9352SOL     OW39683   0.326   3.143  24.189
 9352SOL    HW139684   0.242   3.185  24.169
 9352SOL    HW239685   0.327   3.135  24.284
 9353SOL     OW39686   1.878   2.944   5.778
 9353SOL    HW139687   1.824   2.868   5.757
 9353SOL    HW239688   1.968   2.916   5.760
 9354SOL     OW39689   0.358   4.733   3.730
 9354SOL    HW139690   0.302   4.656   3.730
 9354SOL    HW239691   0.442   4.702   3.695
 9355SOL     OW39692   2.281   1.911   2.512
 9355SOL    HW139693   2.363   1.872   2.541
 9355SOL    HW239694   2.289   1.916   2.417
 9356SOL     OW39695   3.992   4.543  26.306
 9356SOL    HW139696   4.077   4.547  26.262
 9356SOL    HW239697   4.013   4.542  26.399
 9357SOL     OW39698   2.265   1.415  26.481
 9357SOL    HW139699   2.185   1.460  26.508
 9357SOL    HW239700   2.326   1.486  26.458
 9358SOL     OW39701   1.960   2.653  20.830
 9358SOL    HW139702   1.981   2.560  20.835
 9358SOL    HW239703   1.872   2.656  20.793
 9359SOL     OW39704   1.583   1.526  27.519
 9359SOL    HW139705   1.662   1.556  27.474
 9359SOL    HW239706   1.580   1.432  27.502
 9360SOL     OW39707   3.158   4.052  26.750
 9360SOL    HW139708   3.174   4.070  26.843
 9360SOL    HW239709   3.064   4.069  26.739
 9361SOL     OW39710   3.105   3.630   4.709
 9361SOL    HW139711   3.067   3.636   4.797
 9361SOL    HW239712   3.058   3.697   4.659
 9362SOL     OW39713   0.006   4.738  22.926
 9362SOL    HW139714   0.007   4.643  22.941
 9362SOL    HW239715   0.081   4.771  22.976
 9363SOL     OW39716   1.958   4.289  26.076
 9363SOL    HW139717   1.875   4.295  26.029
 9363SOL    HW239718   1.987   4.199  26.064
 9364SOL     OW39719   3.375   1.925   8.206
 9364SOL    HW139720   3.406   2.010   8.175
 9364SOL    HW239721   3.442   1.895   8.267
 9365SOL     OW39722   2.558   3.793   2.975
 9365SOL    HW139723   2.532   3.752   3.058
 9365SOL    HW239724   2.485   3.851   2.953
 9366SOL     OW39725   0.974   0.551   8.438
 9366SOL    HW139726   0.979   0.461   8.407
 9366SOL    HW239727   0.885   0.580   8.416
 9367SOL     OW39728   1.655   4.636  11.593
 9367SOL    HW139729   1.723   4.612  11.530
 9367SOL    HW239730   1.703   4.652  11.675
 9368SOL     OW39731   3.650   2.979  19.279
 9368SOL    HW139732   3.670   3.049  19.341
 9368SOL    HW239733   3.601   2.915  19.330
 9369SOL     OW39734   1.530   3.285   8.631
 9369SOL    HW139735   1.472   3.287   8.555
 9369SOL    HW239736   1.500   3.211   8.683
 9370SOL     OW39737   3.252   4.755   9.346
 9370SOL    HW139738   3.331   4.755   9.400
 9370SOL    HW239739   3.232   0.067   9.333
 9371SOL     OW39740   3.842   1.149  26.837
 9371SOL    HW139741   3.754   1.159  26.801
 9371SOL    HW239742   3.892   1.221  26.799
 9372SOL     OW39743   4.628   1.884  26.365
 9372SOL    HW139744   4.599   1.812  26.421
 9372SOL    HW239745   4.710   1.854  26.326
 9373SOL     OW39746   4.573   1.369   6.616
 9373SOL    HW139747   4.638   1.399   6.680
 9373SOL    HW239748   4.490   1.405   6.648
 9374SOL     OW39749   4.438   0.263  25.657
 9374SOL    HW139750   4.380   0.294  25.587
 9374SOL    HW239751   4.418   0.321  25.731
 9375SOL     OW39752   1.704   4.691   6.930
 9375SOL    HW139753   1.675   4.619   6.874
 9375SOL    HW239754   1.664   4.673   7.015
 9376SOL     OW39755   4.249   2.853  11.635
 9376SOL    HW139756   4.324   2.903  11.603
 9376SOL    HW239757   4.216   2.904  11.709
 9377SOL     OW39758   1.879   1.192   3.922
 9377SOL    HW139759   1.935   1.210   3.847
 9377SOL    HW239760   1.842   1.106   3.904
 9378SOL     OW39761   2.328   0.896  21.410
 9378SOL    HW139762   2.364   0.888  21.322
 9378SOL    HW239763   2.313   0.806  21.438
 9379SOL     OW39764   3.559   3.499  26.219
 9379SOL    HW139765   3.508   3.552  26.281
 9379SOL    HW239766   3.539   3.536  26.133
 9380SOL     OW39767   0.737   4.315   3.385
 9380SOL    HW139768   0.681   4.375   3.336
 9380SOL    HW239769   0.767   4.252   3.320
 9381SOL     OW39770   4.031   0.751   5.959
 9381SOL    HW139771   4.113   0.729   6.002
 9381SOL    HW239772   4.011   0.675   5.904
 9382SOL     OW39773   1.406   3.829  18.230
 9382SOL    HW139774   1.498   3.837  18.256
 9382SOL    HW239775   1.408   3.831  18.134
 9383SOL     OW39776   0.897   1.031   4.238
 9383SOL    HW139777   0.954   1.101   4.207
 9383SOL    HW239778   0.810   1.070   4.240
 9384SOL     OW39779   1.321   1.554  24.449
 9384SOL    HW139780   1.262   1.525  24.379
 9384SOL    HW239781   1.408   1.532  24.417
 9385SOL     OW39782   2.172   1.372   5.132
 9385SOL    HW139783   2.196   1.334   5.047
 9385SOL    HW239784   2.087   1.334   5.152
 9386SOL     OW39785   3.882   3.317   8.013
 9386SOL    HW139786   3.901   3.362   7.931
 9386SOL    HW239787   3.968   3.288   8.044
 9387SOL     OW39788   2.884   1.895  20.984
 9387SOL    HW139789   2.833   1.852  21.053
 9387SOL    HW239790   2.826   1.894  20.908
 9388SOL     OW39791   4.483   2.879  23.469
 9388SOL    HW139792   4.404   2.845  23.427
 9388SOL    HW239793   4.555   2.851  23.413
 9389SOL     OW39794   2.735   1.754  26.946
 9389SOL    HW139795   2.818   1.740  26.900
 9389SOL    HW239796   2.677   1.687  26.910
 9390SOL     OW39797   2.511   3.197  19.607
 9390SOL    HW139798   2.522   3.276  19.553
 9390SOL    HW239799   2.594   3.187  19.653
 9391SOL     OW39800   2.179   3.336   7.038
 9391SOL    HW139801   2.145   3.328   7.127
 9391SOL    HW239802   2.115   3.390   6.993
 9392SOL     OW39803   0.105   2.375  17.511
 9392SOL    HW139804   0.077   2.406  17.425
 9392SOL    HW239805   0.032   2.398  17.569
 9393SOL     OW39806   0.025   3.835  19.867
 9393SOL    HW139807   0.025   3.930  19.858
 9393SOL    HW239808   0.113   3.808  19.840
 9394SOL     OW39809   2.211   4.576  22.138
 9394SOL    HW139810   2.130   4.626  22.147
 9394SOL    HW239811   2.186   4.486  22.159
 9395SOL     OW39812   3.355   1.405  21.919
 9395SOL    HW139813   3.434   1.353  21.907
 9395SOL    HW239814   3.373   1.487  21.874
 9396SOL     OW39815   0.822   0.145  18.515
 9396SOL    HW139816   0.873   0.119  18.438
 9396SOL    HW239817   0.741   0.094  18.509
 9397SOL     OW39818   2.219   3.769   8.643
 9397SOL    HW139819   2.235   3.703   8.575
 9397SOL    HW239820   2.284   3.750   8.710
 9398SOL     OW39821   1.050   0.084  27.454
 9398SOL    HW139822   1.134   0.109  27.493
 9398SOL    HW239823   1.062   4.775  27.425
 9399SOL     OW39824   4.488   2.103   7.751
 9399SOL    HW139825   4.575   2.138   7.733
 9399SOL    HW239826   4.438   2.122   7.672
 9400SOL     OW39827   0.128   3.657  27.955
 9400SOL    HW139828   0.139   3.746  27.922
 9400SOL    HW239829   0.111   3.668  28.049
 9401SOL     OW39830   4.104   3.157   5.319
 9401SOL    HW139831   4.094   3.216   5.394
 9401SOL    HW239832   4.179   3.192   5.270
 9402SOL     OW39833   4.024   3.558   2.350
 9402SOL    HW139834   3.945   3.554   2.404
 9402SOL    HW239835   4.050   3.466   2.339
 9403SOL     OW39836   2.336   0.851  20.753
 9403SOL    HW139837   2.415   0.856  20.699
 9403SOL    HW239838   2.264   0.847  20.690
 9404SOL     OW39839   3.386   2.551  26.983
 9404SOL    HW139840   3.341   2.541  26.899
 9404SOL    HW239841   3.328   2.605  27.036
 9405SOL     OW39842   4.667   2.640   2.533
 9405SOL    HW139843   4.749   2.681   2.505
 9405SOL    HW239844   4.672   2.640   2.629
 9406SOL     OW39845   2.770   3.102  28.278
 9406SOL    HW139846   2.855   3.143  28.261
 9406SOL    HW239847   2.791   3.014  28.309
 9407SOL     OW39848   0.767   3.292  22.836
 9407SOL    HW139849   0.718   3.299  22.754
 9407SOL    HW239850   0.742   3.369  22.886
 9408SOL     OW39851   1.984   0.849  11.063
 9408SOL    HW139852   1.999   0.943  11.076
 9408SOL    HW239853   1.905   0.845  11.008
 9409SOL     OW39854   1.509   1.887  26.487
 9409SOL    HW139855   1.603   1.903  26.489
 9409SOL    HW239856   1.472   1.955  26.543
 9410SOL     OW39857   3.933   3.526  28.309
 9410SOL    HW139858   3.984   3.525  28.390
 9410SOL    HW239859   3.910   3.434  28.294
 9411SOL     OW39860   3.849   2.967  25.093
 9411SOL    HW139861   3.778   3.023  25.125
 9411SOL    HW239862   3.846   2.889  25.148
 9412SOL     OW39863   4.344   0.353   6.246
 9412SOL    HW139864   4.330   0.258   6.244
 9412SOL    HW239865   4.431   0.364   6.284
 9413SOL     OW39866   3.347   4.645  28.182
 9413SOL    HW139867   3.341   4.716  28.246
 9413SOL    HW239868   3.257   4.613  28.174
 9414SOL     OW39869   2.039   4.003  22.395
 9414SOL    HW139870   2.005   3.963  22.315
 9414SOL    HW239871   2.133   4.010  22.380
 9415SOL     OW39872   0.801   2.917  26.256
 9415SOL    HW139873   0.860   2.951  26.189
 9415SOL    HW239874   0.764   2.995  26.297
 9416SOL     OW39875   1.356   4.537   3.867
 9416SOL    HW139876   1.352   4.444   3.890
 9416SOL    HW239877   1.285   4.550   3.804
 9417SOL     OW39878   4.503   0.986   1.864
 9417SOL    HW139879   4.486   0.931   1.787
 9417SOL    HW239880   4.598   0.982   1.876
 9418SOL     OW39881   4.033   0.164  22.695
 9418SOL    HW139882   4.087   0.185  22.771
 9418SOL    HW239883   4.071   0.084  22.659
 9419SOL     OW39884   2.661   3.030   5.563
 9419SOL    HW139885   2.581   3.010   5.515
 9419SOL    HW239886   2.687   2.947   5.603
 9420SOL     OW39887   1.941   2.868   1.565
 9420SOL    HW139888   1.987   2.927   1.625
 9420SOL    HW239889   1.892   2.926   1.507
 9421SOL     OW39890   3.623   1.518  21.596
 9421SOL    HW139891   3.627   1.502  21.502
 9421SOL    HW239892   3.639   1.432  21.635
 9422SOL     OW39893   1.360   1.098   6.709
 9422SOL    HW139894   1.302   1.159   6.664
 9422SOL    HW239895   1.310   1.016   6.713
 9423SOL     OW39896   2.301   3.868   0.019
 9423SOL    HW139897   2.261   3.826  28.466
 9423SOL    HW239898   2.347   3.797   0.065
 9424SOL     OW39899   2.769   0.081  19.640
 9424SOL    HW139900   2.712   0.139  19.590
 9424SOL    HW239901   2.743   4.774  19.613
 9425SOL     OW39902   2.824   4.463  21.069
 9425SOL    HW139903   2.868   4.527  21.125
 9425SOL    HW239904   2.771   4.411  21.129
 9426SOL     OW39905   3.921   3.529  22.033
 9426SOL    HW139906   3.909   3.487  22.118
 9426SOL    HW239907   3.921   3.457  21.970
 9427SOL     OW39908   1.361   3.161  25.456
 9427SOL    HW139909   1.392   3.203  25.536
 9427SOL    HW239910   1.312   3.230  25.411
 9428SOL     OW39911   0.071   3.914  27.821
 9428SOL    HW139912   0.100   4.005  27.827
 9428SOL    HW239913   4.774   3.910  27.876
 9429SOL     OW39914   2.809   2.951   4.536
 9429SOL    HW139915   2.792   2.863   4.570
 9429SOL    HW239916   2.904   2.959   4.537
 9430SOL     OW39917   2.779   3.758   6.226
 9430SOL    HW139918   2.841   3.721   6.163
 9430SOL    HW239919   2.834   3.800   6.292
 9431SOL     OW39920   2.710   4.626  20.345
 9431SOL    HW139921   2.720   4.718  20.368
 9431SOL    HW239922   2.630   4.623  20.292
 9432SOL     OW39923   0.056   4.624  20.626
 9432SOL    HW139924   0.126   4.657  20.569
 9432SOL    HW239925   0.096   4.550  20.673
 9433SOL     OW39926   1.403   3.263  23.291
 9433SOL    HW139927   1.395   3.168  23.288
 9433SOL    HW239928   1.323   3.293  23.334
 9434SOL     OW39929   1.577   1.472   0.651
 9434SOL    HW139930   1.663   1.430   0.642
 9434SOL    HW239931   1.592   1.542   0.715
 9435SOL     OW39932   3.509   0.744   2.979
 9435SOL    HW139933   3.420   0.776   2.967
 9435SOL    HW239934   3.523   0.747   3.074
 9436SOL     OW39935   2.682   0.253   5.610
 9436SOL    HW139936   2.726   0.169   5.626
 9436SOL    HW239937   2.592   0.229   5.587
 9437SOL     OW39938   2.023   0.316   3.366
 9437SOL    HW139939   2.085   0.281   3.302
 9437SOL    HW239940   2.067   0.393   3.402
 9438SOL     OW39941   2.434   0.931   7.290
 9438SOL    HW139942   2.378   0.936   7.213
 9438SOL    HW239943   2.441   0.837   7.308
 9439SOL     OW39944   1.639   3.004  21.233
 9439SOL    HW139945   1.553   2.963  21.221
 9439SOL    HW239946   1.640   3.030  21.325
 9440SOL     OW39947   0.068   4.051  24.545
 9440SOL    HW139948   0.041   4.028  24.456
 9440SOL    HW239949   0.107   4.138  24.536
 9441SOL     OW39950   1.742   1.548   3.830
 9441SOL    HW139951   1.699   1.633   3.824
 9441SOL    HW239952   1.738   1.525   3.923
 9442SOL     OW39953   0.030   3.196  20.517
 9442SOL    HW139954   0.072   3.272  20.557
 9442SOL    HW239955   4.717   3.214  20.524
 9443SOL     OW39956   1.912   1.851   6.869
 9443SOL    HW139957   1.978   1.918   6.886
 9443SOL    HW239958   1.962   1.770   6.861
 9444SOL     OW39959   1.965   0.687   2.692
 9444SOL    HW139960   1.967   0.593   2.672
 9444SOL    HW239961   2.042   0.702   2.747
 9445SOL     OW39962   4.217   2.108   1.290
 9445SOL    HW139963   4.143   2.134   1.236
 9445SOL    HW239964   4.294   2.126   1.235
 9446SOL     OW39965   3.237   1.165   4.899
 9446SOL    HW139966   3.217   1.250   4.939
 9446SOL    HW239967   3.305   1.184   4.835
 9447SOL     OW39968   0.901   3.086   7.189
 9447SOL    HW139969   0.969   3.111   7.126
 9447SOL    HW239970   0.838   3.158   7.186
 9448SOL     OW39971   0.368   2.185   8.337
 9448SOL    HW139972   0.400   2.220   8.420
 9448SOL    HW239973   0.429   2.115   8.315
 9449SOL     OW39974   3.001   1.269  26.555
 9449SOL    HW139975   2.965   1.300  26.638
 9449SOL    HW239976   2.930   1.219  26.515
 9450SOL     OW39977   1.981   3.003  10.576
 9450SOL    HW139978   1.895   2.961  10.574
 9450SOL    HW239979   2.043   2.931  10.564
 9451SOL     OW39980   2.593   0.930  19.299
 9451SOL    HW139981   2.559   1.020  19.297
 9451SOL    HW239982   2.583   0.903  19.390
 9452SOL     OW39983   1.473   3.892  10.792
 9452SOL    HW139984   1.479   3.987  10.800
 9452SOL    HW239985   1.468   3.861  10.882
 9453SOL     OW39986   1.026   2.939   7.373
 9453SOL    HW139987   0.981   2.996   7.311
 9453SOL    HW239988   1.095   2.898   7.322
 9454SOL     OW39989   2.911   2.745  22.057
 9454SOL    HW139990   2.829   2.724  22.102
 9454SOL    HW239991   2.943   2.661  22.025
 9455SOL     OW39992   4.754   2.647  21.737
 9455SOL    HW139993   4.686   2.583  21.758
 9455SOL    HW239994   4.713   2.732  21.756
 9456SOL     OW39995   3.865   3.595   1.789
 9456SOL    HW139996   3.775   3.618   1.812
 9456SOL    HW239997   3.915   3.611   1.869
 9457SOL     OW39998   2.033   0.036  27.361
 9457SOL    HW139999   2.094   0.032  27.288
 9457SOL    HW240000   1.990   0.121  27.352
 9458SOL     OW40001   0.296   0.850   7.572
 9458SOL    HW140002   0.326   0.935   7.539
 9458SOL    HW240003   0.325   0.848   7.663
 9459SOL     OW40004   1.558   3.610  25.482
 9459SOL    HW140005   1.579   3.696  25.519
 9459SOL    HW240006   1.463   3.603  25.491
 9460SOL     OW40007   4.334   2.962  21.701
 9460SOL    HW140008   4.354   2.870  21.681
 9460SOL    HW240009   4.419   3.001  21.721
 9461SOL     OW40010   0.160   0.919  22.048
 9461SOL    HW140011   0.158   0.849  22.113
 9461SOL    HW240012   0.249   0.916  22.012
 9462SOL     OW40013   3.067   4.333   6.500
 9462SOL    HW140014   3.067   4.427   6.481
 9462SOL    HW240015   3.087   4.328   6.594
 9463SOL     OW40016   0.814   1.404  16.423
 9463SOL    HW140017   0.778   1.481  16.467
 9463SOL    HW240018   0.765   1.398  16.341
 9464SOL     OW40019   0.789   3.536  20.696
 9464SOL    HW140020   0.711   3.536  20.752
 9464SOL    HW240021   0.770   3.471  20.629
 9465SOL     OW40022   3.768   4.125   8.675
 9465SOL    HW140023   3.802   4.086   8.756
 9465SOL    HW240024   3.709   4.058   8.639
 9466SOL     OW40025   4.422   3.950   6.281
 9466SOL    HW140026   4.364   4.021   6.308
 9466SOL    HW240027   4.363   3.877   6.262
 9467SOL     OW40028   4.213   1.930  21.978
 9467SOL    HW140029   4.275   1.862  22.005
 9467SOL    HW240030   4.127   1.891  21.991
 9468SOL     OW40031   0.259   2.290   2.260
 9468SOL    HW140032   0.222   2.316   2.176
 9468SOL    HW240033   0.339   2.243   2.238
 9469SOL     OW40034   0.378   0.693   9.413
 9469SOL    HW140035   0.472   0.680   9.429
 9469SOL    HW240036   0.350   0.752   9.483
 9470SOL     OW40037   4.710   2.239  21.717
 9470SOL    HW140038   4.766   2.231  21.794
 9470SOL    HW240039   4.771   2.251  21.644
 9471SOL     OW40040   0.852   2.700  27.677
 9471SOL    HW140041   0.934   2.651  27.677
 9471SOL    HW240042   0.835   2.719  27.585
 9472SOL     OW40043   2.233   4.462   3.361
 9472SOL    HW140044   2.191   4.468   3.447
 9472SOL    HW240045   2.224   4.370   3.336
 9473SOL     OW40046   3.210   2.373  25.274
 9473SOL    HW140047   3.264   2.452  25.267
 9473SOL    HW240048   3.265   2.304  25.237
 9474SOL     OW40049   2.810   4.040  23.520
 9474SOL    HW140050   2.851   3.977  23.580
 9474SOL    HW240051   2.774   3.986  23.450
 9475SOL     OW40052   0.269   3.092  23.403
 9475SOL    HW140053   0.325   3.040  23.460
 9475SOL    HW240054   0.219   3.148  23.463
 9476SOL     OW40055   3.860   0.049   4.774
 9476SOL    HW140056   3.933   0.058   4.712
 9476SOL    HW240057   3.812   0.131   4.766
 9477SOL     OW40058   0.475   0.785  26.194
 9477SOL    HW140059   0.528   0.779  26.273
 9477SOL    HW240060   0.444   0.876  26.193
 9478SOL     OW40061   3.237   4.274   8.641
 9478SOL    HW140062   3.217   4.209   8.573
 9478SOL    HW240063   3.209   4.357   8.603
 9479SOL     OW40064   3.828   1.104  27.192
 9479SOL    HW140065   3.773   1.032  27.161
 9479SOL    HW240066   3.771   1.181  27.189
 9480SOL     OW40067   0.921   3.199   1.912
 9480SOL    HW140068   0.835   3.157   1.911
 9480SOL    HW240069   0.956   3.179   1.999
 9481SOL     OW40070   3.490   1.361   0.670
 9481SOL    HW140071   3.542   1.331   0.595
 9481SOL    HW240072   3.545   1.343   0.746
 9482SOL     OW40073   0.355   0.033  24.695
 9482SOL    HW140074   0.417   0.060  24.627
 9482SOL    HW240075   0.271   0.070  24.667
 9483SOL     OW40076   1.648   2.770  21.023
 9483SOL    HW140077   1.679   2.757  20.933
 9483SOL    HW240078   1.713   2.828  21.062
 9484SOL     OW40079   3.177   4.480  21.060
 9484SOL    HW140080   3.112   4.485  20.990
 9484SOL    HW240081   3.188   4.570  21.089
 9485SOL     OW40082   2.942   1.970  26.682
 9485SOL    HW140083   3.021   1.960  26.736
 9485SOL    HW240084   2.945   1.896  26.621
 9486SOL     OW40085   4.756   2.782   1.486
 9486SOL    HW140086   4.744   2.874   1.510
 9486SOL    HW240087   0.005   2.784   1.395
 9487SOL     OW40088   3.747   3.719   6.503
 9487SOL    HW140089   3.676   3.780   6.484
 9487SOL    HW240090   3.809   3.770   6.555
 9488SOL     OW40091   1.543   3.895   8.745
 9488SOL    HW140092   1.461   3.940   8.765
 9488SOL    HW240093   1.604   3.965   8.722
 9489SOL     OW40094   4.743   0.608  19.208
 9489SOL    HW140095   4.705   0.596  19.121
 9489SOL    HW240096   4.734   0.523  19.251
 9490SOL     OW40097   0.888   0.158  20.856
 9490SOL    HW140098   0.868   0.083  20.800
 9490SOL    HW240099   0.976   0.141  20.888
 9491SOL     OW40100   2.460   0.611   3.861
 9491SOL    HW140101   2.392   0.676   3.842
 9491SOL    HW240102   2.488   0.631   3.950
 9492SOL     OW40103   3.191   2.248  19.451
 9492SOL    HW140104   3.235   2.199  19.381
 9492SOL    HW240105   3.129   2.185  19.488
 9493SOL     OW40106   1.541   0.673   5.042
 9493SOL    HW140107   1.558   0.743   5.105
 9493SOL    HW240108   1.524   0.719   4.960
 9494SOL     OW40109   1.167   3.581   5.224
 9494SOL    HW140110   1.133   3.540   5.303
 9494SOL    HW240111   1.147   3.674   5.235
 9495SOL     OW40112   1.550   0.454   5.922
 9495SOL    HW140113   1.549   0.381   5.984
 9495SOL    HW240114   1.549   0.532   5.977
 9496SOL     OW40115   1.394   2.382   2.897
 9496SOL    HW140116   1.416   2.405   2.987
 9496SOL    HW240117   1.468   2.414   2.846
 9497SOL     OW40118   2.917   3.824  10.302
 9497SOL    HW140119   2.915   3.915  10.333
 9497SOL    HW240120   2.994   3.820  10.245
 9498SOL     OW40121   4.760   2.129  26.878
 9498SOL    HW140122   4.744   2.037  26.898
 9498SOL    HW240123   4.765   2.132  26.782
 9499SOL     OW40124   4.677   0.957   8.804
 9499SOL    HW140125   4.611   0.922   8.744
 9499SOL    HW240126   4.758   0.911   8.781
 9500SOL     OW40127   3.279   3.362  24.475
 9500SOL    HW140128   3.350   3.302  24.498
 9500SOL    HW240129   3.292   3.438  24.532
 9501SOL     OW40130   2.858   0.685  24.158
 9501SOL    HW140131   2.876   0.595  24.130
 9501SOL    HW240132   2.768   0.682  24.191
 9502SOL     OW40133   2.248   2.200   6.766
 9502SOL    HW140134   2.295   2.259   6.824
 9502SOL    HW240135   2.159   2.235   6.763
 9503SOL     OW40136   3.685   0.523   5.939
 9503SOL    HW140137   3.636   0.443   5.920
 9503SOL    HW240138   3.746   0.532   5.866
 9504SOL     OW40139   0.355   0.117  25.674
 9504SOL    HW140140   0.372   0.184  25.608
 9504SOL    HW240141   0.436   0.066  25.678
 9505SOL     OW40142   4.108   1.274  27.411
 9505SOL    HW140143   4.109   1.351  27.468
 9505SOL    HW240144   4.108   1.309  27.322
 9506SOL     OW40145   0.189   2.358  24.991
 9506SOL    HW140146   0.095   2.343  25.004
 9506SOL    HW240147   0.197   2.379  24.898
 9507SOL     OW40148   4.290   0.692  10.128
 9507SOL    HW140149   4.229   0.640  10.181
 9507SOL    HW240150   4.280   0.657  10.039
 9508SOL     OW40151   3.469   1.878  24.837
 9508SOL    HW140152   3.473   1.797  24.786
 9508SOL    HW240153   3.434   1.943  24.777
 9509SOL     OW40154   1.759   2.841   0.150
 9509SOL    HW140155   1.842   2.797   0.165
 9509SOL    HW240156   1.761   2.864   0.057
 9510SOL     OW40157   1.844   3.012  21.043
 9510SOL    HW140158   1.910   3.065  21.088
 9510SOL    HW240159   1.760   3.042  21.078
 9511SOL     OW40160   2.762   1.402   7.006
 9511SOL    HW140161   2.733   1.336   7.069
 9511SOL    HW240162   2.770   1.482   7.058
 9512SOL     OW40163   2.703   4.335   8.717
 9512SOL    HW140164   2.755   4.269   8.763
 9512SOL    HW240165   2.749   4.348   8.634
 9513SOL     OW40166   3.211   0.977   6.385
 9513SOL    HW140167   3.218   0.934   6.300
 9513SOL    HW240168   3.145   1.045   6.372
 9514SOL     OW40169   3.260   0.299  27.140
 9514SOL    HW140170   3.198   0.365  27.170
 9514SOL    HW240171   3.209   0.218  27.136
 9515SOL     OW40172   1.954   1.801  27.516
 9515SOL    HW140173   1.949   1.800  27.612
 9515SOL    HW240174   1.992   1.886  27.495
 9516SOL     OW40175   2.812   3.783   2.848
 9516SOL    HW140176   2.799   3.719   2.777
 9516SOL    HW240177   2.724   3.799   2.882
 9517SOL     OW40178   3.490   0.023  23.051
 9517SOL    HW140179   3.475   0.093  23.115
 9517SOL    HW240180   3.584   0.026  23.034
 9518SOL     OW40181   2.372   2.131   8.219
 9518SOL    HW140182   2.433   2.060   8.238
 9518SOL    HW240183   2.294   2.110   8.271
 9519SOL     OW40184   1.665   3.056  23.977
 9519SOL    HW140185   1.645   2.962  23.982
 9519SOL    HW240186   1.626   3.084  23.894
 9520SOL     OW40187   4.538   4.307  28.205
 9520SOL    HW140188   4.528   4.231  28.148
 9520SOL    HW240189   4.613   4.285  28.261
 9521SOL     OW40190   2.750   2.942   1.403
 9521SOL    HW140191   2.776   2.975   1.489
 9521SOL    HW240192   2.786   3.006   1.342
 9522SOL     OW40193   2.224   0.483   4.243
 9522SOL    HW140194   2.134   0.450   4.245
 9522SOL    HW240195   2.257   0.470   4.332
 9523SOL     OW40196   0.616   0.092  24.558
 9523SOL    HW140197   0.650   0.164  24.610
 9523SOL    HW240198   0.683   0.024  24.564
 9524SOL     OW40199   4.264   3.435  27.768
 9524SOL    HW140200   4.194   3.419  27.831
 9524SOL    HW240201   4.240   3.383  27.691
 9525SOL     OW40202   4.177   3.788   2.268
 9525SOL    HW140203   4.146   3.712   2.317
 9525SOL    HW240204   4.263   3.807   2.306
 9526SOL     OW40205   1.069   1.347  25.541
 9526SOL    HW140206   1.058   1.253  25.529
 9526SOL    HW240207   0.980   1.381  25.548
 9527SOL     OW40208   2.744   2.805  19.034
 9527SOL    HW140209   2.700   2.889  19.049
 9527SOL    HW240210   2.674   2.746  19.007
 9528SOL     OW40211   2.632   3.609   4.149
 9528SOL    HW140212   2.541   3.601   4.179
 9528SOL    HW240213   2.627   3.592   4.055
 9529SOL     OW40214   0.349   4.647   2.745
 9529SOL    HW140215   0.339   4.598   2.663
 9529SOL    HW240216   0.415   4.713   2.725
 9530SOL     OW40217   0.658   4.233  19.010
 9530SOL    HW140218   0.577   4.240  18.959
 9530SOL    HW240219   0.722   4.198  18.948
 9531SOL     OW40220   3.462   1.360  26.514
 9531SOL    HW140221   3.382   1.384  26.467
 9531SOL    HW240222   3.499   1.288  26.463
 9532SOL     OW40223   0.975   2.461   1.499
 9532SOL    HW140224   0.971   2.417   1.414
 9532SOL    HW240225   1.029   2.403   1.553
 9533SOL     OW40226   3.791   4.274  22.528
 9533SOL    HW140227   3.707   4.237  22.501
 9533SOL    HW240228   3.814   4.225  22.607
 9534SOL     OW40229   3.409   0.847   4.100
 9534SOL    HW140230   3.444   0.936   4.108
 9534SOL    HW240231   3.358   0.833   4.180
 9535SOL     OW40232   3.748   4.537  22.697
 9535SOL    HW140233   3.666   4.586  22.694
 9535SOL    HW240234   3.734   4.463  22.638
 9536SOL     OW40235   0.160   0.965   7.255
 9536SOL    HW140236   0.115   0.966   7.170
 9536SOL    HW240237   0.186   0.874   7.267
 9537SOL     OW40238   4.692   2.716  26.804
 9537SOL    HW140239   4.646   2.785  26.756
 9537SOL    HW240240   4.739   2.667  26.736
 9538SOL     OW40241   0.077   1.551  10.752
 9538SOL    HW140242   4.777   1.500  10.749
 9538SOL    HW240243   0.075   1.595  10.837
 9539SOL     OW40244   2.754   3.393  20.065
 9539SOL    HW140245   2.810   3.466  20.091
 9539SOL    HW240246   2.802   3.315  20.092
 9540SOL     OW40247   2.545   4.031   3.301
 9540SOL    HW140248   2.566   3.987   3.383
 9540SOL    HW240249   2.524   4.121   3.326
 9541SOL     OW40250   0.349   1.801  11.060
 9541SOL    HW140251   0.301   1.784  10.979
 9541SOL    HW240252   0.282   1.833  11.121
 9542SOL     OW40253   3.443   4.690  26.650
 9542SOL    HW140254   3.526   4.713  26.692
 9542SOL    HW240255   3.384   4.762  26.674
 9543SOL     OW40256   1.945   2.011  28.332
 9543SOL    HW140257   1.876   2.037  28.271
 9543SOL    HW240258   1.909   2.029  28.419
 9544SOL     OW40259   3.451   2.789  23.138
 9544SOL    HW140260   3.448   2.705  23.185
 9544SOL    HW240261   3.397   2.775  23.060
 9545SOL     OW40262   4.557   1.391  24.711
 9545SOL    HW140263   4.471   1.351  24.701
 9545SOL    HW240264   4.594   1.392  24.623
 9546SOL     OW40265   3.958   0.120   1.120
 9546SOL    HW140266   4.030   0.096   1.178
 9546SOL    HW240267   3.897   0.047   1.126
 9547SOL     OW40268   3.146   4.182   2.422
 9547SOL    HW140269   3.204   4.245   2.378
 9547SOL    HW240270   3.169   4.097   2.384
 9548SOL     OW40271   0.441   0.536  28.187
 9548SOL    HW140272   0.402   0.564  28.270
 9548SOL    HW240273   0.369   0.494  28.140
 9549SOL     OW40274   0.142   2.232  26.567
 9549SOL    HW140275   0.211   2.196  26.622
 9549SOL    HW240276   0.075   2.164  26.565
 9550SOL     OW40277   0.493   2.154   9.645
 9550SOL    HW140278   0.486   2.063   9.674
 9550SOL    HW240279   0.482   2.206   9.725
 9551SOL     OW40280   4.448   3.393   7.325
 9551SOL    HW140281   4.520   3.330   7.319
 9551SOL    HW240282   4.371   3.344   7.297
 9552SOL     OW40283   2.934   2.037  18.700
 9552SOL    HW140284   2.882   2.042  18.780
 9552SOL    HW240285   3.022   2.064  18.727
 9553SOL     OW40286   2.160   4.472   7.470
 9553SOL    HW140287   2.241   4.466   7.419
 9553SOL    HW240288   2.164   4.558   7.511
 9554SOL     OW40289   3.591   2.974  26.250
 9554SOL    HW140290   3.605   2.966  26.344
 9554SOL    HW240291   3.529   3.046  26.241
 9555SOL     OW40292   3.034   2.467  21.778
 9555SOL    HW140293   3.074   2.514  21.851
 9555SOL    HW240294   3.094   2.395  21.759
 9556SOL     OW40295   3.232   1.073  28.119
 9556SOL    HW140296   3.277   1.028  28.047
 9556SOL    HW240297   3.274   1.040  28.198
 9557SOL     OW40298   2.462   1.488   9.142
 9557SOL    HW140299   2.421   1.416   9.095
 9557SOL    HW240300   2.468   1.458   9.233
 9558SOL     OW40301   3.089   3.365  21.766
 9558SOL    HW140302   3.029   3.291  21.756
 9558SOL    HW240303   3.145   3.341  21.840
 9559SOL     OW40304   1.055   0.461   9.446
 9559SOL    HW140305   1.109   0.514   9.387
 9559SOL    HW240306   1.011   0.525   9.502
 9560SOL     OW40307   1.746   1.702   9.159
 9560SOL    HW140308   1.737   1.703   9.254
 9560SOL    HW240309   1.801   1.625   9.141
 9561SOL     OW40310   1.998   0.383  25.561
 9561SOL    HW140311   2.007   0.288  25.549
 9561SOL    HW240312   1.910   0.394  25.596
 9562SOL     OW40313   4.406   1.217  26.641
 9562SOL    HW140314   4.380   1.302  26.676
 9562SOL    HW240315   4.324   1.174  26.618
 9563SOL     OW40316   0.176   2.805   4.488
 9563SOL    HW140317   0.141   2.795   4.399
 9563SOL    HW240318   0.214   2.893   4.489
 9564SOL     OW40319   0.830   2.555   3.501
 9564SOL    HW140320   0.905   2.614   3.496
 9564SOL    HW240321   0.789   2.575   3.585
 9565SOL     OW40322   0.568   0.042   2.684
 9565SOL    HW140323   0.641   0.040   2.623
 9565SOL    HW240324   0.536   0.132   2.681
 9566SOL     OW40325   2.431   4.725  22.184
 9566SOL    HW140326   2.442   4.692  22.273
 9566SOL    HW240327   2.356   4.676  22.150
 9567SOL     OW40328   1.030   4.177   2.354
 9567SOL    HW140329   0.958   4.130   2.396
 9567SOL    HW240330   1.032   4.142   2.265
 9568SOL     OW40331   1.212   4.391  11.079
 9568SOL    HW140332   1.181   4.366  11.166
 9568SOL    HW240333   1.185   4.319  11.022
 9569SOL     OW40334   1.488   1.831   0.919
 9569SOL    HW140335   1.403   1.871   0.898
 9569SOL    HW240336   1.506   1.857   1.009
 9570SOL     OW40337   2.525   0.611   0.657
 9570SOL    HW140338   2.599   0.660   0.620
 9570SOL    HW240339   2.565   0.538   0.704
 9571SOL     OW40340   1.783   2.622  25.805
 9571SOL    HW140341   1.707   2.674  25.833
 9571SOL    HW240342   1.786   2.634  25.710
 9572SOL     OW40343   3.351   3.389  22.203
 9572SOL    HW140344   3.322   3.365  22.115
 9572SOL    HW240345   3.292   3.460  22.229
 9573SOL     OW40346   0.500   1.224  26.456
 9573SOL    HW140347   0.569   1.190  26.399
 9573SOL    HW240348   0.439   1.267  26.396
 9574SOL     OW40349   2.636   3.451  24.012
 9574SOL    HW140350   2.570   3.390  23.980
 9574SOL    HW240351   2.719   3.408  23.992
 9575SOL     OW40352   4.433   3.921  21.488
 9575SOL    HW140353   4.527   3.916  21.472
 9575SOL    HW240354   4.408   3.831  21.510
 9576SOL     OW40355   0.358   2.124  20.654
 9576SOL    HW140356   0.263   2.119  20.642
 9576SOL    HW240357   0.374   2.214  20.683
 9577SOL     OW40358   0.403   4.601   8.672
 9577SOL    HW140359   0.485   4.602   8.721
 9577SOL    HW240360   0.406   4.681   8.620
 9578SOL     OW40361   2.544   1.907  24.143
 9578SOL    HW140362   2.462   1.869  24.175
 9578SOL    HW240363   2.551   1.991  24.189
 9579SOL     OW40364   1.624   4.371  18.560
 9579SOL    HW140365   1.687   4.319  18.610
 9579SOL    HW240366   1.676   4.443  18.523
 9580SOL     OW40367   0.118   3.908  26.912
 9580SOL    HW140368   0.165   3.857  26.979
 9580SOL    HW240369   0.174   3.983  26.895
 9581SOL     OW40370   4.620   2.902  27.050
 9581SOL    HW140371   4.696   2.903  27.108
 9581SOL    HW240372   4.570   2.980  27.076
 9582SOL     OW40373   2.302   3.197   2.788
 9582SOL    HW140374   2.211   3.216   2.810
 9582SOL    HW240375   2.317   3.240   2.704
 9583SOL     OW40376   3.664   0.468   7.079
 9583SOL    HW140377   3.736   0.519   7.116
 9583SOL    HW240378   3.650   0.505   6.992
 9584SOL     OW40379   4.422   3.324  18.033
 9584SOL    HW140380   4.360   3.377  17.983
 9584SOL    HW240381   4.387   3.235  18.027
 9585SOL     OW40382   2.257   4.243   2.171
 9585SOL    HW140383   2.218   4.185   2.236
 9585SOL    HW240384   2.302   4.310   2.222
 9586SOL     OW40385   1.488   0.875   3.511
 9586SOL    HW140386   1.520   0.920   3.433
 9586SOL    HW240387   1.478   0.784   3.483
 9587SOL     OW40388   4.702   3.135   0.078
 9587SOL    HW140389   4.684   3.181   0.160
 9587SOL    HW240390   4.663   3.190   0.010
 9588SOL     OW40391   4.556   4.019   7.897
 9588SOL    HW140392   4.636   3.984   7.859
 9588SOL    HW240393   4.561   3.995   7.990
 9589SOL     OW40394   0.441   3.617  28.376
 9589SOL    HW140395   0.513   3.555  28.387
 9589SOL    HW240396   0.367   3.576  28.420
 9590SOL     OW40397   2.351   0.370  12.526
 9590SOL    HW140398   2.282   0.320  12.482
 9590SOL    HW240399   2.327   0.462  12.513
 9591SOL     OW40400   0.097   3.768  23.076
 9591SOL    HW140401   0.068   3.696  23.132
 9591SOL    HW240402   0.016   3.814  23.053
 9592SOL     OW40403   0.886   1.248   2.832
 9592SOL    HW140404   0.894   1.302   2.753
 9592SOL    HW240405   0.811   1.285   2.879
 9593SOL     OW40406   0.851   0.239   7.540
 9593SOL    HW140407   0.835   0.161   7.592
 9593SOL    HW240408   0.939   0.268   7.566
 9594SOL     OW40409   1.633   4.190  20.636
 9594SOL    HW140410   1.601   4.129  20.702
 9594SOL    HW240411   1.624   4.142  20.553
 9595SOL     OW40412   3.785   3.809   4.355
 9595SOL    HW140413   3.841   3.824   4.279
 9595SOL    HW240414   3.766   3.896   4.389
 9596SOL     OW40415   0.508   4.564   3.499
 9596SOL    HW140416   0.508   4.657   3.479
 9596SOL    HW240417   0.431   4.529   3.454
 9597SOL     OW40418   4.613   2.674  18.887
 9597SOL    HW140419   4.603   2.665  18.792
 9597SOL    HW240420   4.528   2.706  18.917
 9598SOL     OW40421   3.586   2.157   6.861
 9598SOL    HW140422   3.590   2.168   6.956
 9598SOL    HW240423   3.604   2.244   6.826
 9599SOL     OW40424   2.260   3.587  23.902
 9599SOL    HW140425   2.314   3.632  23.967
 9599SOL    HW240426   2.308   3.598  23.820
 9600SOL     OW40427   1.819   3.462   3.467
 9600SOL    HW140428   1.856   3.548   3.447
 9600SOL    HW240429   1.844   3.446   3.558
 9601SOL     OW40430   4.336   1.652  25.583
 9601SOL    HW140431   4.287   1.702  25.518
 9601SOL    HW240432   4.422   1.694  25.587
 9602SOL     OW40433   2.914   2.095  24.002
 9602SOL    HW140434   2.902   2.029  24.070
 9602SOL    HW240435   2.831   2.142  23.999
 9603SOL     OW40436   2.205   3.315  27.106
 9603SOL    HW140437   2.151   3.237  27.119
 9603SOL    HW240438   2.291   3.281  27.082
 9604SOL     OW40439   4.275   2.769  17.113
 9604SOL    HW140440   4.244   2.693  17.162
 9604SOL    HW240441   4.214   2.777  17.040
 9605SOL     OW40442   2.883   0.331  23.350
 9605SOL    HW140443   2.825   0.357  23.278
 9605SOL    HW240444   2.958   0.389  23.343
 9606SOL     OW40445   1.112   1.909   5.998
 9606SOL    HW140446   1.027   1.869   5.980
 9606SOL    HW240447   1.117   1.984   5.939
 9607SOL     OW40448   3.546   4.081  19.604
 9607SOL    HW140449   3.638   4.106  19.600
 9607SOL    HW240450   3.513   4.094  19.515
 9608SOL     OW40451   2.569   1.477  19.180
 9608SOL    HW140452   2.569   1.533  19.102
 9608SOL    HW240453   2.601   1.534  19.250
 9609SOL     OW40454   1.643   2.626   6.773
 9609SOL    HW140455   1.697   2.548   6.785
 9609SOL    HW240456   1.650   2.646   6.680
 9610SOL     OW40457   3.660   2.775  19.635
 9610SOL    HW140458   3.676   2.730  19.552
 9610SOL    HW240459   3.590   2.725  19.676
 9611SOL     OW40460   3.883   0.125  24.520
 9611SOL    HW140461   3.856   0.097  24.432
 9611SOL    HW240462   3.858   0.217  24.525
 9612SOL     OW40463   3.830   3.297  20.336
 9612SOL    HW140464   3.739   3.269  20.341
 9612SOL    HW240465   3.874   3.228  20.287
 9613SOL     OW40466   2.181   1.340   6.757
 9613SOL    HW140467   2.180   1.247   6.779
 9613SOL    HW240468   2.117   1.349   6.687
 9614SOL     OW40469   4.756   1.330  20.707
 9614SOL    HW140470   4.696   1.363  20.640
 9614SOL    HW240471   4.760   1.236  20.692
 9615SOL     OW40472   3.260   3.635   6.412
 9615SOL    HW140473   3.266   3.715   6.464
 9615SOL    HW240474   3.305   3.568   6.464
 9616SOL     OW40475   1.350   0.865  12.472
 9616SOL    HW140476   1.431   0.833  12.433
 9616SOL    HW240477   1.338   0.812  12.551
 9617SOL     OW40478   1.100   1.031  26.045
 9617SOL    HW140479   1.049   1.103  26.082
 9617SOL    HW240480   1.084   1.037  25.951
 9618SOL     OW40481   4.001   0.257  28.311
 9618SOL    HW140482   3.973   0.273  28.221
 9618SOL    HW240483   4.068   0.324  28.328
 9619SOL     OW40484   3.924   4.233  11.024
 9619SOL    HW140485   3.940   4.250  11.117
 9619SOL    HW240486   3.862   4.160  11.023
 9620SOL     OW40487   3.389   4.512   0.358
 9620SOL    HW140488   3.415   4.427   0.393
 9620SOL    HW240489   3.332   4.549   0.425
 9621SOL     OW40490   4.719   0.534  24.525
 9621SOL    HW140491   4.644   0.576  24.483
 9621SOL    HW240492   4.741   0.591  24.598
 9622SOL     OW40493   3.437   2.456  21.781
 9622SOL    HW140494   3.342   2.453  21.793
 9622SOL    HW240495   3.460   2.370  21.746
 9623SOL     OW40496   3.923   1.239  27.772
 9623SOL    HW140497   3.974   1.302  27.720
 9623SOL    HW240498   3.884   1.181  27.707
 9624SOL     OW40499   1.230   2.621  23.706
 9624SOL    HW140500   1.273   2.612  23.791
 9624SOL    HW240501   1.137   2.633  23.727
 9625SOL     OW40502   0.291   1.828   3.620
 9625SOL    HW140503   0.241   1.813   3.540
 9625SOL    HW240504   0.244   1.898   3.665
 9626SOL     OW40505   1.414   2.889  20.541
 9626SOL    HW140506   1.391   2.912  20.451
 9626SOL    HW240507   1.492   2.835  20.533
 9627SOL     OW40508   0.566   1.781  25.320
 9627SOL    HW140509   0.565   1.868  25.280
 9627SOL    HW240510   0.478   1.770  25.357
 9628SOL     OW40511   0.057   1.534  26.290
 9628SOL    HW140512   0.120   1.529  26.362
 9628SOL    HW240513   0.055   1.445  26.254
 9629SOL     OW40514   3.939   0.915   6.599
 9629SOL    HW140515   3.887   0.871   6.666
 9629SOL    HW240516   3.888   0.993   6.577
 9630SOL     OW40517   2.619   1.815   4.970
 9630SOL    HW140518   2.525   1.800   4.967
 9630SOL    HW240519   2.649   1.767   5.047
 9631SOL     OW40520   0.352   4.467   7.309
 9631SOL    HW140521   0.272   4.501   7.350
 9631SOL    HW240522   0.325   4.384   7.269
 9632SOL     OW40523   0.606   1.823  18.102
 9632SOL    HW140524   0.511   1.813  18.100
 9632SOL    HW240525   0.620   1.915  18.124
 9633SOL     OW40526   3.606   1.877  11.370
 9633SOL    HW140527   3.651   1.957  11.398
 9633SOL    HW240528   3.521   1.907  11.337
 9634SOL     OW40529   0.706   0.462   0.800
 9634SOL    HW140530   0.796   0.488   0.818
 9634SOL    HW240531   0.652   0.521   0.853
 9635SOL     OW40532   1.040   2.401  27.994
 9635SOL    HW140533   0.998   2.401  28.080
 9635SOL    HW240534   0.981   2.452  27.939
 9636SOL     OW40535   3.958   1.256  11.784
 9636SOL    HW140536   3.978   1.268  11.877
 9636SOL    HW240537   3.890   1.189  11.783
 9637SOL     OW40538   0.793   4.581  23.489
 9637SOL    HW140539   0.817   4.493  23.519
 9637SOL    HW240540   0.706   4.571  23.451
 9638SOL     OW40541   4.406   3.460   4.009
 9638SOL    HW140542   4.391   3.529   4.074
 9638SOL    HW240543   4.328   3.461   3.954
 9639SOL     OW40544   1.402   4.676  23.714
 9639SOL    HW140545   1.413   4.727  23.634
 9639SOL    HW240546   1.315   4.699  23.746
 9640SOL     OW40547   1.411   0.009  21.718
 9640SOL    HW140548   1.496   0.053  21.719
 9640SOL    HW240549   1.428   4.706  21.676
 9641SOL     OW40550   2.882   0.526  20.058
 9641SOL    HW140551   2.799   0.500  20.019
 9641SOL    HW240552   2.903   0.609  20.016
 9642SOL     OW40553   0.042   0.680  18.424
 9642SOL    HW140554   4.747   0.622  18.423
 9642SOL    HW240555   0.082   0.670  18.338
 9643SOL     OW40556   3.682   1.224  22.313
 9643SOL    HW140557   3.601   1.208  22.264
 9643SOL    HW240558   3.657   1.288  22.380
 9644SOL     OW40559   2.381   4.073  24.995
 9644SOL    HW140560   2.374   3.990  25.043
 9644SOL    HW240561   2.368   4.048  24.903
 9645SOL     OW40562   3.398   1.905   6.477
 9645SOL    HW140563   3.344   1.974   6.438
 9645SOL    HW240564   3.447   1.949   6.546
 9646SOL     OW40565   2.161   1.384  22.710
 9646SOL    HW140566   2.196   1.466  22.746
 9646SOL    HW240567   2.066   1.397  22.709
 9647SOL     OW40568   2.463   1.015   1.443
 9647SOL    HW140569   2.430   1.074   1.511
 9647SOL    HW240570   2.557   1.034   1.439
 9648SOL     OW40571   0.512   1.673   0.189
 9648SOL    HW140572   0.587   1.727   0.214
 9648SOL    HW240573   0.521   1.662   0.094
 9649SOL     OW40574   4.428   3.041  17.125
 9649SOL    HW140575   4.487   3.113  17.104
 9649SOL    HW240576   4.342   3.082  17.131
 9650SOL     OW40577   4.518   0.229   1.723
 9650SOL    HW140578   4.554   0.200   1.639
 9650SOL    HW240579   4.587   0.209   1.787
 9651SOL     OW40580   0.208   3.285   5.857
 9651SOL    HW140581   0.288   3.233   5.849
 9651SOL    HW240582   0.239   3.371   5.885
 9652SOL     OW40583   0.604   2.031   1.519
 9652SOL    HW140584   0.592   2.038   1.424
 9652SOL    HW240585   0.536   1.971   1.548
 9653SOL     OW40586   4.040   2.235   7.470
 9653SOL    HW140587   4.014   2.144   7.456
 9653SOL    HW240588   4.093   2.232   7.550
 9654SOL     OW40589   2.748   0.774  22.841
 9654SOL    HW140590   2.691   0.817  22.777
 9654SOL    HW240591   2.697   0.700  22.872
 9655SOL     OW40592   4.756   3.395   8.332
 9655SOL    HW140593   4.778   3.399   8.425
 9655SOL    HW240594   0.033   3.328   8.296
 9656SOL     OW40595   4.328   1.833  19.125
 9656SOL    HW140596   4.253   1.782  19.156
 9656SOL    HW240597   4.300   1.867  19.040
 9657SOL     OW40598   1.273   2.052  25.652
 9657SOL    HW140599   1.316   2.019  25.731
 9657SOL    HW240600   1.180   2.057  25.676
 9658SOL     OW40601   3.244   1.757   2.951
 9658SOL    HW140602   3.250   1.732   3.043
 9658SOL    HW240603   3.325   1.805   2.933
 9659SOL     OW40604   3.772   0.319  22.923
 9659SOL    HW140605   3.701   0.376  22.892
 9659SOL    HW240606   3.819   0.373  22.987
 9660SOL     OW40607   1.374   3.852  20.326
 9660SOL    HW140608   1.294   3.824  20.282
 9660SOL    HW240609   1.444   3.801  20.285
 9661SOL     OW40610   3.078   2.571   6.497
 9661SOL    HW140611   3.104   2.487   6.458
 9661SOL    HW240612   2.983   2.576   6.483
 9662SOL     OW40613   4.755   3.749   8.994
 9662SOL    HW140614   0.055   3.754   9.045
 9662SOL    HW240615   0.001   3.763   8.903
 9663SOL     OW40616   4.663   4.492   5.340
 9663SOL    HW140617   4.620   4.576   5.324
 9663SOL    HW240618   4.649   4.442   5.260
 9664SOL     OW40619   2.113   1.683  22.723
 9664SOL    HW140620   2.048   1.618  22.748
 9664SOL    HW240621   2.130   1.732  22.803
 9665SOL     OW40622   0.367   3.459   1.515
 9665SOL    HW140623   0.443   3.413   1.480
 9665SOL    HW240624   0.300   3.391   1.524
 9666SOL     OW40625   0.499   2.156   2.948
 9666SOL    HW140626   0.530   2.095   3.015
 9666SOL    HW240627   0.572   2.217   2.935
 9667SOL     OW40628   1.120   3.153  21.058
 9667SOL    HW140629   1.090   3.115  21.141
 9667SOL    HW240630   1.096   3.088  20.992
 9668SOL     OW40631   2.026   4.221  19.906
 9668SOL    HW140632   2.080   4.258  19.976
 9668SOL    HW240633   1.941   4.206  19.947
 9669SOL     OW40634   2.919   0.786   7.866
 9669SOL    HW140635   2.875   0.776   7.950
 9669SOL    HW240636   3.002   0.829   7.888
 9670SOL     OW40637   4.711   0.761   8.238
 9670SOL    HW140638   4.718   0.701   8.164
 9670SOL    HW240639   4.773   0.831   8.218
 9671SOL     OW40640   0.459   2.202  23.818
 9671SOL    HW140641   0.380   2.200  23.872
 9671SOL    HW240642   0.489   2.293  23.824
 9672SOL     OW40643   1.304   0.739   6.846
 9672SOL    HW140644   1.250   0.759   6.769
 9672SOL    HW240645   1.244   0.748   6.920
 9673SOL     OW40646   4.307   3.036   5.003
 9673SOL    HW140647   4.347   3.038   5.090
 9673SOL    HW240648   4.381   3.029   4.943
 9674SOL     OW40649   1.212   2.610   0.598
 9674SOL    HW140650   1.283   2.662   0.561
 9674SOL    HW240651   1.185   2.552   0.527
 9675SOL     OW40652   1.712   2.924  20.215
 9675SOL    HW140653   1.698   2.915  20.121
 9675SOL    HW240654   1.654   2.996  20.240
 9676SOL     OW40655   1.756   0.347   3.441
 9676SOL    HW140656   1.848   0.340   3.417
 9676SOL    HW240657   1.756   0.352   3.537
 9677SOL     OW40658   0.558   2.955  10.256
 9677SOL    HW140659   0.625   3.020  10.234
 9677SOL    HW240660   0.603   2.894  10.315
 9678SOL     OW40661   3.146   2.870   6.955
 9678SOL    HW140662   3.116   2.780   6.944
 9678SOL    HW240663   3.187   2.892   6.872
 9679SOL     OW40664   2.442   1.943   7.807
 9679SOL    HW140665   2.524   1.990   7.823
 9679SOL    HW240666   2.436   1.879   7.878
 9680SOL     OW40667   3.098   3.230  24.656
 9680SOL    HW140668   3.160   3.241  24.584
 9680SOL    HW240669   3.129   3.152  24.702
 9681SOL     OW40670   4.003   0.712   3.247
 9681SOL    HW140671   3.925   0.750   3.286
 9681SOL    HW240672   3.991   0.617   3.257
 9682SOL     OW40673   3.044   2.256  27.686
 9682SOL    HW140674   3.052   2.272  27.780
 9682SOL    HW240675   3.134   2.245  27.656
 9683SOL     OW40676   2.941   0.728   3.908
 9683SOL    HW140677   3.011   0.666   3.888
 9683SOL    HW240678   2.866   0.673   3.933
 9684SOL     OW40679   3.579   4.402   1.184
 9684SOL    HW140680   3.557   4.427   1.274
 9684SOL    HW240681   3.568   4.482   1.133
 9685SOL     OW40682   1.963   4.471  27.663
 9685SOL    HW140683   2.003   4.408  27.603
 9685SOL    HW240684   1.895   4.514  27.611
 9686SOL     OW40685   0.631   0.389   9.456
 9686SOL    HW140686   0.722   0.370   9.433
 9686SOL    HW240687   0.597   0.306   9.490
 9687SOL     OW40688   2.838   0.060   6.128
 9687SOL    HW140689   2.903   4.771   6.134
 9687SOL    HW240690   2.884   0.138   6.158
 9688SOL     OW40691   0.015   0.203   8.055
 9688SOL    HW140692   4.704   0.181   8.040
 9688SOL    HW240693   0.061   0.119   8.052
 9689SOL     OW40694   2.393   0.965  23.659
 9689SOL    HW140695   2.396   0.878  23.699
 9689SOL    HW240696   2.300   0.980  23.642
 9690SOL     OW40697   1.624   0.265   4.776
 9690SOL    HW140698   1.673   0.241   4.855
 9690SOL    HW240699   1.666   0.214   4.706
 9691SOL     OW40700   3.791   0.640  21.978
 9691SOL    HW140701   3.803   0.545  21.972
 9691SOL    HW240702   3.844   0.667  22.053
 9692SOL     OW40703   2.013   0.110  25.536
 9692SOL    HW140704   2.102   0.082  25.559
 9692SOL    HW240705   2.008   0.100  25.441
 9693SOL     OW40706   3.011   3.551  23.752
 9693SOL    HW140707   3.014   3.521  23.843
 9693SOL    HW240708   3.103   3.558  23.727
 9694SOL     OW40709   1.631   0.725  23.983
 9694SOL    HW140710   1.714   0.739  24.029
 9694SOL    HW240711   1.654   0.673  23.906
 9695SOL     OW40712   3.004   2.351  22.835
 9695SOL    HW140713   3.051   2.270  22.856
 9695SOL    HW240714   2.931   2.323  22.781
 9696SOL     OW40715   0.974   2.777   0.475
 9696SOL    HW140716   1.024   2.805   0.552
 9696SOL    HW240717   0.926   2.700   0.505
 9697SOL     OW40718   4.412   0.482   3.700
 9697SOL    HW140719   4.454   0.405   3.739
 9697SOL    HW240720   4.322   0.480   3.733
 9698SOL     OW40721   3.437   3.211  25.915
 9698SOL    HW140722   3.347   3.217  25.882
 9698SOL    HW240723   3.427   3.189  26.008
 9699SOL     OW40724   2.750   3.446   9.407
 9699SOL    HW140725   2.771   3.488   9.491
 9699SOL    HW240726   2.823   3.469   9.350
 9700SOL     OW40727   2.272   0.209  27.762
 9700SOL    HW140728   2.242   0.131  27.715
 9700SOL    HW240729   2.218   0.280  27.727
 9701SOL     OW40730   3.107   4.553   8.655
 9701SOL    HW140731   3.024   4.505   8.655
 9701SOL    HW240732   3.104   4.605   8.575
 9702SOL     OW40733   3.686   2.122   7.445
 9702SOL    HW140734   3.617   2.060   7.423
 9702SOL    HW240735   3.740   2.126   7.366
 9703SOL     OW40736   4.647   1.564  25.031
 9703SOL    HW140737   4.611   1.488  25.076
 9703SOL    HW240738   4.696   1.528  24.957
 9704SOL     OW40739   0.750   1.670  18.553
 9704SOL    HW140740   0.703   1.629  18.480
 9704SOL    HW240741   0.796   1.598  18.596
 9705SOL     OW40742   2.377   2.964  19.729
 9705SOL    HW140743   2.396   3.045  19.681
 9705SOL    HW240744   2.412   2.979  19.817
 9706SOL     OW40745   0.916   3.729  23.845
 9706SOL    HW140746   0.920   3.740  23.750
 9706SOL    HW240747   1.004   3.700  23.870
 9707SOL     OW40748   3.049   4.506  27.569
 9707SOL    HW140749   3.100   4.476  27.493
 9707SOL    HW240750   2.988   4.434  27.587
 9708SOL     OW40751   0.611   4.100  20.112
 9708SOL    HW140752   0.558   4.158  20.058
 9708SOL    HW240753   0.696   4.144  20.118
 9709SOL     OW40754   0.969   4.693   5.978
 9709SOL    HW140755   0.964   4.778   6.021
 9709SOL    HW240756   0.902   4.640   6.022
 9710SOL     OW40757   0.911   0.078  25.814
 9710SOL    HW140758   0.880   4.772  25.788
 9710SOL    HW240759   0.832   0.132  25.817
 9711SOL     OW40760   2.546   1.221  27.213
 9711SOL    HW140761   2.634   1.233  27.249
 9711SOL    HW240762   2.520   1.134  27.243
 9712SOL     OW40763   2.058   2.023  26.637
 9712SOL    HW140764   1.987   2.044  26.576
 9712SOL    HW240765   2.052   2.091  26.704
 9713SOL     OW40766   1.407   2.441   3.199
 9713SOL    HW140767   1.313   2.439   3.215
 9713SOL    HW240768   1.446   2.458   3.285
 9714SOL     OW40769   2.246   3.368   8.511
 9714SOL    HW140770   2.327   3.355   8.461
 9714SOL    HW240771   2.176   3.347   8.449
 9715SOL     OW40772   0.458   4.645  16.041
 9715SOL    HW140773   0.521   4.691  15.986
 9715SOL    HW240774   0.480   4.552  16.031
 9716SOL     OW40775   2.473   2.323  25.434
 9716SOL    HW140776   2.548   2.284  25.478
 9716SOL    HW240777   2.399   2.269  25.460
 9717SOL     OW40778   4.194   0.744   2.205
 9717SOL    HW140779   4.194   0.836   2.231
 9717SOL    HW240780   4.212   0.696   2.286
 9718SOL     OW40781   4.371   4.752   0.828
 9718SOL    HW140782   4.447   4.718   0.875
 9718SOL    HW240783   4.408   0.013   0.750
 9719SOL     OW40784   2.021   2.838  17.230
 9719SOL    HW140785   2.069   2.861  17.150
 9719SOL    HW240786   1.978   2.755  17.209
 9720SOL     OW40787   1.961   2.377  22.415
 9720SOL    HW140788   1.954   2.318  22.490
 9720SOL    HW240789   2.004   2.325  22.347
 9721SOL     OW40790   2.521   3.113   4.708
 9721SOL    HW140791   2.473   3.149   4.782
 9721SOL    HW240792   2.518   3.182   4.641
 9722SOL     OW40793   4.310   2.595  28.476
 9722SOL    HW140794   4.275   2.525   0.009
 9722SOL    HW240795   4.299   2.675   0.006
 9723SOL     OW40796   0.360   1.209   6.190
 9723SOL    HW140797   0.294   1.143   6.211
 9723SOL    HW240798   0.439   1.178   6.235
 9724SOL     OW40799   3.991   2.291   3.589
 9724SOL    HW140800   3.992   2.306   3.494
 9724SOL    HW240801   3.898   2.281   3.611
 9725SOL     OW40802   2.612   3.194  23.655
 9725SOL    HW140803   2.584   3.123  23.597
 9725SOL    HW240804   2.675   3.153  23.714
 9726SOL     OW40805   4.495   3.263  28.303
 9726SOL    HW140806   4.504   3.344  28.252
 9726SOL    HW240807   4.423   3.280  28.363
 9727SOL     OW40808   4.300   4.599   8.457
 9727SOL    HW140809   4.368   4.592   8.524
 9727SOL    HW240810   4.255   4.515   8.459
 9728SOL     OW40811   4.501   1.703   5.700
 9728SOL    HW140812   4.495   1.788   5.656
 9728SOL    HW240813   4.411   1.681   5.722
 9729SOL     OW40814   0.075   0.337   2.374
 9729SOL    HW140815   0.161   0.358   2.337
 9729SOL    HW240816   0.093   0.316   2.466
 9730SOL     OW40817   1.579   1.412  24.258
 9730SOL    HW140818   1.538   1.331  24.227
 9730SOL    HW240819   1.589   1.399  24.352
 9731SOL     OW40820   2.768   1.636   7.537
 9731SOL    HW140821   2.853   1.676   7.518
 9731SOL    HW240822   2.780   1.593   7.622
 9732SOL     OW40823   3.486   1.712  22.434
 9732SOL    HW140824   3.530   1.797  22.431
 9732SOL    HW240825   3.411   1.725  22.492
 9733SOL     OW40826   0.064   2.090   5.271
 9733SOL    HW140827   0.082   2.165   5.327
 9733SOL    HW240828   0.099   2.015   5.319
 9734SOL     OW40829   3.290   2.259  25.583
 9734SOL    HW140830   3.312   2.347  25.554
 9734SOL    HW240831   3.262   2.214  25.503
 9735SOL     OW40832   3.441   2.388   2.646
 9735SOL    HW140833   3.370   2.334   2.681
 9735SOL    HW240834   3.511   2.326   2.625
 9736SOL     OW40835   1.678   4.048   4.921
 9736SOL    HW140836   1.638   4.123   4.965
 9736SOL    HW240837   1.772   4.061   4.934
 9737SOL     OW40838   4.010   1.469   4.983
 9737SOL    HW140839   3.939   1.462   4.919
 9737SOL    HW240840   4.002   1.390   5.037
 9738SOL     OW40841   4.212   3.291   7.651
 9738SOL    HW140842   4.284   3.306   7.713
 9738SOL    HW240843   4.227   3.203   7.617
 9739SOL     OW40844   0.538   1.434  25.653
 9739SOL    HW140845   0.494   1.430  25.568
 9739SOL    HW240846   0.478   1.484  25.709
 9740SOL     OW40847   2.359   0.247   4.143
 9740SOL    HW140848   2.322   0.329   4.175
 9740SOL    HW240849   2.314   0.230   4.060
 9741SOL     OW40850   0.386   0.113  16.227
 9741SOL    HW140851   0.416   0.078  16.311
 9741SOL    HW240852   0.466   0.123  16.176
 9742SOL     OW40853   1.842   2.019   7.947
 9742SOL    HW140854   1.833   2.100   7.897
 9742SOL    HW240855   1.755   2.003   7.983
 9743SOL     OW40856   0.038   0.124  23.411
 9743SOL    HW140857   0.012   0.043  23.368
 9743SOL    HW240858   0.091   0.096  23.486
 9744SOL     OW40859   0.981   4.590   1.327
 9744SOL    HW140860   0.940   4.604   1.412
 9744SOL    HW240861   0.911   4.606   1.264
 9745SOL     OW40862   2.218   4.423   1.089
 9745SOL    HW140863   2.122   4.419   1.093
 9745SOL    HW240864   2.247   4.375   1.167
 9746SOL     OW40865   1.216   0.831   9.398
 9746SOL    HW140866   1.254   0.813   9.484
 9746SOL    HW240867   1.217   0.746   9.353
 9747SOL     OW40868   0.483   3.294  19.399
 9747SOL    HW140869   0.390   3.274  19.410
 9747SOL    HW240870   0.507   3.342  19.478
 9748SOL     OW40871   0.465   1.937  28.313
 9748SOL    HW140872   0.377   1.909  28.288
 9748SOL    HW240873   0.452   2.022  28.354
 9749SOL     OW40874   4.678   0.848   4.045
 9749SOL    HW140875   4.600   0.843   3.989
 9749SOL    HW240876   4.738   0.784   4.007
 9750SOL     OW40877   2.412   1.550   1.537
 9750SOL    HW140878   2.495   1.597   1.529
 9750SOL    HW240879   2.371   1.558   1.451
 9751SOL     OW40880   0.790   1.845  21.434
 9751SOL    HW140881   0.828   1.874  21.351
 9751SOL    HW240882   0.861   1.799  21.478
 9752SOL     OW40883   0.639   3.870  21.784
 9752SOL    HW140884   0.602   3.958  21.783
 9752SOL    HW240885   0.732   3.884  21.801
 9753SOL     OW40886   4.158   2.366   5.640
 9753SOL    HW140887   4.103   2.431   5.595
 9753SOL    HW240888   4.206   2.322   5.569
 9754SOL     OW40889   3.190   2.365   4.226
 9754SOL    HW140890   3.162   2.448   4.265
 9754SOL    HW240891   3.111   2.310   4.227
 9755SOL     OW40892   1.420   3.481  25.794
 9755SOL    HW140893   1.505   3.480  25.839
 9755SOL    HW240894   1.442   3.480  25.701
 9756SOL     OW40895   1.814   0.576  11.282
 9756SOL    HW140896   1.852   0.654  11.324
 9756SOL    HW240897   1.836   0.504  11.342
 9757SOL     OW40898   1.485   0.589   6.697
 9757SOL    HW140899   1.444   0.640   6.766
 9757SOL    HW240900   1.519   0.511   6.741
 9758SOL     OW40901   2.322   1.855  20.979
 9758SOL    HW140902   2.275   1.831  20.899
 9758SOL    HW240903   2.384   1.922  20.951
 9759SOL     OW40904   4.503   4.170   1.840
 9759SOL    HW140905   4.411   4.144   1.836
 9759SOL    HW240906   4.551   4.088   1.835
 9760SOL     OW40907   1.571   0.211   9.282
 9760SOL    HW140908   1.649   0.261   9.258
 9760SOL    HW240909   1.500   0.252   9.233
 9761SOL     OW40910   1.831   0.671  22.679
 9761SOL    HW140911   1.827   0.696  22.771
 9761SOL    HW240912   1.874   0.585  22.680
 9762SOL     OW40913   1.411   2.819   2.149
 9762SOL    HW140914   1.376   2.833   2.237
 9762SOL    HW240915   1.335   2.792   2.097
 9763SOL     OW40916   3.735   0.382   2.416
 9763SOL    HW140917   3.739   0.458   2.474
 9763SOL    HW240918   3.665   0.403   2.354
 9764SOL     OW40919   3.137   1.019   2.466
 9764SOL    HW140920   3.149   1.051   2.555
 9764SOL    HW240921   3.211   1.054   2.417
 9765SOL     OW40922   1.729   3.974  25.268
 9765SOL    HW140923   1.694   4.040  25.208
 9765SOL    HW240924   1.793   3.926  25.216
 9766SOL     OW40925   0.587   3.966  20.576
 9766SOL    HW140926   0.648   3.987  20.505
 9766SOL    HW240927   0.570   3.872  20.566
 9767SOL     OW40928   1.714   1.943   7.092
 9767SOL    HW140929   1.769   2.005   7.140
 9767SOL    HW240930   1.775   1.892   7.039
 9768SOL     OW40931   2.807   2.849   3.774
 9768SOL    HW140932   2.839   2.888   3.692
 9768SOL    HW240933   2.721   2.890   3.788
 9769SOL     OW40934   3.110   3.253   6.093
 9769SOL    HW140935   3.049   3.266   6.021
 9769SOL    HW240936   3.140   3.341   6.115
 9770SOL     OW40937   0.232   4.349  27.399
 9770SOL    HW140938   0.165   4.297  27.354
 9770SOL    HW240939   0.266   4.290  27.466
 9771SOL     OW40940   3.835   3.471  24.024
 9771SOL    HW140941   3.876   3.523  23.955
 9771SOL    HW240942   3.889   3.392  24.030
 9772SOL     OW40943   2.585   1.621  10.023
 9772SOL    HW140944   2.546   1.610  10.110
 9772SOL    HW240945   2.537   1.559   9.967
 9773SOL     OW40946   3.917   2.836  20.851
 9773SOL    HW140947   3.830   2.857  20.886
 9773SOL    HW240948   3.926   2.893  20.775
 9774SOL     OW40949   1.726   0.315  23.309
 9774SOL    HW140950   1.796   0.379  23.316
 9774SOL    HW240951   1.647   0.367  23.294
 9775SOL     OW40952   0.256   2.817   7.531
 9775SOL    HW140953   0.330   2.866   7.496
 9775SOL    HW240954   0.236   2.860   7.614
 9776SOL     OW40955   2.328   0.553  10.034
 9776SOL    HW140956   2.317   0.459  10.022
 9776SOL    HW240957   2.303   0.569  10.125
 9777SOL     OW40958   3.286   1.040   0.381
 9777SOL    HW140959   3.347   1.089   0.326
 9777SOL    HW240960   3.336   1.019   0.460
 9778SOL     OW40961   3.902   2.245   5.694
 9778SOL    HW140962   3.979   2.236   5.639
 9778SOL    HW240963   3.832   2.268   5.633
 9779SOL     OW40964   2.144   0.022   7.396
 9779SOL    HW140965   2.224   4.776   7.441
 9779SOL    HW240966   2.101   0.082   7.457
 9780SOL     OW40967   2.160   0.862  21.868
 9780SOL    HW140968   2.234   0.803  21.886
 9780SOL    HW240969   2.187   0.911  21.791
 9781SOL     OW40970   0.259   0.430  25.733
 9781SOL    HW140971   0.264   0.334  25.734
 9781SOL    HW240972   0.205   0.451  25.657
 9782SOL     OW40973   2.897   3.321   1.650
 9782SOL    HW140974   2.961   3.317   1.579
 9782SOL    HW240975   2.912   3.407   1.690
 9783SOL     OW40976   2.312   1.498  25.768
 9783SOL    HW140977   2.298   1.484  25.862
 9783SOL    HW240978   2.296   1.592  25.755
 9784SOL     OW40979   2.519   1.127   8.956
 9784SOL    HW140980   2.583   1.190   8.923
 9784SOL    HW240981   2.522   1.137   9.051
 9785SOL     OW40982   2.707   3.251   1.867
 9785SOL    HW140983   2.644   3.181   1.851
 9785SOL    HW240984   2.737   3.277   1.780
 9786SOL     OW40985   1.585   3.708   8.945
 9786SOL    HW140986   1.617   3.629   8.901
 9786SOL    HW240987   1.576   3.772   8.875
 9787SOL     OW40988   4.152   4.070  25.075
 9787SOL    HW140989   4.237   4.034  25.101
 9787SOL    HW240990   4.130   4.133  25.144
 9788SOL     OW40991   3.523   3.087  20.933
 9788SOL    HW140992   3.599   3.030  20.945
 9788SOL    HW240993   3.475   3.080  21.016
 9789SOL     OW40994   1.129   3.846  28.058
 9789SOL    HW140995   1.075   3.771  28.082
 9789SOL    HW240996   1.218   3.821  28.084
 9790SOL     OW40997   3.660   0.265   3.175
 9790SOL    HW140998   3.606   0.299   3.104
 9790SOL    HW240999   3.606   0.274   3.253
 9791SOL     OW41000   1.899   3.668  17.861
 9791SOL    HW141001   1.829   3.719  17.902
 9791SOL    HW241002   1.946   3.731  17.806
 9792SOL     OW41003   2.054   1.411   0.835
 9792SOL    HW141004   2.109   1.482   0.868
 9792SOL    HW241005   1.969   1.424   0.877
 9793SOL     OW41006   0.238   1.687  10.599
 9793SOL    HW141007   0.163   1.654  10.649
 9793SOL    HW241008   0.245   1.627  10.524
 9794SOL     OW41009   1.967   1.771   3.295
 9794SOL    HW141010   1.921   1.766   3.211
 9794SOL    HW241011   1.936   1.695   3.344
 9795SOL     OW41012   3.363   1.663  27.247
 9795SOL    HW141013   3.302   1.632  27.314
 9795SOL    HW241014   3.440   1.692  27.296
 9796SOL     OW41015   0.495   2.838  19.925
 9796SOL    HW141016   0.567   2.860  19.866
 9796SOL    HW241017   0.535   2.785  19.993
 9797SOL     OW41018   2.380   0.538  28.036
 9797SOL    HW141019   2.336   0.459  28.006
 9797SOL    HW241020   2.463   0.539  27.988
 9798SOL     OW41021   3.062   0.170   4.431
 9798SOL    HW141022   3.143   0.220   4.436
 9798SOL    HW241023   2.993   0.236   4.422
 9799SOL     OW41024   1.993   1.007  20.865
 9799SOL    HW141025   1.961   1.077  20.808
 9799SOL    HW241026   2.074   1.042  20.902
 9800SOL     OW41027   2.979   4.436  11.614
 9800SOL    HW141028   3.046   4.499  11.589
 9800SOL    HW241029   2.924   4.484  11.676
 9801SOL     OW41030   0.719   2.077  25.838
 9801SOL    HW141031   0.721   2.170  25.816
 9801SOL    HW241032   0.730   2.075  25.933
 9802SOL     OW41033   2.652   3.629   5.840
 9802SOL    HW141034   2.637   3.629   5.745
 9802SOL    HW241035   2.717   3.560   5.853
 9803SOL     OW41036   3.908   0.939   7.304
 9803SOL    HW141037   3.902   0.996   7.227
 9803SOL    HW241038   3.849   0.866   7.284
 9804SOL     OW41039   0.786   1.423  28.263
 9804SOL    HW141040   0.860   1.362  28.257
 9804SOL    HW241041   0.722   1.378  28.319
 9805SOL     OW41042   2.545   1.469  22.330
 9805SOL    HW141043   2.464   1.484  22.379
 9805SOL    HW241044   2.524   1.398  22.270
 9806SOL     OW41045   2.360   1.328  20.229
 9806SOL    HW141046   2.379   1.415  20.194
 9806SOL    HW241047   2.273   1.336  20.269
 9807SOL     OW41048   4.688   0.622   0.355
 9807SOL    HW141049   4.720   0.595   0.269
 9807SOL    HW241050   4.644   0.705   0.339
 9808SOL     OW41051   0.581   0.568  21.618
 9808SOL    HW141052   0.503   0.570  21.673
 9808SOL    HW241053   0.563   0.501  21.553
 9809SOL     OW41054   1.781   3.277  20.637
 9809SOL    HW141055   1.693   3.309  20.657
 9809SOL    HW241056   1.773   3.182  20.644
 9810SOL     OW41057   4.185   2.575   1.864
 9810SOL    HW141058   4.270   2.551   1.827
 9810SOL    HW241059   4.201   2.583   1.958
 9811SOL     OW41060   3.440   1.764   4.963
 9811SOL    HW141061   3.353   1.735   4.991
 9811SOL    HW241062   3.500   1.709   5.013
 9812SOL     OW41063   1.865   0.616  28.438
 9812SOL    HW141064   1.864   0.569  28.354
 9812SOL    HW241065   1.827   0.702  28.418
 9813SOL     OW41066   0.997   3.817   1.515
 9813SOL    HW141067   0.999   3.905   1.478
 9813SOL    HW241068   0.998   3.759   1.439
 9814SOL     OW41069   2.944   0.846  17.204
 9814SOL    HW141070   2.948   0.846  17.108
 9814SOL    HW241071   2.874   0.785  17.225
 9815SOL     OW41072   0.502   1.904   5.476
 9815SOL    HW141073   0.591   1.938   5.480
 9815SOL    HW241074   0.468   1.914   5.565
 9816SOL     OW41075   4.193   4.108   4.172
 9816SOL    HW141076   4.173   4.016   4.186
 9816SOL    HW241077   4.212   4.142   4.259
 9817SOL     OW41078   4.480   2.745  19.510
 9817SOL    HW141079   4.416   2.702  19.566
 9817SOL    HW241080   4.499   2.828  19.554
 9818SOL     OW41081   3.360   2.508  23.292
 9818SOL    HW141082   3.283   2.541  23.338
 9818SOL    HW241083   3.434   2.550  23.335
 9819SOL     OW41084   3.056   2.290  18.763
 9819SOL    HW141085   2.982   2.279  18.703
 9819SOL    HW241086   3.133   2.276  18.708
 9820SOL     OW41087   3.641   3.112  21.551
 9820SOL    HW141088   3.704   3.181  21.571
 9820SOL    HW241089   3.687   3.031  21.573
 9821SOL     OW41090   4.254   0.469   2.077
 9821SOL    HW141091   4.331   0.451   2.131
 9821SOL    HW241092   4.222   0.554   2.108
 9822SOL     OW41093   0.050   3.957   0.776
 9822SOL    HW141094   0.091   3.956   0.690
 9822SOL    HW241095   4.747   3.912   0.764
 9823SOL     OW41096   3.993   2.061   1.108
 9823SOL    HW141097   3.918   2.081   1.052
 9823SOL    HW241098   3.978   1.971   1.137
 9824SOL     OW41099   1.178   4.129  27.578
 9824SOL    HW141100   1.125   4.139  27.657
 9824SOL    HW241101   1.122   4.080  27.518
 9825SOL     OW41102   1.635   0.582   4.342
 9825SOL    HW141103   1.692   0.518   4.299
 9825SOL    HW241104   1.695   0.646   4.381
 9826SOL     OW41105   4.099   4.301   3.930
 9826SOL    HW141106   4.117   4.325   4.021
 9826SOL    HW241107   4.174   4.248   3.904
 9827SOL     OW41108   4.642   0.124   3.235
 9827SOL    HW141109   4.597   0.197   3.193
 9827SOL    HW241110   4.630   0.139   3.329
 9828SOL     OW41111   2.723   4.058   4.064
 9828SOL    HW141112   2.750   4.002   4.137
 9828SOL    HW241113   2.713   3.998   3.990
 9829SOL     OW41114   1.995   3.938  25.983
 9829SOL    HW141115   1.940   3.987  26.044
 9829SOL    HW241116   2.035   3.869  26.036
 9830SOL     OW41117   3.274   3.831   1.243
 9830SOL    HW141118   3.293   3.806   1.334
 9830SOL    HW241119   3.297   3.753   1.192
 9831SOL     OW41120   1.843   3.685   0.511
 9831SOL    HW141121   1.838   3.719   0.422
 9831SOL    HW241122   1.896   3.606   0.503
 9832SOL     OW41123   2.795   1.132   8.287
 9832SOL    HW141124   2.769   1.140   8.379
 9832SOL    HW241125   2.834   1.045   8.281
 9833SOL     OW41126   1.404   0.608   4.625
 9833SOL    HW141127   1.440   0.604   4.536
 9833SOL    HW241128   1.466   0.662   4.674
 9834SOL     OW41129   2.844   0.864  23.439
 9834SOL    HW141130   2.782   0.929  23.472
 9834SOL    HW241131   2.879   0.903  23.359
 9835SOL     OW41132   3.323   2.311   7.206
 9835SOL    HW141133   3.297   2.231   7.160
 9835SOL    HW241134   3.310   2.290   7.299
 9836SOL     OW41135   0.336   2.574   2.639
 9836SOL    HW141136   0.396   2.601   2.570
 9836SOL    HW241137   0.256   2.625   2.623
 9837SOL     OW41138   1.986   0.652   5.793
 9837SOL    HW141139   1.982   0.743   5.822
 9837SOL    HW241140   2.073   0.644   5.754
 9838SOL     OW41141   0.843   2.198  17.900
 9838SOL    HW141142   0.816   2.288  17.884
 9838SOL    HW241143   0.919   2.186  17.843
 9839SOL     OW41144   4.386   2.513  22.673
 9839SOL    HW141145   4.399   2.458  22.596
 9839SOL    HW241146   4.365   2.599  22.637
 9840SOL     OW41147   0.899   1.916  27.237
 9840SOL    HW141148   0.878   1.925  27.144
 9840SOL    HW241149   0.896   1.822  27.254
 9841SOL     OW41150   2.416   2.680   1.666
 9841SOL    HW141151   2.328   2.655   1.639
 9841SOL    HW241152   2.425   2.771   1.637
 9842SOL     OW41153   4.329   2.758   1.498
 9842SOL    HW141154   4.407   2.719   1.538
 9842SOL    HW241155   4.362   2.834   1.451
 9843SOL     OW41156   0.302   0.334  27.865
 9843SOL    HW141157   0.263   0.325  27.952
 9843SOL    HW241158   0.357   0.257  27.855
 9844SOL     OW41159   2.339   3.318   9.790
 9844SOL    HW141160   2.377   3.403   9.813
 9844SOL    HW241161   2.246   3.336   9.776
 9845SOL     OW41162   1.233   3.306  27.911
 9845SOL    HW141163   1.294   3.367  27.953
 9845SOL    HW241164   1.258   3.220  27.945
 9846SOL     OW41165   2.037   3.028  25.057
 9846SOL    HW141166   1.966   2.969  25.082
 9846SOL    HW241167   1.996   3.115  25.054
 9847SOL     OW41168   0.108   3.601   2.208
 9847SOL    HW141169   0.095   3.508   2.227
 9847SOL    HW241170   0.020   3.635   2.190
 9848SOL     OW41171   1.640   3.914   5.968
 9848SOL    HW141172   1.654   3.845   5.904
 9848SOL    HW241173   1.693   3.888   6.044
 9849SOL     OW41174   1.658   2.164   6.285
 9849SOL    HW141175   1.650   2.198   6.374
 9849SOL    HW241176   1.682   2.241   6.233
 9850SOL     OW41177   3.709   0.675   2.404
 9850SOL    HW141178   3.791   0.716   2.433
 9850SOL    HW241179   3.735   0.618   2.332
 9851SOL     OW41180   3.993   3.773   6.142
 9851SOL    HW141181   3.902   3.801   6.155
 9851SOL    HW241182   3.996   3.743   6.051
 9852SOL     OW41183   0.887   2.910  24.525
 9852SOL    HW141184   0.902   2.936  24.616
 9852SOL    HW241185   0.960   2.949  24.477
 9853SOL     OW41186   0.054   0.503   0.549
 9853SOL    HW141187   4.761   0.539   0.500
 9853SOL    HW241188   0.013   0.455   0.621
 9854SOL     OW41189   1.595   4.041   3.627
 9854SOL    HW141190   1.627   4.129   3.607
 9854SOL    HW241191   1.664   3.982   3.596
 9855SOL     OW41192   2.180   4.332  18.302
 9855SOL    HW141193   2.231   4.389  18.244
 9855SOL    HW241194   2.245   4.280  18.349
 9856SOL     OW41195   4.664   1.538  17.877
 9856SOL    HW141196   4.616   1.620  17.872
 9856SOL    HW241197   4.719   1.547  17.955
 9857SOL     OW41198   2.603   3.769   0.979
 9857SOL    HW141199   2.636   3.855   1.006
 9857SOL    HW241200   2.568   3.783   0.891
 9858SOL     OW41201   2.062   0.282  23.004
 9858SOL    HW141202   2.083   0.341  23.077
 9858SOL    HW241203   2.147   0.248  22.976
 9859SOL     OW41204   2.186   1.764  20.304
 9859SOL    HW141205   2.268   1.729  20.338
 9859SOL    HW241206   2.122   1.746  20.373
 9860SOL     OW41207   0.277   3.564  21.952
 9860SOL    HW141208   0.208   3.608  21.903
 9860SOL    HW241209   0.351   3.560  21.892
 9861SOL     OW41210   0.608   1.805  22.470
 9861SOL    HW141211   0.543   1.842  22.411
 9861SOL    HW241212   0.586   1.712  22.475
 9862SOL     OW41213   4.724   4.298   4.777
 9862SOL    HW141214   4.683   4.213   4.790
 9862SOL    HW241215   4.766   4.291   4.691
 9863SOL     OW41216   2.768   2.042   8.793
 9863SOL    HW141217   2.855   2.018   8.826
 9863SOL    HW241218   2.766   2.138   8.799
 9864SOL     OW41219   4.006   1.860  23.110
 9864SOL    HW141220   4.029   1.910  23.031
 9864SOL    HW241221   4.073   1.792  23.116
 9865SOL     OW41222   2.340   0.721  23.823
 9865SOL    HW141223   2.434   0.731  23.837
 9865SOL    HW241224   2.306   0.694  23.908
 9866SOL     OW41225   1.894   0.090  23.300
 9866SOL    HW141226   1.973   0.141  23.317
 9866SOL    HW241227   1.822   0.152  23.314
 9867SOL     OW41228   2.690   0.218   4.465
 9867SOL    HW141229   2.606   0.260   4.486
 9867SOL    HW241230   2.693   0.141   4.522
 9868SOL     OW41231   2.754   0.135   9.080
 9868SOL    HW141232   2.830   0.137   9.022
 9868SOL    HW241233   2.696   0.069   9.041
 9869SOL     OW41234   3.373   1.668  22.197
 9869SOL    HW141235   3.417   1.661  22.282
 9869SOL    HW241236   3.284   1.638  22.213
 9870SOL     OW41237   0.912   1.507  10.766
 9870SOL    HW141238   0.917   1.437  10.832
 9870SOL    HW241239   0.929   1.587  10.815
 9871SOL     OW41240   1.075   4.123  26.958
 9871SOL    HW141241   0.993   4.107  27.004
 9871SOL    HW241242   1.142   4.081  27.012
 9872SOL     OW41243   3.202   0.947  23.848
 9872SOL    HW141244   3.124   0.935  23.902
 9872SOL    HW241245   3.223   1.040  23.858
 9873SOL     OW41246   1.347   2.922  20.201
 9873SOL    HW141247   1.423   2.978  20.217
 9873SOL    HW241248   1.314   2.950  20.116
 9874SOL     OW41249   0.060   2.638   7.088
 9874SOL    HW141250   0.136   2.691   7.064
 9874SOL    HW241251   0.081   2.603   7.175
 9875SOL     OW41252   0.171   3.107   2.276
 9875SOL    HW141253   0.199   3.087   2.186
 9875SOL    HW241254   0.246   3.081   2.330
 9876SOL     OW41255   0.685   4.417   0.666
 9876SOL    HW141256   0.758   4.460   0.621
 9876SOL    HW241257   0.702   4.323   0.656
 9877SOL     OW41258   2.583   4.291  22.479
 9877SOL    HW141259   2.494   4.287  22.513
 9877SOL    HW241260   2.620   4.205  22.499
 9878SOL     OW41261   4.528   2.605   8.828
 9878SOL    HW141262   4.547   2.697   8.810
 9878SOL    HW241263   4.528   2.598   8.924
 9879SOL     OW41264   1.407   0.316   8.841
 9879SOL    HW141265   1.494   0.278   8.830
 9879SOL    HW241266   1.348   0.241   8.844
 9880SOL     OW41267   0.309   0.377  22.328
 9880SOL    HW141268   0.349   0.451  22.283
 9880SOL    HW241269   0.215   0.388  22.312
 9881SOL     OW41270   2.246   4.754  22.765
 9881SOL    HW141271   2.219   4.781  22.677
 9881SOL    HW241272   2.248   0.055  22.815
 9882SOL     OW41273   2.387   4.595  10.307
 9882SOL    HW141274   2.325   4.530  10.273
 9882SOL    HW241275   2.429   4.552  10.381
 9883SOL     OW41276   4.037   1.017  24.565
 9883SOL    HW141277   4.001   0.967  24.492
 9883SOL    HW241278   4.012   1.108  24.547
 9884SOL     OW41279   1.685   3.924  23.594
 9884SOL    HW141280   1.624   3.997  23.580
 9884SOL    HW241281   1.696   3.921  23.689
 9885SOL     OW41282   1.048   2.496   2.208
 9885SOL    HW141283   1.048   2.446   2.127
 9885SOL    HW241284   0.986   2.567   2.192
 9886SOL     OW41285   4.563   1.293  23.518
 9886SOL    HW141286   4.469   1.297  23.537
 9886SOL    HW241287   4.599   1.374  23.554
 9887SOL     OW41288   2.517   3.535  25.818
 9887SOL    HW141289   2.487   3.485  25.742
 9887SOL    HW241290   2.439   3.545  25.872
 9888SOL     OW41291   2.123   0.575  28.420
 9888SOL    HW141292   2.027   0.569  28.422
 9888SOL    HW241293   2.143   0.659  28.460
 9889SOL     OW41294   3.168   3.186   4.439
 9889SOL    HW141295   3.148   3.230   4.522
 9889SOL    HW241296   3.213   3.253   4.387
 9890SOL     OW41297   3.642   3.863   3.938
 9890SOL    HW141298   3.636   3.856   4.033
 9890SOL    HW241299   3.700   3.938   3.924
 9891SOL     OW41300   2.264   1.906  21.235
 9891SOL    HW141301   2.238   1.998  21.235
 9891SOL    HW241302   2.279   1.885  21.143
 9892SOL     OW41303   0.331   0.016   4.392
 9892SOL    HW141304   0.280   0.038   4.314
 9892SOL    HW241305   0.312   0.087   4.453
 9893SOL     OW41306   2.686   3.502  20.475
 9893SOL    HW141307   2.760   3.555  20.446
 9893SOL    HW241308   2.611   3.537  20.428
 9894SOL     OW41309   3.544   0.793  20.548
 9894SOL    HW141310   3.455   0.816  20.574
 9894SOL    HW241311   3.587   0.767  20.630
 9895SOL     OW41312   2.912   1.589  24.992
 9895SOL    HW141313   2.878   1.575  25.080
 9895SOL    HW241314   3.000   1.552  24.994
 9896SOL     OW41315   1.890   3.540   6.313
 9896SOL    HW141316   1.871   3.516   6.222
 9896SOL    HW241317   1.814   3.509   6.362
 9897SOL     OW41318   4.694   2.907  20.145
 9897SOL    HW141319   4.652   2.868  20.068
 9897SOL    HW241320   4.773   2.855  20.158
 9898SOL     OW41321   3.558   0.788   0.767
 9898SOL    HW141322   3.581   0.826   0.852
 9898SOL    HW241323   3.490   0.846   0.733
 9899SOL     OW41324   4.333   2.480   2.683
 9899SOL    HW141325   4.241   2.458   2.695
 9899SOL    HW241326   4.343   2.566   2.724
 9900SOL     OW41327   3.997   2.541   3.791
 9900SOL    HW141328   4.014   2.621   3.841
 9900SOL    HW241329   4.084   2.510   3.765
 9901SOL     OW41330   2.585   1.429  25.786
 9901SOL    HW141331   2.492   1.438  25.766
 9901SOL    HW241332   2.602   1.495  25.853
 9902SOL     OW41333   3.891   0.500  25.223
 9902SOL    HW141334   3.984   0.510  25.202
 9902SOL    HW241335   3.882   0.407  25.244
 9903SOL     OW41336   1.530   3.511   8.330
 9903SOL    HW141337   1.498   3.425   8.357
 9903SOL    HW241338   1.560   3.498   8.240
 9904SOL     OW41339   3.788   3.190  19.796
 9904SOL    HW141340   3.786   3.184  19.891
 9904SOL    HW241341   3.697   3.177  19.770
 9905SOL     OW41342   3.362   1.162  26.950
 9905SOL    HW141343   3.435   1.100  26.942
 9905SOL    HW241344   3.287   1.108  26.976
 9906SOL     OW41345   2.320   4.466   5.110
 9906SOL    HW141346   2.321   4.554   5.147
 9906SOL    HW241347   2.265   4.473   5.032
 9907SOL     OW41348   0.448   1.359   3.937
 9907SOL    HW141349   0.450   1.419   4.012
 9907SOL    HW241350   0.402   1.407   3.869
 9908SOL     OW41351   4.709   0.513   3.032
 9908SOL    HW141352   4.692   0.555   3.116
 9908SOL    HW241353   4.694   0.582   2.967
 9909SOL     OW41354   2.357   1.710   1.893
 9909SOL    HW141355   2.368   1.793   1.846
 9909SOL    HW241356   2.435   1.660   1.871
 9910SOL     OW41357   3.146   1.404   9.525
 9910SOL    HW141358   3.234   1.434   9.501
 9910SOL    HW241359   3.124   1.339   9.458
 9911SOL     OW41360   2.078   1.210   7.515
 9911SOL    HW141361   2.029   1.264   7.453
 9911SOL    HW241362   2.169   1.236   7.503
 9912SOL     OW41363   4.014   3.781  10.574
 9912SOL    HW141364   4.043   3.692  10.554
 9912SOL    HW241365   3.993   3.779  10.667
 9913SOL     OW41366   0.091   2.317  18.079
 9913SOL    HW141367   0.143   2.237  18.088
 9913SOL    HW241368   0.119   2.372  18.152
 9914SOL     OW41369   1.565   0.451   3.646
 9914SOL    HW141370   1.557   0.490   3.559
 9914SOL    HW241371   1.491   0.486   3.696
 9915SOL     OW41372   4.765   1.066   4.645
 9915SOL    HW141373   0.005   1.075   4.552
 9915SOL    HW241374   0.049   1.004   4.678
 9916SOL     OW41375   2.831   0.843   2.794
 9916SOL    HW141376   2.788   0.850   2.709
 9916SOL    HW241377   2.760   0.827   2.856
 9917SOL     OW41378   2.441   3.869  21.551
 9917SOL    HW141379   2.446   3.955  21.593
 9917SOL    HW241380   2.363   3.829  21.589
 9918SOL     OW41381   2.960   4.309  21.909
 9918SOL    HW141382   2.984   4.301  21.817
 9918SOL    HW241383   2.958   4.403  21.925
 9919SOL     OW41384   4.751   2.190   7.049
 9919SOL    HW141385   0.056   2.215   7.082
 9919SOL    HW241386   4.753   2.094   7.048
 9920SOL     OW41387   3.186   0.724  24.239
 9920SOL    HW141388   3.141   0.786  24.181
 9920SOL    HW241389   3.122   0.655  24.254
 9921SOL     OW41390   3.578   1.144   8.060
 9921SOL    HW141391   3.630   1.079   8.106
 9921SOL    HW241392   3.642   1.204   8.022
 9922SOL     OW41393   1.528   4.349   7.146
 9922SOL    HW141394   1.584   4.348   7.224
 9922SOL    HW241395   1.588   4.335   7.073
 9923SOL     OW41396   1.507   3.706   7.315
 9923SOL    HW141397   1.556   3.784   7.289
 9923SOL    HW241398   1.471   3.672   7.233
 9924SOL     OW41399   0.434   2.464  25.265
 9924SOL    HW141400   0.417   2.390  25.324
 9924SOL    HW241401   0.347   2.496  25.241
 9925SOL     OW41402   1.552   4.181  25.077
 9925SOL    HW141403   1.500   4.261  25.075
 9925SOL    HW241404   1.501   4.117  25.028
 9926SOL     OW41405   1.725   0.306  25.680
 9926SOL    HW141406   1.741   0.212  25.691
 9926SOL    HW241407   1.668   0.312  25.604
 9927SOL     OW41408   1.974   1.927   5.663
 9927SOL    HW141409   1.886   1.903   5.633
 9927SOL    HW241410   1.989   1.870   5.739
 9928SOL     OW41411   0.360   3.328  22.282
 9928SOL    HW141412   0.388   3.249  22.237
 9928SOL    HW241413   0.433   3.389  22.272
 9929SOL     OW41414   1.654   3.922  18.285
 9929SOL    HW141415   1.721   3.862  18.318
 9929SOL    HW241416   1.689   3.954  18.202
 9930SOL     OW41417   3.143   1.862  28.251
 9930SOL    HW141418   3.122   1.783  28.201
 9930SOL    HW241419   3.187   1.920  28.188
 9931SOL     OW41420   1.893   2.585  11.438
 9931SOL    HW141421   1.842   2.597  11.518
 9931SOL    HW241422   1.911   2.491  11.434
 9932SOL     OW41423   0.333   1.630   3.806
 9932SOL    HW141424   0.415   1.604   3.764
 9932SOL    HW241425   0.309   1.712   3.763
 9933SOL     OW41426   3.347   0.154  19.788
 9933SOL    HW141427   3.308   0.232  19.827
 9933SOL    HW241428   3.437   0.154  19.820
 9934SOL     OW41429   0.354   0.594   5.589
 9934SOL    HW141430   0.386   0.535   5.521
 9934SOL    HW241431   0.340   0.538   5.665
 9935SOL     OW41432   0.173   4.275   4.305
 9935SOL    HW141433   0.248   4.226   4.340
 9935SOL    HW241434   0.211   4.355   4.269
 9936SOL     OW41435   3.402   1.787   7.975
 9936SOL    HW141436   3.475   1.830   7.930
 9936SOL    HW241437   3.395   1.833   8.058
 9937SOL     OW41438   1.602   4.140   0.092
 9937SOL    HW141439   1.680   4.127   0.146
 9937SOL    HW241440   1.594   4.235   0.085
 9938SOL     OW41441   3.146   0.689  26.586
 9938SOL    HW141442   3.114   0.750  26.519
 9938SOL    HW241443   3.237   0.672  26.561
 9939SOL     OW41444   0.130   0.825  28.041
 9939SOL    HW141445   0.087   0.778  28.113
 9939SOL    HW241446   0.154   0.756  27.979
 9940SOL     OW41447   4.379   0.326   4.756
 9940SOL    HW141448   4.428   0.273   4.819
 9940SOL    HW241449   4.414   0.300   4.671
 9941SOL     OW41450   0.589   0.108   1.629
 9941SOL    HW141451   0.622   0.029   1.586
 9941SOL    HW241452   0.659   0.172   1.619
 9942SOL     OW41453   1.246   1.449  26.251
 9942SOL    HW141454   1.219   1.532  26.289
 9942SOL    HW241455   1.287   1.401  26.323
 9943SOL     OW41456   1.813   1.288   3.290
 9943SOL    HW141457   1.793   1.197   3.310
 9943SOL    HW241458   1.906   1.288   3.267
 9944SOL     OW41459   2.370   2.634  22.242
 9944SOL    HW141460   2.342   2.562  22.185
 9944SOL    HW241461   2.364   2.712  22.187
 9945SOL     OW41462   0.517   1.804  27.654
 9945SOL    HW141463   0.517   1.806  27.750
 9945SOL    HW241464   0.489   1.892  27.628
 9946SOL     OW41465   2.650   4.342  10.334
 9946SOL    HW141466   2.616   4.381  10.414
 9946SOL    HW241467   2.586   4.274  10.311
 9947SOL     OW41468   1.211   3.955  24.669
 9947SOL    HW141469   1.218   3.942  24.574
 9947SOL    HW241470   1.223   3.868  24.706
 9948SOL     OW41471   4.600   3.175   0.363
 9948SOL    HW141472   4.651   3.242   0.410
 9948SOL    HW241473   4.602   3.099   0.421
 9949SOL     OW41474   2.795   3.774  23.609
 9949SOL    HW141475   2.778   3.757  23.701
 9949SOL    HW241476   2.714   3.750  23.564
 9950SOL     OW41477   2.440   0.194  28.130
 9950SOL    HW141478   2.399   0.163  28.211
 9950SOL    HW241479   2.457   0.287  28.146
 9951SOL     OW41480   0.964   3.357   1.318
 9951SOL    HW141481   1.017   3.360   1.397
 9951SOL    HW241482   0.917   3.274   1.323
 9952SOL     OW41483   4.334   3.465  22.604
 9952SOL    HW141484   4.405   3.426  22.552
 9952SOL    HW241485   4.264   3.399  22.602
 9953SOL     OW41486   3.841   0.167  25.615
 9953SOL    HW141487   3.846   0.207  25.701
 9953SOL    HW241488   3.754   0.191  25.582
 9954SOL     OW41489   0.656   2.049   3.440
 9954SOL    HW141490   0.625   2.139   3.435
 9954SOL    HW241491   0.609   2.011   3.514
 9955SOL     OW41492   3.744   2.707  25.833
 9955SOL    HW141493   3.713   2.787  25.876
 9955SOL    HW241494   3.817   2.677  25.887
 9956SOL     OW41495   3.292   2.906  20.358
 9956SOL    HW141496   3.282   3.001  20.353
 9956SOL    HW241497   3.386   2.892  20.351
 9957SOL     OW41498   0.915   3.714   0.809
 9957SOL    HW141499   0.873   3.799   0.822
 9957SOL    HW241500   0.907   3.670   0.894
 9958SOL     OW41501   3.595   1.004   8.395
 9958SOL    HW141502   3.648   0.974   8.468
 9958SOL    HW241503   3.604   1.099   8.396
 9959SOL     OW41504   0.957   1.766   8.543
 9959SOL    HW141505   0.984   1.674   8.547
 9959SOL    HW241506   0.980   1.802   8.629
 9960SOL     OW41507   1.653   4.775  23.184
 9960SOL    HW141508   1.739   0.033  23.203
 9960SOL    HW241509   1.596   0.028  23.253
 9961SOL     OW41510   3.587   1.738  23.143
 9961SOL    HW141511   3.585   1.677  23.069
 9961SOL    HW241512   3.589   1.825  23.102
 9962SOL     OW41513   2.860   0.421  27.262
 9962SOL    HW141514   2.890   0.438  27.351
 9962SOL    HW241515   2.895   0.494  27.211
 9963SOL     OW41516   2.176   2.650   0.733
 9963SOL    HW141517   2.174   2.554   0.731
 9963SOL    HW241518   2.180   2.672   0.826
 9964SOL     OW41519   4.460   0.803  23.107
 9964SOL    HW141520   4.395   0.870  23.130
 9964SOL    HW241521   4.409   0.722  23.099
 9965SOL     OW41522   2.411   3.384  22.409
 9965SOL    HW141523   2.432   3.418  22.322
 9965SOL    HW241524   2.471   3.310  22.421
 9966SOL     OW41525   0.875   4.678  18.264
 9966SOL    HW141526   0.858   4.599  18.212
 9966SOL    HW241527   0.885   4.646  18.354
 9967SOL     OW41528   3.069   1.296  10.199
 9967SOL    HW141529   2.977   1.308  10.177
 9967SOL    HW241530   3.075   1.318  10.292
 9968SOL     OW41531   0.424   0.849  21.694
 9968SOL    HW141532   0.439   0.942  21.711
 9968SOL    HW241533   0.491   0.826  21.629
 9969SOL     OW41534   0.423   1.187   2.656
 9969SOL    HW141535   0.432   1.092   2.658
 9969SOL    HW241536   0.368   1.205   2.580
 9970SOL     OW41537   4.307   3.757   4.123
 9970SOL    HW141538   4.221   3.726   4.094
 9970SOL    HW241539   4.342   3.805   4.048
 9971SOL     OW41540   0.587   0.453   0.385
 9971SOL    HW141541   0.497   0.474   0.410
 9971SOL    HW241542   0.592   0.358   0.393
 9972SOL     OW41543   4.767   4.489   0.071
 9972SOL    HW141544   0.042   4.559   0.106
 9972SOL    HW241545   0.017   4.477  28.503
 9973SOL     OW41546   1.421   1.114   9.697
 9973SOL    HW141547   1.336   1.157   9.703
 9973SOL    HW241548   1.483   1.179   9.730
 9974SOL     OW41549   1.919   4.728  26.353
 9974SOL    HW141550   1.907   4.633  26.349
 9974SOL    HW241551   1.837   4.765  26.321
 9975SOL     OW41552   2.991   2.355   9.502
 9975SOL    HW141553   2.932   2.413   9.550
 9975SOL    HW241554   2.934   2.286   9.468
 9976SOL     OW41555   1.859   3.858  20.843
 9976SOL    HW141556   1.770   3.847  20.877
 9976SOL    HW241557   1.858   3.815  20.758
 9977SOL     OW41558   2.527   3.570   8.517
 9977SOL    HW141559   2.560   3.486   8.549
 9977SOL    HW241560   2.564   3.635   8.577
 9978SOL     OW41561   2.573   4.569  18.811
 9978SOL    HW141562   2.659   4.539  18.782
 9978SOL    HW241563   2.520   4.570  18.731
 9979SOL     OW41564   2.695   3.307  24.278
 9979SOL    HW141565   2.676   3.397  24.252
 9979SOL    HW241566   2.686   3.257  24.197
 9980SOL     OW41567   2.450   0.176  23.732
 9980SOL    HW141568   2.487   0.113  23.670
 9980SOL    HW241569   2.370   0.134  23.765
 9981SOL     OW41570   3.963   0.056  23.808
 9981SOL    HW141571   3.870   0.058  23.785
 9981SOL    HW241572   4.001   4.769  23.752
 9982SOL     OW41573   3.234   0.729   7.343
 9982SOL    HW141574   3.273   0.754   7.259
 9982SOL    HW241575   3.153   0.780   7.348
 9983SOL     OW41576   3.218   2.918  19.158
 9983SOL    HW141577   3.270   2.838  19.163
 9983SOL    HW241578   3.156   2.901  19.087
 9984SOL     OW41579   1.269   3.815   8.351
 9984SOL    HW141580   1.197   3.758   8.326
 9984SOL    HW241581   1.319   3.764   8.415
 9985SOL     OW41582   3.280   1.222   2.619
 9985SOL    HW141583   3.275   1.305   2.571
 9985SOL    HW241584   3.361   1.229   2.669
 9986SOL     OW41585   3.963   3.717  20.396
 9986SOL    HW141586   3.936   3.643  20.341
 9986SOL    HW241587   3.900   3.786  20.375
 9987SOL     OW41588   4.115   1.672  10.888
 9987SOL    HW141589   4.034   1.701  10.846
 9987SOL    HW241590   4.086   1.623  10.965
 9988SOL     OW41591   2.561   2.842   4.783
 9988SOL    HW141592   2.639   2.850   4.838
 9988SOL    HW241593   2.540   2.932   4.759
 9989SOL     OW41594   2.837   0.237  10.709
 9989SOL    HW141595   2.875   0.177  10.773
 9989SOL    HW241596   2.765   0.279  10.756
 9990SOL     OW41597   2.779   1.659   9.794
 9990SOL    HW141598   2.823   1.577   9.770
 9990SOL    HW241599   2.691   1.632   9.819
 9991SOL     OW41600   2.615   4.669  24.358
 9991SOL    HW141601   2.542   4.721  24.392
 9991SOL    HW241602   2.596   4.660  24.265
 9992SOL     OW41603   1.958   4.099  20.804
 9992SOL    HW141604   2.041   4.081  20.760
 9992SOL    HW241605   1.915   4.014  20.809
 9993SOL     OW41606   4.505   3.955  24.067
 9993SOL    HW141607   4.430   4.001  24.104
 9993SOL    HW241608   4.509   3.986  23.976
 9994SOL     OW41609   1.680   3.101   8.168
 9994SOL    HW141610   1.655   3.014   8.138
 9994SOL    HW241611   1.730   3.138   8.095
 9995SOL     OW41612   1.484   2.497   0.088
 9995SOL    HW141613   1.551   2.528   0.028
 9995SOL    HW241614   1.493   2.402   0.087
 9996SOL     OW41615   0.778   3.832  24.353
 9996SOL    HW141616   0.695   3.799  24.388
 9996SOL    HW241617   0.753   3.902  24.293
 9997SOL     OW41618   0.213   2.047   6.137
 9997SOL    HW141619   0.227   2.093   6.054
 9997SOL    HW241620   0.294   1.997   6.151
 9998SOL     OW41621   3.930   2.499   1.462
 9998SOL    HW141622   4.019   2.517   1.433
 9998SOL    HW241623   3.925   2.403   1.464
 9999SOL     OW41624   3.760   4.418   8.137
 9999SOL    HW141625   3.778   4.376   8.221
 9999SOL    HW241626   3.836   4.397   8.083
10000SOL     OW41627   0.143   0.573  26.783
10000SOL    HW141628   0.203   0.647  26.783
10000SOL    HW241629   0.199   0.496  26.771
10001SOL     OW41630   3.949   3.046  11.596
10001SOL    HW141631   4.008   3.109  11.638
10001SOL    HW241632   3.975   2.961  11.633
10002SOL     OW41633   3.056   2.113  11.268
10002SOL    HW141634   3.119   2.170  11.312
10002SOL    HW241635   3.109   2.046  11.226
10003SOL     OW41636   1.319   0.995   5.684
10003SOL    HW141637   1.342   0.922   5.741
10003SOL    HW241638   1.225   1.008   5.699
10004SOL     OW41639   2.229   4.570   1.890
10004SOL    HW141640   2.171   4.613   1.952
10004SOL    HW241641   2.191   4.483   1.878
10005SOL     OW41642   0.077   1.807  26.240
10005SOL    HW141643   0.155   1.814  26.296
10005SOL    HW241644   0.066   1.713  26.225
10006SOL     OW41645   0.897   2.495  21.920
10006SOL    HW141646   0.908   2.575  21.868
10006SOL    HW241647   0.949   2.429  21.875
10007SOL     OW41648   3.055   4.602  22.271
10007SOL    HW141649   3.016   4.548  22.340
10007SOL    HW241650   3.122   4.654  22.315
10008SOL     OW41651   0.951   0.436  21.002
10008SOL    HW141652   1.039   0.433  20.965
10008SOL    HW241653   0.913   0.516  20.967
10009SOL     OW41654   2.643   3.711  23.244
10009SOL    HW141655   2.643   3.691  23.338
10009SOL    HW241656   2.555   3.686  23.214
10010SOL     OW41657   3.011   4.601   5.100
10010SOL    HW141658   3.052   4.515   5.091
10010SOL    HW241659   2.935   4.585   5.156
10011SOL     OW41660   4.477   3.117   6.837
10011SOL    HW141661   4.433   3.081   6.914
10011SOL    HW241662   4.551   3.166   6.873
10012SOL     OW41663   0.015   1.537   2.428
10012SOL    HW141664   4.765   1.564   2.514
10012SOL    HW241665   0.022   1.618   2.378
10013SOL     OW41666   4.544   4.725   5.683
10013SOL    HW141667   4.541   0.023   5.629
10013SOL    HW241668   4.608   4.669   5.640
10014SOL     OW41669   4.228   1.320  18.695
10014SOL    HW141670   4.281   1.347  18.620
10014SOL    HW241671   4.271   1.361  18.770
10015SOL     OW41672   4.140   2.889   7.230
10015SOL    HW141673   4.076   2.822   7.205
10015SOL    HW241674   4.197   2.845   7.294
10016SOL     OW41675   3.544   3.867  27.534
10016SOL    HW141676   3.632   3.837  27.558
10016SOL    HW241677   3.542   3.959  27.560
10017SOL     OW41678   1.925   4.439  22.048
10017SOL    HW141679   1.932   4.510  21.984
10017SOL    HW241680   1.831   4.424  22.058
10018SOL     OW41681   1.543   2.678  23.388
10018SOL    HW141682   1.568   2.644  23.474
10018SOL    HW241683   1.550   2.603  23.329
10019SOL     OW41684   0.616   2.906   9.105
10019SOL    HW141685   0.608   2.814   9.129
10019SOL    HW241686   0.705   2.929   9.131
10020SOL     OW41687   3.613   4.770  17.475
10020SOL    HW141688   3.623   4.728  17.560
10020SOL    HW241689   3.648   4.706  17.412
10021SOL     OW41690   2.789   3.148   3.998
10021SOL    HW141691   2.874   3.122   3.962
10021SOL    HW241692   2.811   3.213   4.065
10022SOL     OW41693   2.766   1.331  26.701
10022SOL    HW141694   2.685   1.381  26.695
10022SOL    HW241695   2.746   1.260  26.762
10023SOL     OW41696   3.232   3.579  26.821
10023SOL    HW141697   3.150   3.597  26.867
10023SOL    HW241698   3.296   3.635  26.865
10024SOL     OW41699   4.384   2.684  18.412
10024SOL    HW141700   4.428   2.709  18.330
10024SOL    HW241701   4.307   2.635  18.384
10025SOL     OW41702   3.761   0.761   0.095
10025SOL    HW141703   3.773   0.672   0.128
10025SOL    HW241704   3.767   0.816   0.173
10026SOL     OW41705   1.980   1.161  19.521
10026SOL    HW141706   2.027   1.125  19.446
10026SOL    HW241707   1.928   1.088  19.555
10027SOL     OW41708   4.719   3.932   9.874
10027SOL    HW141709   4.741   3.924   9.967
10027SOL    HW241710   0.002   3.994   9.839
10028SOL     OW41711   3.530   3.916   0.765
10028SOL    HW141712   3.476   3.991   0.789
10028SOL    HW241713   3.572   3.942   0.683
10029SOL     OW41714   1.202   0.252   2.981
10029SOL    HW141715   1.200   0.336   3.028
10029SOL    HW241716   1.295   0.228   2.979
10030SOL     OW41717   2.748   0.062  23.354
10030SOL    HW141718   2.793   0.139  23.319
10030SOL    HW241719   2.813   4.773  23.348
10031SOL     OW41720   0.931   0.673   4.369
10031SOL    HW141721   1.010   0.713   4.405
10031SOL    HW241722   0.898   0.617   4.440
10032SOL     OW41723   4.699   4.209   7.274
10032SOL    HW141724   4.621   4.210   7.218
10032SOL    HW241725   4.689   4.286   7.331
10033SOL     OW41726   1.652   4.268   7.410
10033SOL    HW141727   1.644   4.193   7.469
10033SOL    HW241728   1.744   4.269   7.385
10034SOL     OW41729   1.052   2.455   0.768
10034SOL    HW141730   1.108   2.442   0.845
10034SOL    HW241731   1.077   2.541   0.735
10035SOL     OW41732   2.262   4.761   6.078
10035SOL    HW141733   2.269   0.062   6.028
10035SOL    HW241734   2.212   0.004   6.156
10036SOL     OW41735   3.391   3.340  24.967
10036SOL    HW141736   3.307   3.376  24.940
10036SOL    HW241737   3.397   3.358  25.061
10037SOL     OW41738   3.679   2.971   1.994
10037SOL    HW141739   3.650   2.946   2.082
10037SOL    HW241740   3.673   3.067   1.993
10038SOL     OW41741   4.531   1.576   4.892
10038SOL    HW141742   4.453   1.577   4.947
10038SOL    HW241743   4.503   1.535   4.810
10039SOL     OW41744   4.121   2.551   0.607
10039SOL    HW141745   4.189   2.617   0.592
10039SOL    HW241746   4.067   2.588   0.677
10040SOL     OW41747   3.264   2.299  18.542
10040SOL    HW141748   3.350   2.337  18.559
10040SOL    HW241749   3.230   2.349  18.468
10041SOL     OW41750   3.464   2.864   1.447
10041SOL    HW141751   3.478   2.863   1.352
10041SOL    HW241752   3.382   2.816   1.459
10042SOL     OW41753   4.549   2.178  22.005
10042SOL    HW141754   4.508   2.260  21.978
10042SOL    HW241755   4.642   2.192  21.989
10043SOL     OW41756   1.107   2.932  26.270
10043SOL    HW141757   1.119   2.944  26.364
10043SOL    HW241758   1.049   2.856  26.263
10044SOL     OW41759   1.316   3.858  26.800
10044SOL    HW141760   1.344   3.933  26.748
10044SOL    HW241761   1.309   3.892  26.889
10045SOL     OW41762   2.176   1.559   5.498
10045SOL    HW141763   2.235   1.620   5.542
10045SOL    HW241764   2.233   1.504   5.444
10046SOL     OW41765   3.866   2.263  26.272
10046SOL    HW141766   3.921   2.189  26.298
10046SOL    HW241767   3.815   2.229  26.199
10047SOL     OW41768   0.237   0.440  21.342
10047SOL    HW141769   0.297   0.403  21.407
10047SOL    HW241770   0.293   0.463  21.268
10048SOL     OW41771   4.149   3.809  21.334
10048SOL    HW141772   4.088   3.787  21.405
10048SOL    HW241773   4.183   3.725  21.304
10049SOL     OW41774   4.073   1.280  27.151
10049SOL    HW141775   4.001   1.217  27.150
10049SOL    HW241776   4.058   1.336  27.075
10050SOL     OW41777   3.378   0.216   6.781
10050SOL    HW141778   3.469   0.243   6.793
10050SOL    HW241779   3.351   0.258   6.700
10051SOL     OW41780   2.243   1.298  24.069
10051SOL    HW141781   2.167   1.357  24.071
10051SOL    HW241782   2.216   1.226  24.012
10052SOL     OW41783   3.560   0.806  21.947
10052SOL    HW141784   3.510   0.741  21.898
10052SOL    HW241785   3.647   0.766  21.957
10053SOL     OW41786   3.966   1.722  24.649
10053SOL    HW141787   4.025   1.661  24.693
10053SOL    HW241788   3.889   1.726  24.706
10054SOL     OW41789   0.574   1.290  28.405
10054SOL    HW141790   0.506   1.358  28.405
10054SOL    HW241791   0.525   1.208  28.407
10055SOL     OW41792   1.060   3.869  20.576
10055SOL    HW141793   1.059   3.813  20.653
10055SOL    HW241794   1.008   3.946  20.601
10056SOL     OW41795   1.081   4.618  27.889
10056SOL    HW141796   1.021   4.692  27.885
10056SOL    HW241797   1.159   4.653  27.933
10057SOL     OW41798   2.768   1.487  27.966
10057SOL    HW141799   2.811   1.513  28.048
10057SOL    HW241800   2.763   1.392  27.971
10058SOL     OW41801   1.060   2.131   4.408
10058SOL    HW141802   1.105   2.111   4.326
10058SOL    HW241803   1.117   2.195   4.451
10059SOL     OW41804   3.672   1.438   3.414
10059SOL    HW141805   3.601   1.445   3.351
10059SOL    HW241806   3.725   1.365   3.382
10060SOL     OW41807   3.853   3.083   0.021
10060SOL    HW141808   3.917   3.083   0.092
10060SOL    HW241809   3.868   3.000  28.498
10061SOL     OW41810   0.275   2.132  24.653
10061SOL    HW141811   0.244   2.126  24.563
10061SOL    HW241812   0.367   2.157  24.645
10062SOL     OW41813   2.640   4.753   5.903
10062SOL    HW141814   2.696   4.712   5.969
10062SOL    HW241815   2.566   4.693   5.894
10063SOL     OW41816   3.932   4.712   7.774
10063SOL    HW141817   3.939   0.024   7.795
10063SOL    HW241818   3.901   4.711   7.683
10064SOL     OW41819   3.984   4.392  25.843
10064SOL    HW141820   4.075   4.388  25.872
10064SOL    HW241821   3.954   4.479  25.869
10065SOL     OW41822   3.253   0.858   5.991
10065SOL    HW141823   3.189   0.895   5.930
10065SOL    HW241824   3.288   0.934   6.038
10066SOL     OW41825   1.264   3.795   1.076
10066SOL    HW141826   1.277   3.745   1.157
10066SOL    HW241827   1.239   3.729   1.011
10067SOL     OW41828   4.177   1.702  19.554
10067SOL    HW141829   4.112   1.640  19.587
10067SOL    HW241830   4.174   1.775  19.616
10068SOL     OW41831   3.693   0.187   7.833
10068SOL    HW141832   3.679   0.138   7.752
10068SOL    HW241833   3.605   0.200   7.869
10069SOL     OW41834   1.944   3.992   6.341
10069SOL    HW141835   2.019   4.043   6.373
10069SOL    HW241836   1.867   4.043   6.366
10070SOL     OW41837   3.672   0.322  27.551
10070SOL    HW141838   3.579   0.337  27.534
10070SOL    HW241839   3.712   0.409  27.545
10071SOL     OW41840   1.814   3.886   8.980
10071SOL    HW141841   1.889   3.871   8.922
10071SOL    HW241842   1.760   3.808   8.971
10072SOL     OW41843   3.486   1.490  23.851
10072SOL    HW141844   3.508   1.523  23.938
10072SOL    HW241845   3.412   1.543  23.822
10073SOL     OW41846   1.681   2.125  28.228
10073SOL    HW141847   1.594   2.100  28.259
10073SOL    HW241848   1.710   2.192  28.290
10074SOL     OW41849   3.520   1.260   2.172
10074SOL    HW141850   3.514   1.179   2.222
10074SOL    HW241851   3.430   1.278   2.144
10075SOL     OW41852   4.299   0.039   9.269
10075SOL    HW141853   4.277   0.113   9.325
10075SOL    HW241854   4.374   0.068   9.218
10076SOL     OW41855   0.888   3.582   1.651
10076SOL    HW141856   0.982   3.564   1.659
10076SOL    HW241857   0.883   3.656   1.590
10077SOL     OW41858   2.452   2.136  19.136
10077SOL    HW141859   2.397   2.079  19.082
10077SOL    HW241860   2.431   2.111  19.226
10078SOL     OW41861   0.135   0.148   6.918
10078SOL    HW141862   0.198   0.192   6.862
10078SOL    HW241863   0.110   0.070   6.869
10079SOL     OW41864   2.085   0.998   4.051
10079SOL    HW141865   1.999   1.020   4.086
10079SOL    HW241866   2.068   0.969   3.961
10080SOL     OW41867   4.322   2.739  20.897
10080SOL    HW141868   4.366   2.790  20.965
10080SOL    HW241869   4.358   2.651  20.907
10081SOL     OW41870   1.647   1.386   6.979
10081SOL    HW141871   1.638   1.302   6.935
10081SOL    HW241872   1.714   1.433   6.928
10082SOL     OW41873   2.169   0.824  25.368
10082SOL    HW141874   2.139   0.763  25.435
10082SOL    HW241875   2.096   0.884  25.355
10083SOL     OW41876   3.575   4.599   3.201
10083SOL    HW141877   3.665   4.609   3.170
10083SOL    HW241878   3.528   4.673   3.162
10084SOL     OW41879   2.794   0.037   8.728
10084SOL    HW141880   2.846   0.100   8.778
10084SOL    HW241881   2.729   0.005   8.790
10085SOL     OW41882   3.680   1.986  27.623
10085SOL    HW141883   3.739   2.046  27.578
10085SOL    HW241884   3.729   1.904  27.629
10086SOL     OW41885   0.696   4.604   7.870
10086SOL    HW141886   0.686   4.569   7.782
10086SOL    HW241887   0.739   4.534   7.919
10087SOL     OW41888   1.223   3.100  21.793
10087SOL    HW141889   1.286   3.104  21.865
10087SOL    HW241890   1.266   3.047  21.726
10088SOL     OW41891   3.564   4.236   0.844
10088SOL    HW141892   3.640   4.190   0.878
10088SOL    HW241893   3.506   4.247   0.920
10089SOL     OW41894   0.481   4.089   6.113
10089SOL    HW141895   0.404   4.142   6.092
10089SOL    HW241896   0.462   4.053   6.200
10090SOL     OW41897   0.984   1.414   0.582
10090SOL    HW141898   0.978   1.491   0.526
10090SOL    HW241899   1.008   1.343   0.522
10091SOL     OW41900   2.964   0.622  28.095
10091SOL    HW141901   3.013   0.603  28.015
10091SOL    HW241902   2.997   0.707  28.124
10092SOL     OW41903   3.621   4.621   0.582
10092SOL    HW141904   3.647   4.586   0.497
10092SOL    HW241905   3.569   4.699   0.562
10093SOL     OW41906   4.676   0.253  19.131
10093SOL    HW141907   4.715   0.329  19.087
10093SOL    HW241908   4.606   0.224  19.072
10094SOL     OW41909   4.084   2.119   8.186
10094SOL    HW141910   4.128   2.200   8.213
10094SOL    HW241911   4.025   2.146   8.115
10095SOL     OW41912   4.296   1.351  20.018
10095SOL    HW141913   4.223   1.289  20.020
10095SOL    HW241914   4.298   1.383  19.928
10096SOL     OW41915   1.363   0.005  27.453
10096SOL    HW141916   1.301   4.718  27.479
10096SOL    HW241917   1.425   4.741  27.396
10097SOL     OW41918   4.331   2.176  25.257
10097SOL    HW141919   4.342   2.170  25.162
10097SOL    HW241920   4.251   2.127  25.275
10098SOL     OW41921   0.321   2.998  28.325
10098SOL    HW141922   0.257   2.934  28.293
10098SOL    HW241923   0.365   2.954  28.398
10099SOL     OW41924   1.821   2.398  20.206
10099SOL    HW141925   1.742   2.451  20.211
10099SOL    HW241926   1.868   2.433  20.130
10100SOL     OW41927   0.432   0.037   0.111
10100SOL    HW141928   0.464   4.741   0.064
10100SOL    HW241929   0.486   0.042   0.189
10101SOL     OW41930   4.380   3.688   1.748
10101SOL    HW141931   4.430   3.611   1.774
10101SOL    HW241932   4.354   3.728   1.831
10102SOL     OW41933   1.449   0.812   8.645
10102SOL    HW141934   1.475   0.739   8.701
10102SOL    HW241935   1.354   0.816   8.653
10103SOL     OW41936   1.208   0.343  23.499
10103SOL    HW141937   1.124   0.345  23.544
10103SOL    HW241938   1.187   0.314  23.410
10104SOL     OW41939   0.051   3.025   7.135
10104SOL    HW141940   0.118   2.981   7.187
10104SOL    HW241941   0.031   2.963   7.065
10105SOL     OW41942   4.467   4.744   1.875
10105SOL    HW141943   4.521   0.033   1.911
10105SOL    HW241944   4.529   4.673   1.856
10106SOL     OW41945   2.771   4.521  19.337
10106SOL    HW141946   2.801   4.458  19.403
10106SOL    HW241947   2.832   4.510  19.264
10107SOL     OW41948   2.673   2.668  22.176
10107SOL    HW141949   2.626   2.592  22.211
10107SOL    HW241950   2.621   2.743  22.204
10108SOL     OW41951   4.660   4.608  24.729
10108SOL    HW141952   4.587   4.570  24.680
10108SOL    HW241953   4.649   4.575  24.818
10109SOL     OW41954   0.549   2.532   1.590
10109SOL    HW141955   0.590   2.515   1.675
10109SOL    HW241956   0.568   2.453   1.539
10110SOL     OW41957   0.773   4.123   6.149
10110SOL    HW141958   0.689   4.154   6.115
10110SOL    HW241959   0.751   4.047   6.202
10111SOL     OW41960   2.221   2.881   3.109
10111SOL    HW141961   2.209   2.840   3.023
10111SOL    HW241962   2.245   2.972   3.090
10112SOL     OW41963   1.704   3.507  27.165
10112SOL    HW141964   1.646   3.551  27.104
10112SOL    HW241965   1.792   3.524  27.131
10113SOL     OW41966   2.507   2.959   1.256
10113SOL    HW141967   2.550   3.031   1.210
10113SOL    HW241968   2.578   2.911   1.299
10114SOL     OW41969   3.628   2.579  21.326
10114SOL    HW141970   3.622   2.666  21.288
10114SOL    HW241971   3.582   2.522  21.264
10115SOL     OW41972   1.099   0.504   2.175
10115SOL    HW141973   1.041   0.571   2.212
10115SOL    HW241974   1.040   0.439   2.138
10116SOL     OW41975   4.597   3.007  24.340
10116SOL    HW141976   4.689   3.008  24.312
10116SOL    HW241977   4.559   2.931  24.296
10117SOL     OW41978   4.258   2.892   9.351
10117SOL    HW141979   4.319   2.826   9.383
10117SOL    HW241980   4.240   2.947   9.427
10118SOL     OW41981   1.727   0.678   9.517
10118SOL    HW141982   1.689   0.607   9.569
10118SOL    HW241983   1.775   0.731   9.581
10119SOL     OW41984   0.929   3.680   7.321
10119SOL    HW141985   0.885   3.649   7.401
10119SOL    HW241986   0.913   3.611   7.257
10120SOL     OW41987   0.533   1.518   6.694
10120SOL    HW141988   0.587   1.500   6.771
10120SOL    HW241989   0.589   1.571   6.637
10121SOL     OW41990   0.079   1.677  21.479
10121SOL    HW141991   0.146   1.727  21.432
10121SOL    HW241992   0.057   1.731  21.555
10122SOL     OW41993   1.244   4.765   6.404
10122SOL    HW141994   1.283   0.068   6.428
10122SOL    HW241995   1.183   0.005   6.333
10123SOL     OW41996   3.545   3.503   6.740
10123SOL    HW141997   3.586   3.582   6.774
10123SOL    HW241998   3.483   3.534   6.674
10124SOL     OW41999   3.469   3.764   7.849
10124SOL    HW142000   3.558   3.796   7.865
10124SOL    HW242001   3.476   3.669   7.854
10125SOL     OW42002   4.128   1.157   1.275
10125SOL    HW142003   4.197   1.179   1.338
10125SOL    HW242004   4.176   1.126   1.198
10126SOL     OW42005   1.293   1.123  27.484
10126SOL    HW142006   1.250   1.042  27.510
10126SOL    HW242007   1.284   1.126  27.389
10127SOL     OW42008   3.196   3.984   0.826
10127SOL    HW142009   3.223   4.075   0.816
10127SOL    HW242010   3.112   3.988   0.872
10128SOL     OW42011   4.666   1.812  23.842
10128SOL    HW142012   4.668   1.844  23.752
10128SOL    HW242013   4.587   1.851  23.879
10129SOL     OW42014   4.470   1.640   8.756
10129SOL    HW142015   4.410   1.706   8.790
10129SOL    HW242016   4.515   1.606   8.834
10130SOL     OW42017   4.440   3.119  21.092
10130SOL    HW142018   4.518   3.068  21.070
10130SOL    HW242019   4.372   3.085  21.033
10131SOL     OW42020   1.518   3.984   7.956
10131SOL    HW142021   1.444   3.996   7.897
10131SOL    HW242022   1.507   3.895   7.990
10132SOL     OW42023   3.727   2.654   2.892
10132SOL    HW142024   3.804   2.691   2.934
10132SOL    HW242025   3.715   2.706   2.813
10133SOL     OW42026   3.281   2.917   8.192
10133SOL    HW142027   3.368   2.951   8.213
10133SOL    HW242028   3.258   2.960   8.110
10134SOL     OW42029   0.157   4.311  20.028
10134SOL    HW142030   0.077   4.259  20.035
10134SOL    HW242031   0.221   4.251  19.990
10135SOL     OW42032   1.089   0.248   2.365
10135SOL    HW142033   1.167   0.269   2.313
10135SOL    HW242034   1.083   0.153   2.363
10136SOL     OW42035   2.690   3.290   3.032
10136SOL    HW142036   2.745   3.230   3.083
10136SOL    HW242037   2.617   3.311   3.090
10137SOL     OW42038   2.341   1.822   4.135
10137SOL    HW142039   2.423   1.806   4.182
10137SOL    HW242040   2.327   1.916   4.143
10138SOL     OW42041   1.566   4.344  27.438
10138SOL    HW142042   1.501   4.275  27.421
10138SOL    HW242043   1.615   4.313  27.514
10139SOL     OW42044   3.657   3.884   7.199
10139SOL    HW142045   3.674   3.906   7.291
10139SOL    HW242046   3.593   3.813   7.203
10140SOL     OW42047   4.254   3.145  21.921
10140SOL    HW142048   4.237   3.085  21.849
10140SOL    HW242049   4.341   3.181  21.903
10141SOL     OW42050   1.858   1.778   8.781
10141SOL    HW142051   1.885   1.686   8.788
10141SOL    HW242052   1.849   1.793   8.687
10142SOL     OW42053   2.027   2.797   5.561
10142SOL    HW142054   2.019   2.887   5.530
10142SOL    HW242055   2.084   2.803   5.637
10143SOL     OW42056   4.152   3.466  27.390
10143SOL    HW142057   4.059   3.461  27.367
10143SOL    HW242058   4.197   3.461  27.306
10144SOL     OW42059   0.780   1.034  21.651
10144SOL    HW142060   0.735   1.062  21.571
10144SOL    HW242061   0.776   0.938  21.648
10145SOL     OW42062   2.715   1.584   2.829
10145SOL    HW142063   2.762   1.503   2.848
10145SOL    HW242064   2.688   1.616   2.915
10146SOL     OW42065   4.545   3.436  20.742
10146SOL    HW142066   4.544   3.419  20.836
10146SOL    HW242067   4.478   3.503  20.728
10147SOL     OW42068   1.689   1.992   6.005
10147SOL    HW142069   1.597   1.969   6.019
10147SOL    HW242070   1.738   1.923   6.049
10148SOL     OW42071   3.498   2.088   8.900
10148SOL    HW142072   3.495   2.009   8.954
10148SOL    HW242073   3.591   2.109   8.894
10149SOL     OW42074   2.200   2.459  19.875
10149SOL    HW142075   2.163   2.471  19.788
10149SOL    HW242076   2.247   2.376  19.870
10150SOL     OW42077   1.775   3.843   1.570
10150SOL    HW142078   1.723   3.919   1.596
10150SOL    HW242079   1.792   3.796   1.652
10151SOL     OW42080   2.365   3.454  23.548
10151SOL    HW142081   2.435   3.403  23.508
10151SOL    HW242082   2.294   3.391  23.561
10152SOL     OW42083   2.453   0.789   0.168
10152SOL    HW142084   2.377   0.804   0.112
10152SOL    HW242085   2.429   0.828   0.252
10153SOL     OW42086   2.888   2.893   1.907
10153SOL    HW142087   2.814   2.852   1.862
10153SOL    HW242088   2.965   2.845   1.875
10154SOL     OW42089   4.584   1.694  10.991
10154SOL    HW142090   4.528   1.672  10.917
10154SOL    HW242091   4.544   1.773  11.029
10155SOL     OW42092   3.810   0.150   8.611
10155SOL    HW142093   3.803   0.096   8.532
10155SOL    HW242094   3.875   0.105   8.665
10156SOL     OW42095   4.710   4.301   8.880
10156SOL    HW142096   4.705   4.207   8.865
10156SOL    HW242097   4.713   4.339   8.792
10157SOL     OW42098   1.743   2.742  26.233
10157SOL    HW142099   1.752   2.775  26.322
10157SOL    HW242100   1.809   2.789  26.183
10158SOL     OW42101   3.591   2.227   5.150
10158SOL    HW142102   3.597   2.160   5.081
10158SOL    HW242103   3.677   2.226   5.192
10159SOL     OW42104   4.299   3.571  26.772
10159SOL    HW142105   4.214   3.573  26.728
10159SOL    HW242106   4.313   3.479  26.795
10160SOL     OW42107   3.894   0.464   7.690
10160SOL    HW142108   3.823   0.503   7.741
10160SOL    HW242109   3.968   0.461   7.750
10161SOL     OW42110   2.029   1.131  11.038
10161SOL    HW142111   2.022   1.224  11.058
10161SOL    HW242112   2.024   1.127  10.943
10162SOL     OW42113   4.080   2.298  11.813
10162SOL    HW142114   4.097   2.232  11.880
10162SOL    HW242115   4.113   2.380  11.851
10163SOL     OW42116   3.879   3.630   2.575
10163SOL    HW142117   3.817   3.567   2.613
10163SOL    HW242118   3.949   3.637   2.640
10164SOL     OW42119   2.736   2.127  24.865
10164SOL    HW142120   2.749   2.074  24.786
10164SOL    HW242121   2.802   2.095  24.927
10165SOL     OW42122   3.538   1.092   7.681
10165SOL    HW142123   3.604   1.127   7.741
10165SOL    HW242124   3.588   1.047   7.613
10166SOL     OW42125   3.257   1.012  26.634
10166SOL    HW142126   3.171   1.046  26.660
10166SOL    HW242127   3.258   0.921  26.665
10167SOL     OW42128   4.258   1.511  21.935
10167SOL    HW142129   4.198   1.534  21.864
10167SOL    HW242130   4.207   1.454  21.993
10168SOL     OW42131   2.259   3.732   6.963
10168SOL    HW142132   2.184   3.729   6.904
10168SOL    HW242133   2.330   3.770   6.911
10169SOL     OW42134   4.009   1.329   7.055
10169SOL    HW142135   3.965   1.253   7.094
10169SOL    HW242136   4.054   1.294   6.978
10170SOL     OW42137   2.917   0.193  19.845
10170SOL    HW142138   2.884   0.164  19.930
10170SOL    HW242139   2.854   0.158  19.782
10171SOL     OW42140   1.379   4.507  25.273
10171SOL    HW142141   1.474   4.511  25.287
10171SOL    HW242142   1.341   4.545  25.352
10172SOL     OW42143   3.556   4.417   4.668
10172SOL    HW142144   3.614   4.381   4.736
10172SOL    HW242145   3.578   4.510   4.664
10173SOL     OW42146   0.450   3.016  26.822
10173SOL    HW142147   0.536   2.974  26.812
10173SOL    HW242148   0.387   2.945  26.812
10174SOL     OW42149   3.203   4.774   4.746
10174SOL    HW142150   3.297   4.774   4.763
10174SOL    HW242151   3.195   4.750   4.654
10175SOL     OW42152   2.479   3.962   7.955
10175SOL    HW142153   2.390   3.988   7.931
10175SOL    HW242154   2.499   3.889   7.897
10176SOL     OW42155   2.775   3.446   5.420
10176SOL    HW142156   2.863   3.471   5.447
10176SOL    HW242157   2.787   3.402   5.336
10177SOL     OW42158   1.206   1.638   0.001
10177SOL    HW142159   1.120   1.646  28.482
10177SOL    HW242160   1.202   1.556   0.051
10178SOL     OW42161   1.809   0.418  12.096
10178SOL    HW142162   1.727   0.369  12.094
10178SOL    HW242163   1.861   0.376  12.165
10179SOL     OW42164   2.466   0.535  11.479
10179SOL    HW142165   2.375   0.527  11.506
10179SOL    HW242166   2.494   0.620  11.512
10180SOL     OW42167   1.587   1.698  24.248
10180SOL    HW142168   1.590   1.603  24.235
10180SOL    HW242169   1.678   1.726  24.241
10181SOL     OW42170   4.725   1.204   8.128
10181SOL    HW142171   4.643   1.226   8.084
10181SOL    HW242172   0.009   1.264   8.090
10182SOL     OW42173   4.675   2.542   5.772
10182SOL    HW142174   4.746   2.532   5.835
10182SOL    HW242175   4.595   2.535   5.825
10183SOL     OW42176   3.403   4.007  23.162
10183SOL    HW142177   3.441   3.951  23.094
10183SOL    HW242178   3.317   4.031  23.129
10184SOL     OW42179   2.129   3.659   3.266
10184SOL    HW142180   2.164   3.599   3.332
10184SOL    HW242181   2.050   3.695   3.307
10185SOL     OW42182   4.082   2.138   0.168
10185SOL    HW142183   4.089   2.182   0.253
10185SOL    HW242184   4.172   2.112   0.147
10186SOL     OW42185   2.545   2.347  18.590
10186SOL    HW142186   2.577   2.398  18.665
10186SOL    HW242187   2.459   2.316  18.618
10187SOL     OW42188   1.405   3.076  25.074
10187SOL    HW142189   1.417   3.171  25.066
10187SOL    HW242190   1.449   3.053  25.156
10188SOL     OW42191   3.022   4.770  25.094
10188SOL    HW142192   2.964   4.698  25.118
10188SOL    HW242193   2.974   0.036  25.026
10189SOL     OW42194   2.579   2.354   3.861
10189SOL    HW142195   2.576   2.448   3.845
10189SOL    HW242196   2.569   2.315   3.774
10190SOL     OW42197   3.750   3.795  22.249
10190SOL    HW142198   3.714   3.882  22.268
10190SOL    HW242199   3.702   3.765  22.172
10191SOL     OW42200   3.541   1.968  27.298
10191SOL    HW142201   3.559   2.055  27.334
10191SOL    HW242202   3.620   1.946  27.249
10192SOL     OW42203   4.764   0.032   4.338
10192SOL    HW142204   4.778   0.040   4.432
10192SOL    HW242205   0.062   0.070   4.299
10193SOL     OW42206   0.965   0.038  23.960
10193SOL    HW142207   1.000   0.002  23.879
10193SOL    HW242208   1.040   0.042  24.019
10194SOL     OW42209   2.354   3.859   7.250
10194SOL    HW142210   2.358   3.849   7.345
10194SOL    HW242211   2.443   3.841   7.221
10195SOL     OW42212   3.442   0.747   2.451
10195SOL    HW142213   3.519   0.722   2.400
10195SOL    HW242214   3.462   0.835   2.483
10196SOL     OW42215   0.405   2.219   4.718
10196SOL    HW142216   0.411   2.189   4.809
10196SOL    HW242217   0.496   2.224   4.689
10197SOL     OW42218   0.623   3.629   5.873
10197SOL    HW142219   0.664   3.577   5.803
10197SOL    HW242220   0.559   3.569   5.913
10198SOL     OW42221   1.411   3.582   2.875
10198SOL    HW142222   1.469   3.658   2.870
10198SOL    HW242223   1.470   3.507   2.889
10199SOL     OW42224   0.570   4.362   2.800
10199SOL    HW142225   0.489   4.312   2.790
10199SOL    HW242226   0.636   4.297   2.825
10200SOL     OW42227   0.447   0.332  24.456
10200SOL    HW142228   0.471   0.389  24.383
10200SOL    HW242229   0.434   0.246  24.416
10201SOL     OW42230   0.324   2.187   1.547
10201SOL    HW142231   0.397   2.233   1.588
10201SOL    HW242232   0.364   2.110   1.507
10202SOL     OW42233   0.459   1.148   3.701
10202SOL    HW142234   0.419   1.118   3.782
10202SOL    HW242235   0.385   1.172   3.645
10203SOL     OW42236   4.030   0.298  23.896
10203SOL    HW142237   4.077   0.352  23.833
10203SOL    HW242238   3.990   0.229  23.844
10204SOL     OW42239   1.684   4.094   6.512
10204SOL    HW142240   1.655   4.180   6.481
10204SOL    HW242241   1.616   4.034   6.482
10205SOL     OW42242   0.963   1.054  13.317
10205SOL    HW142243   1.048   1.051  13.272
10205SOL    HW242244   0.961   0.974  13.370
10206SOL     OW42245   4.184   0.712   5.249
10206SOL    HW142246   4.209   0.767   5.175
10206SOL    HW242247   4.109   0.661   5.217
10207SOL     OW42248   2.616   2.665   0.694
10207SOL    HW142249   2.530   2.628   0.715
10207SOL    HW242250   2.651   2.693   0.779
10208SOL     OW42251   3.952   3.270  26.777
10208SOL    HW142252   3.896   3.266  26.699
10208SOL    HW242253   3.930   3.191  26.826
10209SOL     OW42254   2.323   3.262   4.027
10209SOL    HW142255   2.275   3.207   4.089
10209SOL    HW242256   2.380   3.316   4.082
10210SOL     OW42257   2.895   3.508   3.954
10210SOL    HW142258   2.908   3.534   4.045
10210SOL    HW242259   2.983   3.492   3.920
10211SOL     OW42260   2.186   0.809   0.039
10211SOL    HW142261   2.132   0.779   0.112
10211SOL    HW242262   2.169   0.903   0.035
10212SOL     OW42263   0.520   4.327  26.784
10212SOL    HW142264   0.505   4.234  26.803
10212SOL    HW242265   0.608   4.330  26.746
10213SOL     OW42266   0.230   1.593  24.032
10213SOL    HW142267   0.250   1.578  23.940
10213SOL    HW242268   0.151   1.648  24.031
10214SOL     OW42269   1.522   4.596  27.336
10214SOL    HW142270   1.460   4.591  27.263
10214SOL    HW242271   1.516   4.510  27.378
10215SOL     OW42272   2.538   0.340  20.950
10215SOL    HW142273   2.608   0.391  20.908
10215SOL    HW242274   2.584   0.278  21.006
10216SOL     OW42275   2.746   0.760  24.641
10216SOL    HW142276   2.766   0.677  24.685
10216SOL    HW242277   2.656   0.779  24.667
10217SOL     OW42278   0.986   2.007  25.676
10217SOL    HW142279   0.922   2.038  25.740
10217SOL    HW242280   0.957   1.919  25.653
10218SOL     OW42281   1.059   3.197   8.562
10218SOL    HW142282   1.093   3.159   8.643
10218SOL    HW242283   1.024   3.282   8.589
10219SOL     OW42284   2.595   0.748   6.193
10219SOL    HW142285   2.671   0.706   6.153
10219SOL    HW242286   2.521   0.693   6.168
10220SOL     OW42287   1.952   0.731   4.673
10220SOL    HW142288   2.014   0.786   4.720
10220SOL    HW242289   1.889   0.704   4.740
10221SOL     OW42290   0.402   2.572  11.156
10221SOL    HW142291   0.401   2.606  11.067
10221SOL    HW242292   0.493   2.583  11.185
10222SOL     OW42293   0.528   4.520  10.853
10222SOL    HW142294   0.481   4.470  10.920
10222SOL    HW242295   0.615   4.534  10.891
10223SOL     OW42296   2.361   1.444  23.480
10223SOL    HW142297   2.346   1.538  23.489
10223SOL    HW242298   2.298   1.416  23.413
10224SOL     OW42299   3.856   3.308  21.599
10224SOL    HW142300   3.847   3.256  21.679
10224SOL    HW242301   3.940   3.282  21.562
10225SOL     OW42302   0.698   1.997   4.520
10225SOL    HW142303   0.668   2.082   4.552
10225SOL    HW242304   0.660   1.934   4.582
10226SOL     OW42305   3.723   2.152   0.981
10226SOL    HW142306   3.641   2.195   1.003
10226SOL    HW242307   3.698   2.061   0.964
10227SOL     OW42308   4.050   0.410  21.830
10227SOL    HW142309   3.977   0.468  21.809
10227SOL    HW242310   4.050   0.346  21.759
10228SOL     OW42311   4.636   1.805   3.479
10228SOL    HW142312   4.623   1.840   3.391
10228SOL    HW242313   4.684   1.873   3.526
10229SOL     OW42314   3.568   4.056   1.383
10229SOL    HW142315   3.597   4.072   1.473
10229SOL    HW242316   3.632   4.103   1.329
10230SOL     OW42317   1.247   4.503   7.105
10230SOL    HW142318   1.209   4.482   7.190
10230SOL    HW242319   1.302   4.427   7.084
10231SOL     OW42320   0.728   2.627  26.382
10231SOL    HW142321   0.730   2.720  26.359
10231SOL    HW242322   0.808   2.591  26.344
10232SOL     OW42323   4.396   1.711  22.081
10232SOL    HW142324   4.481   1.715  22.038
10232SOL    HW242325   4.350   1.640  22.037
10233SOL     OW42326   3.649   4.516  25.667
10233SOL    HW142327   3.646   4.463  25.746
10233SOL    HW242328   3.738   4.550  25.663
10234SOL     OW42329   4.360   2.366   4.460
10234SOL    HW142330   4.270   2.379   4.431
10234SOL    HW242331   4.383   2.279   4.427
10235SOL     OW42332   1.079   4.672  23.094
10235SOL    HW142333   1.071   4.732  23.168
10235SOL    HW242334   0.989   4.651  23.070
10236SOL     OW42335   1.555   0.278  23.740
10236SOL    HW142336   1.615   0.227  23.686
10236SOL    HW242337   1.515   0.214  23.799
10237SOL     OW42338   1.246   0.863  23.525
10237SOL    HW142339   1.151   0.873  23.532
10237SOL    HW242340   1.271   0.819  23.606
10238SOL     OW42341   2.041   0.687  23.726
10238SOL    HW142342   1.953   0.685  23.689
10238SOL    HW242343   2.028   0.672  23.820
10239SOL     OW42344   1.025   3.020  20.461
10239SOL    HW142345   1.079   2.943  20.444
10239SOL    HW242346   0.966   3.024  20.386
10240SOL     OW42347   2.402   0.011   0.332
10240SOL    HW142348   2.465   0.027   0.402
10240SOL    HW242349   2.433   4.712   0.290
10241SOL     OW42350   1.957   2.043  24.929
10241SOL    HW142351   1.928   2.131  24.953
10241SOL    HW242352   1.961   1.996  25.012
10242SOL     OW42353   3.193   3.255  23.857
10242SOL    HW142354   3.131   3.301  23.913
10242SOL    HW242355   3.181   3.163  23.878
10243SOL     OW42356   1.384   0.458   6.254
10243SOL    HW142357   1.428   0.520   6.196
10243SOL    HW242358   1.358   0.510   6.330
10244SOL     OW42359   3.652   0.183  28.190
10244SOL    HW142360   3.666   0.252  28.255
10244SOL    HW242361   3.625   0.107  28.241
10245SOL     OW42362   4.099   3.205  21.479
10245SOL    HW142363   4.114   3.258  21.401
10245SOL    HW242364   4.162   3.133  21.472
10246SOL     OW42365   1.266   1.731   3.385
10246SOL    HW142366   1.261   1.825   3.370
10246SOL    HW242367   1.281   1.723   3.479
10247SOL     OW42368   3.528   4.308  21.811
10247SOL    HW142369   3.469   4.372  21.772
10247SOL    HW242370   3.521   4.231  21.755
10248SOL     OW42371   0.838   1.813   7.284
10248SOL    HW142372   0.853   1.765   7.203
10248SOL    HW242373   0.805   1.898   7.255
10249SOL     OW42374   3.149   3.738  27.050
10249SOL    HW142375   3.083   3.793  27.008
10249SOL    HW242376   3.232   3.767  27.011
10250SOL     OW42377   2.219   1.354   2.270
10250SOL    HW142378   2.137   1.362   2.319
10250SOL    HW242379   2.238   1.443   2.239
10251SOL     OW42380   0.605   4.426  25.083
10251SOL    HW142381   0.588   4.445  24.991
10251SOL    HW242382   0.695   4.395  25.085
10252SOL     OW42383   2.424   0.196   5.532
10252SOL    HW142384   2.403   0.103   5.534
10252SOL    HW242385   2.358   0.236   5.589
10253SOL     OW42386   0.717   1.619  19.648
10253SOL    HW142387   0.697   1.591  19.559
10253SOL    HW242388   0.634   1.611  19.695
10254SOL     OW42389   3.810   0.930  26.041
10254SOL    HW142390   3.767   0.871  26.103
10254SOL    HW242391   3.739   0.961  25.985
10255SOL     OW42392   2.820   3.948  21.712
10255SOL    HW142393   2.775   4.029  21.734
10255SOL    HW242394   2.874   3.929  21.789
10256SOL     OW42395   1.297   2.938  20.892
10256SOL    HW142396   1.255   3.019  20.864
10256SOL    HW242397   1.391   2.954  20.880
10257SOL     OW42398   0.506   3.036  23.122
10257SOL    HW142399   0.469   3.123  23.109
10257SOL    HW242400   0.526   3.032  23.216
10258SOL     OW42401   1.011   4.648  19.896
10258SOL    HW142402   1.061   4.678  19.820
10258SOL    HW242403   0.946   4.587  19.860
10259SOL     OW42404   4.634   2.964  20.992
10259SOL    HW142405   4.622   2.999  20.904
10259SOL    HW242406   4.649   2.870  20.979
10260SOL     OW42407   2.509   0.935   8.095
10260SOL    HW142408   2.536   1.027   8.091
10260SOL    HW242409   2.420   0.935   8.060
10261SOL     OW42410   0.449   0.900   2.596
10261SOL    HW142411   0.422   0.819   2.640
10261SOL    HW242412   0.492   0.871   2.516
10262SOL     OW42413   1.511   0.326  20.892
10262SOL    HW142414   1.477   0.401  20.843
10262SOL    HW242415   1.465   0.328  20.976
10263SOL     OW42416   3.096   1.358   9.009
10263SOL    HW142417   3.183   1.393   8.989
10263SOL    HW242418   3.036   1.430   8.989
10264SOL     OW42419   0.421   4.341  21.410
10264SOL    HW142420   0.440   4.433  21.429
10264SOL    HW242421   0.489   4.292  21.456
10265SOL     OW42422   3.087   2.973  28.382
10265SOL    HW142423   3.089   3.060  28.342
10265SOL    HW242424   3.152   2.978  28.452
10266SOL     OW42425   1.547   0.983   5.887
10266SOL    HW142426   1.576   1.016   5.972
10266SOL    HW242427   1.621   0.998   5.828
10267SOL     OW42428   0.433   3.749  27.933
10267SOL    HW142429   0.474   3.772  27.850
10267SOL    HW242430   0.467   3.662  27.953
10268SOL     OW42431   2.712   0.199   1.487
10268SOL    HW142432   2.633   0.183   1.538
10268SOL    HW242433   2.680   0.225   1.401
10269SOL     OW42434   2.457   2.414   6.446
10269SOL    HW142435   2.399   2.472   6.495
10269SOL    HW242436   2.487   2.467   6.373
10270SOL     OW42437   2.939   4.161   3.419
10270SOL    HW142438   2.891   4.242   3.435
10270SOL    HW242439   3.018   4.168   3.473
10271SOL     OW42440   0.644   0.017   4.401
10271SOL    HW142441   0.685   4.778   4.485
10271SOL    HW242442   0.552   4.776   4.413
10272SOL     OW42443   2.346   1.993   1.836
10272SOL    HW142444   2.253   1.975   1.822
10272SOL    HW242445   2.349   2.045   1.916
10273SOL     OW42446   3.032   0.049   4.954
10273SOL    HW142447   3.044   4.748   5.002
10273SOL    HW242448   3.064   0.030   4.866
10274SOL     OW42449   3.054   2.849   8.362
10274SOL    HW142450   2.997   2.831   8.287
10274SOL    HW242451   3.142   2.854   8.325
10275SOL     OW42452   2.292   3.622  19.892
10275SOL    HW142453   2.369   3.583  19.851
10275SOL    HW242454   2.218   3.573  19.856
10276SOL     OW42455   1.262   1.541   2.207
10276SOL    HW142456   1.277   1.559   2.300
10276SOL    HW242457   1.305   1.457   2.192
10277SOL     OW42458   3.316   4.658  22.365
10277SOL    HW142459   3.357   4.670  22.450
10277SOL    HW242460   3.388   4.664  22.302
10278SOL     OW42461   3.319   4.465   0.931
10278SOL    HW142462   3.299   4.400   0.998
10278SOL    HW242463   3.245   4.459   0.870
10279SOL     OW42464   0.711   3.064   1.535
10279SOL    HW142465   0.738   2.987   1.485
10279SOL    HW242466   0.786   3.083   1.592
10280SOL     OW42467   1.568   2.628  23.662
10280SOL    HW142468   1.473   2.641  23.660
10280SOL    HW242469   1.586   2.592  23.749
10281SOL     OW42470   2.604   2.697   3.431
10281SOL    HW142471   2.654   2.622   3.464
10281SOL    HW242472   2.668   2.748   3.382
10282SOL     OW42473   4.099   1.191   9.392
10282SOL    HW142474   4.020   1.138   9.383
10282SOL    HW242475   4.077   1.275   9.352
10283SOL     OW42476   0.129   4.095   9.744
10283SOL    HW142477   0.106   4.184   9.716
10283SOL    HW242478   0.140   4.047   9.662
10284SOL     OW42479   0.155   1.168  12.324
10284SOL    HW142480   0.075   1.145  12.371
10284SOL    HW242481   0.206   1.087  12.324
10285SOL     OW42482   3.490   4.416  26.592
10285SOL    HW142483   3.466   4.503  26.624
10285SOL    HW242484   3.417   4.360  26.617
10286SOL     OW42485   0.551   3.949   8.441
10286SOL    HW142486   0.483   4.015   8.424
10286SOL    HW242487   0.594   3.936   8.357
10287SOL     OW42488   0.980   4.672  11.738
10287SOL    HW142489   0.929   4.596  11.765
10287SOL    HW242490   1.017   4.706  11.820
10288SOL     OW42491   3.020   0.304  10.533
10288SOL    HW142492   3.101   0.313  10.583
10288SOL    HW242493   2.954   0.283  10.599
10289SOL     OW42494   3.149   1.472   0.288
10289SOL    HW142495   3.212   1.507   0.225
10289SOL    HW242496   3.127   1.385   0.254
10290SOL     OW42497   1.857   1.874  22.144
10290SOL    HW142498   1.873   1.882  22.050
10290SOL    HW242499   1.802   1.796  22.152
10291SOL     OW42500   1.420   1.869  18.968
10291SOL    HW142501   1.403   1.837  18.879
10291SOL    HW242502   1.476   1.802  19.007
10292SOL     OW42503   1.400   3.437  21.995
10292SOL    HW142504   1.401   3.512  22.054
10292SOL    HW242505   1.347   3.372  22.041
10293SOL     OW42506   0.228   4.601   1.143
10293SOL    HW142507   0.237   4.571   1.234
10293SOL    HW242508   0.146   4.562   1.113
10294SOL     OW42509   3.394   0.559   7.508
10294SOL    HW142510   3.437   0.632   7.553
10294SOL    HW242511   3.331   0.601   7.449
10295SOL     OW42512   4.230   2.734  12.348
10295SOL    HW142513   4.162   2.669  12.363
10295SOL    HW242514   4.193   2.816  12.380
10296SOL     OW42515   1.805   0.955   8.140
10296SOL    HW142516   1.838   0.991   8.058
10296SOL    HW242517   1.710   0.967   8.135
10297SOL     OW42518   2.654   1.424   1.005
10297SOL    HW142519   2.609   1.340   1.016
10297SOL    HW242520   2.604   1.470   0.937
10298SOL     OW42521   3.241   2.569  23.842
10298SOL    HW142522   3.238   2.605  23.930
10298SOL    HW242523   3.295   2.631  23.792
10299SOL     OW42524   4.566   3.070  19.018
10299SOL    HW142525   4.643   3.084  18.963
10299SOL    HW242526   4.530   3.158  19.032
10300SOL     OW42527   1.782   1.417   6.358
10300SOL    HW142528   1.711   1.479   6.343
10300SOL    HW242529   1.745   1.353   6.420
10301SOL     OW42530   0.330   4.247  24.816
10301SOL    HW142531   0.327   4.199  24.899
10301SOL    HW242532   0.404   4.307  24.826
10302SOL     OW42533   4.660   0.848  26.709
10302SOL    HW142534   4.632   0.795  26.783
10302SOL    HW242535   4.578   0.880  26.670
10303SOL     OW42536   2.095   0.897   5.083
10303SOL    HW142537   2.096   0.964   5.151
10303SOL    HW242538   2.142   0.823   5.121
10304SOL     OW42539   1.188   2.292  27.272
10304SOL    HW142540   1.101   2.283  27.310
10304SOL    HW242541   1.172   2.310  27.179
10305SOL     OW42542   3.102   0.158   8.195
10305SOL    HW142543   3.156   0.221   8.243
10305SOL    HW242544   3.155   0.135   8.119
10306SOL     OW42545   1.872   2.000  11.475
10306SOL    HW142546   1.813   1.973  11.545
10306SOL    HW242547   1.824   1.980  11.395
10307SOL     OW42548   4.732   2.899   0.216
10307SOL    HW142549   4.735   2.971   0.154
10307SOL    HW242550   4.684   2.934   0.291
10308SOL     OW42551   2.397   4.162  21.954
10308SOL    HW142552   2.311   4.203  21.966
10308SOL    HW242553   2.458   4.219  22.002
10309SOL     OW42554   0.324   4.694  23.375
10309SOL    HW142555   0.236   4.682  23.340
10309SOL    HW242556   0.314   4.760  23.444
10310SOL     OW42557   1.609   0.700   9.903
10310SOL    HW142558   1.566   0.654   9.975
10310SOL    HW242559   1.701   0.676   9.910
10311SOL     OW42560   1.712   3.927  19.763
10311SOL    HW142561   1.801   3.892  19.755
10311SOL    HW242562   1.713   4.008  19.711
10312SOL     OW42563   3.761   0.776   0.965
10312SOL    HW142564   3.839   0.726   0.990
10312SOL    HW242565   3.758   0.848   1.028
10313SOL     OW42566   2.607   3.972   6.503
10313SOL    HW142567   2.702   3.959   6.504
10313SOL    HW242568   2.595   4.063   6.529
10314SOL     OW42569   3.053   0.388  25.797
10314SOL    HW142570   3.043   0.437  25.878
10314SOL    HW242571   2.966   0.353  25.779
10315SOL     OW42572   0.668   0.980   0.969
10315SOL    HW142573   0.732   1.048   0.991
10315SOL    HW242574   0.589   1.029   0.945
10316SOL     OW42575   1.317   0.809  28.488
10316SOL    HW142576   1.337   0.722   0.001
10316SOL    HW242577   1.222   0.818  28.499
10317SOL     OW42578   1.431   3.945   9.578
10317SOL    HW142579   1.415   3.930   9.485
10317SOL    HW242580   1.496   3.880   9.602
10318SOL     OW42581   4.683   0.166   6.099
10318SOL    HW142582   4.701   0.196   6.010
10318SOL    HW242583   4.588   0.167   6.106
10319SOL     OW42584   1.740   0.666   2.924
10319SOL    HW142585   1.652   0.653   2.959
10319SOL    HW242586   1.731   0.741   2.866
10320SOL     OW42587   3.022   0.509  26.768
10320SOL    HW142588   3.061   0.582  26.720
10320SOL    HW242589   2.970   0.462  26.703
10321SOL     OW42590   0.299   1.540   0.284
10321SOL    HW142591   0.307   1.458   0.235
10321SOL    HW242592   0.377   1.590   0.260
10322SOL     OW42593   2.373   2.830  22.035
10322SOL    HW142594   2.296   2.884  22.020
10322SOL    HW242595   2.370   2.764  21.966
10323SOL     OW42596   3.002   0.528  26.309
10323SOL    HW142597   2.913   0.493  26.315
10323SOL    HW242598   3.026   0.549  26.399
10324SOL     OW42599   1.306   2.278   9.002
10324SOL    HW142600   1.385   2.327   9.025
10324SOL    HW242601   1.254   2.340   8.951
10325SOL     OW42602   0.219   3.299   7.326
10325SOL    HW142603   0.130   3.265   7.326
10325SOL    HW242604   0.226   3.350   7.407
10326SOL     OW42605   0.793   0.452   2.831
10326SOL    HW142606   0.823   0.365   2.858
10326SOL    HW242607   0.851   0.513   2.877
10327SOL     OW42608   2.441   4.000   9.870
10327SOL    HW142609   2.399   3.919   9.898
10327SOL    HW242610   2.401   4.068   9.925
10328SOL     OW42611   0.286   3.924  23.189
10328SOL    HW142612   0.212   3.866  23.172
10328SOL    HW242613   0.338   3.878  23.256
10329SOL     OW42614   2.337   3.512   7.576
10329SOL    HW142615   2.248   3.506   7.542
10329SOL    HW242616   2.392   3.518   7.498
10330SOL     OW42617   3.594   1.957  16.890
10330SOL    HW142618   3.642   2.017  16.947
10330SOL    HW242619   3.643   1.957  16.808
10331SOL     OW42620   0.419   1.221  23.048
10331SOL    HW142621   0.445   1.213  22.956
10331SOL    HW242622   0.325   1.237  23.045
10332SOL     OW42623   0.063   3.212   6.507
10332SOL    HW142624   0.108   3.157   6.443
10332SOL    HW242625   4.760   3.169   6.522
10333SOL     OW42626   2.852   4.773   3.785
10333SOL    HW142627   2.808   4.690   3.800
10333SOL    HW242628   2.828   0.017   3.696
10334SOL     OW42629   3.909   2.839  22.246
10334SOL    HW142630   3.958   2.758  22.232
10334SOL    HW242631   3.968   2.895  22.296
10335SOL     OW42632   4.612   2.264   4.148
10335SOL    HW142633   4.658   2.253   4.065
10335SOL    HW242634   4.653   2.201   4.207
10336SOL     OW42635   3.649   0.670   1.637
10336SOL    HW142636   3.688   0.757   1.630
10336SOL    HW242637   3.720   0.614   1.668
10337SOL     OW42638   3.123   4.143   2.951
10337SOL    HW142639   3.062   4.142   3.025
10337SOL    HW242640   3.073   4.107   2.878
10338SOL     OW42641   3.261   2.468  17.973
10338SOL    HW142642   3.238   2.561  17.972
10338SOL    HW242643   3.215   2.432  17.897
10339SOL     OW42644   0.380   1.938  22.615
10339SOL    HW142645   0.452   1.878  22.593
10339SOL    HW242646   0.391   1.955  22.709
10340SOL     OW42647   4.276   2.847  24.728
10340SOL    HW142648   4.235   2.913  24.784
10340SOL    HW242649   4.221   2.769  24.740
10341SOL     OW42650   0.503   4.668   9.141
10341SOL    HW142651   0.580   4.639   9.189
10341SOL    HW242652   0.460   4.730   9.199
10342SOL     OW42653   3.784   0.827   7.721
10342SOL    HW142654   3.775   0.910   7.674
10342SOL    HW242655   3.876   0.804   7.710
10343SOL     OW42656   3.410   0.026   1.076
10343SOL    HW142657   3.461   4.739   1.033
10343SOL    HW242658   3.366   4.762   1.148
10344SOL     OW42659   1.375   1.124  22.122
10344SOL    HW142660   1.291   1.079  22.110
10344SOL    HW242661   1.352   1.215  22.138
10345SOL     OW42662   3.647   3.387  21.299
10345SOL    HW142663   3.727   3.365  21.251
10345SOL    HW242664   3.600   3.447  21.241
10346SOL     OW42665   0.757   3.048   5.109
10346SOL    HW142666   0.745   3.079   5.019
10346SOL    HW242667   0.834   3.094   5.141
10347SOL     OW42668   1.703   1.974  22.355
10347SOL    HW142669   1.757   1.930  22.290
10347SOL    HW242670   1.691   2.062  22.321
10348SOL     OW42671   1.132   4.775   4.535
10348SOL    HW142672   1.162   4.702   4.481
10348SOL    HW242673   1.149   4.747   4.625
10349SOL     OW42674   2.807   0.988  27.937
10349SOL    HW142675   2.830   0.897  27.957
10349SOL    HW242676   2.861   1.010  27.861
10350SOL     OW42677   3.656   3.198  19.435
10350SOL    HW142678   3.626   3.253  19.362
10350SOL    HW242679   3.659   3.257  19.510
10351SOL     OW42680   4.638   0.018   0.669
10351SOL    HW142681   4.706   0.082   0.690
10351SOL    HW242682   4.684   4.715   0.665
10352SOL     OW42683   2.734   4.540   3.819
10352SOL    HW142684   2.727   4.572   3.909
10352SOL    HW242685   2.749   4.446   3.828
10353SOL     OW42686   3.046   0.721  26.940
10353SOL    HW142687   2.970   0.750  26.890
10353SOL    HW242688   3.069   0.636  26.903
10354SOL     OW42689   4.469   2.367  18.753
10354SOL    HW142690   4.530   2.425  18.798
10354SOL    HW242691   4.494   2.279  18.783
10355SOL     OW42692   4.299   3.630   2.712
10355SOL    HW142693   4.217   3.583   2.728
10355SOL    HW242694   4.320   3.670   2.796
10356SOL     OW42695   3.495   0.394   9.239
10356SOL    HW142696   3.514   0.326   9.304
10356SOL    HW242697   3.430   0.354   9.182
10357SOL     OW42698   4.592   4.517  24.451
10357SOL    HW142699   4.557   4.489  24.536
10357SOL    HW242700   4.597   4.612  24.457
10358SOL     OW42701   4.293   3.710   2.005
10358SOL    HW142702   4.324   3.758   2.082
10358SOL    HW242703   4.198   3.716   2.010
10359SOL     OW42704   3.050   2.413   1.416
10359SOL    HW142705   3.017   2.440   1.330
10359SOL    HW242706   3.082   2.494   1.456
10360SOL     OW42707   0.872   0.297  20.609
10360SOL    HW142708   0.875   0.259  20.697
10360SOL    HW242709   0.784   0.334  20.603
10361SOL     OW42710   2.651   2.402  12.473
10361SOL    HW142711   2.566   2.367  12.500
10361SOL    HW242712   2.660   2.484  12.522
10362SOL     OW42713   1.332   3.441   3.439
10362SOL    HW142714   1.304   3.467   3.527
10362SOL    HW242715   1.257   3.393   3.404
10363SOL     OW42716   4.733   3.634   5.912
10363SOL    HW142717   4.762   3.637   6.003
10363SOL    HW242718   4.738   3.542   5.888
10364SOL     OW42719   2.341   2.006  23.193
10364SOL    HW142720   2.392   1.927  23.212
10364SOL    HW242721   2.311   2.036  23.279
10365SOL     OW42722   2.271   1.881  24.210
10365SOL    HW142723   2.202   1.824  24.245
10365SOL    HW242724   2.252   1.967  24.248
10366SOL     OW42725   2.139   1.076  23.930
10366SOL    HW142726   2.184   1.063  24.014
10366SOL    HW242727   2.063   1.018  23.934
10367SOL     OW42728   4.424   1.313   8.860
10367SOL    HW142729   4.493   1.353   8.913
10367SOL    HW242730   4.466   1.292   8.777
10368SOL     OW42731   4.164   2.221  21.076
10368SOL    HW142732   4.110   2.162  21.129
10368SOL    HW242733   4.167   2.303  21.126
10369SOL     OW42734   0.704   0.614  22.467
10369SOL    HW142735   0.617   0.580  22.486
10369SOL    HW242736   0.735   0.649  22.551
10370SOL     OW42737   2.208   3.539  26.899
10370SOL    HW142738   2.242   3.468  26.844
10370SOL    HW242739   2.284   3.570  26.948
10371SOL     OW42740   4.734   3.254   4.084
10371SOL    HW142741   4.750   3.330   4.140
10371SOL    HW242742   4.675   3.199   4.135
10372SOL     OW42743   4.454   4.579   7.751
10372SOL    HW142744   4.461   4.674   7.738
10372SOL    HW242745   4.410   4.570   7.836
10373SOL     OW42746   4.574   1.283  22.592
10373SOL    HW142747   4.665   1.258  22.576
10373SOL    HW242748   4.531   1.201  22.615
10374SOL     OW42749   1.660   4.397  25.310
10374SOL    HW142750   1.651   4.330  25.242
10374SOL    HW242751   1.632   4.353  25.390
10375SOL     OW42752   4.657   1.485  21.457
10375SOL    HW142753   4.698   1.571  21.453
10375SOL    HW242754   4.701   1.434  21.389
10376SOL     OW42755   1.627   3.764   8.319
10376SOL    HW142756   1.606   3.671   8.330
10376SOL    HW242757   1.722   3.766   8.310
10377SOL     OW42758   3.314   3.518  20.309
10377SOL    HW142759   3.275   3.605  20.317
10377SOL    HW242760   3.358   3.519  20.224
10378SOL     OW42761   3.386   3.024   5.604
10378SOL    HW142762   3.372   2.989   5.692
10378SOL    HW242763   3.472   2.991   5.578
10379SOL     OW42764   2.449   2.018  27.424
10379SOL    HW142765   2.476   2.014  27.332
10379SOL    HW242766   2.450   1.927  27.454
10380SOL     OW42767   4.443   4.530   4.349
10380SOL    HW142768   4.532   4.496   4.356
10380SOL    HW242769   4.450   4.621   4.378
10381SOL     OW42770   4.518   1.524  23.785
10381SOL    HW142771   4.449   1.520  23.718
10381SOL    HW242772   4.537   1.617  23.794
10382SOL     OW42773   3.599   2.385   1.179
10382SOL    HW142774   3.536   2.402   1.109
10382SOL    HW242775   3.631   2.471   1.205
10383SOL     OW42776   0.034   3.664  21.911
10383SOL    HW142777   4.721   3.681  21.902
10383SOL    HW242778   0.060   3.713  21.989
10384SOL     OW42779   0.617   3.916   5.624
10384SOL    HW142780   0.701   3.875   5.644
10384SOL    HW242781   0.575   3.927   5.709
10385SOL     OW42782   0.375   4.250   5.161
10385SOL    HW142783   0.418   4.203   5.090
10385SOL    HW242784   0.440   4.314   5.189
10386SOL     OW42785   4.257   2.279  25.952
10386SOL    HW142786   4.301   2.196  25.971
10386SOL    HW242787   4.326   2.345  25.959
10387SOL     OW42788   2.190   2.646   3.839
10387SOL    HW142789   2.114   2.669   3.893
10387SOL    HW242790   2.257   2.709   3.865
10388SOL     OW42791   3.595   2.086   8.447
10388SOL    HW142792   3.670   2.070   8.390
10388SOL    HW242793   3.543   2.151   8.400
10389SOL     OW42794   3.063   4.635   6.689
10389SOL    HW142795   3.033   4.680   6.768
10389SOL    HW242796   3.097   4.551   6.721
10390SOL     OW42797   2.002   2.283   2.308
10390SOL    HW142798   1.996   2.197   2.350
10390SOL    HW242799   1.952   2.273   2.227
10391SOL     OW42800   2.179   2.503   7.209
10391SOL    HW142801   2.193   2.598   7.204
10391SOL    HW242802   2.104   2.493   7.267
10392SOL     OW42803   1.718   2.141  20.123
10392SOL    HW142804   1.749   2.232  20.120
10392SOL    HW242805   1.712   2.121  20.216
10393SOL     OW42806   4.325   4.438  10.977
10393SOL    HW142807   4.339   4.365  10.917
10393SOL    HW242808   4.248   4.412  11.028
10394SOL     OW42809   3.812   4.665  25.953
10394SOL    HW142810   3.771   4.700  26.032
10394SOL    HW242811   3.890   4.719  25.940
10395SOL     OW42812   3.620   3.208  26.721
10395SOL    HW142813   3.634   3.161  26.803
10395SOL    HW242814   3.561   3.280  26.744
10396SOL     OW42815   1.123   0.984  20.465
10396SOL    HW142816   1.218   0.978  20.477
10396SOL    HW242817   1.104   0.924  20.393
10397SOL     OW42818   2.172   2.512   1.219
10397SOL    HW142819   2.169   2.452   1.294
10397SOL    HW242820   2.117   2.586   1.245
10398SOL     OW42821   1.778   0.483   2.446
10398SOL    HW142822   1.753   0.446   2.531
10398SOL    HW242823   1.874   0.481   2.447
10399SOL     OW42824   1.830   0.629  26.838
10399SOL    HW142825   1.746   0.674  26.829
10399SOL    HW242826   1.888   0.695  26.875
10400SOL     OW42827   4.113   0.117   0.781
10400SOL    HW142828   4.065   0.107   0.863
10400SOL    HW242829   4.166   0.196   0.793
10401SOL     OW42830   4.560   3.653   4.169
10401SOL    HW142831   4.629   3.717   4.152
10401SOL    HW242832   4.479   3.703   4.163
10402SOL     OW42833   3.637   0.289   6.787
10402SOL    HW142834   3.628   0.383   6.803
10402SOL    HW242835   3.678   0.283   6.701
10403SOL     OW42836   0.725   3.013   1.917
10403SOL    HW142837   0.666   2.995   1.991
10403SOL    HW242838   0.736   2.928   1.874
10404SOL     OW42839   2.486   0.575  24.968
10404SOL    HW142840   2.420   0.508  24.987
10404SOL    HW242841   2.458   0.614  24.885
10405SOL     OW42842   1.404   1.903  28.493
10405SOL    HW142843   1.338   1.840  28.521
10405SOL    HW242844   1.476   1.893   0.033
10406SOL     OW42845   0.200   2.673   0.541
10406SOL    HW142846   0.162   2.754   0.507
10406SOL    HW242847   0.283   2.700   0.581
10407SOL     OW42848   3.403   2.903   3.894
10407SOL    HW142849   3.394   2.825   3.949
10407SOL    HW242850   3.334   2.893   3.828
10408SOL     OW42851   1.450   1.353   1.349
10408SOL    HW142852   1.375   1.314   1.303
10408SOL    HW242853   1.466   1.295   1.423
10409SOL     OW42854   2.397   3.587  28.312
10409SOL    HW142855   2.460   3.536  28.260
10409SOL    HW242856   2.445   3.667  28.336
10410SOL     OW42857   0.668   3.290   5.453
10410SOL    HW142858   0.687   3.335   5.370
10410SOL    HW242859   0.724   3.334   5.517
10411SOL     OW42860   1.389   4.497   7.707
10411SOL    HW142861   1.449   4.569   7.689
10411SOL    HW242862   1.368   4.462   7.620
10412SOL     OW42863   2.831   1.151  19.737
10412SOL    HW142864   2.823   1.173  19.644
10412SOL    HW242865   2.823   1.056  19.740
10413SOL     OW42866   3.200   0.037   9.712
10413SOL    HW142867   3.113   0.039   9.671
10413SOL    HW242868   3.229   4.727   9.702
10414SOL     OW42869   2.854   0.386   1.056
10414SOL    HW142870   2.928   0.349   1.104
10414SOL    HW242871   2.780   0.330   1.080
10415SOL     OW42872   0.840   1.507  23.298
10415SOL    HW142873   0.908   1.444  23.323
10415SOL    HW242874   0.868   1.540  23.212
10416SOL     OW42875   4.366   4.090  25.483
10416SOL    HW142876   4.409   4.049  25.408
10416SOL    HW242877   4.273   4.083  25.463
10417SOL     OW42878   1.684   3.060   5.582
10417SOL    HW142879   1.636   3.026   5.657
10417SOL    HW242880   1.776   3.038   5.599
10418SOL     OW42881   2.000   3.018  22.591
10418SOL    HW142882   2.094   3.003  22.584
10418SOL    HW242883   1.969   2.949  22.650
10419SOL     OW42884   4.701   0.788  19.423
10419SOL    HW142885   4.709   0.739  19.341
10419SOL    HW242886   0.009   0.792  19.457
10420SOL     OW42887   1.449   2.334  28.058
10420SOL    HW142888   1.507   2.275  28.009
10420SOL    HW242889   1.373   2.281  28.080
10421SOL     OW42890   4.346   3.896  11.276
10421SOL    HW142891   4.284   3.925  11.343
10421SOL    HW242892   4.420   3.861  11.326
10422SOL     OW42893   2.657   4.033  22.452
10422SOL    HW142894   2.628   4.031  22.361
10422SOL    HW242895   2.741   4.079  22.450
10423SOL     OW42896   0.462   0.142   0.899
10423SOL    HW142897   0.507   0.223   0.874
10423SOL    HW242898   0.372   0.154   0.869
10424SOL     OW42899   3.092   2.887   8.780
10424SOL    HW142900   3.001   2.895   8.809
10424SOL    HW242901   3.141   2.944   8.840
10425SOL     OW42902   1.020   0.860  26.409
10425SOL    HW142903   0.976   0.903  26.336
10425SOL    HW242904   0.968   0.884  26.486
10426SOL     OW42905   0.785   3.379  20.122
10426SOL    HW142906   0.869   3.356  20.083
10426SOL    HW242907   0.740   3.429  20.054
10427SOL     OW42908   3.791   0.701  26.569
10427SOL    HW142909   3.805   0.734  26.658
10427SOL    HW242910   3.730   0.628  26.580
10428SOL     OW42911   3.220   2.154  22.673
10428SOL    HW142912   3.167   2.221  22.630
10428SOL    HW242913   3.157   2.092  22.709
10429SOL     OW42914   3.869   1.979   6.419
10429SOL    HW142915   3.850   1.973   6.325
10429SOL    HW242916   3.787   2.009   6.458
10430SOL     OW42917   2.617   2.421  27.290
10430SOL    HW142918   2.561   2.402  27.215
10430SOL    HW242919   2.697   2.372  27.273
10431SOL     OW42920   2.504   1.796  23.266
10431SOL    HW142921   2.549   1.740  23.203
10431SOL    HW242922   2.572   1.855  23.298
10432SOL     OW42923   2.597   4.023  19.841
10432SOL    HW142924   2.505   4.005  19.860
10432SOL    HW242925   2.595   4.081  19.765
10433SOL     OW42926   1.808   4.016  27.382
10433SOL    HW142927   1.771   4.081  27.322
10433SOL    HW242928   1.750   3.940  27.374
10434SOL     OW42929   0.716   4.485   1.451
10434SOL    HW142930   0.693   4.512   1.362
10434SOL    HW242931   0.745   4.394   1.441
10435SOL     OW42932   1.938   3.524  24.285
10435SOL    HW142933   1.869   3.510  24.220
10435SOL    HW242934   1.935   3.618  24.303
10436SOL     OW42935   2.594   2.746  27.168
10436SOL    HW142936   2.646   2.712  27.095
10436SOL    HW242937   2.617   2.689  27.242
10437SOL     OW42938   4.494   2.268   7.082
10437SOL    HW142939   4.459   2.221   7.157
10437SOL    HW242940   4.585   2.240   7.076
10438SOL     OW42941   0.115   2.383  27.297
10438SOL    HW142942   0.206   2.408  27.315
10438SOL    HW242943   0.106   2.296  27.335
10439SOL     OW42944   3.919   1.280   2.887
10439SOL    HW142945   3.901   1.291   2.794
10439SOL    HW242946   3.990   1.215   2.890
10440SOL     OW42947   1.756   2.453   9.572
10440SOL    HW142948   1.842   2.493   9.585
10440SOL    HW242949   1.707   2.518   9.521
10441SOL     OW42950   0.549   1.723  21.450
10441SOL    HW142951   0.620   1.786  21.440
10441SOL    HW242952   0.573   1.651  21.391
10442SOL     OW42953   4.503   4.714  27.248
10442SOL    HW142954   4.519   4.772  27.323
10442SOL    HW242955   4.578   4.655  27.247
10443SOL     OW42956   4.039   2.071  19.133
10443SOL    HW142957   4.114   2.045  19.187
10443SOL    HW242958   4.019   1.994  19.080
10444SOL     OW42959   1.148   2.407  10.405
10444SOL    HW142960   1.071   2.380  10.456
10444SOL    HW242961   1.191   2.325  10.382
10445SOL     OW42962   0.336   1.936  11.494
10445SOL    HW142963   0.247   1.969  11.486
10445SOL    HW242964   0.378   1.994  11.558
10446SOL     OW42965   2.535   3.148  24.942
10446SOL    HW142966   2.490   3.064  24.941
10446SOL    HW242967   2.590   3.147  24.864
10447SOL     OW42968   2.562   3.249   8.916
10447SOL    HW142969   2.519   3.226   8.999
10447SOL    HW242970   2.495   3.233   8.849
10448SOL     OW42971   2.559   4.262   2.451
10448SOL    HW142972   2.556   4.194   2.384
10448SOL    HW242973   2.527   4.219   2.530
10449SOL     OW42974   0.209   2.165  27.465
10449SOL    HW142975   0.289   2.199  27.425
10449SOL    HW242976   0.240   2.115  27.540
10450SOL     OW42977   3.973   3.077  24.300
10450SOL    HW142978   4.034   3.036  24.361
10450SOL    HW242979   3.908   3.009  24.281
10451SOL     OW42980   2.599   2.526  18.340
10451SOL    HW142981   2.565   2.468  18.409
10451SOL    HW242982   2.667   2.578  18.383
10452SOL     OW42983   2.460   1.501   4.001
10452SOL    HW142984   2.418   1.426   4.044
10452SOL    HW242985   2.413   1.577   4.034
10453SOL     OW42986   4.765   4.308  25.064
10453SOL    HW142987   0.020   4.275  25.146
10453SOL    HW242988   0.007   4.241  24.999
10454SOL     OW42989   0.708   1.366   6.262
10454SOL    HW142990   0.649   1.439   6.245
10454SOL    HW242991   0.794   1.399   6.236
10455SOL     OW42992   4.673   3.870   6.216
10455SOL    HW142993   4.646   3.873   6.124
10455SOL    HW242994   4.594   3.891   6.265
10456SOL     OW42995   4.524   1.749  10.293
10456SOL    HW142996   4.453   1.727  10.353
10456SOL    HW242997   4.604   1.723  10.339
10457SOL     OW42998   2.731   0.690  23.614
10457SOL    HW142999   2.776   0.747  23.552
10457SOL    HW243000   2.696   0.749  23.680
10458SOL     OW43001   4.206   3.547  24.262
10458SOL    HW143002   4.239   3.636  24.248
10458SOL    HW243003   4.162   3.551  24.347
10459SOL     OW43004   2.192   2.507  25.438
10459SOL    HW143005   2.189   2.544  25.526
10459SOL    HW243006   2.203   2.413  25.452
10460SOL     OW43007   2.252   4.717  25.920
10460SOL    HW143008   2.265   4.723  25.825
10460SOL    HW243009   2.237   4.624  25.936
10461SOL     OW43010   0.872   0.946   4.513
10461SOL    HW143011   0.924   0.998   4.453
10461SOL    HW243012   0.835   0.877   4.459
10462SOL     OW43013   0.429   1.097   9.528
10462SOL    HW143014   0.337   1.123   9.538
10462SOL    HW243015   0.443   1.030   9.595
10463SOL     OW43016   1.062   4.014  24.981
10463SOL    HW143017   1.114   4.094  24.980
10463SOL    HW243018   0.973   4.043  24.963
10464SOL     OW43019   1.676   2.427   2.904
10464SOL    HW143020   1.741   2.433   2.834
10464SOL    HW243021   1.680   2.512   2.948
10465SOL     OW43022   1.716   4.487  10.329
10465SOL    HW143023   1.699   4.393  10.332
10465SOL    HW243024   1.701   4.517  10.419
10466SOL     OW43025   0.481   1.434  24.496
10466SOL    HW143026   0.426   1.460  24.422
10466SOL    HW243027   0.534   1.362  24.462
10467SOL     OW43028   2.378   0.074   4.823
10467SOL    HW143029   2.350   0.008   4.759
10467SOL    HW243030   2.450   0.033   4.870
10468SOL     OW43031   3.318   0.365   6.553
10468SOL    HW143032   3.296   0.298   6.489
10468SOL    HW243033   3.302   0.448   6.508
10469SOL     OW43034   1.581   0.248  23.032
10469SOL    HW143035   1.622   0.167  23.002
10469SOL    HW243036   1.570   0.236  23.126
10470SOL     OW43037   1.282   0.290   9.835
10470SOL    HW143038   1.280   0.309   9.741
10470SOL    HW243039   1.258   0.373   9.877
10471SOL     OW43040   0.438   4.544  24.279
10471SOL    HW143041   0.353   4.513  24.248
10471SOL    HW243042   0.492   4.550  24.200
10472SOL     OW43043   0.007   0.561   3.682
10472SOL    HW143044   4.712   0.505   3.667
10472SOL    HW243045   4.766   0.644   3.640
10473SOL     OW43046   1.459   3.562  27.784
10473SOL    HW143047   1.456   3.656  27.766
10473SOL    HW243048   1.526   3.553  27.852
10474SOL     OW43049   2.591   2.467  11.932
10474SOL    HW143050   2.607   2.410  12.007
10474SOL    HW243051   2.598   2.409  11.856
10475SOL     OW43052   1.299   2.374   1.369
10475SOL    HW143053   1.288   2.285   1.337
10475SOL    HW243054   1.394   2.389   1.366
10476SOL     OW43055   0.857   2.085   6.341
10476SOL    HW143056   0.849   2.174   6.307
10476SOL    HW243057   0.938   2.051   6.303
10477SOL     OW43058   0.032   4.026  18.667
10477SOL    HW143059   0.084   3.946  18.673
10477SOL    HW243060   4.731   3.998  18.625
10478SOL     OW43061   2.414   1.885   0.955
10478SOL    HW143062   2.434   1.934   1.035
10478SOL    HW243063   2.373   1.950   0.897
10479SOL     OW43064   3.076   0.177   0.981
10479SOL    HW143065   3.152   0.227   0.952
10479SOL    HW243066   3.111   0.090   1.002
10480SOL     OW43067   4.108   2.486  21.177
10480SOL    HW143068   4.078   2.556  21.120
10480SOL    HW243069   4.050   2.490  21.253
10481SOL     OW43070   1.236   3.301   9.002
10481SOL    HW143071   1.293   3.331   9.073
10481SOL    HW243072   1.283   3.227   8.964
10482SOL     OW43073   3.208   3.455   5.242
10482SOL    HW143074   3.278   3.399   5.276
10482SOL    HW243075   3.246   3.543   5.241
10483SOL     OW43076   3.186   2.987  22.280
10483SOL    HW143077   3.169   2.906  22.233
10483SOL    HW243078   3.151   2.972  22.368
10484SOL     OW43079   3.371   0.042  20.218
10484SOL    HW143080   3.343   0.124  20.176
10484SOL    HW243081   3.460   0.028  20.186
10485SOL     OW43082   1.553   0.497   9.232
10485SOL    HW143083   1.643   0.474   9.208
10485SOL    HW243084   1.562   0.576   9.285
10486SOL     OW43085   0.315   4.000  26.322
10486SOL    HW143086   0.329   3.907  26.303
10486SOL    HW243087   0.266   4.033  26.246
10487SOL     OW43088   3.445   2.412   4.876
10487SOL    HW143089   3.463   2.355   4.951
10487SOL    HW243090   3.531   2.427   4.836
10488SOL     OW43091   1.775   0.629   3.417
10488SOL    HW143092   1.703   0.653   3.359
10488SOL    HW243093   1.772   0.534   3.422
10489SOL     OW43094   3.767   4.469  20.682
10489SOL    HW143095   3.836   4.409  20.710
10489SOL    HW243096   3.809   4.525  20.616
10490SOL     OW43097   1.683   0.086  10.382
10490SOL    HW143098   1.680   0.009  10.439
10490SOL    HW243099   1.676   0.160  10.442
10491SOL     OW43100   0.000   1.047  10.271
10491SOL    HW143101   4.757   0.987  10.201
10491SOL    HW243102   0.083   1.085  10.242
10492SOL     OW43103   4.356   3.079  24.205
10492SOL    HW143104   4.288   3.039  24.260
10492SOL    HW243105   4.436   3.070  24.256
10493SOL     OW43106   2.850   3.034   6.529
10493SOL    HW143107   2.864   3.106   6.591
10493SOL    HW243108   2.926   3.037   6.471
10494SOL     OW43109   4.082   1.982  26.968
10494SOL    HW143110   4.046   2.026  26.891
10494SOL    HW243111   4.141   2.046  27.007
10495SOL     OW43112   2.157   0.501   3.507
10495SOL    HW143113   2.125   0.590   3.522
10495SOL    HW243114   2.158   0.461   3.594
10496SOL     OW43115   2.945   0.160  27.510
10496SOL    HW143116   2.878   0.182  27.575
10496SOL    HW243117   2.994   0.089  27.550
10497SOL     OW43118   1.694   2.809  22.252
10497SOL    HW143119   1.784   2.777  22.255
10497SOL    HW243120   1.641   2.730  22.250
10498SOL     OW43121   4.136   4.577   2.470
10498SOL    HW143122   4.185   4.572   2.552
10498SOL    HW243123   4.201   4.559   2.402
10499SOL     OW43124   1.907   1.802   7.321
10499SOL    HW143125   1.958   1.808   7.240
10499SOL    HW243126   1.961   1.749   7.380
10500SOL     OW43127   3.595   1.964   1.699
10500SOL    HW143128   3.605   1.938   1.607
10500SOL    HW243129   3.679   1.942   1.739
10501SOL     OW43130   0.194   0.672   1.812
10501SOL    HW143131   0.197   0.756   1.766
10501SOL    HW243132   0.274   0.627   1.786
10502SOL     OW43133   2.030   4.057  21.180
10502SOL    HW143134   1.945   4.051  21.137
10502SOL    HW243135   2.018   4.014  21.264
10503SOL     OW43136   0.959   1.100  27.231
10503SOL    HW143137   0.945   1.074  27.140
10503SOL    HW243138   0.895   1.049  27.281
10504SOL     OW43139   1.367   2.569  10.510
10504SOL    HW143140   1.417   2.499  10.552
10504SOL    HW243141   1.293   2.525  10.469
10505SOL     OW43142   2.289   2.300  28.480
10505SOL    HW143143   2.287   2.358  28.404
10505SOL    HW243144   2.197   2.290  28.505
10506SOL     OW43145   1.895   3.587   5.186
10506SOL    HW143146   1.813   3.548   5.156
10506SOL    HW243147   1.930   3.524   5.248
10507SOL     OW43148   2.333   3.133   3.384
10507SOL    HW143149   2.304   3.136   3.475
10507SOL    HW243150   2.253   3.147   3.333
10508SOL     OW43151   3.786   4.604  17.301
10508SOL    HW143152   3.854   4.598  17.369
10508SOL    HW243153   3.795   4.693  17.266
10509SOL     OW43154   3.172   4.748  10.761
10509SOL    HW143155   3.221   4.722  10.839
10509SOL    HW243156   3.103   4.682  10.752
10510SOL     OW43157   4.499   0.448  21.819
10510SOL    HW143158   4.503   0.352  21.818
10510SOL    HW243159   4.464   0.471  21.733
10511SOL     OW43160   3.877   3.157   2.719
10511SOL    HW143161   3.955   3.106   2.743
10511SOL    HW243162   3.877   3.230   2.781
10512SOL     OW43163   2.807   0.195  23.016
10512SOL    HW143164   2.886   0.153  23.049
10512SOL    HW243165   2.807   0.282  23.055
10513SOL     OW43166   2.393   4.447   6.660
10513SOL    HW143167   2.450   4.524   6.657
10513SOL    HW243168   2.365   4.442   6.751
10514SOL     OW43169   3.104   3.145   0.612
10514SOL    HW143170   3.084   3.128   0.520
10514SOL    HW243171   3.124   3.059   0.648
10515SOL     OW43172   4.363   2.264  22.459
10515SOL    HW143173   4.324   2.186  22.419
10515SOL    HW243174   4.446   2.233  22.495
10516SOL     OW43175   0.439   1.599  21.672
10516SOL    HW143176   0.461   1.656  21.599
10516SOL    HW243177   0.481   1.639  21.748
10517SOL     OW43178   1.560   3.025  10.439
10517SOL    HW143179   1.632   2.973  10.475
10517SOL    HW243180   1.494   2.960  10.415
10518SOL     OW43181   2.562   0.213  25.345
10518SOL    HW143182   2.562   0.120  25.366
10518SOL    HW243183   2.517   0.219  25.261
10519SOL     OW43184   1.094   1.504   8.278
10519SOL    HW143185   1.029   1.512   8.348
10519SOL    HW243186   1.167   1.559   8.307
10520SOL     OW43187   4.016   4.524   7.107
10520SOL    HW143188   4.035   4.433   7.083
10520SOL    HW243189   3.923   4.535   7.088
10521SOL     OW43190   3.235   0.569  22.317
10521SOL    HW143191   3.329   0.584  22.309
10521SOL    HW243192   3.195   0.651  22.289
10522SOL     OW43193   0.374   4.266  25.376
10522SOL    HW143194   0.420   4.329  25.432
10522SOL    HW243195   0.433   4.191  25.372
10523SOL     OW43196   3.284   3.479   3.204
10523SOL    HW143197   3.347   3.542   3.171
10523SOL    HW243198   3.219   3.471   3.134
10524SOL     OW43199   2.095   2.104  22.173
10524SOL    HW143200   2.087   2.129  22.081
10524SOL    HW243201   2.039   2.027  22.181
10525SOL     OW43202   0.638   1.976   3.168
10525SOL    HW143203   0.725   2.007   3.143
10525SOL    HW243204   0.630   2.000   3.260
10526SOL     OW43205   2.044   4.187   1.872
10526SOL    HW143206   2.007   4.274   1.861
10526SOL    HW243207   2.096   4.193   1.952
10527SOL     OW43208   4.249   1.874  28.099
10527SOL    HW143209   4.227   1.781  28.095
10527SOL    HW243210   4.341   1.878  28.073
10528SOL     OW43211   1.363   3.047  27.923
10528SOL    HW143212   1.442   3.088  27.959
10528SOL    HW243213   1.352   2.966  27.974
10529SOL     OW43214   1.393   4.008   9.944
10529SOL    HW143215   1.394   4.087   9.890
10529SOL    HW243216   1.320   3.957   9.910
10530SOL     OW43217   1.479   0.547  10.112
10530SOL    HW143218   1.411   0.613  10.100
10530SOL    HW243219   1.432   0.468  10.137
10531SOL     OW43220   1.882   2.651  10.790
10531SOL    HW143221   1.894   2.742  10.817
10531SOL    HW243222   1.956   2.633  10.733
10532SOL     OW43223   0.778   0.369  28.336
10532SOL    HW143224   0.799   0.434  28.269
10532SOL    HW243225   0.831   0.395  28.412
10533SOL     OW43226   3.043   1.115   1.033
10533SOL    HW143227   3.129   1.138   0.999
10533SOL    HW243228   3.050   1.128   1.128
10534SOL     OW43229   0.736   3.204  26.335
10534SOL    HW143230   0.760   3.219  26.427
10534SOL    HW243231   0.695   3.286  26.308
10535SOL     OW43232   1.266   3.584  26.796
10535SOL    HW143233   1.274   3.677  26.774
10535SOL    HW243234   1.355   3.550  26.789
10536SOL     OW43235   0.312   0.333   9.172
10536SOL    HW143236   0.228   0.333   9.126
10536SOL    HW243237   0.360   0.260   9.134
10537SOL     OW43238   0.909   3.034   6.003
10537SOL    HW143239   0.900   3.084   5.922
10537SOL    HW243240   0.982   2.974   5.986
10538SOL     OW43241   1.880   0.056  11.872
10538SOL    HW143242   1.940   0.107  11.926
10538SOL    HW243243   1.926   0.046  11.789
10539SOL     OW43244   0.774   1.026  27.492
10539SOL    HW143245   0.728   0.999  27.571
10539SOL    HW243246   0.706   1.034  27.426
10540SOL     OW43247   3.602   3.370   0.326
10540SOL    HW143248   3.687   3.413   0.338
10540SOL    HW243249   3.621   3.292   0.274
10541SOL     OW43250   3.854   0.781   1.464
10541SOL    HW143251   3.862   0.722   1.389
10541SOL    HW243252   3.944   0.796   1.492
10542SOL     OW43253   2.667   2.558   2.736
10542SOL    HW143254   2.584   2.513   2.723
10542SOL    HW243255   2.696   2.582   2.648
10543SOL     OW43256   3.911   0.192  23.216
10543SOL    HW143257   3.982   0.250  23.241
10543SOL    HW243258   3.954   0.110  23.193
10544SOL     OW43259   1.918   4.332   1.071
10544SOL    HW143260   1.844   4.271   1.080
10544SOL    HW243261   1.878   4.415   1.047
10545SOL     OW43262   3.471   1.060   0.864
10545SOL    HW143263   3.407   1.110   0.914
10545SOL    HW243264   3.555   1.079   0.905
10546SOL     OW43265   3.549   1.511   5.905
10546SOL    HW143266   3.496   1.583   5.940
10546SOL    HW243267   3.505   1.485   5.824
10547SOL     OW43268   2.630   1.341  23.196
10547SOL    HW143269   2.569   1.300  23.134
10547SOL    HW243270   2.625   1.434  23.176
10548SOL     OW43271   1.804   0.883   2.552
10548SOL    HW143272   1.856   0.818   2.599
10548SOL    HW243273   1.723   0.838   2.530
10549SOL     OW43274   4.579   4.085  20.049
10549SOL    HW143275   4.571   4.012  19.988
10549SOL    HW243276   4.606   4.159  19.994
10550SOL     OW43277   0.454   2.418   5.956
10550SOL    HW143278   0.376   2.473   5.962
10550SOL    HW243279   0.452   2.365   6.036
10551SOL     OW43280   3.482   4.535   7.051
10551SOL    HW143281   3.427   4.599   7.005
10551SOL    HW243282   3.451   4.450   7.019
10552SOL     OW43283   2.160   3.435  22.161
10552SOL    HW143284   2.170   3.494  22.236
10552SOL    HW243285   2.077   3.390  22.176
10553SOL     OW43286   3.808   4.369   9.589
10553SOL    HW143287   3.805   4.444   9.648
10553SOL    HW243288   3.850   4.300   9.640
10554SOL     OW43289   4.435   4.466   3.567
10554SOL    HW143290   4.372   4.462   3.495
10554SOL    HW243291   4.382   4.482   3.645
10555SOL     OW43292   4.740   3.613  23.238
10555SOL    HW143293   4.750   3.680  23.306
10555SOL    HW243294   4.675   3.552  23.273
10556SOL     OW43295   0.399   2.498  22.702
10556SOL    HW143296   0.474   2.538  22.658
10556SOL    HW243297   0.401   2.406  22.674
10557SOL     OW43298   1.250   0.478  21.362
10557SOL    HW143299   1.164   0.520  21.351
10557SOL    HW243300   1.303   0.515  21.292
10558SOL     OW43301   3.671   2.203  11.378
10558SOL    HW143302   3.631   2.150  11.309
10558SOL    HW243303   3.745   2.151  11.408
10559SOL     OW43304   4.643   0.613   3.275
10559SOL    HW143305   4.602   0.529   3.297
10559SOL    HW243306   4.587   0.678   3.317
10560SOL     OW43307   0.133   1.860  20.080
10560SOL    HW143308   0.122   1.775  20.037
10560SOL    HW243309   0.130   1.923  20.008
10561SOL     OW43310   2.467   1.213   3.856
10561SOL    HW143311   2.441   1.132   3.812
10561SOL    HW243312   2.416   1.281   3.813
10562SOL     OW43313   0.656   0.473   8.940
10562SOL    HW143314   0.569   0.500   8.912
10562SOL    HW243315   0.660   0.494   9.033
10563SOL     OW43316   4.241   0.322  21.409
10563SOL    HW143317   4.161   0.366  21.380
10563SOL    HW243318   4.222   0.229  21.398
10564SOL     OW43319   3.187   0.464   1.858
10564SOL    HW143320   3.134   0.544   1.860
10564SOL    HW243321   3.236   0.470   1.776
10565SOL     OW43322   1.690   3.978   9.912
10565SOL    HW143323   1.732   3.988   9.827
10565SOL    HW243324   1.597   3.995   9.895
10566SOL     OW43325   4.225   3.617   4.509
10566SOL    HW143326   4.301   3.583   4.462
10566SOL    HW243327   4.241   3.711   4.514
10567SOL     OW43328   4.474   0.280   7.654
10567SOL    HW143329   4.476   0.337   7.577
10567SOL    HW243330   4.440   0.336   7.724
10568SOL     OW43331   4.723   4.491   2.018
10568SOL    HW143332   4.715   4.532   2.104
10568SOL    HW243333   0.016   4.430   2.027
10569SOL     OW43334   0.918   3.456  22.596
10569SOL    HW143335   0.828   3.431  22.576
10569SOL    HW243336   0.910   3.525  22.662
10570SOL     OW43337   0.441   0.580   1.759
10570SOL    HW143338   0.504   0.642   1.723
10570SOL    HW243339   0.430   0.515   1.690
10571SOL     OW43340   4.608   3.922   1.774
10571SOL    HW143341   4.527   3.871   1.782
10571SOL    HW243342   4.673   3.859   1.741
10572SOL     OW43343   1.872   1.375  18.164
10572SOL    HW143344   1.779   1.398  18.163
10572SOL    HW243345   1.879   1.299  18.107
10573SOL     OW43346   4.705   2.150  26.141
10573SOL    HW143347   4.644   2.090  26.184
10573SOL    HW243348   0.009   2.107  26.148
10574SOL     OW43349   3.591   2.485  10.855
10574SOL    HW143350   3.653   2.444  10.915
10574SOL    HW243351   3.597   2.432  10.776
10575SOL     OW43352   4.202   4.691   5.152
10575SOL    HW143353   4.274   4.729   5.102
10575SOL    HW243354   4.134   4.758   5.149
10576SOL     OW43355   3.459   0.696  22.284
10576SOL    HW143356   3.438   0.770  22.227
10576SOL    HW243357   3.520   0.732  22.348
10577SOL     OW43358   2.046   0.013  11.237
10577SOL    HW143359   2.063   4.708  11.277
10577SOL    HW243360   2.002   0.063  11.306
10578SOL     OW43361   3.791   3.430  27.531
10578SOL    HW143362   3.837   3.504  27.571
10578SOL    HW243363   3.842   3.353  27.556
10579SOL     OW43364   1.989   4.727  22.292
10579SOL    HW143365   1.925   4.676  22.341
10579SOL    HW243366   2.073   4.702  22.330
10580SOL     OW43367   0.727   3.038  26.985
10580SOL    HW143368   0.736   3.128  26.953
10580SOL    HW243369   0.816   3.011  27.007
10581SOL     OW43370   2.525   3.566  18.764
10581SOL    HW143371   2.441   3.560  18.719
10581SOL    HW243372   2.574   3.633  18.716
10582SOL     OW43373   4.303   4.024   9.059
10582SOL    HW143374   4.374   3.974   9.099
10582SOL    HW243375   4.245   4.045   9.132
10583SOL     OW43376   2.835   0.673  27.737
10583SOL    HW143377   2.917   0.627  27.718
10583SOL    HW243378   2.766   0.613  27.709
10584SOL     OW43379   1.585   2.827   8.169
10584SOL    HW143380   1.611   2.838   8.261
10584SOL    HW243381   1.513   2.764   8.172
10585SOL     OW43382   4.680   2.557   8.350
10585SOL    HW143383   4.765   2.588   8.380
10585SOL    HW243384   4.641   2.517   8.427
10586SOL     OW43385   0.732   0.588   8.281
10586SOL    HW143386   0.673   0.616   8.211
10586SOL    HW243387   0.749   0.495   8.263
10587SOL     OW43388   1.074   2.710   1.033
10587SOL    HW143389   1.005   2.697   1.098
10587SOL    HW243390   1.079   2.805   1.022
10588SOL     OW43391   1.202   2.719  12.314
10588SOL    HW143392   1.123   2.773  12.320
10588SOL    HW243393   1.205   2.670  12.396
10589SOL     OW43394   1.202   0.687  21.997
10589SOL    HW143395   1.243   0.648  22.074
10589SOL    HW243396   1.275   0.721  21.946
10590SOL     OW43397   2.465   3.304  23.865
10590SOL    HW143398   2.395   3.244  23.891
10590SOL    HW243399   2.498   3.268  23.783
10591SOL     OW43400   3.593   2.712   8.029
10591SOL    HW143401   3.647   2.698   8.107
10591SOL    HW243402   3.503   2.711   8.062
10592SOL     OW43403   4.482   3.715  19.935
10592SOL    HW143404   4.520   3.709  20.023
10592SOL    HW243405   4.557   3.727  19.877
10593SOL     OW43406   3.606   4.351  16.599
10593SOL    HW143407   3.593   4.443  16.622
10593SOL    HW243408   3.620   4.307  16.683
10594SOL     OW43409   1.431   3.667  23.676
10594SOL    HW143410   1.456   3.577  23.656
10594SOL    HW243411   1.495   3.696  23.741
10595SOL     OW43412   0.633   3.878  11.045
10595SOL    HW143413   0.622   3.783  11.049
10595SOL    HW243414   0.547   3.913  11.069
10596SOL     OW43415   1.882   2.352   3.671
10596SOL    HW143416   1.908   2.261   3.683
10596SOL    HW243417   1.955   2.392   3.624
10597SOL     OW43418   2.607   0.113  22.066
10597SOL    HW143419   2.555   0.048  22.114
10597SOL    HW243420   2.576   0.106  21.976
10598SOL     OW43421   3.565   2.520   6.164
10598SOL    HW143422   3.509   2.443   6.176
10598SOL    HW243423   3.604   2.508   6.077
10599SOL     OW43424   2.729   4.713  27.567
10599SOL    HW143425   2.723   0.013  27.617
10599SOL    HW243426   2.730   4.644  27.633
10600SOL     OW43427   3.773   1.712  26.264
10600SOL    HW143428   3.750   1.744  26.351
10600SOL    HW243429   3.704   1.649  26.242
10601SOL     OW43430   0.987   4.231  11.109
10601SOL    HW143431   0.973   4.276  11.192
10601SOL    HW243432   0.909   4.177  11.098
10602SOL     OW43433   2.756   2.844   6.699
10602SOL    HW143434   2.793   2.893   6.626
10602SOL    HW243435   2.706   2.774   6.658
10603SOL     OW43436   4.251   0.033   0.131
10603SOL    HW143437   4.212   4.747   0.188
10603SOL    HW243438   4.332   0.058   0.176
10604SOL     OW43439   4.118   4.225  26.772
10604SOL    HW143440   4.078   4.175  26.843
10604SOL    HW243441   4.044   4.261  26.724
10605SOL     OW43442   4.144   3.484   5.238
10605SOL    HW143443   4.197   3.408   5.213
10605SOL    HW243444   4.200   3.534   5.297
10606SOL     OW43445   1.557   1.333  26.118
10606SOL    HW143446   1.492   1.363  26.054
10606SOL    HW243447   1.624   1.290  26.066
10607SOL     OW43448   1.026   2.544  17.736
10607SOL    HW143449   0.949   2.510  17.781
10607SOL    HW243450   1.001   2.547  17.644
10608SOL     OW43451   2.731   4.681   4.411
10608SOL    HW143452   2.677   4.603   4.426
10608SOL    HW243453   2.680   4.734   4.350
10609SOL     OW43454   2.344   2.497  24.767
10609SOL    HW143455   2.271   2.484  24.706
10609SOL    HW243456   2.394   2.415  24.762
10610SOL     OW43457   1.894   1.795  23.896
10610SOL    HW143458   1.989   1.784  23.892
10610SOL    HW243459   1.881   1.886  23.924
10611SOL     OW43460   0.429   0.557   6.991
10611SOL    HW143461   0.441   0.564   6.896
10611SOL    HW243462   0.479   0.479   7.016
10612SOL     OW43463   3.518   0.591   4.858
10612SOL    HW143464   3.445   0.605   4.798
10612SOL    HW243465   3.485   0.529   4.922
10613SOL     OW43466   3.583   3.160  20.477
10613SOL    HW143467   3.490   3.180  20.474
10613SOL    HW243468   3.587   3.064  20.476
10614SOL     OW43469   4.493   2.292  10.528
10614SOL    HW143470   4.486   2.385  10.550
10614SOL    HW243471   4.468   2.247  10.608
10615SOL     OW43472   2.982   0.468  22.363
10615SOL    HW143473   2.961   0.381  22.329
10615SOL    HW243474   3.067   0.489  22.323
10616SOL     OW43475   1.600   3.830  20.982
10616SOL    HW143476   1.553   3.898  20.934
10616SOL    HW243477   1.549   3.751  20.967
10617SOL     OW43478   0.180   3.139  18.958
10617SOL    HW143479   0.116   3.071  18.936
10617SOL    HW243480   0.168   3.206  18.891
10618SOL     OW43481   1.517   3.380  24.565
10618SOL    HW143482   1.513   3.474  24.545
10618SOL    HW243483   1.602   3.352  24.532
10619SOL     OW43484   1.839   0.764   6.055
10619SOL    HW143485   1.866   0.673   6.070
10619SOL    HW243486   1.905   0.799   5.995
10620SOL     OW43487   0.057   1.275   6.811
10620SOL    HW143488   0.055   1.228   6.895
10620SOL    HW243489   0.150   1.292   6.796
10621SOL     OW43490   1.922   2.451   1.895
10621SOL    HW143491   1.907   2.490   1.809
10621SOL    HW243492   1.925   2.526   1.955
10622SOL     OW43493   0.072   3.412  23.885
10622SOL    HW143494   0.025   3.346  23.834
10622SOL    HW243495   0.008   3.482  23.899
10623SOL     OW43496   1.639   4.030  20.406
10623SOL    HW143497   1.708   4.074  20.357
10623SOL    HW243498   1.626   3.947  20.361
10624SOL     OW43499   4.124   1.076  25.446
10624SOL    HW143500   4.157   1.150  25.496
10624SOL    HW243501   4.202   1.024  25.426
10625SOL     OW43502   3.657   3.655  24.387
10625SOL    HW143503   3.743   3.661  24.428
10625SOL    HW243504   3.646   3.739  24.343
10626SOL     OW43505   1.706   0.592  26.327
10626SOL    HW143506   1.736   0.506  26.299
10626SOL    HW243507   1.735   0.599  26.418
10627SOL     OW43508   2.502   1.824  21.625
10627SOL    HW143509   2.572   1.888  21.637
10627SOL    HW243510   2.434   1.851  21.686
10628SOL     OW43511   2.595   3.932   5.762
10628SOL    HW143512   2.659   3.861   5.758
10628SOL    HW243513   2.561   3.928   5.851
10629SOL     OW43514   1.713   0.800   9.131
10629SOL    HW143515   1.693   0.883   9.087
10629SOL    HW243516   1.655   0.798   9.207
10630SOL     OW43517   1.544   0.379  21.786
10630SOL    HW143518   1.464   0.409  21.742
10630SOL    HW243519   1.608   0.371  21.715
10631SOL     OW43520   0.350   3.401   4.590
10631SOL    HW143521   0.340   3.496   4.592
10631SOL    HW243522   0.308   3.370   4.670
10632SOL     OW43523   2.165   3.076   4.170
10632SOL    HW143524   2.111   3.140   4.216
10632SOL    HW243525   2.216   3.034   4.239
10633SOL     OW43526   3.547   1.026  23.913
10633SOL    HW143527   3.550   0.934  23.939
10633SOL    HW243528   3.549   1.024  23.817
10634SOL     OW43529   0.421   3.468   9.184
10634SOL    HW143530   0.486   3.537   9.200
10634SOL    HW243531   0.337   3.509   9.205
10635SOL     OW43532   0.121   0.686  22.822
10635SOL    HW143533   0.180   0.635  22.878
10635SOL    HW243534   0.098   0.763  22.875
10636SOL     OW43535   4.493   1.296   2.211
10636SOL    HW143536   4.588   1.292   2.203
10636SOL    HW243537   4.460   1.265   2.126
10637SOL     OW43538   1.734   4.462   4.019
10637SOL    HW143539   1.680   4.472   4.098
10637SOL    HW243540   1.793   4.389   4.040
10638SOL     OW43541   2.894   2.600  22.992
10638SOL    HW143542   2.835   2.534  23.028
10638SOL    HW243543   2.956   2.550  22.939
10639SOL     OW43544   1.755   4.504  21.643
10639SOL    HW143545   1.723   4.563  21.575
10639SOL    HW243546   1.680   4.448  21.664
10640SOL     OW43547   0.966   2.578  10.284
10640SOL    HW143548   1.042   2.532  10.319
10640SOL    HW243549   0.914   2.509  10.242
10641SOL     OW43550   1.611   0.855  27.802
10641SOL    HW143551   1.592   0.881  27.712
10641SOL    HW243552   1.673   0.920  27.833
10642SOL     OW43553   2.634   2.228   2.083
10642SOL    HW143554   2.694   2.245   2.156
10642SOL    HW243555   2.680   2.165   2.028
10643SOL     OW43556   0.865   3.357  19.800
10643SOL    HW143557   0.908   3.438  19.829
10643SOL    HW243558   0.834   3.377  19.712
10644SOL     OW43559   3.472   2.137   3.581
10644SOL    HW143560   3.552   2.173   3.619
10644SOL    HW243561   3.499   2.107   3.494
10645SOL     OW43562   2.167   3.816  20.379
10645SOL    HW143563   2.170   3.736  20.327
10645SOL    HW243564   2.130   3.882  20.320
10646SOL     OW43565   3.505   2.164   1.303
10646SOL    HW143566   3.576   2.100   1.296
10646SOL    HW243567   3.542   2.245   1.268
10647SOL     OW43568   4.534   1.368   9.563
10647SOL    HW143569   4.608   1.309   9.574
10647SOL    HW243570   4.490   1.367   9.648
10648SOL     OW43571   4.436   2.084   0.147
10648SOL    HW143572   4.481   2.159   0.108
10648SOL    HW243573   4.503   2.040   0.199
10649SOL     OW43574   1.396   0.788  26.970
10649SOL    HW143575   1.404   0.748  26.884
10649SOL    HW243576   1.484   0.783  27.007
10650SOL     OW43577   0.598   1.480  24.969
10650SOL    HW143578   0.538   1.532  25.023
10650SOL    HW243579   0.678   1.533  24.964
10651SOL     OW43580   3.400   1.152   7.269
10651SOL    HW143581   3.358   1.093   7.331
10651SOL    HW243582   3.332   1.215   7.246
10652SOL     OW43583   2.303   4.031  24.234
10652SOL    HW143584   2.313   4.126  24.236
10652SOL    HW243585   2.393   3.998  24.232
10653SOL     OW43586   3.050   3.183   2.666
10653SOL    HW143587   3.052   3.105   2.611
10653SOL    HW243588   3.141   3.212   2.669
10654SOL     OW43589   1.677   1.927   7.400
10654SOL    HW143590   1.710   1.937   7.489
10654SOL    HW243591   1.747   1.880   7.354
10655SOL     OW43592   2.713   4.039  28.176
10655SOL    HW143593   2.675   4.123  28.150
10655SOL    HW243594   2.800   4.062  28.209
10656SOL     OW43595   0.153   1.668   4.430
10656SOL    HW143596   0.214   1.648   4.501
10656SOL    HW243597   0.130   1.583   4.393
10657SOL     OW43598   1.650   3.382   5.201
10657SOL    HW143599   1.574   3.362   5.256
10657SOL    HW243600   1.612   3.412   5.118
10658SOL     OW43601   3.663   0.005   2.707
10658SOL    HW143602   3.651   4.695   2.680
10658SOL    HW243603   3.671   0.054   2.625
10659SOL     OW43604   2.152   2.347   0.410
10659SOL    HW143605   2.125   2.323   0.499
10659SOL    HW243606   2.242   2.316   0.403
10660SOL     OW43607   1.097   4.003   9.350
10660SOL    HW143608   1.098   4.052   9.432
10660SOL    HW243609   1.030   4.046   9.297
10661SOL     OW43610   3.265   2.679  10.937
10661SOL    HW143611   3.232   2.626  10.865
10661SOL    HW243612   3.301   2.616  10.999
10662SOL     OW43613   3.465   4.294   9.208
10662SOL    HW143614   3.478   4.389   9.208
10662SOL    HW243615   3.395   4.280   9.144
10663SOL     OW43616   1.901   0.411   0.205
10663SOL    HW143617   1.936   0.333   0.162
10663SOL    HW243618   1.977   0.468   0.219
10664SOL     OW43619   3.953   2.317   4.672
10664SOL    HW143620   4.012   2.334   4.599
10664SOL    HW243621   4.010   2.280   4.740
10665SOL     OW43622   4.725   1.171   7.650
10665SOL    HW143623   4.709   1.265   7.637
10665SOL    HW243624   4.658   1.144   7.713
10666SOL     OW43625   2.852   1.478  24.397
10666SOL    HW143626   2.811   1.395  24.421
10666SOL    HW243627   2.782   1.527  24.354
10667SOL     OW43628   2.696   1.193   8.567
10667SOL    HW143629   2.603   1.216   8.565
10667SOL    HW243630   2.740   1.274   8.592
10668SOL     OW43631   0.692   2.480   9.709
10668SOL    HW143632   0.601   2.458   9.726
10668SOL    HW243633   0.728   2.502   9.795
10669SOL     OW43634   3.103   1.176   7.390
10669SOL    HW143635   3.066   1.261   7.367
10669SOL    HW243636   3.065   1.155   7.475
10670SOL     OW43637   1.722   1.615   6.786
10670SOL    HW143638   1.717   1.710   6.792
10670SOL    HW243639   1.633   1.587   6.762
10671SOL     OW43640   2.954   1.646   3.439
10671SOL    HW143641   3.029   1.591   3.461
10671SOL    HW243642   2.880   1.605   3.484
10672SOL     OW43643   1.974   4.648   2.026
10672SOL    HW143644   1.945   4.735   1.998
10672SOL    HW243645   2.020   4.664   2.109
10673SOL     OW43646   3.616   0.588   2.661
10673SOL    HW143647   3.576   0.639   2.590
10673SOL    HW243648   3.650   0.654   2.722
10674SOL     OW43649   3.834   1.241  19.520
10674SOL    HW143650   3.810   1.167  19.465
10674SOL    HW243651   3.801   1.318  19.473
10675SOL     OW43652   0.944   0.942   5.937
10675SOL    HW143653   0.999   1.009   5.896
10675SOL    HW243654   1.006   0.877   5.971
10676SOL     OW43655   2.917   0.681  21.751
10676SOL    HW143656   2.923   0.773  21.727
10676SOL    HW243657   2.823   0.665  21.760
10677SOL     OW43658   4.019   2.002   7.335
10677SOL    HW143659   3.949   2.051   7.292
10677SOL    HW243660   4.091   2.003   7.272
10678SOL     OW43661   0.982   1.437   6.095
10678SOL    HW143662   1.042   1.498   6.052
10678SOL    HW243663   1.028   1.353   6.094
10679SOL     OW43664   0.047   2.965   1.116
10679SOL    HW143665   4.779   3.024   1.173
10679SOL    HW243666   0.097   3.023   1.058
10680SOL     OW43667   3.323   3.718  24.804
10680SOL    HW143668   3.246   3.662  24.794
10680SOL    HW243669   3.288   3.804  24.828
10681SOL     OW43670   3.170   3.224   3.621
10681SOL    HW143671   3.205   3.172   3.549
10681SOL    HW243672   3.160   3.312   3.584
10682SOL     OW43673   0.338   1.524   7.660
10682SOL    HW143674   0.426   1.561   7.655
10682SOL    HW243675   0.353   1.431   7.679
10683SOL     OW43676   4.068   0.172  21.676
10683SOL    HW143677   4.151   0.128  21.697
10683SOL    HW243678   4.008   0.100  21.655
10684SOL     OW43679   1.711   4.750   9.178
10684SOL    HW143680   1.647   0.009   9.236
10684SOL    HW243681   1.791   0.020   9.191
10685SOL     OW43682   3.623   2.328  12.369
10685SOL    HW143683   3.644   2.357  12.458
10685SOL    HW243684   3.592   2.238  12.380
10686SOL     OW43685   0.406   3.083   5.972
10686SOL    HW143686   0.332   3.111   6.027
10686SOL    HW243687   0.474   3.059   6.034
10687SOL     OW43688   0.756   3.556   6.208
10687SOL    HW143689   0.789   3.646   6.210
10687SOL    HW243690   0.811   3.508   6.270
10688SOL     OW43691   1.974   1.589  20.464
10688SOL    HW143692   2.012   1.594  20.552
10688SOL    HW243693   1.890   1.634  20.471
10689SOL     OW43694   1.509   4.138  22.873
10689SOL    HW143695   1.543   4.115  22.786
10689SOL    HW243696   1.451   4.066  22.896
10690SOL     OW43697   0.338   2.312  10.081
10690SOL    HW143698   0.384   2.395  10.095
10690SOL    HW243699   0.311   2.284  10.169
10691SOL     OW43700   1.208   4.036  26.167
10691SOL    HW143701   1.165   3.952  26.183
10691SOL    HW243702   1.137   4.100  26.168
10692SOL     OW43703   0.087   2.963  20.610
10692SOL    HW143704   0.161   2.982  20.668
10692SOL    HW243705   0.086   3.035  20.547
10693SOL     OW43706   4.180   4.230  28.371
10693SOL    HW143707   4.112   4.217  28.305
10693SOL    HW243708   4.215   4.317  28.353
10694SOL     OW43709   3.795   1.938   0.488
10694SOL    HW143710   3.854   1.891   0.429
10694SOL    HW243711   3.709   1.930   0.447
10695SOL     OW43712   3.060   3.249   7.366
10695SOL    HW143713   2.992   3.181   7.370
10695SOL    HW243714   3.012   3.331   7.378
10696SOL     OW43715   1.709   4.464  24.047
10696SOL    HW143716   1.616   4.469  24.071
10696SOL    HW243717   1.715   4.512  23.965
10697SOL     OW43718   3.467   0.551  25.573
10697SOL    HW143719   3.494   0.637  25.539
10697SOL    HW243720   3.546   0.517  25.616
10698SOL     OW43721   4.563   4.443   1.801
10698SOL    HW143722   4.635   4.450   1.864
10698SOL    HW243723   4.534   4.352   1.808
10699SOL     OW43724   1.995   3.057   5.485
10699SOL    HW143725   2.077   3.107   5.487
10699SOL    HW243726   1.932   3.116   5.444
10700SOL     OW43727   1.023   0.847   0.673
10700SOL    HW143728   1.010   0.753   0.689
10700SOL    HW243729   1.083   0.851   0.599
10701SOL     OW43730   0.255   2.513  24.771
10701SOL    HW143731   0.325   2.515  24.706
10701SOL    HW243732   0.227   2.604  24.778
10702SOL     OW43733   2.950   3.243  26.852
10702SOL    HW143734   2.855   3.252  26.857
10702SOL    HW243735   2.976   3.305  26.784
10703SOL     OW43736   1.288   3.036   1.663
10703SOL    HW143737   1.377   3.023   1.631
10703SOL    HW243738   1.290   3.122   1.705
10704SOL     OW43739   4.009   4.029   4.690
10704SOL    HW143740   3.918   4.055   4.704
10704SOL    HW243741   4.009   3.934   4.702
10705SOL     OW43742   4.206   1.955   6.738
10705SOL    HW143743   4.160   2.039   6.734
10705SOL    HW243744   4.152   1.895   6.687
10706SOL     OW43745   2.351   3.798   2.184
10706SOL    HW143746   2.265   3.759   2.166
10706SOL    HW243747   2.331   3.887   2.214
10707SOL     OW43748   3.131   3.682   6.899
10707SOL    HW143749   3.159   3.736   6.973
10707SOL    HW243750   3.052   3.639   6.930
10708SOL     OW43751   2.583   1.210  19.230
10708SOL    HW143752   2.599   1.300  19.202
10708SOL    HW243753   2.650   1.193  19.296
10709SOL     OW43754   1.185   1.135   6.409
10709SOL    HW143755   1.265   1.178   6.378
10709SOL    HW243756   1.161   1.183   6.488
10710SOL     OW43757   1.469   1.846  10.363
10710SOL    HW143758   1.545   1.904  10.370
10710SOL    HW243759   1.458   1.811  10.451
10711SOL     OW43760   4.025   4.057  27.524
10711SOL    HW143761   3.958   4.101  27.472
10711SOL    HW243762   4.077   4.128  27.562
10712SOL     OW43763   4.485   1.683  21.019
10712SOL    HW143764   4.404   1.733  21.013
10712SOL    HW243765   4.472   1.624  21.093
10713SOL     OW43766   1.250   3.124   4.728
10713SOL    HW143767   1.220   3.042   4.768
10713SOL    HW243768   1.174   3.182   4.734
10714SOL     OW43769   2.813   3.965  18.321
10714SOL    HW143770   2.777   4.051  18.298
10714SOL    HW243771   2.767   3.904  18.263
10715SOL     OW43772   2.616   3.520  10.716
10715SOL    HW143773   2.665   3.552  10.791
10715SOL    HW243774   2.542   3.581  10.708
10716SOL     OW43775   3.323   1.916  27.104
10716SOL    HW143776   3.302   1.823  27.094
10716SOL    HW243777   3.391   1.918  27.171
10717SOL     OW43778   2.542   2.707  26.845
10717SOL    HW143779   2.549   2.647  26.771
10717SOL    HW243780   2.599   2.670  26.912
10718SOL     OW43781   0.839   3.873   9.604
10718SOL    HW143782   0.811   3.785   9.580
10718SOL    HW243783   0.800   3.930   9.538
10719SOL     OW43784   1.619   1.167   9.346
10719SOL    HW143785   1.585   1.253   9.370
10719SOL    HW243786   1.672   1.184   9.268
10720SOL     OW43787   2.668   4.385  23.340
10720SOL    HW143788   2.603   4.336  23.391
10720SOL    HW243789   2.654   4.356  23.250
10721SOL     OW43790   1.902   3.768  24.356
10721SOL    HW143791   1.947   3.799  24.435
10721SOL    HW243792   1.914   3.839  24.292
10722SOL     OW43793   2.575   3.660  23.508
10722SOL    HW143794   2.603   3.573  23.536
10722SOL    HW243795   2.487   3.671  23.545
10723SOL     OW43796   3.140   2.613   6.765
10723SOL    HW143797   3.132   2.603   6.670
10723SOL    HW243798   3.225   2.575   6.787
10724SOL     OW43799   2.398   3.483   7.058
10724SOL    HW143800   2.341   3.406   7.060
10724SOL    HW243801   2.338   3.557   7.053
10725SOL     OW43802   3.609   0.143   4.017
10725SOL    HW143803   3.572   0.218   3.971
10725SOL    HW243804   3.674   0.180   4.076
10726SOL     OW43805   3.315   3.754   6.662
10726SOL    HW143806   3.375   3.824   6.689
10726SOL    HW243807   3.264   3.734   6.741
10727SOL     OW43808   4.077   1.670  26.272
10727SOL    HW143809   3.986   1.697  26.282
10727SOL    HW243810   4.081   1.630  26.185
10728SOL     OW43811   3.611   4.647  28.187
10728SOL    HW143812   3.611   4.552  28.180
10728SOL    HW243813   3.518   4.671  28.187
10729SOL     OW43814   1.247   4.021  23.969
10729SOL    HW143815   1.186   4.001  24.040
10729SOL    HW243816   1.191   4.056  23.899
10730SOL     OW43817   0.967   0.791   5.599
10730SOL    HW143818   1.026   0.745   5.659
10730SOL    HW243819   1.019   0.803   5.520
10731SOL     OW43820   3.765   1.270   0.741
10731SOL    HW143821   3.799   1.345   0.789
10731SOL    HW243822   3.830   1.201   0.754
10732SOL     OW43823   1.557   1.671   5.853
10732SOL    HW143824   1.487   1.730   5.882
10732SOL    HW243825   1.602   1.646   5.934
10733SOL     OW43826   0.403   2.869   2.127
10733SOL    HW143827   0.353   2.933   2.076
10733SOL    HW243828   0.396   2.788   2.077
10734SOL     OW43829   4.768   1.322   1.716
10734SOL    HW143830   4.735   1.366   1.638
10734SOL    HW243831   4.713   1.354   1.787
10735SOL     OW43832   2.526   2.587   6.198
10735SOL    HW143833   2.543   2.654   6.131
10735SOL    HW243834   2.475   2.632   6.265
10736SOL     OW43835   2.034   0.353  26.154
10736SOL    HW143836   2.033   0.257  26.154
10736SOL    HW243837   2.118   0.376  26.115
10737SOL     OW43838   0.783   3.621   9.489
10737SOL    HW143839   0.840   3.582   9.422
10737SOL    HW243840   0.695   3.618   9.450
10738SOL     OW43841   2.470   0.642  21.641
10738SOL    HW143842   2.491   0.575  21.577
10738SOL    HW243843   2.376   0.655  21.632
10739SOL     OW43844   1.555   2.732  10.689
10739SOL    HW143845   1.592   2.659  10.739
10739SOL    HW243846   1.498   2.690  10.625
10740SOL     OW43847   4.577   2.552   3.546
10740SOL    HW143848   4.633   2.571   3.621
10740SOL    HW243849   4.488   2.551   3.582
10741SOL     OW43850   3.606   1.977  22.452
10741SOL    HW143851   3.663   2.051  22.432
10741SOL    HW243852   3.518   2.009  22.434
10742SOL     OW43853   3.371   3.808  25.514
10742SOL    HW143854   3.381   3.732  25.456
10742SOL    HW243855   3.425   3.788  25.590
10743SOL     OW43856   4.054   2.115   2.366
10743SOL    HW143857   4.071   2.029   2.403
10743SOL    HW243858   4.141   2.154   2.355
10744SOL     OW43859   2.762   3.549   5.163
10744SOL    HW143860   2.784   3.459   5.188
10744SOL    HW243861   2.793   3.602   5.236
10745SOL     OW43862   0.780   4.376   8.003
10745SOL    HW143863   0.783   4.402   8.095
10745SOL    HW243864   0.854   4.317   7.993
10746SOL     OW43865   3.206   0.481   2.847
10746SOL    HW143866   3.151   0.416   2.891
10746SOL    HW243867   3.287   0.434   2.828
10747SOL     OW43868   2.468   0.526   0.054
10747SOL    HW143869   2.489   0.566  28.492
10747SOL    HW243870   2.448   0.600   0.111
10748SOL     OW43871   4.306   0.158   1.030
10748SOL    HW143872   4.305   0.070   0.992
10748SOL    HW243873   4.287   0.145   1.123
10749SOL     OW43874   3.340   4.224   0.228
10749SOL    HW143875   3.396   4.267   0.163
10749SOL    HW243876   3.372   4.134   0.231
10750SOL     OW43877   1.936   1.293   5.178
10750SOL    HW143878   1.951   1.370   5.233
10750SOL    HW243879   1.841   1.287   5.171
10751SOL     OW43880   1.750   2.679  24.998
10751SOL    HW143881   1.723   2.618  24.930
10751SOL    HW243882   1.826   2.638  25.039
10752SOL     OW43883   4.283   0.783   6.936
10752SOL    HW143884   4.335   0.852   6.978
10752SOL    HW243885   4.227   0.829   6.873
10753SOL     OW43886   2.254   2.937   7.279
10753SOL    HW143887   2.325   2.972   7.225
10753SOL    HW243888   2.298   2.879   7.341
10754SOL     OW43889   2.535   3.976   5.499
10754SOL    HW143890   2.443   3.977   5.527
10754SOL    HW243891   2.584   3.958   5.579
10755SOL     OW43892   4.164   2.772   0.334
10755SOL    HW143893   4.204   2.726   0.261
10755SOL    HW243894   4.071   2.748   0.330
10756SOL     OW43895   2.629   4.433   5.948
10756SOL    HW143896   2.615   4.354   5.896
10756SOL    HW243897   2.548   4.483   5.939
10757SOL     OW43898   1.080   1.743   5.161
10757SOL    HW143899   1.165   1.772   5.127
10757SOL    HW243900   1.044   1.820   5.205
10758SOL     OW43901   0.736   0.534  25.731
10758SOL    HW143902   0.744   0.503  25.641
10758SOL    HW243903   0.647   0.570  25.737
10759SOL     OW43904   0.113   2.929  27.137
10759SOL    HW143905   0.149   2.930  27.048
10759SOL    HW243906   0.162   2.861  27.182
10760SOL     OW43907   0.150   3.426  10.596
10760SOL    HW143908   0.240   3.431  10.630
10760SOL    HW243909   0.109   3.507  10.626
10761SOL     OW43910   2.113   1.553   3.070
10761SOL    HW143911   2.035   1.608   3.065
10761SOL    HW243912   2.160   1.572   2.989
10762SOL     OW43913   2.639   1.246  28.490
10762SOL    HW143914   2.709   1.182  28.502
10762SOL    HW243915   2.684   1.327  28.465
10763SOL     OW43916   4.085   3.310   1.871
10763SOL    HW143917   4.057   3.336   1.783
10763SOL    HW243918   4.176   3.282   1.861
10764SOL     OW43919   2.719   3.321   2.429
10764SOL    HW143920   2.747   3.231   2.413
10764SOL    HW243921   2.661   3.315   2.505
10765SOL     OW43922   0.837   3.449   2.284
10765SOL    HW143923   0.898   3.377   2.303
10765SOL    HW243924   0.753   3.406   2.268
10766SOL     OW43925   2.430   0.723   6.786
10766SOL    HW143926   2.385   0.663   6.845
10766SOL    HW243927   2.407   0.692   6.698
10767SOL     OW43928   2.220   1.582   3.623
10767SOL    HW143929   2.127   1.562   3.615
10767SOL    HW243930   2.229   1.669   3.585
10768SOL     OW43931   4.237   1.787  24.547
10768SOL    HW143932   4.271   1.700  24.525
10768SOL    HW243933   4.150   1.771  24.583
10769SOL     OW43934   1.613   0.448  24.766
10769SOL    HW143935   1.684   0.451  24.830
10769SOL    HW243936   1.586   0.539  24.755
10770SOL     OW43937   0.579   4.379  23.044
10770SOL    HW143938   0.498   4.424  23.021
10770SOL    HW243939   0.578   4.299  22.991
10771SOL     OW43940   0.681   3.328   5.865
10771SOL    HW143941   0.646   3.314   5.953
10771SOL    HW243942   0.604   3.329   5.808
10772SOL     OW43943   1.251   0.562  26.483
10772SOL    HW143944   1.248   0.590  26.392
10772SOL    HW243945   1.233   0.468  26.479
10773SOL     OW43946   0.204   0.757   3.055
10773SOL    HW143947   0.175   0.845   3.080
10773SOL    HW243948   0.123   0.708   3.039
10774SOL     OW43949   2.578   4.681   4.934
10774SOL    HW143950   2.583   4.591   4.965
10774SOL    HW243951   2.646   4.727   4.982
10775SOL     OW43952   1.206   2.071   7.297
10775SOL    HW143953   1.118   2.061   7.334
10775SOL    HW243954   1.222   1.988   7.252
10776SOL     OW43955   0.163   4.485  24.128
10776SOL    HW143956   0.074   4.520  24.132
10776SOL    HW243957   0.159   4.403  24.176
10777SOL     OW43958   3.911   4.412   5.420
10777SOL    HW143959   3.997   4.419   5.380
10777SOL    HW243960   3.883   4.502   5.434
10778SOL     OW43961   3.383   3.768  26.919
10778SOL    HW143962   3.425   3.830  26.860
10778SOL    HW243963   3.452   3.743  26.981
10779SOL     OW43964   4.221   0.419   1.176
10779SOL    HW143965   4.217   0.423   1.272
10779SOL    HW243966   4.132   0.395   1.149
10780SOL     OW43967   2.237   2.427  20.658
10780SOL    HW143968   2.240   2.523  20.653
10780SOL    HW243969   2.329   2.400  20.658
10781SOL     OW43970   1.636   0.764   8.437
10781SOL    HW143971   1.578   0.773   8.513
10781SOL    HW243972   1.582   0.793   8.363
10782SOL     OW43973   3.556   1.150   3.832
10782SOL    HW143974   3.621   1.164   3.763
10782SOL    HW243975   3.524   1.061   3.818
10783SOL     OW43976   2.667   3.578   2.283
10783SOL    HW143977   2.698   3.490   2.260
10783SOL    HW243978   2.630   3.613   2.202
10784SOL     OW43979   4.209   0.526   5.829
10784SOL    HW143980   4.273   0.596   5.846
10784SOL    HW243981   4.254   0.466   5.770
10785SOL     OW43982   0.672   4.102   4.470
10785SOL    HW143983   0.690   4.171   4.407
10785SOL    HW243984   0.690   4.021   4.423
10786SOL     OW43985   1.591   1.089   6.184
10786SOL    HW143986   1.681   1.118   6.166
10786SOL    HW243987   1.561   1.147   6.254
10787SOL     OW43988   0.497   0.930  17.119
10787SOL    HW143989   0.569   0.920  17.057
10787SOL    HW243990   0.536   0.911  17.204
10788SOL     OW43991   2.435   4.259  21.317
10788SOL    HW143992   2.446   4.319  21.243
10788SOL    HW243993   2.411   4.175  21.277
10789SOL     OW43994   4.406   4.121  20.263
10789SOL    HW143995   4.409   4.217  20.261
10789SOL    HW243996   4.464   4.093  20.192
10790SOL     OW43997   0.059   4.562   6.593
10790SOL    HW143998   4.778   4.548   6.522
10790SOL    HW243999   0.144   4.538   6.556
10791SOL     OW44000   0.504   0.895   7.074
10791SOL    HW144001   0.469   0.806   7.079
10791SOL    HW244002   0.599   0.884   7.084
10792SOL     OW44003   0.059   2.298  24.616
10792SOL    HW144004   0.041   2.367  24.680
10792SOL    HW244005   0.135   2.251  24.652
10793SOL     OW44006   1.019   4.178  24.235
10793SOL    HW144007   1.019   4.093  24.192
10793SOL    HW244008   0.946   4.225  24.196
10794SOL     OW44009   4.307   2.588  25.448
10794SOL    HW144010   4.279   2.633  25.369
10794SOL    HW244011   4.245   2.616  25.515
10795SOL     OW44012   2.011   1.546  25.114
10795SOL    HW144013   1.923   1.583  25.118
10795SOL    HW244014   1.999   1.453  25.134
10796SOL     OW44015   0.654   0.140   2.987
10796SOL    HW144016   0.654   0.046   2.966
10796SOL    HW244017   0.562   0.167   2.979
10797SOL     OW44018   1.470   1.317  17.917
10797SOL    HW144019   1.434   1.260  17.849
10797SOL    HW244020   1.394   1.341  17.970
10798SOL     OW44021   0.651   0.187   1.095
10798SOL    HW144022   0.593   0.155   1.026
10798SOL    HW244023   0.594   0.201   1.170
10799SOL     OW44024   4.204   3.879   5.951
10799SOL    HW144025   4.177   3.818   6.020
10799SOL    HW244026   4.299   3.886   5.960
10800SOL     OW44027   0.978   4.704  22.616
10800SOL    HW144028   1.073   4.709  22.604
10800SOL    HW244029   0.948   4.642  22.549
10801SOL     OW44030   1.602   2.151  21.535
10801SOL    HW144031   1.568   2.238  21.557
10801SOL    HW244032   1.652   2.165  21.454
10802SOL     OW44033   1.722   0.717  27.257
10802SOL    HW144034   1.755   0.633  27.225
10802SOL    HW244035   1.651   0.694  27.317
10803SOL     OW44036   0.583   1.856  24.975
10803SOL    HW144037   0.516   1.798  24.940
10803SOL    HW244038   0.660   1.838  24.921
10804SOL     OW44039   1.804   3.312   4.932
10804SOL    HW144040   1.738   3.289   4.997
10804SOL    HW244041   1.789   3.252   4.859
10805SOL     OW44042   3.122   2.483   0.881
10805SOL    HW144043   3.177   2.405   0.875
10805SOL    HW244044   3.047   2.464   0.825
10806SOL     OW44045   0.203   2.451  21.730
10806SOL    HW144046   0.211   2.386  21.661
10806SOL    HW244047   0.145   2.518  21.693
10807SOL     OW44048   1.832   0.433  11.811
10807SOL    HW144049   1.820   0.403  11.901
10807SOL    HW244050   1.766   0.386  11.760
10808SOL     OW44051   3.380   0.424   9.631
10808SOL    HW144052   3.341   0.511   9.638
10808SOL    HW244053   3.473   0.441   9.615
10809SOL     OW44054   2.469   4.310   1.594
10809SOL    HW144055   2.450   4.260   1.515
10809SOL    HW244056   2.429   4.259   1.664
10810SOL     OW44057   2.286   3.829   0.600
10810SOL    HW144058   2.292   3.922   0.580
10810SOL    HW244059   2.196   3.817   0.632
10811SOL     OW44060   1.389   1.998  21.619
10811SOL    HW144061   1.440   2.070  21.582
10811SOL    HW244062   1.450   1.924  21.622
10812SOL     OW44063   1.258   1.272  21.523
10812SOL    HW144064   1.197   1.213  21.568
10812SOL    HW244065   1.226   1.360  21.544
10813SOL     OW44066   1.602   1.997  25.804
10813SOL    HW144067   1.542   2.067  25.830
10813SOL    HW244068   1.678   2.042  25.769
10814SOL     OW44069   4.424   4.392   6.120
10814SOL    HW144070   4.344   4.347   6.146
10814SOL    HW244071   4.430   4.377   6.026
10815SOL     OW44072   0.105   0.694  10.412
10815SOL    HW144073   0.029   0.637  10.400
10815SOL    HW244074   0.075   0.763  10.471
10816SOL     OW44075   1.944   0.077   5.088
10816SOL    HW144076   2.009   0.117   5.030
10816SOL    HW244077   1.971   4.766   5.095
10817SOL     OW44078   3.388   0.114  21.856
10817SOL    HW144079   3.324   0.161  21.802
10817SOL    HW244080   3.418   0.179  21.920
10818SOL     OW44081   4.283   0.530   1.814
10818SOL    HW144082   4.210   0.588   1.794
10818SOL    HW244083   4.254   0.482   1.892
10819SOL     OW44084   3.446   4.126  20.927
10819SOL    HW144085   3.448   4.214  20.965
10819SOL    HW244086   3.420   4.069  20.999
10820SOL     OW44087   0.871   4.482  23.760
10820SOL    HW144088   0.949   4.486  23.704
10820SOL    HW244089   0.823   4.406  23.728
10821SOL     OW44090   2.696   1.191   1.945
10821SOL    HW144091   2.706   1.258   2.012
10821SOL    HW244092   2.765   1.210   1.881
10822SOL     OW44093   3.242   0.015   0.321
10822SOL    HW144094   3.329   4.771   0.290
10822SOL    HW244095   3.183   4.737   0.275
10823SOL     OW44096   2.962   0.310   9.746
10823SOL    HW144097   2.944   0.219   9.722
10823SOL    HW244098   2.997   0.305   9.835
10824SOL     OW44099   3.945   0.760  22.176
10824SOL    HW144100   3.906   0.846  22.191
10824SOL    HW244101   3.921   0.709  22.253
10825SOL     OW44102   4.230   3.799  26.927
10825SOL    HW144103   4.175   3.852  26.869
10825SOL    HW244104   4.261   3.727  26.872
10826SOL     OW44105   4.769   0.223   9.350
10826SOL    HW144106   0.012   0.315   9.361
10826SOL    HW244107   0.063   0.174   9.384
10827SOL     OW44108   0.798   2.812   9.794
10827SOL    HW144109   0.781   2.732   9.844
10827SOL    HW244110   0.820   2.877   9.861
10828SOL     OW44111   3.460   3.223   9.583
10828SOL    HW144112   3.434   3.165   9.655
10828SOL    HW244113   3.383   3.227   9.527
10829SOL     OW44114   2.132   0.987  27.446
10829SOL    HW144115   2.212   0.938  27.429
10829SOL    HW244116   2.149   1.034  27.528
10830SOL     OW44117   3.627   1.153   1.064
10830SOL    HW144118   3.720   1.145   1.043
10830SOL    HW244119   3.625   1.210   1.141
10831SOL     OW44120   3.699   1.920   0.775
10831SOL    HW144121   3.749   1.844   0.746
10831SOL    HW244122   3.689   1.974   0.696
10832SOL     OW44123   3.932   0.709  12.003
10832SOL    HW144124   4.023   0.679  12.006
10832SOL    HW244125   3.938   0.801  11.976
10833SOL     OW44126   3.121   4.669  19.906
10833SOL    HW144127   3.170   4.663  19.824
10833SOL    HW244128   3.186   4.652  19.974
10834SOL     OW44129   3.884   4.477  24.240
10834SOL    HW144130   3.837   4.473  24.323
10834SOL    HW244131   3.951   4.544  24.254
10835SOL     OW44132   1.093   3.752   3.465
10835SOL    HW144133   1.047   3.716   3.541
10835SOL    HW244134   1.179   3.777   3.499
10836SOL     OW44135   0.790   1.407   0.105
10836SOL    HW144136   0.860   1.350   0.073
10836SOL    HW244137   0.729   1.413   0.032
10837SOL     OW44138   3.508   2.627   5.085
10837SOL    HW144139   3.465   2.566   5.145
10837SOL    HW244140   3.462   2.616   5.002
10838SOL     OW44141   3.917   2.195  12.066
10838SOL    HW144142   3.926   2.141  11.988
10838SOL    HW244143   3.835   2.166  12.106
10839SOL     OW44144   4.197   4.326  24.230
10839SOL    HW144145   4.272   4.275  24.198
10839SOL    HW244146   4.153   4.357  24.151
10840SOL     OW44147   4.068   3.762   6.577
10840SOL    HW144148   4.113   3.759   6.492
10840SOL    HW244149   4.056   3.670   6.601
10841SOL     OW44150   1.883   2.542   0.964
10841SOL    HW144151   1.798   2.538   1.009
10841SOL    HW244152   1.931   2.610   1.011
10842SOL     OW44153   1.403   1.931  23.684
10842SOL    HW144154   1.423   1.925  23.777
10842SOL    HW244155   1.318   1.976  23.681
10843SOL     OW44156   1.265   2.634   4.069
10843SOL    HW144157   1.314   2.673   3.996
10843SOL    HW244158   1.250   2.707   4.129
10844SOL     OW44159   4.228   2.789  23.061
10844SOL    HW144160   4.215   2.698  23.033
10844SOL    HW244161   4.140   2.826  23.063
10845SOL     OW44162   0.193   1.960  10.078
10845SOL    HW144163   0.134   1.887  10.058
10845SOL    HW244164   0.220   1.993   9.992
10846SOL     OW44165   0.109   2.780   9.164
10846SOL    HW144166   0.089   2.707   9.105
10846SOL    HW244167   0.110   2.857   9.107
10847SOL     OW44168   0.647   1.673   2.879
10847SOL    HW144169   0.722   1.620   2.854
10847SOL    HW244170   0.588   1.668   2.804
10848SOL     OW44171   3.719   1.933   8.663
10848SOL    HW144172   3.768   1.874   8.607
10848SOL    HW244173   3.673   1.991   8.602
10849SOL     OW44174   3.353   3.082  10.683
10849SOL    HW144175   3.334   3.049  10.771
10849SOL    HW244176   3.433   3.037  10.658
10850SOL     OW44177   4.470   3.564   4.422
10850SOL    HW144178   4.504   3.580   4.334
10850SOL    HW244179   4.470   3.469   4.431
10851SOL     OW44180   0.948   1.333  10.966
10851SOL    HW144181   0.873   1.352  11.023
10851SOL    HW244182   1.013   1.292  11.024
10852SOL     OW44183   0.860   2.539  22.486
10852SOL    HW144184   0.892   2.516  22.399
10852SOL    HW244185   0.907   2.619  22.509
10853SOL     OW44186   0.893   1.868  20.379
10853SOL    HW144187   0.912   1.790  20.326
10853SOL    HW244188   0.806   1.896  20.351
10854SOL     OW44189   0.675   4.145   1.035
10854SOL    HW144190   0.597   4.199   1.050
10854SOL    HW244191   0.716   4.182   0.957
10855SOL     OW44192   1.764   1.723   5.282
10855SOL    HW144193   1.777   1.787   5.352
10855SOL    HW244194   1.781   1.772   5.202
10856SOL     OW44195   0.967   1.059  22.797
10856SOL    HW144196   0.889   1.107  22.770
10856SOL    HW244197   1.021   1.054  22.718
10857SOL     OW44198   1.685   0.607   7.216
10857SOL    HW144199   1.696   0.676   7.281
10857SOL    HW244200   1.710   0.648   7.133
10858SOL     OW44201   4.113   4.112   8.180
10858SOL    HW144202   4.088   4.041   8.121
10858SOL    HW244203   4.098   4.192   8.129
10859SOL     OW44204   0.257   1.911   1.323
10859SOL    HW144205   0.184   1.952   1.369
10859SOL    HW244206   0.306   1.984   1.286
10860SOL     OW44207   2.964   3.218   2.019
10860SOL    HW144208   2.943   3.281   2.087
10860SOL    HW244209   2.883   3.207   1.970
10861SOL     OW44210   1.914   0.128  13.396
10861SOL    HW144211   1.988   0.068  13.391
10861SOL    HW244212   1.954   0.214  13.406
10862SOL     OW44213   2.998   4.627   2.214
10862SOL    HW144214   3.035   4.672   2.138
10862SOL    HW244215   3.023   4.535   2.202
10863SOL     OW44216   4.365   0.567   4.029
10863SOL    HW144217   4.379   0.650   3.983
10863SOL    HW244218   4.321   0.592   4.110
10864SOL     OW44219   4.195   0.315  22.036
10864SOL    HW144220   4.117   0.338  21.986
10864SOL    HW244221   4.239   0.399  22.051
10865SOL     OW44222   4.467   4.049   6.027
10865SOL    HW144223   4.498   3.959   6.023
10865SOL    HW244224   4.485   4.076   6.117
10866SOL     OW44225   3.701   0.001  26.754
10866SOL    HW144226   3.688   0.029  26.845
10866SOL    HW244227   3.779   0.049  26.725
10867SOL     OW44228   4.014   0.606  20.374
10867SOL    HW144229   4.076   0.558  20.319
10867SOL    HW244230   3.960   0.538  20.413
10868SOL     OW44231   4.381   0.701   2.629
10868SOL    HW144232   4.343   0.648   2.699
10868SOL    HW244233   4.456   0.650   2.599
10869SOL     OW44234   1.153   1.991  23.682
10869SOL    HW144235   1.101   1.947  23.749
10869SOL    HW244236   1.169   2.079  23.717
10870SOL     OW44237   2.134   2.779  23.498
10870SOL    HW144238   2.068   2.726  23.543
10870SOL    HW244239   2.096   2.796  23.412
10871SOL     OW44240   2.548   0.769  12.625
10871SOL    HW144241   2.598   0.743  12.702
10871SOL    HW244242   2.489   0.695  12.609
10872SOL     OW44243   3.648   2.263  13.008
10872SOL    HW144244   3.555   2.286  13.009
10872SOL    HW244245   3.655   2.191  13.071
10873SOL     OW44246   4.102   4.574  25.352
10873SOL    HW144247   4.024   4.525  25.378
10873SOL    HW244248   4.097   4.655  25.402
10874SOL     OW44249   0.481   0.734  10.969
10874SOL    HW144250   0.546   0.765  11.033
10874SOL    HW244251   0.497   0.640  10.963
10875SOL     OW44252   4.522   2.482  12.208
10875SOL    HW144253   4.605   2.492  12.162
10875SOL    HW244254   4.519   2.556  12.268
10876SOL     OW44255   3.223   0.991  28.377
10876SOL    HW144256   3.295   0.944  28.419
10876SOL    HW244257   3.145   0.959  28.422
10877SOL     OW44258   1.108   0.566  20.044
10877SOL    HW144259   1.173   0.496  20.038
10877SOL    HW244260   1.065   0.551  20.128
10878SOL     OW44261   2.338   1.436   5.332
10878SOL    HW144262   2.359   1.351   5.371
10878SOL    HW244263   2.291   1.415   5.252
10879SOL     OW44264   3.734   3.028   8.794
10879SOL    HW144265   3.754   3.120   8.775
10879SOL    HW244266   3.753   3.019   8.887
10880SOL     OW44267   2.957   3.957  13.974
10880SOL    HW144268   3.028   3.893  13.985
10880SOL    HW244269   2.981   4.005  13.895
10881SOL     OW44270   2.152   3.810   4.109
10881SOL    HW144271   2.098   3.754   4.054
10881SOL    HW244272   2.242   3.787   4.085
10882SOL     OW44273   3.562   3.609   2.266
10882SOL    HW144274   3.597   3.680   2.319
10882SOL    HW244275   3.473   3.637   2.243
10883SOL     OW44276   0.232   3.404  27.892
10883SOL    HW144277   0.318   3.428  27.927
10883SOL    HW244278   0.170   3.456  27.944
10884SOL     OW44279   2.607   1.731  22.094
10884SOL    HW144280   2.638   1.658  22.041
10884SOL    HW244281   2.513   1.715  22.105
10885SOL     OW44282   3.176   0.919  27.649
10885SOL    HW144283   3.182   0.997  27.705
10885SOL    HW244284   3.233   0.939  27.574
10886SOL     OW44285   2.405   0.435  27.440
10886SOL    HW144286   2.345   0.387  27.383
10886SOL    HW244287   2.441   0.504  27.384
10887SOL     OW44288   2.397   0.848  27.551
10887SOL    HW144289   2.375   0.759  27.524
10887SOL    HW244290   2.458   0.837  27.624
10888SOL     OW44291   0.892   2.440  28.203
10888SOL    HW144292   0.904   2.465  28.295
10888SOL    HW244293   0.866   2.521  28.159
10889SOL     OW44294   3.976   2.738  17.872
10889SOL    HW144295   4.043   2.673  17.853
10889SOL    HW244296   3.916   2.734  17.798
10890SOL     OW44297   1.292   0.980   3.684
10890SOL    HW144298   1.355   0.947   3.620
10890SOL    HW244299   1.241   0.903   3.710
10891SOL     OW44300   4.402   0.723  11.081
10891SOL    HW144301   4.445   0.641  11.058
10891SOL    HW244302   4.474   0.784  11.099
10892SOL     OW44303   2.746   3.181   8.262
10892SOL    HW144304   2.817   3.160   8.202
10892SOL    HW244305   2.708   3.096   8.286
10893SOL     OW44306   0.912   4.631  22.198
10893SOL    HW144307   0.902   4.598  22.287
10893SOL    HW244308   0.914   4.552  22.144
10894SOL     OW44309   4.560   3.240  25.441
10894SOL    HW144310   4.488   3.225  25.502
10894SOL    HW244311   4.596   3.325  25.467
10895SOL     OW44312   2.127   2.315   0.703
10895SOL    HW144313   2.218   2.343   0.701
10895SOL    HW244314   2.101   2.324   0.795
10896SOL     OW44315   3.991   4.077   1.137
10896SOL    HW144316   4.049   4.076   1.061
10896SOL    HW244317   3.917   4.132   1.110
10897SOL     OW44318   4.157   1.138   0.465
10897SOL    HW144319   4.117   1.221   0.491
10897SOL    HW244320   4.103   1.071   0.507
10898SOL     OW44321   0.015   1.278  10.523
10898SOL    HW144322   4.710   1.236  10.515
10898SOL    HW244323   4.780   1.356  10.577
10899SOL     OW44324   2.561   3.061   9.562
10899SOL    HW144325   2.498   3.133   9.562
10899SOL    HW244326   2.639   3.097   9.521
10900SOL     OW44327   3.532   0.816  11.148
10900SOL    HW144328   3.600   0.805  11.215
10900SOL    HW244329   3.462   0.864  11.193
10901SOL     OW44330   2.114   1.879  10.786
10901SOL    HW144331   2.178   1.949  10.801
10901SOL    HW244332   2.137   1.845  10.699
10902SOL     OW44333   1.425   3.351   7.363
10902SOL    HW144334   1.361   3.280   7.360
10902SOL    HW244335   1.500   3.313   7.408
10903SOL     OW44336   0.000   2.108  21.069
10903SOL    HW144337   0.092   2.083  21.069
10903SOL    HW244338   4.777   2.188  21.017
10904SOL     OW44339   1.671   4.233  25.989
10904SOL    HW144340   1.620   4.187  25.923
10904SOL    HW244341   1.619   4.310  26.011
10905SOL     OW44342   3.510   3.709   9.224
10905SOL    HW144343   3.448   3.636   9.218
10905SOL    HW244344   3.456   3.787   9.214
10906SOL     OW44345   0.274   2.244  23.416
10906SOL    HW144346   0.366   2.253  23.440
10906SOL    HW244347   0.275   2.207  23.328
10907SOL     OW44348   3.134   3.764  23.921
10907SOL    HW144349   3.098   3.828  23.860
10907SOL    HW244350   3.187   3.706  23.867
10908SOL     OW44351   0.313   0.304  25.469
10908SOL    HW144352   0.219   0.321  25.472
10908SOL    HW244353   0.343   0.354  25.393
10909SOL     OW44354   2.377   4.314  25.800
10909SOL    HW144355   2.412   4.235  25.842
10909SOL    HW244356   2.453   4.370  25.787
10910SOL     OW44357   2.604   0.834  26.256
10910SOL    HW144358   2.548   0.808  26.329
10910SOL    HW244359   2.543   0.866  26.190
10911SOL     OW44360   4.723   4.270   3.138
10911SOL    HW144361   4.643   4.322   3.140
10911SOL    HW244362   4.779   4.316   3.075
10912SOL     OW44363   2.808   2.676  23.551
10912SOL    HW144364   2.862   2.656  23.628
10912SOL    HW244365   2.867   2.662  23.477
10913SOL     OW44366   1.606   1.261   7.261
10913SOL    HW144367   1.617   1.334   7.200
10913SOL    HW244368   1.515   1.267   7.289
10914SOL     OW44369   3.821   1.198  12.152
10914SOL    HW144370   3.901   1.247  12.133
10914SOL    HW244371   3.844   1.144  12.228
10915SOL     OW44372   3.149   4.527   5.530
10915SOL    HW144373   3.191   4.612   5.522
10915SOL    HW244374   3.153   4.489   5.442
10916SOL     OW44375   3.041   4.356   4.248
10916SOL    HW144376   3.012   4.335   4.159
10916SOL    HW244377   3.072   4.273   4.283
10917SOL     OW44378   1.132   0.849   6.582
10917SOL    HW144379   1.164   0.772   6.535
10917SOL    HW244380   1.072   0.892   6.521
10918SOL     OW44381   2.910   4.713  24.701
10918SOL    HW144382   2.881   4.770  24.630
10918SOL    HW244383   2.935   4.631  24.658
10919SOL     OW44384   1.586   1.085  21.884
10919SOL    HW144385   1.494   1.082  21.909
10919SOL    HW244386   1.624   1.007  21.925
10920SOL     OW44387   3.328   0.421   4.438
10920SOL    HW144388   3.333   0.511   4.469
10920SOL    HW244389   3.249   0.418   4.385
10921SOL     OW44390   0.831   0.365   6.803
10921SOL    HW144391   0.813   0.450   6.763
10921SOL    HW244392   0.910   0.379   6.855
10922SOL     OW44393   2.608   0.563  13.417
10922SOL    HW144394   2.622   0.574  13.511
10922SOL    HW244395   2.628   0.649  13.380
10923SOL     OW44396   3.635   1.629  22.044
10923SOL    HW144397   3.706   1.577  22.083
10923SOL    HW244398   3.575   1.645  22.117
10924SOL     OW44399   2.628   0.227   8.549
10924SOL    HW144400   2.710   0.193   8.584
10924SOL    HW244401   2.653   0.305   8.500
10925SOL     OW44402   2.635   0.464  20.375
10925SOL    HW144403   2.550   0.441  20.412
10925SOL    HW244404   2.615   0.501  20.289
10926SOL     OW44405   0.392   0.442  21.108
10926SOL    HW144406   0.480   0.477  21.122
10926SOL    HW244407   0.407   0.352  21.080
10927SOL     OW44408   1.420   0.883  23.111
10927SOL    HW144409   1.360   0.920  23.176
10927SOL    HW244410   1.500   0.864  23.160
10928SOL     OW44411   3.802   3.704  22.723
10928SOL    HW144412   3.719   3.707  22.676
10928SOL    HW244413   3.856   3.771  22.682
10929SOL     OW44414   3.638   1.312  11.699
10929SOL    HW144415   3.588   1.388  11.731
10929SOL    HW244416   3.640   1.252  11.774
10930SOL     OW44417   0.058   2.585  24.171
10930SOL    HW144418   0.042   2.506  24.119
10930SOL    HW244419   0.144   2.571  24.211
10931SOL     OW44420   0.094   3.316  24.934
10931SOL    HW144421   0.087   3.410  24.948
10931SOL    HW244422   0.146   3.284  25.008
10932SOL     OW44423   0.969   3.514   1.953
10932SOL    HW144424   1.044   3.549   1.905
10932SOL    HW244425   0.976   3.419   1.942
10933SOL     OW44426   4.133   1.574   8.179
10933SOL    HW144427   4.138   1.630   8.256
10933SOL    HW244428   4.042   1.582   8.149
10934SOL     OW44429   1.923   2.600   8.231
10934SOL    HW144430   1.859   2.605   8.160
10934SOL    HW244431   1.945   2.691   8.250
10935SOL     OW44432   3.823   0.920  25.684
10935SOL    HW144433   3.862   1.007  25.678
10935SOL    HW244434   3.897   0.860  25.674
10936SOL     OW44435   2.511   4.141   7.432
10936SOL    HW144436   2.485   4.049   7.432
10936SOL    HW244437   2.529   4.160   7.340
10937SOL     OW44438   0.583   2.934   6.404
10937SOL    HW144439   0.661   2.988   6.417
10937SOL    HW244440   0.579   2.878   6.481
10938SOL     OW44441   3.604   1.286   8.455
10938SOL    HW144442   3.614   1.309   8.547
10938SOL    HW244443   3.663   1.345   8.409
10939SOL     OW44444   3.002   4.728  26.170
10939SOL    HW144445   2.989   0.012  26.101
10939SOL    HW244446   3.096   4.712  26.171
10940SOL     OW44447   1.021   0.130   2.587
10940SOL    HW144448   1.077   0.190   2.538
10940SOL    HW244449   0.985   0.184   2.658
10941SOL     OW44450   3.230   1.609   6.291
10941SOL    HW144451   3.321   1.625   6.318
10941SOL    HW244452   3.179   1.673   6.340
10942SOL     OW44453   2.329   4.425  21.715
10942SOL    HW144454   2.293   4.513  21.725
10942SOL    HW244455   2.254   4.371  21.690
10943SOL     OW44456   0.697   3.522  25.453
10943SOL    HW144457   0.717   3.614  25.434
10943SOL    HW244458   0.658   3.489  25.372
10944SOL     OW44459   0.177   2.475  19.772
10944SOL    HW144460   0.099   2.505  19.724
10944SOL    HW244461   0.228   2.428  19.707
10945SOL     OW44462   2.988   3.814  18.446
10945SOL    HW144463   3.007   3.782  18.358
10945SOL    HW244464   2.939   3.895  18.432
10946SOL     OW44465   2.388   2.516   2.977
10946SOL    HW144466   2.296   2.542   2.984
10946SOL    HW244467   2.436   2.599   2.979
10947SOL     OW44468   2.623   2.435  25.954
10947SOL    HW144469   2.532   2.407  25.944
10947SOL    HW244470   2.672   2.378  25.895
10948SOL     OW44471   2.294   2.164  23.881
10948SOL    HW144472   2.202   2.163  23.856
10948SOL    HW244473   2.331   2.084  23.843
10949SOL     OW44474   1.221   0.397  20.937
10949SOL    HW144475   1.258   0.425  21.021
10949SOL    HW244476   1.263   0.453  20.872
10950SOL     OW44477   1.642   2.192  19.754
10950SOL    HW144478   1.734   2.176  19.775
10950SOL    HW244479   1.644   2.230  19.666
10951SOL     OW44480   0.544   3.071   5.562
10951SOL    HW144481   0.576   3.152   5.523
10951SOL    HW244482   0.453   3.090   5.586
10952SOL     OW44483   4.371   1.246  24.949
10952SOL    HW144484   4.276   1.253  24.944
10952SOL    HW244485   4.394   1.294  25.029
10953SOL     OW44486   3.595   0.185  22.388
10953SOL    HW144487   3.660   0.116  22.401
10953SOL    HW244488   3.636   0.264  22.424
10954SOL     OW44489   0.554   0.370   6.119
10954SOL    HW144490   0.620   0.348   6.053
10954SOL    HW244491   0.602   0.416   6.187
10955SOL     OW44492   1.665   1.150   3.554
10955SOL    HW144493   1.753   1.121   3.531
10955SOL    HW244494   1.607   1.102   3.495
10956SOL     OW44495   1.298   1.214  18.253
10956SOL    HW144496   1.308   1.292  18.199
10956SOL    HW244497   1.225   1.166  18.213
10957SOL     OW44498   2.308   1.365   1.242
10957SOL    HW144499   2.310   1.430   1.171
10957SOL    HW244500   2.399   1.357   1.270
10958SOL     OW44501   2.976   0.111  12.855
10958SOL    HW144502   2.896   0.157  12.880
10958SOL    HW244503   3.032   0.179  12.818
10959SOL     OW44504   4.772   4.643  23.277
10959SOL    HW144505   4.686   4.629  23.238
10959SOL    HW244506   0.051   4.591  23.223
10960SOL     OW44507   4.413   2.298  10.254
10960SOL    HW144508   4.422   2.279  10.348
10960SOL    HW244509   4.372   2.219  10.218
10961SOL     OW44510   3.253   1.655   3.555
10961SOL    HW144511   3.311   1.612   3.618
10961SOL    HW244512   3.215   1.728   3.604
10962SOL     OW44513   4.140   3.778  27.453
10962SOL    HW144514   4.145   3.683  27.444
10962SOL    HW244515   4.065   3.793  27.511
10963SOL     OW44516   2.250   0.985  20.984
10963SOL    HW144517   2.304   0.923  20.936
10963SOL    HW244518   2.312   1.049  21.019
10964SOL     OW44519   3.586   1.274  11.434
10964SOL    HW144520   3.625   1.189  11.413
10964SOL    HW244521   3.614   1.292  11.524
10965SOL     OW44522   0.722   0.295  27.025
10965SOL    HW144523   0.697   0.212  26.984
10965SOL    HW244524   0.698   0.284  27.117
10966SOL     OW44525   3.026   2.115  12.340
10966SOL    HW144526   2.978   2.032  12.341
10966SOL    HW244527   2.974   2.172  12.284
10967SOL     OW44528   4.691   1.406  22.826
10967SOL    HW144529   4.632   1.379  22.897
10967SOL    HW244530   4.647   1.378  22.746
10968SOL     OW44531   0.016   4.375  26.106
10968SOL    HW144532   0.036   4.405  26.017
10968SOL    HW244533   0.068   4.296  26.118
10969SOL     OW44534   2.738   3.945   3.138
10969SOL    HW144535   2.695   3.974   3.219
10969SOL    HW244536   2.666   3.914   3.083
10970SOL     OW44537   4.213   3.899   5.132
10970SOL    HW144538   4.277   3.966   5.107
10970SOL    HW244539   4.260   3.842   5.192
10971SOL     OW44540   4.434   3.232   8.103
10971SOL    HW144541   4.504   3.291   8.130
10971SOL    HW244542   4.458   3.148   8.141
10972SOL     OW44543   2.591   1.104   0.477
10972SOL    HW144544   2.513   1.066   0.436
10972SOL    HW244545   2.600   1.056   0.560
10973SOL     OW44546   4.415   0.683   3.455
10973SOL    HW144547   4.338   0.658   3.405
10973SOL    HW244548   4.434   0.606   3.509
10974SOL     OW44549   2.502   4.439  10.546
10974SOL    HW144550   2.553   4.495  10.605
10974SOL    HW244551   2.442   4.392  10.604
10975SOL     OW44552   4.138   1.697  12.750
10975SOL    HW144553   4.217   1.676  12.801
10975SOL    HW244554   4.072   1.718  12.816
10976SOL     OW44555   4.519   1.186  13.027
10976SOL    HW144556   4.505   1.255  12.962
10976SOL    HW244557   4.603   1.207  13.067
10977SOL     OW44558   0.325   1.713  13.386
10977SOL    HW144559   0.272   1.761  13.449
10977SOL    HW244560   0.378   1.654  13.439
10978SOL     OW44561   3.873   1.002  11.876
10978SOL    HW144562   3.935   1.034  11.942
10978SOL    HW244563   3.788   1.038  11.903
10979SOL     OW44564   3.889   2.985  12.781
10979SOL    HW144565   3.981   3.012  12.785
10979SOL    HW244566   3.842   3.063  12.751
10980SOL     OW44567   3.909   1.740  11.378
10980SOL    HW144568   4.002   1.745  11.399
10980SOL    HW244569   3.899   1.656  11.333
10981SOL     OW44570   0.043   1.323  11.918
10981SOL    HW144571   0.048   1.269  11.997
10981SOL    HW244572   0.132   1.355  11.904
10982SOL     OW44573   0.458   0.297  12.388
10982SOL    HW144574   0.537   0.333  12.428
10982SOL    HW244575   0.426   0.233  12.452
10983SOL     OW44576   3.634   3.978  26.143
10983SOL    HW144577   3.557   4.024  26.110
10983SOL    HW244578   3.706   4.040  26.131
10984SOL     OW44579   1.154   4.372  11.337
10984SOL    HW144580   1.065   4.342  11.355
10984SOL    HW244581   1.167   4.446  11.397
10985SOL     OW44582   0.375   1.574  12.275
10985SOL    HW144583   0.470   1.567  12.266
10985SOL    HW244584   0.343   1.487  12.253
10986SOL     OW44585   1.962   1.517   5.321
10986SOL    HW144586   1.907   1.594   5.332
10986SOL    HW244587   2.034   1.530   5.382
10987SOL     OW44588   0.500   0.511  13.515
10987SOL    HW144589   0.490   0.423  13.478
10987SOL    HW244590   0.570   0.551  13.463
10988SOL     OW44591   4.124   1.207  12.545
10988SOL    HW144592   4.171   1.128  12.571
10988SOL    HW244593   4.102   1.250  12.628
10989SOL     OW44594   0.362   0.537  11.522
10989SOL    HW144595   0.434   0.593  11.550
10989SOL    HW244596   0.405   0.461  11.482
10990SOL     OW44597   3.197   2.503  11.292
10990SOL    HW144598   3.267   2.490  11.228
10990SOL    HW244599   3.202   2.426  11.349
10991SOL     OW44600   1.680   0.111  12.448
10991SOL    HW144601   1.648   0.193  12.485
10991SOL    HW244602   1.702   0.057  12.524
10992SOL     OW44603   1.329   0.887  11.978
10992SOL    HW144604   1.306   0.830  12.051
10992SOL    HW244605   1.269   0.862  11.908
10993SOL     OW44606   4.678   0.752  13.827
10993SOL    HW144607   4.632   0.806  13.762
10993SOL    HW244608   4.608   0.714  13.880
10994SOL     OW44609   3.977   1.662  12.534
10994SOL    HW144610   4.058   1.674  12.583
10994SOL    HW244611   3.928   1.598  12.585
10995SOL     OW44612   1.435   3.380  11.931
10995SOL    HW144613   1.379   3.306  11.908
10995SOL    HW244614   1.524   3.348  11.919
10996SOL     OW44615   0.152   0.633  13.832
10996SOL    HW144616   0.071   0.682  13.819
10996SOL    HW244617   0.198   0.682  13.900
10997SOL     OW44618   3.623   0.524  11.133
10997SOL    HW144619   3.654   0.465  11.202
10997SOL    HW244620   3.658   0.610  11.157
10998SOL     OW44621   1.221   0.769  10.587
10998SOL    HW144622   1.186   0.747  10.673
10998SOL    HW244623   1.272   0.849  10.602
10999SOL     OW44624   3.442   4.674  13.076
10999SOL    HW144625   3.415   4.672  13.168
10999SOL    HW244626   3.532   4.642  13.077
11000SOL     OW44627   4.441   1.102  12.408
11000SOL    HW144628   4.453   1.195  12.428
11000SOL    HW244629   4.376   1.072  12.472
11001SOL     OW44630   3.821   2.057  18.584
11001SOL    HW144631   3.868   2.090  18.508
11001SOL    HW244632   3.889   2.032  18.646
11002SOL     OW44633   0.234   0.007  13.443
11002SOL    HW144634   0.194   4.767  13.527
11002SOL    HW244635   0.259   4.703  13.406
11003SOL     OW44636   3.856   2.015  11.427
11003SOL    HW144637   3.938   1.997  11.473
11003SOL    HW244638   3.837   1.934  11.380
11004SOL     OW44639   4.577   0.719  12.646
11004SOL    HW144640   4.505   0.765  12.689
11004SOL    HW244641   4.613   0.662  12.714
11005SOL     OW44642   0.568   2.120   7.889
11005SOL    HW144643   0.602   2.134   7.801
11005SOL    HW244644   0.587   2.202   7.935
11006SOL     OW44645   4.024   3.027   1.329
11006SOL    HW144646   3.957   2.975   1.374
11006SOL    HW244647   4.045   3.097   1.390
11007SOL     OW44648   1.599   0.861  11.875
11007SOL    HW144649   1.521   0.887  11.923
11007SOL    HW244650   1.643   0.799  11.933
11008SOL     OW44651   0.831   4.082  13.367
11008SOL    HW144652   0.743   4.099  13.399
11008SOL    HW244653   0.862   4.167  13.335
11009SOL     OW44654   0.304   2.785  12.892
11009SOL    HW144655   0.292   2.843  12.817
11009SOL    HW244656   0.325   2.843  12.965
11010SOL     OW44657   1.406   0.488   5.159
11010SOL    HW144658   1.454   0.507   5.240
11010SOL    HW244659   1.452   0.537   5.091
11011SOL     OW44660   1.036   0.138  13.818
11011SOL    HW144661   1.046   0.222  13.863
11011SOL    HW244662   0.960   0.150  13.762
11012SOL     OW44663   3.833   1.800  12.361
11012SOL    HW144664   3.758   1.769  12.412
11012SOL    HW244665   3.909   1.771  12.412
11013SOL     OW44666   4.203   4.405  12.407
11013SOL    HW144667   4.249   4.466  12.464
11013SOL    HW244668   4.210   4.321  12.451
11014SOL     OW44669   1.359   2.266  12.509
11014SOL    HW144670   1.299   2.321  12.558
11014SOL    HW244671   1.332   2.176  12.530
11015SOL     OW44672   0.239   1.811  12.192
11015SOL    HW144673   0.284   1.780  12.113
11015SOL    HW244674   0.231   1.733  12.247
11016SOL     OW44675   0.443   0.362  13.256
11016SOL    HW144676   0.430   0.457  13.252
11016SOL    HW244677   0.392   0.334  13.332
11017SOL     OW44678   0.253   0.235  13.092
11017SOL    HW144679   0.188   0.205  13.155
11017SOL    HW244680   0.321   0.276  13.146
11018SOL     OW44681   0.058   0.861  12.267
11018SOL    HW144682   4.757   0.856  12.218
11018SOL    HW244683   0.050   0.792  12.333
11019SOL     OW44684   4.187   2.813  10.370
11019SOL    HW144685   4.123   2.877  10.400
11019SOL    HW244686   4.264   2.865  10.347
11020SOL     OW44687   4.241   2.445  11.123
11020SOL    HW144688   4.316   2.486  11.080
11020SOL    HW244689   4.244   2.476  11.213
11021SOL     OW44690   0.578   2.641  11.394
11021SOL    HW144691   0.494   2.643  11.440
11021SOL    HW244692   0.622   2.564  11.429
11022SOL     OW44693   1.306   0.499  13.088
11022SOL    HW144694   1.341   0.582  13.055
11022SOL    HW244695   1.235   0.525  13.147
11023SOL     OW44696   1.148   1.112  11.955
11023SOL    HW144697   1.229   1.063  11.967
11023SOL    HW244698   1.090   1.079  12.023
11024SOL     OW44699   0.205   0.642  11.311
11024SOL    HW144700   0.266   0.592  11.365
11024SOL    HW244701   0.249   0.725  11.296
11025SOL     OW44702   0.614   0.460  11.175
11025SOL    HW144703   0.578   0.384  11.220
11025SOL    HW244704   0.605   0.531  11.238
11026SOL     OW44705   2.535   2.529  11.357
11026SOL    HW144706   2.557   2.447  11.313
11026SOL    HW244707   2.439   2.532  11.356
11027SOL     OW44708   2.487   0.030  12.444
11027SOL    HW144709   2.511   0.054  12.355
11027SOL    HW244710   2.571   0.023  12.490
11028SOL     OW44711   4.652   0.317  12.652
11028SOL    HW144712   4.659   0.402  12.696
11028SOL    HW244713   4.593   0.266  12.707
11029SOL     OW44714   2.458   0.405  14.013
11029SOL    HW144715   2.394   0.420  14.083
11029SOL    HW244716   2.474   0.311  14.016
11030SOL     OW44717   0.073   1.564  13.466
11030SOL    HW144718   0.135   1.513  13.518
11030SOL    HW244719   0.083   1.654  13.498
11031SOL     OW44720   4.629   2.832  13.183
11031SOL    HW144721   4.603   2.924  13.183
11031SOL    HW244722   4.693   2.826  13.254
11032SOL     OW44723   0.419   2.607  12.736
11032SOL    HW144724   0.389   2.663  12.807
11032SOL    HW244725   0.371   2.525  12.747
11033SOL     OW44726   0.450   4.441   9.408
11033SOL    HW144727   0.398   4.389   9.468
11033SOL    HW244728   0.391   4.460   9.335
11034SOL     OW44729   2.733   2.559  13.329
11034SOL    HW144730   2.706   2.514  13.249
11034SOL    HW244731   2.770   2.642  13.299
11035SOL     OW44732   3.741   2.491  12.880
11035SOL    HW144733   3.825   2.516  12.918
11035SOL    HW244734   3.706   2.425  12.940
11036SOL     OW44735   4.331   1.837  12.615
11036SOL    HW144736   4.254   1.805  12.662
11036SOL    HW244737   4.343   1.927  12.646
11037SOL     OW44738   0.911   1.601  12.283
11037SOL    HW144739   0.919   1.558  12.368
11037SOL    HW244740   0.877   1.688  12.304
11038SOL     OW44741   0.505   2.616   5.750
11038SOL    HW144742   0.548   2.663   5.821
11038SOL    HW244743   0.479   2.532   5.789
11039SOL     OW44744   4.585   1.531   8.963
11039SOL    HW144745   4.676   1.502   8.954
11039SOL    HW244746   4.579   1.567   9.051
11040SOL     OW44747   3.077   2.023  12.792
11040SOL    HW144748   3.020   2.086  12.835
11040SOL    HW244749   3.165   2.048  12.818
11041SOL     OW44750   0.450   1.283   9.853
11041SOL    HW144751   0.381   1.315   9.911
11041SOL    HW244752   0.456   1.350   9.785
11042SOL     OW44753   4.511   3.375   2.340
11042SOL    HW144754   4.502   3.408   2.429
11042SOL    HW244755   4.602   3.347   2.334
11043SOL     OW44756   0.324   4.246  10.628
11043SOL    HW144757   0.380   4.287  10.562
11043SOL    HW244758   0.295   4.319  10.683
11044SOL     OW44759   1.123   1.877  13.281
11044SOL    HW144760   1.160   1.846  13.199
11044SOL    HW244761   1.140   1.971  13.281
11045SOL     OW44762   2.310   0.251   8.870
11045SOL    HW144763   2.372   0.285   8.805
11045SOL    HW244764   2.308   0.318   8.938
11046SOL     OW44765   4.366   1.580  13.034
11046SOL    HW144766   4.339   1.561  13.124
11046SOL    HW244767   4.369   1.676  13.030
11047SOL     OW44768   3.548   1.460  11.914
11047SOL    HW144769   3.503   1.404  11.978
11047SOL    HW244770   3.495   1.539  11.910
11048SOL     OW44771   1.092   1.428  14.023
11048SOL    HW144772   1.073   1.514  14.061
11048SOL    HW244773   1.131   1.378  14.094
11049SOL     OW44774   4.385   1.200  14.335
11049SOL    HW144775   4.313   1.144  14.305
11049SOL    HW244776   4.460   1.141  14.342
11050SOL     OW44777   4.503   1.319  14.100
11050SOL    HW144778   4.585   1.275  14.123
11050SOL    HW244779   4.449   1.313  14.179
11051SOL     OW44780   4.016   0.822  14.348
11051SOL    HW144781   3.942   0.863  14.392
11051SOL    HW244782   4.068   0.895  14.314
11052SOL     OW44783   0.292   1.434  11.962
11052SOL    HW144784   0.280   1.528  11.974
11052SOL    HW244785   0.316   1.402  12.049
11053SOL     OW44786   3.586   2.197  13.404
11053SOL    HW144787   3.593   2.137  13.330
11053SOL    HW244788   3.550   2.144  13.475
11054SOL     OW44789   3.550   2.797  13.568
11054SOL    HW144790   3.635   2.778  13.607
11054SOL    HW244791   3.499   2.718  13.583
11055SOL     OW44792   0.275   1.055  14.191
11055SOL    HW144793   0.270   0.965  14.224
11055SOL    HW244794   0.186   1.074  14.160
11056SOL     OW44795   0.726   1.055  13.920
11056SOL    HW144796   0.648   1.107  13.942
11056SOL    HW244797   0.799   1.106  13.956
11057SOL     OW44798   3.701   1.550  14.152
11057SOL    HW144799   3.765   1.585  14.090
11057SOL    HW244800   3.727   1.459  14.164
11058SOL     OW44801   3.782   1.293  14.162
11058SOL    HW144802   3.851   1.231  14.186
11058SOL    HW244803   3.717   1.240  14.117
11059SOL     OW44804   1.287   1.395  14.433
11059SOL    HW144805   1.267   1.485  14.459
11059SOL    HW244806   1.382   1.392  14.426
11060SOL     OW44807   0.848   2.418  14.173
11060SOL    HW144808   0.786   2.479  14.212
11060SOL    HW244809   0.918   2.474  14.140
11061SOL     OW44810   4.133   1.599  13.624
11061SOL    HW144811   4.208   1.629  13.676
11061SOL    HW244812   4.125   1.506  13.646
11062SOL     OW44813   0.016   2.125  13.987
11062SOL    HW144814   0.022   2.219  13.969
11062SOL    HW244815   4.720   2.097  13.938
11063SOL     OW44816   4.329   1.599  13.310
11063SOL    HW144817   4.303   1.670  13.368
11063SOL    HW244818   4.425   1.603  13.309
11064SOL     OW44819   4.555   0.906  13.640
11064SOL    HW144820   4.485   0.864  13.590
11064SOL    HW244821   4.513   0.980  13.684
11065SOL     OW44822   4.340   0.815  12.793
11065SOL    HW144823   4.246   0.818  12.773
11065SOL    HW244824   4.346   0.753  12.865
11066SOL     OW44825   3.942   1.675  14.810
11066SOL    HW144826   4.001   1.718  14.872
11066SOL    HW244827   3.874   1.636  14.864
11067SOL     OW44828   0.119   0.429  12.955
11067SOL    HW144829   0.172   0.353  12.977
11067SOL    HW244830   0.147   0.496  13.017
11068SOL     OW44831   0.209   0.524  14.734
11068SOL    HW144832   0.170   0.441  14.761
11068SOL    HW244833   0.291   0.528  14.783
11069SOL     OW44834   4.035   0.806  12.766
11069SOL    HW144835   3.978   0.732  12.745
11069SOL    HW244836   4.029   0.815  12.861
11070SOL     OW44837   0.832   1.274  14.070
11070SOL    HW144838   0.908   1.325  14.040
11070SOL    HW244839   0.785   1.333  14.129
11071SOL     OW44840   4.466   0.642  13.975
11071SOL    HW144841   4.406   0.579  13.934
11071SOL    HW244842   4.408   0.703  14.022
11072SOL     OW44843   3.901   0.572  12.746
11072SOL    HW144844   3.875   0.591  12.656
11072SOL    HW244845   3.867   0.484  12.763
11073SOL     OW44846   0.160   2.140  13.684
11073SOL    HW144847   0.132   2.203  13.751
11073SOL    HW244848   0.256   2.142  13.687
11074SOL     OW44849   4.263   0.737  14.146
11074SOL    HW144850   4.246   0.816  14.197
11074SOL    HW244851   4.186   0.682  14.162
11075SOL     OW44852   1.145   1.274  14.255
11075SOL    HW144853   1.197   1.323  14.319
11075SOL    HW244854   1.056   1.275  14.290
11076SOL     OW44855   4.288   1.456  14.004
11076SOL    HW144856   4.358   1.394  14.023
11076SOL    HW244857   4.259   1.487  14.090
11077SOL     OW44858   0.060   0.942  14.005
11077SOL    HW144859   0.140   0.890  13.996
11077SOL    HW244860   4.779   0.901  13.945
11078SOL     OW44861   4.745   2.012  13.536
11078SOL    HW144862   4.659   2.036  13.571
11078SOL    HW244863   0.026   2.059  13.592
11079SOL     OW44864   0.280   2.005  13.987
11079SOL    HW144865   0.196   2.046  14.006
11079SOL    HW244866   0.272   1.976  13.896
11080SOL     OW44867   0.780   0.858  13.711
11080SOL    HW144868   0.690   0.829  13.700
11080SOL    HW244869   0.775   0.925  13.780
11081SOL     OW44870   3.829   0.111  14.251
11081SOL    HW144871   3.877   0.118  14.168
11081SOL    HW244872   3.764   0.182  14.247
11082SOL     OW44873   0.161   1.821  13.563
11082SOL    HW144874   0.081   1.872  13.552
11082SOL    HW244875   0.201   1.856  13.643
11083SOL     OW44876   1.021   0.367  13.933
11083SOL    HW144877   0.973   0.371  14.016
11083SOL    HW244878   1.013   0.455  13.897
11084SOL     OW44879   4.351   1.652  13.809
11084SOL    HW144880   4.342   1.582  13.874
11084SOL    HW244881   4.416   1.618  13.747
11085SOL     OW44882   0.098   0.304  12.467
11085SOL    HW144883   0.162   0.246  12.509
11085SOL    HW244884   0.020   0.297  12.522
11086SOL     OW44885   0.277   0.779  14.015
11086SOL    HW144886   0.262   0.787  14.109
11086SOL    HW244887   0.365   0.813  14.002
11087SOL     OW44888   1.087   2.504  15.172
11087SOL    HW144889   1.096   2.506  15.267
11087SOL    HW244890   1.004   2.549  15.155
11088SOL     OW44891   0.454   1.484  15.212
11088SOL    HW144892   0.456   1.567  15.165
11088SOL    HW244893   0.472   1.418  15.145
11089SOL     OW44894   3.848   1.023  14.413
11089SOL    HW144895   3.767   1.074  14.413
11089SOL    HW244896   3.900   1.061  14.342
11090SOL     OW44897   0.474   1.105  14.028
11090SOL    HW144898   0.403   1.064  14.077
11090SOL    HW244899   0.484   1.192  14.068
11091SOL     OW44900   3.462   2.095  15.470
11091SOL    HW144901   3.477   2.038  15.394
11091SOL    HW244902   3.389   2.055  15.516
11092SOL     OW44903   0.859   2.439  13.431
11092SOL    HW144904   0.937   2.435  13.486
11092SOL    HW244905   0.881   2.386  13.354
11093SOL     OW44906   4.360   2.476  14.525
11093SOL    HW144907   4.380   2.548  14.465
11093SOL    HW244908   4.267   2.485  14.544
11094SOL     OW44909   0.754   2.045  12.688
11094SOL    HW144910   0.736   1.952  12.676
11094SOL    HW244911   0.784   2.053  12.779
11095SOL     OW44912   0.911   1.908  14.041
11095SOL    HW144913   0.953   1.873  14.120
11095SOL    HW244914   0.840   1.963  14.074
11096SOL     OW44915   4.326   1.051  12.649
11096SOL    HW144916   4.324   0.979  12.712
11096SOL    HW244917   4.386   1.115  12.688
11097SOL     OW44918   0.141   1.820  14.294
11097SOL    HW144919   0.227   1.832  14.334
11097SOL    HW244920   0.102   1.907  14.296
11098SOL     OW44921   0.000   1.180  13.815
11098SOL    HW144922   4.693   1.147  13.831
11098SOL    HW244923   0.057   1.105  13.833
11099SOL     OW44924   3.808   0.952  12.700
11099SOL    HW144925   3.889   0.904  12.718
11099SOL    HW244926   3.742   0.884  12.690
11100SOL     OW44927   4.748   1.505  13.052
11100SOL    HW144928   0.022   1.581  13.070
11100SOL    HW244929   0.020   1.430  13.080
11101SOL     OW44930   0.497   1.520  13.458
11101SOL    HW144931   0.580   1.564  13.440
11101SOL    HW244932   0.510   1.430  13.428
11102SOL     OW44933   3.055   1.267  13.088
11102SOL    HW144934   3.074   1.358  13.110
11102SOL    HW244935   3.134   1.236  13.044
11103SOL     OW44936   1.111   1.608  14.520
11103SOL    HW144937   1.184   1.667  14.537
11103SOL    HW244938   1.039   1.643  14.574
11104SOL     OW44939   3.958   1.491  14.058
11104SOL    HW144940   3.915   1.418  14.102
11104SOL    HW244941   4.050   1.484  14.085
11105SOL     OW44942   4.741   1.855  13.305
11105SOL    HW144943   4.750   1.927  13.367
11105SOL    HW244944   4.647   1.847  13.290
11106SOL     OW44945   1.349   0.757  13.319
11106SOL    HW144946   1.375   0.790  13.233
11106SOL    HW244947   1.427   0.712  13.352
11107SOL     OW44948   4.769   1.203  14.420
11107SOL    HW144949   0.045   1.130  14.444
11107SOL    HW244950   4.759   1.195  14.325
11108SOL     OW44951   4.059   0.874  15.442
11108SOL    HW144952   4.134   0.816  15.431
11108SOL    HW244953   4.042   0.908  15.354
11109SOL     OW44954   4.216   4.734  15.022
11109SOL    HW144955   4.142   4.751  14.963
11109SOL    HW244956   4.259   4.657  14.985
11110SOL     OW44957   0.796   2.126  15.480
11110SOL    HW144958   0.739   2.196  15.449
11110SOL    HW244959   0.738   2.051  15.490
11111SOL     OW44960   0.640   1.899  15.489
11111SOL    HW144961   0.657   1.825  15.547
11111SOL    HW244962   0.607   1.860  15.408
11112SOL     OW44963   3.834   1.245  15.639
11112SOL    HW144964   3.839   1.247  15.543
11112SOL    HW244965   3.925   1.249  15.668
11113SOL     OW44966   4.398   2.066  15.706
11113SOL    HW144967   4.431   2.133  15.646
11113SOL    HW244968   4.390   2.111  15.790
11114SOL     OW44969   0.234   1.393  15.325
11114SOL    HW144970   0.231   1.314  15.271
11114SOL    HW244971   0.319   1.433  15.304
11115SOL     OW44972   3.196   1.625  15.571
11115SOL    HW144973   3.245   1.684  15.513
11115SOL    HW244974   3.107   1.660  15.570
11116SOL     OW44975   0.803   4.556  15.313
11116SOL    HW144976   0.894   4.546  15.285
11116SOL    HW244977   0.772   4.634  15.268
11117SOL     OW44978   4.027   1.023  15.192
11117SOL    HW144979   4.082   1.100  15.178
11117SOL    HW244980   4.053   0.961  15.124
11118SOL     OW44981   1.139   2.223  15.047
11118SOL    HW144982   1.234   2.215  15.052
11118SOL    HW244983   1.118   2.293  15.109
11119SOL     OW44984   1.327   2.451  15.045
11119SOL    HW144985   1.319   2.482  14.955
11119SOL    HW244986   1.254   2.492  15.092
11120SOL     OW44987   4.663   0.910  14.600
11120SOL    HW144988   4.743   0.861  14.621
11120SOL    HW244989   4.610   0.903  14.679
11121SOL     OW44990   0.485   2.995  15.329
11121SOL    HW144991   0.492   2.908  15.369
11121SOL    HW244992   0.395   2.999  15.297
11122SOL     OW44993   4.631   2.501  15.470
11122SOL    HW144994   4.627   2.521  15.377
11122SOL    HW244995   4.724   2.486  15.488
11123SOL     OW44996   4.244   2.294  14.818
11123SOL    HW144997   4.300   2.233  14.770
11123SOL    HW244998   4.209   2.243  14.891
11124SOL     OW44999   2.595   0.215  17.232
11124SOL    HW145000   2.682   0.208  17.272
11124SOL    HW245001   2.609   0.196  17.139
11125SOL     OW45002   0.239   1.608  14.889
11125SOL    HW145003   0.249   1.685  14.945
11125SOL    HW245004   0.307   1.617  14.823
11126SOL     OW45005   4.274   1.672   0.862
11126SOL    HW145006   4.338   1.692   0.794
11126SOL    HW245007   4.288   1.579   0.882
11127SOL     OW45008   1.240   0.010  17.425
11127SOL    HW145009   1.333   4.769  17.426
11127SOL    HW245010   1.204   4.744  17.500
11128SOL     OW45011   1.115   1.649  14.180
11128SOL    HW145012   1.207   1.634  14.200
11128SOL    HW245013   1.094   1.733  14.220
11129SOL     OW45014   4.327   1.024  14.625
11129SOL    HW145015   4.344   1.113  14.655
11129SOL    HW245016   4.310   0.975  14.705
11130SOL     OW45017   3.543   2.326  16.419
11130SOL    HW145018   3.595   2.269  16.475
11130SOL    HW245019   3.595   2.335  16.339
11131SOL     OW45020   0.639   1.303  15.940
11131SOL    HW145021   0.632   1.227  15.883
11131SOL    HW245022   0.557   1.351  15.926
11132SOL     OW45023   4.398   1.099  16.025
11132SOL    HW145024   4.480   1.127  15.985
11132SOL    HW245025   4.345   1.179  16.029
11133SOL     OW45026   4.627   0.535  16.837
11133SOL    HW145027   4.570   0.495  16.772
11133SOL    HW245028   4.716   0.518  16.805
11134SOL     OW45029   0.120   1.959  16.410
11134SOL    HW145030   0.175   1.926  16.339
11134SOL    HW245031   0.095   2.047  16.382
11135SOL     OW45032   0.839   1.614  15.383
11135SOL    HW145033   0.757   1.662  15.374
11135SOL    HW245034   0.814   1.522  15.376
11136SOL     OW45035   0.575   1.777  15.253
11136SOL    HW145036   0.647   1.831  15.220
11136SOL    HW245037   0.499   1.806  15.203
11137SOL     OW45038   4.453   4.741  14.764
11137SOL    HW145039   4.415   4.673  14.820
11137SOL    HW245040   4.546   4.720  14.762
11138SOL     OW45041   0.294   0.481  15.313
11138SOL    HW145042   0.376   0.455  15.356
11138SOL    HW245043   0.321   0.536  15.240
11139SOL     OW45044   3.767   0.984  14.673
11139SOL    HW145045   3.784   0.981  14.579
11139SOL    HW245046   3.747   0.893  14.697
11140SOL     OW45047   4.665   1.051  14.913
11140SOL    HW145048   4.618   0.968  14.903
11140SOL    HW245049   4.599   1.118  14.897
11141SOL     OW45050   0.102   1.694  15.293
11141SOL    HW145051   0.023   1.744  15.311
11141SOL    HW245052   0.073   1.622  15.237
11142SOL     OW45053   3.632   1.862  15.498
11142SOL    HW145054   3.565   1.797  15.519
11142SOL    HW245055   3.601   1.904  15.418
11143SOL     OW45056   0.053   0.026  15.351
11143SOL    HW145057   0.128   0.014  15.292
11143SOL    HW245058   4.758   0.004  15.298
11144SOL     OW45059   4.727   1.141  14.150
11144SOL    HW145060   0.006   1.209  14.119
11144SOL    HW245061   4.753   1.063  14.101
11145SOL     OW45062   4.636   4.618  16.674
11145SOL    HW145063   4.599   4.530  16.683
11145SOL    HW245064   4.598   4.652  16.593
11146SOL     OW45065   0.276   0.116  16.953
11146SOL    HW145066   0.212   0.156  16.894
11146SOL    HW245067   0.223   0.083  17.026
11147SOL     OW45068   0.272   3.298  15.273
11147SOL    HW145069   0.311   3.332  15.192
11147SOL    HW245070   0.252   3.207  15.253
11148SOL     OW45071   4.250   0.117  14.641
11148SOL    HW145072   4.275   0.143  14.552
11148SOL    HW245073   4.333   0.097  14.684
11149SOL     OW45074   1.116   3.348  14.665
11149SOL    HW145075   1.191   3.304  14.704
11149SOL    HW245076   1.153   3.400  14.593
11150SOL     OW45077   4.558   2.532  16.150
11150SOL    HW145078   4.580   2.537  16.057
11150SOL    HW245079   4.516   2.447  16.161
11151SOL     OW45080   0.277   1.155  15.861
11151SOL    HW145081   0.222   1.083  15.891
11151SOL    HW245082   0.260   1.161  15.767
11152SOL     OW45083   1.036   3.015  14.899
11152SOL    HW145084   0.952   3.051  14.927
11152SOL    HW245085   1.100   3.081  14.924
11153SOL     OW45086   0.406   2.021  15.127
11153SOL    HW145087   0.369   2.059  15.207
11153SOL    HW245088   0.429   2.097  15.073
11154SOL     OW45089   3.928   2.063  16.351
11154SOL    HW145090   4.016   2.041  16.321
11154SOL    HW245091   3.871   2.001  16.305
11155SOL     OW45092   0.040   1.684  15.706
11155SOL    HW145093   0.124   1.696  15.662
11155SOL    HW245094   4.780   1.611  15.659
11156SOL     OW45095   0.127   4.440  16.957
11156SOL    HW145096   0.155   4.512  16.901
11156SOL    HW245097   0.039   4.418  16.925
11157SOL     OW45098   3.657   2.274  15.527
11157SOL    HW145099   3.724   2.206  15.533
11157SOL    HW245100   3.574   2.227  15.530
11158SOL     OW45101   0.173   1.382  15.026
11158SOL    HW145102   0.214   1.465  15.000
11158SOL    HW245103   0.126   1.353  14.948
11159SOL     OW45104   4.541   1.502  15.713
11159SOL    HW145105   4.526   1.477  15.622
11159SOL    HW245106   4.558   1.419  15.758
11160SOL     OW45107   4.711   1.117  15.194
11160SOL    HW145108   4.680   1.207  15.185
11160SOL    HW245109   4.721   1.086  15.104
11161SOL     OW45110   4.492   2.867  14.991
11161SOL    HW145111   4.545   2.792  14.964
11161SOL    HW245112   4.403   2.833  14.995
11162SOL     OW45113   0.240   1.737  15.513
11162SOL    HW145114   0.181   1.728  15.438
11162SOL    HW245115   0.319   1.689  15.488
11163SOL     OW45116   0.498   0.198  17.083
11163SOL    HW145117   0.576   0.173  17.034
11163SOL    HW245118   0.426   0.153  17.039
11164SOL     OW45119   0.174   2.248  16.230
11164SOL    HW145120   0.146   2.338  16.213
11164SOL    HW245121   0.092   2.199  16.237
11165SOL     OW45122   3.672   0.899  15.393
11165SOL    HW145123   3.719   0.883  15.311
11165SOL    HW245124   3.737   0.885  15.462
11166SOL     OW45125   0.213   0.295  15.098
11166SOL    HW145126   0.207   0.200  15.085
11166SOL    HW245127   0.293   0.321  15.052
11167SOL     OW45128   0.528   1.632  16.190
11167SOL    HW145129   0.550   1.717  16.229
11167SOL    HW245130   0.475   1.588  16.257
11168SOL     OW45131   1.544   1.875  14.679
11168SOL    HW145132   1.545   1.939  14.750
11168SOL    HW245133   1.595   1.916  14.609
11169SOL     OW45134   4.725   0.832  13.432
11169SOL    HW145135   4.676   0.859  13.510
11169SOL    HW245136   4.723   0.909  13.375
11170SOL     OW45137   0.484   0.345  14.975
11170SOL    HW145138   0.451   0.411  14.914
11170SOL    HW245139   0.544   0.393  15.032
11171SOL     OW45140   0.678   0.554  15.630
11171SOL    HW145141   0.663   0.529  15.539
11171SOL    HW245142   0.593   0.584  15.661
11172SOL     OW45143   4.258   2.846  16.138
11172SOL    HW145144   4.235   2.789  16.065
11172SOL    HW245145   4.240   2.934  16.106
11173SOL     OW45146   3.247   1.960  15.569
11173SOL    HW145147   3.174   1.991  15.516
11173SOL    HW245148   3.292   1.897  15.513
11174SOL     OW45149   0.293   1.926  15.722
11174SOL    HW145150   0.267   1.853  15.666
11174SOL    HW245151   0.342   1.985  15.665
11175SOL     OW45152   4.447   0.330  15.927
11175SOL    HW145153   4.521   0.296  15.978
11175SOL    HW245154   4.426   0.414  15.968
11176SOL     OW45155   0.146   0.959  14.947
11176SOL    HW145156   0.071   1.008  14.913
11176SOL    HW245157   0.120   0.867  14.939
11177SOL     OW45158   0.721   2.708  17.564
11177SOL    HW145159   0.697   2.651  17.637
11177SOL    HW245160   0.810   2.682  17.542
11178SOL     OW45161   4.084   1.621  16.213
11178SOL    HW145162   4.000   1.588  16.245
11178SOL    HW245163   4.118   1.551  16.157
11179SOL     OW45164   4.545   1.350  14.495
11179SOL    HW145165   4.632   1.313  14.482
11179SOL    HW245166   4.488   1.296  14.440
11180SOL     OW45167   0.435   2.402  15.255
11180SOL    HW145168   0.371   2.470  15.276
11180SOL    HW245169   0.481   2.435  15.178
11181SOL     OW45170   0.303   1.771  15.946
11181SOL    HW145171   0.390   1.736  15.925
11181SOL    HW245172   0.290   1.841  15.883
11182SOL     OW45173   1.661   4.108  16.534
11182SOL    HW145174   1.685   4.200  16.522
11182SOL    HW245175   1.654   4.074  16.445
11183SOL     OW45176   3.963   0.689  15.071
11183SOL    HW145177   4.025   0.755  15.040
11183SOL    HW245178   3.890   0.739  15.106
11184SOL     OW45179   4.415   1.741  15.789
11184SOL    HW145180   4.412   1.796  15.710
11184SOL    HW245181   4.450   1.657  15.759
11185SOL     OW45182   0.319   4.691  15.229
11185SOL    HW145183   0.262   4.620  15.198
11185SOL    HW245184   0.327   4.750  15.154
11186SOL     OW45185   1.701   3.544  15.311
11186SOL    HW145186   1.778   3.552  15.254
11186SOL    HW245187   1.689   3.450  15.323
11187SOL     OW45188   0.373   1.118  16.096
11187SOL    HW145189   0.451   1.068  16.073
11187SOL    HW245190   0.343   1.156  16.013
11188SOL     OW45191   0.371   1.441  28.329
11188SOL    HW145192   0.354   1.436  28.235
11188SOL    HW245193   0.300   1.495  28.364
11189SOL     OW45194   1.696   4.755  15.361
11189SOL    HW145195   1.601   4.747  15.362
11189SOL    HW245196   1.728   4.666  15.376
11190SOL     OW45197   0.312   1.142  15.065
11190SOL    HW145198   0.269   1.069  15.021
11190SOL    HW245199   0.261   1.219  15.039
11191SOL     OW45200   3.818   0.102  19.711
11191SOL    HW145201   3.873   0.177  19.688
11191SOL    HW245202   3.812   0.051  19.630
11192SOL     OW45203   1.162   2.043  14.815
11192SOL    HW145204   1.085   2.086  14.852
11192SOL    HW245205   1.201   1.995  14.888
11193SOL     OW45206   4.367   4.408  16.128
11193SOL    HW145207   4.368   4.484  16.070
11193SOL    HW245208   4.345   4.444  16.214
11194SOL     OW45209   3.794   1.082  20.329
11194SOL    HW145210   3.885   1.111  20.333
11194SOL    HW245211   3.799   0.986  20.327
11195SOL     OW45212   1.241   1.393  21.104
11195SOL    HW145213   1.174   1.409  21.037
11195SOL    HW245214   1.216   1.451  21.176
11196SOL     OW45215   4.751   1.849   4.395
11196SOL    HW145216   4.669   1.806   4.417
11196SOL    HW245217   0.038   1.784   4.415
11197SOL     OW45218   1.389   1.498   7.673
11197SOL    HW145219   1.457   1.478   7.609
11197SOL    HW245220   1.412   1.585   7.706
11198SOL     OW45221   0.597   2.002  16.968
11198SOL    HW145222   0.630   1.971  16.884
11198SOL    HW245223   0.637   1.943  17.032
11199SOL     OW45224   1.161   0.269  17.482
11199SOL    HW145225   1.112   0.294  17.404
11199SOL    HW245226   1.211   0.192  17.455
11200SOL     OW45227   0.062   1.203  16.613
11200SOL    HW145228   0.020   1.210  16.527
11200SOL    HW245229   0.023   1.273  16.665
11201SOL     OW45230   3.506   1.373  25.203
11201SOL    HW145231   3.588   1.343  25.242
11201SOL    HW245232   3.449   1.391  25.278
11202SOL     OW45233   4.643   0.570  10.358
11202SOL    HW145234   4.562   0.534  10.394
11202SOL    HW245235   4.630   0.570  10.263
11203SOL     OW45236   4.735   2.498  22.945
11203SOL    HW145237   4.664   2.538  22.894
11203SOL    HW245238   0.023   2.565  22.946
11204SOL     OW45239   1.781   3.176  14.834
11204SOL    HW145240   1.827   3.183  14.751
11204SOL    HW245241   1.720   3.249  14.834
11205SOL     OW45242   3.209   0.527  17.849
11205SOL    HW145243   3.228   0.597  17.787
11205SOL    HW245244   3.228   0.447  17.801
11206SOL     OW45245   0.021   4.223   4.521
11206SOL    HW145246   0.017   4.128   4.512
11206SOL    HW245247   0.069   4.252   4.443
11207SOL     OW45248   4.086   0.975   9.953
11207SOL    HW145249   4.101   0.955  10.045
11207SOL    HW245250   4.017   0.915   9.926
11208SOL     OW45251   4.584   1.299  17.124
11208SOL    HW145252   4.669   1.333  17.152
11208SOL    HW245253   4.599   1.264  17.036
11209SOL     OW45254   0.013   0.249   6.616
11209SOL    HW145255   4.762   0.339   6.609
11209SOL    HW245256   4.762   0.206   6.536
11210SOL     OW45257   1.994   0.923  17.718
11210SOL    HW145258   2.062   0.991  17.719
11210SOL    HW245259   2.004   0.880  17.633
11211SOL     OW45260   3.429   2.618  14.665
11211SOL    HW145261   3.383   2.701  14.657
11211SOL    HW245262   3.392   2.563  14.596
11212SOL     OW45263   0.791   0.850  18.162
11212SOL    HW145264   0.828   0.922  18.213
11212SOL    HW245265   0.757   0.891  18.083
11213SOL     OW45266   4.549   1.259   5.389
11213SOL    HW145267   4.561   1.245   5.483
11213SOL    HW245268   4.490   1.189   5.362
11214SOL     OW45269   0.715   2.223  15.138
11214SOL    HW145270   0.695   2.231  15.231
11214SOL    HW245271   0.650   2.278  15.094
11215SOL     OW45272   4.275   4.570  16.817
11215SOL    HW145273   4.263   4.484  16.776
11215SOL    HW245274   4.260   4.633  16.746
11216SOL     OW45275   0.750   1.350  15.672
11216SOL    HW145276   0.800   1.355  15.753
11216SOL    HW245277   0.713   1.262  15.672
11217SOL     OW45278   0.717   3.925  23.313
11217SOL    HW145279   0.770   3.872  23.254
11217SOL    HW245280   0.781   3.969  23.369
11218SOL     OW45281   2.978   1.482  20.798
11218SOL    HW145282   2.984   1.572  20.829
11218SOL    HW245283   3.002   1.429  20.874
11219SOL     OW45284   3.532   4.610   0.965
11219SOL    HW145285   3.446   4.572   0.949
11219SOL    HW245286   3.578   4.601   0.881
11220SOL     OW45287   4.245   2.658   3.434
11220SOL    HW145288   4.307   2.728   3.413
11220SOL    HW245289   4.165   2.704   3.460
11221SOL     OW45290   4.428   3.733   5.252
11221SOL    HW145291   4.450   3.648   5.291
11221SOL    HW245292   4.495   3.793   5.286
11222SOL     OW45293   1.988   3.994   4.983
11222SOL    HW145294   1.963   3.925   4.922
11222SOL    HW245295   2.049   4.049   4.933
11223SOL     OW45296   2.407   4.565  22.450
11223SOL    HW145297   2.371   4.494  22.504
11223SOL    HW245298   2.461   4.616  22.510
11224SOL     OW45299   4.123   3.722  16.965
11224SOL    HW145300   4.131   3.669  16.886
11224SOL    HW245301   4.029   3.723  16.983
11225SOL     OW45302   1.735   3.319  18.669
11225SOL    HW145303   1.699   3.404  18.644
11225SOL    HW245304   1.688   3.256  18.614
11226SOL     OW45305   0.925   2.296  17.520
11226SOL    HW145306   0.896   2.243  17.446
11226SOL    HW245307   0.959   2.233  17.583
11227SOL     OW45308   4.667   0.109  19.725
11227SOL    HW145309   4.649   0.015  19.724
11227SOL    HW245310   4.717   0.125  19.645
11228SOL     OW45311   0.228   4.092  16.488
11228SOL    HW145312   0.224   4.143  16.569
11228SOL    HW245313   0.269   4.151  16.424
11229SOL     OW45314   2.546   1.105   7.502
11229SOL    HW145315   2.497   1.045   7.446
11229SOL    HW245316   2.621   1.054   7.533
11230SOL     OW45317   0.087   2.986  16.711
11230SOL    HW145318   0.098   2.918  16.644
11230SOL    HW245319   0.173   3.026  16.719
11231SOL     OW45320   3.802   0.760   7.986
11231SOL    HW145321   3.811   0.665   7.983
11231SOL    HW245322   3.759   0.783   7.904
11232SOL     OW45323   0.997   1.063  18.580
11232SOL    HW145324   0.965   1.048  18.491
11232SOL    HW245325   1.058   1.136  18.572
11233SOL     OW45326   4.684   0.045  16.857
11233SOL    HW145327   4.745   0.082  16.793
11233SOL    HW245328   4.650   4.747  16.814
11234SOL     OW45329   0.776   4.329  16.851
11234SOL    HW145330   0.753   4.411  16.894
11234SOL    HW245331   0.858   4.302  16.892
11235SOL     OW45332   1.732   2.983  26.920
11235SOL    HW145333   1.691   3.032  26.849
11235SOL    HW245334   1.659   2.958  26.977
11236SOL     OW45335   2.291   2.148  23.454
11236SOL    HW145336   2.351   2.219  23.476
11236SOL    HW245337   2.308   2.081  23.521
11237SOL     OW45338   2.491   3.047   8.033
11237SOL    HW145339   2.549   3.111   7.992
11237SOL    HW245340   2.428   3.099   8.083
11238SOL     OW45341   3.425   2.012  22.168
11238SOL    HW145342   3.363   2.037  22.236
11238SOL    HW245343   3.436   1.918  22.179
11239SOL     OW45344   3.428   0.622   6.391
11239SOL    HW145345   3.459   0.697   6.341
11239SOL    HW245346   3.373   0.660   6.459
11240SOL     OW45347   0.999   1.219  15.417
11240SOL    HW145348   0.973   1.128  15.432
11240SOL    HW245349   0.918   1.269  15.425
11241SOL     OW45350   3.225   4.307  15.561
11241SOL    HW145351   3.238   4.253  15.483
11241SOL    HW245352   3.132   4.330  15.559
11242SOL     OW45353   0.909   2.320   5.682
11242SOL    HW145354   0.814   2.330   5.677
11242SOL    HW245355   0.932   2.350   5.770
11243SOL     OW45356   2.831   0.730  15.951
11243SOL    HW145357   2.910   0.678  15.962
11243SOL    HW245358   2.777   0.709  16.027
11244SOL     OW45359   1.351   1.876  16.540
11244SOL    HW145360   1.285   1.911  16.481
11244SOL    HW245361   1.407   1.821  16.484
11245SOL     OW45362   0.188   4.719  18.138
11245SOL    HW145363   0.178   4.629  18.106
11245SOL    HW245364   0.118   4.768  18.095
11246SOL     OW45365   3.835   2.711  23.551
11246SOL    HW145366   3.791   2.790  23.583
11246SOL    HW245367   3.920   2.711  23.595
11247SOL     OW45368   3.909   2.164   1.912
11247SOL    HW145369   3.924   2.176   2.006
11247SOL    HW245370   3.914   2.252   1.876
11248SOL     OW45371   2.328   4.519  20.873
11248SOL    HW145372   2.247   4.479  20.906
11248SOL    HW245373   2.302   4.607  20.845
11249SOL     OW45374   2.011   0.336   9.442
11249SOL    HW145375   1.956   0.345   9.520
11249SOL    HW245376   1.988   0.411   9.387
11250SOL     OW45377   4.175   4.097  23.504
11250SOL    HW145378   4.138   4.176  23.464
11250SOL    HW245379   4.099   4.044  23.527
11251SOL     OW45380   1.028   3.697  15.927
11251SOL    HW145381   1.053   3.689  15.835
11251SOL    HW245382   0.953   3.757  15.927
11252SOL     OW45383   3.415   4.409  17.616
11252SOL    HW145384   3.380   4.456  17.541
11252SOL    HW245385   3.495   4.457  17.639
11253SOL     OW45386   4.484   2.689  22.469
11253SOL    HW145387   4.465   2.676  22.376
11253SOL    HW245388   4.558   2.630  22.486
11254SOL     OW45389   0.569   1.161  16.808
11254SOL    HW145390   0.488   1.205  16.834
11254SOL    HW245391   0.576   1.178  16.714
11255SOL     OW45392   0.569   2.118  24.073
11255SOL    HW145393   0.624   2.140  23.998
11255SOL    HW245394   0.515   2.045  24.042
11256SOL     OW45395   0.580   1.136  15.718
11256SOL    HW145396   0.525   1.172  15.649
11256SOL    HW245397   0.534   1.057  15.747
11257SOL     OW45398   2.999   2.968   5.003
11257SOL    HW145399   3.067   2.984   5.068
11257SOL    HW245400   2.977   3.055   4.969
11258SOL     OW45401   4.453   2.314  15.570
11258SOL    HW145402   4.513   2.379  15.534
11258SOL    HW245403   4.367   2.356  15.568
11259SOL     OW45404   1.259   0.811  20.973
11259SOL    HW145405   1.249   0.901  21.005
11259SOL    HW245406   1.260   0.819  20.878
11260SOL     OW45407   1.660   4.501  17.031
11260SOL    HW145408   1.592   4.434  17.026
11260SOL    HW245409   1.737   4.454  17.062
11261SOL     OW45410   0.126   4.574  15.073
11261SOL    HW145411   0.105   4.490  15.113
11261SOL    HW245412   0.142   4.554  14.981
11262SOL     OW45413   1.671   2.333   5.709
11262SOL    HW145414   1.740   2.386   5.670
11262SOL    HW245415   1.608   2.320   5.638
11263SOL     OW45416   0.058   4.280  17.529
11263SOL    HW145417   0.152   4.297  17.537
11263SOL    HW245418   0.053   4.190  17.497
11264SOL     OW45419   2.716   0.868   2.534
11264SOL    HW145420   2.796   0.878   2.482
11264SOL    HW245421   2.688   0.778   2.518
11265SOL     OW45422   3.848   1.207  15.374
11265SOL    HW145423   3.758   1.189  15.349
11265SOL    HW245424   3.901   1.162  15.308
11266SOL     OW45425   1.876   4.132  17.742
11266SOL    HW145426   1.870   4.159  17.834
11266SOL    HW245427   1.952   4.074  17.739
11267SOL     OW45428   4.767   1.139  16.189
11267SOL    HW145429   4.740   1.191  16.265
11267SOL    HW245430   0.029   1.202  16.131
11268SOL     OW45431   0.210   2.170   4.245
11268SOL    HW145432   0.221   2.125   4.161
11268SOL    HW245433   0.134   2.128   4.285
11269SOL     OW45434   0.671   2.506   7.490
11269SOL    HW145435   0.649   2.592   7.453
11269SOL    HW245436   0.735   2.469   7.429
11270SOL     OW45437   4.351   0.902  16.393
11270SOL    HW145438   4.417   0.916  16.325
11270SOL    HW245439   4.273   0.874  16.345
11271SOL     OW45440   4.450   3.122  27.060
11271SOL    HW145441   4.463   3.204  27.107
11271SOL    HW245442   4.356   3.105  27.066
11272SOL     OW45443   4.448   4.287  16.464
11272SOL    HW145444   4.536   4.287  16.428
11272SOL    HW245445   4.417   4.377  16.454
11273SOL     OW45446   3.906   0.624  17.806
11273SOL    HW145447   3.906   0.630  17.710
11273SOL    HW245448   3.950   0.704  17.835
11274SOL     OW45449   2.310   2.663   2.238
11274SOL    HW145450   2.247   2.593   2.221
11274SOL    HW245451   2.395   2.625   2.217
11275SOL     OW45452   0.981   2.076  24.789
11275SOL    HW145453   0.986   2.123  24.872
11275SOL    HW245454   1.029   2.131  24.727
11276SOL     OW45455   3.968   3.926  24.654
11276SOL    HW145456   3.919   3.895  24.730
11276SOL    HW245457   4.048   3.963  24.690
11277SOL     OW45458   1.085   0.305   6.343
11277SOL    HW145459   1.019   0.362   6.304
11277SOL    HW245460   1.109   0.349   6.425
11278SOL     OW45461   4.597   0.280  17.358
11278SOL    HW145462   4.690   0.261  17.343
11278SOL    HW245463   4.551   0.224  17.296
11279SOL     OW45464   3.697   3.241  16.081
11279SOL    HW145465   3.641   3.164  16.088
11279SOL    HW245466   3.660   3.291  16.009
11280SOL     OW45467   1.860   2.764  23.919
11280SOL    HW145468   1.892   2.836  23.865
11280SOL    HW245469   1.887   2.786  24.008
11281SOL     OW45470   0.961   3.113  14.646
11281SOL    HW145471   0.970   3.089  14.738
11281SOL    HW245472   0.983   3.206  14.643
11282SOL     OW45473   3.184   4.586   3.004
11282SOL    HW145474   3.263   4.532   3.004
11282SOL    HW245475   3.215   4.676   2.992
11283SOL     OW45476   3.703   4.001  19.227
11283SOL    HW145477   3.724   4.032  19.139
11283SOL    HW245478   3.660   4.075  19.269
11284SOL     OW45479   4.752   2.728  15.936
11284SOL    HW145480   4.684   2.795  15.940
11284SOL    HW245481   4.778   2.725  15.844
11285SOL     OW45482   2.103   2.464  16.098
11285SOL    HW145483   2.089   2.559  16.094
11285SOL    HW245484   2.022   2.430  16.135
11286SOL     OW45485   0.231   0.887   5.043
11286SOL    HW145486   0.200   0.806   5.084
11286SOL    HW245487   0.275   0.934   5.114
11287SOL     OW45488   3.828   3.703   7.750
11287SOL    HW145489   3.853   3.611   7.744
11287SOL    HW245490   3.823   3.732   7.659
11288SOL     OW45491   0.690   1.589  18.008
11288SOL    HW145492   0.673   1.683  18.017
11288SOL    HW245493   0.603   1.550  17.995
11289SOL     OW45494   2.489   0.672   7.336
11289SOL    HW145495   2.538   0.596   7.304
11289SOL    HW245496   2.421   0.635   7.392
11290SOL     OW45497   3.254   4.198  25.258
11290SOL    HW145498   3.247   4.293  25.268
11290SOL    HW245499   3.339   4.176  25.296
11291SOL     OW45500   2.270   2.420  22.460
11291SOL    HW145501   2.216   2.481  22.410
11291SOL    HW245502   2.315   2.368  22.393
11292SOL     OW45503   4.244   3.441  17.843
11292SOL    HW145504   4.263   3.534  17.858
11292SOL    HW245505   4.167   3.423  17.896
11293SOL     OW45506   3.043   1.443   6.957
11293SOL    HW145507   3.062   1.419   6.866
11293SOL    HW245508   2.950   1.464   6.957
11294SOL     OW45509   0.065   3.888  24.761
11294SOL    HW145510   4.763   3.846  24.782
11294SOL    HW245511   0.053   3.922  24.672
11295SOL     OW45512   3.824   4.555   2.247
11295SOL    HW145513   3.853   4.526   2.334
11295SOL    HW245514   3.807   4.474   2.199
11296SOL     OW45515   0.662   2.611  17.286
11296SOL    HW145516   0.653   2.594  17.380
11296SOL    HW245517   0.755   2.631  17.274
11297SOL     OW45518   2.065   0.911  21.185
11297SOL    HW145519   2.027   0.995  21.212
11297SOL    HW245520   2.142   0.935  21.133
11298SOL     OW45521   3.630   2.558  23.432
11298SOL    HW145522   3.668   2.544  23.345
11298SOL    HW245523   3.695   2.610  23.479
11299SOL     OW45524   3.660   3.020  17.259
11299SOL    HW145525   3.649   3.109  17.292
11299SOL    HW245526   3.751   3.017  17.229
11300SOL     OW45527   0.772   3.290   2.630
11300SOL    HW145528   0.864   3.293   2.604
11300SOL    HW245529   0.763   3.206   2.676
11301SOL     OW45530   0.502   0.701  25.411
11301SOL    HW145531   0.486   0.667  25.499
11301SOL    HW245532   0.570   0.644  25.375
11302SOL     OW45533   3.681   1.759   1.502
11302SOL    HW145534   3.658   1.666   1.506
11302SOL    HW245535   3.775   1.761   1.522
11303SOL     OW45536   3.530   3.630  15.881
11303SOL    HW145537   3.456   3.616  15.940
11303SOL    HW245538   3.582   3.550  15.890
11304SOL     OW45539   4.104   1.614   1.569
11304SOL    HW145540   4.185   1.661   1.589
11304SOL    HW245541   4.125   1.522   1.583
11305SOL     OW45542   3.752   4.156   5.156
11305SOL    HW145543   3.841   4.142   5.190
11305SOL    HW245544   3.751   4.247   5.127
11306SOL     OW45545   2.793   1.547   6.556
11306SOL    HW145546   2.804   1.609   6.628
11306SOL    HW245547   2.882   1.530   6.526
11307SOL     OW45548   1.774   0.880   0.485
11307SOL    HW145549   1.690   0.871   0.530
11307SOL    HW245550   1.837   0.835   0.542
11308SOL     OW45551   1.345   3.702  27.183
11308SOL    HW145552   1.376   3.691  27.273
11308SOL    HW245553   1.250   3.696  27.189
11309SOL     OW45554   3.606   3.294  22.828
11309SOL    HW145555   3.701   3.301  22.840
11309SOL    HW245556   3.595   3.240  22.750
11310SOL     OW45557   1.987   0.659  21.058
11310SOL    HW145558   1.971   0.677  20.965
11310SOL    HW245559   2.052   0.724  21.084
11311SOL     OW45560   2.134   0.559  17.091
11311SOL    HW145561   2.149   0.650  17.064
11311SOL    HW245562   2.221   0.519  17.089
11312SOL     OW45563   3.287   1.467  23.031
11312SOL    HW145564   3.288   1.396  22.967
11312SOL    HW245565   3.354   1.528  23.001
11313SOL     OW45566   0.280   1.193   8.879
11313SOL    HW145567   0.275   1.174   8.785
11313SOL    HW245568   0.348   1.135   8.912
11314SOL     OW45569   3.526   1.696  24.545
11314SOL    HW145570   3.438   1.693  24.583
11314SOL    HW245571   3.512   1.716  24.452
11315SOL     OW45572   1.310   0.112  21.954
11315SOL    HW145573   1.265   0.031  21.977
11315SOL    HW245574   1.337   0.100  21.863
11316SOL     OW45575   3.431   4.237  23.352
11316SOL    HW145576   3.390   4.244  23.438
11316SOL    HW245577   3.360   4.212  23.293
11317SOL     OW45578   3.681   2.558  22.727
11317SOL    HW145579   3.766   2.564  22.683
11317SOL    HW245580   3.639   2.642  22.709
11318SOL     OW45581   4.708   4.364  16.781
11318SOL    HW145582   4.714   4.275  16.816
11318SOL    HW245583   4.744   4.357  16.692
11319SOL     OW45584   0.339   1.750  18.075
11319SOL    HW145585   0.335   1.710  17.988
11319SOL    HW245586   0.285   1.693  18.130
11320SOL     OW45587   1.121   4.060   6.593
11320SOL    HW145588   1.047   4.034   6.647
11320SOL    HW245589   1.097   4.147   6.561
11321SOL     OW45590   4.448   3.459  16.946
11321SOL    HW145591   4.426   3.530  17.006
11321SOL    HW245592   4.433   3.495  16.859
11322SOL     OW45593   4.434   1.137   4.460
11322SOL    HW145594   4.498   1.108   4.525
11322SOL    HW245595   4.481   1.133   4.377
11323SOL     OW45596   2.113   2.849  28.320
11323SOL    HW145597   2.204   2.831  28.345
11323SOL    HW245598   2.095   2.789  28.248
11324SOL     OW45599   3.757   0.993   3.586
11324SOL    HW145600   3.682   0.985   3.527
11324SOL    HW245601   3.777   1.087   3.586
11325SOL     OW45602   3.663   1.022  25.485
11325SOL    HW145603   3.646   1.113  25.508
11325SOL    HW245604   3.705   0.985  25.563
11326SOL     OW45605   0.113   1.765  25.555
11326SOL    HW145606   0.139   1.739  25.643
11326SOL    HW245607   0.034   1.713  25.537
11327SOL     OW45608   4.628   0.002   2.509
11327SOL    HW145609   4.599   0.025   2.597
11327SOL    HW245610   4.723   0.007   2.513
11328SOL     OW45611   3.428   2.270   4.163
11328SOL    HW145612   3.457   2.298   4.076
11328SOL    HW245613   3.340   2.306   4.171
11329SOL     OW45614   3.179   3.705  25.768
11329SOL    HW145615   3.258   3.684  25.718
11329SOL    HW245616   3.107   3.691  25.706
11330SOL     OW45617   3.857   1.168  21.983
11330SOL    HW145618   3.846   1.160  21.888
11330SOL    HW245619   3.895   1.084  22.009
11331SOL     OW45620   1.095   3.852   0.653
11331SOL    HW145621   1.037   3.789   0.697
11331SOL    HW245622   1.175   3.803   0.636
11332SOL     OW45623   3.279   0.353  26.849
11332SOL    HW145624   3.201   0.406  26.834
11332SOL    HW245625   3.280   0.339  26.944
11333SOL     OW45626   1.301   4.677  15.107
11333SOL    HW145627   1.206   4.668  15.114
11333SOL    HW245628   1.330   4.696  15.196
11334SOL     OW45629   1.269   4.646   0.021
11334SOL    HW145630   1.249   4.727  28.496
11334SOL    HW245631   1.265   4.578  28.476
11335SOL     OW45632   1.824   0.802   3.620
11335SOL    HW145633   1.784   0.734   3.565
11335SOL    HW245634   1.751   0.839   3.669
11336SOL     OW45635   2.796   3.894  20.608
11336SOL    HW145636   2.820   3.952  20.680
11336SOL    HW245637   2.871   3.896  20.549
11337SOL     OW45638   2.602   0.913   5.937
11337SOL    HW145639   2.594   0.839   5.876
11337SOL    HW245640   2.512   0.945   5.947
11338SOL     OW45641   1.741   0.108   8.018
11338SOL    HW145642   1.669   0.124   7.957
11338SOL    HW245643   1.737   0.181   8.080
11339SOL     OW45644   2.910   4.383  25.519
11339SOL    HW145645   2.951   4.365  25.434
11339SOL    HW245646   2.983   4.391  25.580
11340SOL     OW45647   1.743   0.039  20.721
11340SOL    HW145648   1.810   4.767  20.765
11340SOL    HW245649   1.711   4.764  20.651
11341SOL     OW45650   2.712   1.411  20.442
11341SOL    HW145651   2.643   1.395  20.507
11341SOL    HW245652   2.787   1.440  20.493
11342SOL     OW45653   0.575   2.059   1.033
11342SOL    HW145654   0.522   2.083   0.957
11342SOL    HW245655   0.656   2.110   1.023
11343SOL     OW45656   0.871   3.813   1.868
11343SOL    HW145657   0.832   3.776   1.947
11343SOL    HW245658   0.886   3.737   1.811
11344SOL     OW45659   0.526   1.390  25.929
11344SOL    HW145660   0.508   1.369  25.837
11344SOL    HW245661   0.474   1.469  25.947
11345SOL     OW45662   3.919   2.800  25.610
11345SOL    HW145663   3.875   2.751  25.679
11345SOL    HW245664   3.911   2.892  25.637
11346SOL     OW45665   1.197   4.740  24.089
11346SOL    HW145666   1.233   4.780  24.168
11346SOL    HW245667   1.273   4.728  24.032
11347SOL     OW45668   2.663   3.376  26.743
11347SOL    HW145669   2.738   3.416  26.699
11347SOL    HW245670   2.598   3.364  26.673
11348SOL     OW45671   3.873   0.294  24.138
11348SOL    HW145672   3.922   0.283  24.056
11348SOL    HW245673   3.900   0.380  24.170
11349SOL     OW45674   1.283   2.859   6.924
11349SOL    HW145675   1.329   2.912   6.859
11349SOL    HW245676   1.333   2.778   6.930
11350SOL     OW45677   1.566   3.754  26.634
11350SOL    HW145678   1.527   3.713  26.557
11350SOL    HW245679   1.493   3.801  26.676
11351SOL     OW45680   0.757   2.019  20.876
11351SOL    HW145681   0.704   1.988  20.950
11351SOL    HW245682   0.693   2.051  20.813
11352SOL     OW45683   3.797   1.455  25.142
11352SOL    HW145684   3.822   1.372  25.182
11352SOL    HW245685   3.880   1.498  25.122
11353SOL     OW45686   1.996   2.740   0.516
11353SOL    HW145687   2.069   2.708   0.463
11353SOL    HW245688   2.028   2.735   0.606
11354SOL     OW45689   0.142   4.122   2.241
11354SOL    HW145690   0.081   4.052   2.263
11354SOL    HW245691   0.209   4.119   2.309
11355SOL     OW45692   3.110   4.406  24.753
11355SOL    HW145693   3.126   4.414  24.847
11355SOL    HW245694   3.190   4.439  24.712
11356SOL     OW45695   3.657   0.465   9.552
11356SOL    HW145696   3.742   0.493   9.517
11356SOL    HW245697   3.677   0.391   9.609
11357SOL     OW45698   0.149   1.966  22.080
11357SOL    HW145699   0.147   1.902  22.152
11357SOL    HW245700   0.241   1.991  22.073
11358SOL     OW45701   2.444   4.541  20.269
11358SOL    HW145702   2.404   4.603  20.209
11358SOL    HW245703   2.450   4.459  20.219
11359SOL     OW45704   0.146   0.686  25.906
11359SOL    HW145705   0.166   0.604  25.860
11359SOL    HW245706   0.223   0.702  25.960
11360SOL     OW45707   1.966   1.707   9.661
11360SOL    HW145708   1.984   1.768   9.732
11360SOL    HW245709   1.916   1.758   9.598
11361SOL     OW45710   0.802   1.431  25.522
11361SOL    HW145711   0.807   1.526  25.515
11361SOL    HW245712   0.717   1.414  25.564
11362SOL     OW45713   3.411   1.835   1.868
11362SOL    HW145714   3.464   1.897   1.818
11362SOL    HW245715   3.346   1.890   1.913
11363SOL     OW45716   2.681   3.698  21.715
11363SOL    HW145717   2.772   3.669  21.727
11363SOL    HW245718   2.688   3.792  21.696
11364SOL     OW45719   2.070   2.752  17.498
11364SOL    HW145720   2.080   2.798  17.415
11364SOL    HW245721   2.009   2.681  17.479
11365SOL     OW45722   3.136   1.789  23.266
11365SOL    HW145723   3.147   1.821  23.176
11365SOL    HW245724   3.224   1.794  23.304
11366SOL     OW45725   2.341   0.010  28.327
11366SOL    HW145726   2.265   0.064  28.308
11366SOL    HW245727   2.311   4.701  28.311
11367SOL     OW45728   3.528   3.452  20.822
11367SOL    HW145729   3.566   3.467  20.735
11367SOL    HW245730   3.561   3.366  20.848
11368SOL     OW45731   1.856   2.866  28.429
11368SOL    HW145732   1.846   2.775  28.458
11368SOL    HW245733   1.945   2.871  28.394
11369SOL     OW45734   3.588   3.129   0.119
11369SOL    HW145735   3.673   3.120   0.075
11369SOL    HW245736   3.584   3.053   0.177
11370SOL     OW45737   2.184   3.101   6.118
11370SOL    HW145738   2.101   3.109   6.165
11370SOL    HW245739   2.238   3.046   6.174
11371SOL     OW45740   2.487   0.140  16.920
11371SOL    HW145741   2.455   0.230  16.926
11371SOL    HW245742   2.579   0.149  16.897
11372SOL     OW45743   0.301   4.247  21.938
11372SOL    HW145744   0.354   4.263  21.860
11372SOL    HW245745   0.354   4.280  22.011
11373SOL     OW45746   2.972   4.491  22.696
11373SOL    HW145747   3.040   4.556  22.715
11373SOL    HW245748   2.929   4.524  22.617
11374SOL     OW45749   1.486   3.670  23.025
11374SOL    HW145750   1.573   3.706  23.010
11374SOL    HW245751   1.433   3.746  23.051
11375SOL     OW45752   0.742   0.868  19.198
11375SOL    HW145753   0.761   0.784  19.240
11375SOL    HW245754   0.749   0.850  19.104
11376SOL     OW45755   1.762   2.680   8.019
11376SOL    HW145756   1.713   2.744   8.070
11376SOL    HW245757   1.695   2.632   7.970
11377SOL     OW45758   2.852   1.851   6.275
11377SOL    HW145759   2.852   1.946   6.260
11377SOL    HW245760   2.925   1.837   6.336
11378SOL     OW45761   0.080   1.429   4.241
11378SOL    HW145762   0.106   1.431   4.149
11378SOL    HW245763   4.771   1.462   4.241
11379SOL     OW45764   2.702   2.188  27.972
11379SOL    HW145765   2.705   2.258  28.037
11379SOL    HW245766   2.747   2.224  27.896
11380SOL     OW45767   1.547   1.763  16.726
11380SOL    HW145768   1.460   1.784  16.692
11380SOL    HW245769   1.588   1.711  16.657
11381SOL     OW45770   4.278   3.074   7.463
11381SOL    HW145771   4.362   3.040   7.432
11381SOL    HW245772   4.258   3.147   7.404
11382SOL     OW45773   4.557   3.477   8.123
11382SOL    HW145774   4.599   3.455   8.206
11382SOL    HW245775   4.478   3.526   8.147
11383SOL     OW45776   2.220   1.428  22.217
11383SOL    HW145777   2.167   1.507  22.214
11383SOL    HW245778   2.168   1.366  22.268
11384SOL     OW45779   4.362   3.346  24.367
11384SOL    HW145780   4.320   3.269  24.404
11384SOL    HW245781   4.291   3.395  24.325
11385SOL     OW45782   3.721   3.076   1.685
11385SOL    HW145783   3.780   3.090   1.759
11385SOL    HW245784   3.668   3.001   1.711
11386SOL     OW45785   4.193   1.889  19.752
11386SOL    HW145786   4.215   1.826  19.821
11386SOL    HW245787   4.118   1.937  19.787
11387SOL     OW45788   2.954   2.042  24.681
11387SOL    HW145789   2.950   1.986  24.759
11387SOL    HW245790   3.020   2.108  24.703
11388SOL     OW45791   2.981   2.466   9.905
11388SOL    HW145792   2.945   2.503   9.824
11388SOL    HW245793   3.055   2.413   9.876
11389SOL     OW45794   1.393   0.989  26.297
11389SOL    HW145795   1.429   0.901  26.283
11389SOL    HW245796   1.312   0.990  26.247
11390SOL     OW45797   2.443   2.466   1.867
11390SOL    HW145798   2.468   2.519   1.792
11390SOL    HW245799   2.354   2.494   1.888
11391SOL     OW45800   2.238   1.302   9.032
11391SOL    HW145801   2.261   1.319   8.941
11391SOL    HW245802   2.187   1.379   9.058
11392SOL     OW45803   0.618   1.904   4.051
11392SOL    HW145804   0.607   1.812   4.027
11392SOL    HW245805   0.711   1.922   4.034
11393SOL     OW45806   2.623   1.619  23.090
11393SOL    HW145807   2.556   1.645  23.027
11393SOL    HW245808   2.706   1.635  23.045
11394SOL     OW45809   0.093   4.655   4.846
11394SOL    HW145810   0.164   4.641   4.783
11394SOL    HW245811   0.015   4.624   4.801
11395SOL     OW45812   2.936   1.992   1.736
11395SOL    HW145813   2.945   2.028   1.824
11395SOL    HW245814   2.849   2.020   1.707
11396SOL     OW45815   2.495   3.576  27.682
11396SOL    HW145816   2.574   3.595  27.631
11396SOL    HW245817   2.425   3.570  27.617
11397SOL     OW45818   4.419   3.658   8.565
11397SOL    HW145819   4.488   3.702   8.516
11397SOL    HW245820   4.348   3.722   8.569
11398SOL     OW45821   1.369   4.664   9.056
11398SOL    HW145822   1.393   4.625   9.140
11398SOL    HW245823   1.453   4.688   9.016
11399SOL     OW45824   4.179   1.033  18.751
11399SOL    HW145825   4.195   1.126  18.738
11399SOL    HW245826   4.229   1.010  18.829
11400SOL     OW45827   3.841   1.552  20.929
11400SOL    HW145828   3.902   1.514  20.992
11400SOL    HW245829   3.882   1.538  20.844
11401SOL     OW45830   1.759   3.915  21.170
11401SOL    HW145831   1.708   3.977  21.221
11401SOL    HW245832   1.702   3.890  21.098
11402SOL     OW45833   1.932   0.537  23.316
11402SOL    HW145834   1.905   0.567  23.229
11402SOL    HW245835   2.027   0.531  23.310
11403SOL     OW45836   3.719   1.336   0.178
11403SOL    HW145837   3.703   1.268   0.113
11403SOL    HW245838   3.638   1.340   0.228
11404SOL     OW45839   2.545   1.887  18.795
11404SOL    HW145840   2.475   1.891  18.729
11404SOL    HW245841   2.626   1.883  18.744
11405SOL     OW45842   4.425   4.004  18.829
11405SOL    HW145843   4.351   4.018  18.770
11405SOL    HW245844   4.468   3.926  18.794
11406SOL     OW45845   4.323   2.474   7.389
11406SOL    HW145846   4.335   2.563   7.422
11406SOL    HW245847   4.365   2.474   7.303
11407SOL     OW45848   0.197   4.371   6.995
11407SOL    HW145849   0.120   4.412   7.034
11407SOL    HW245850   0.162   4.315   6.926
11408SOL     OW45851   0.143   2.496  28.163
11408SOL    HW145852   0.061   2.454  28.138
11408SOL    HW245853   0.147   2.485  28.258
11409SOL     OW45854   4.198   2.205  10.908
11409SOL    HW145855   4.150   2.285  10.887
11409SOL    HW245856   4.290   2.231  10.906
11410SOL     OW45857   3.585   1.553   8.216
11410SOL    HW145858   3.664   1.530   8.266
11410SOL    HW245859   3.591   1.501   8.136
11411SOL     OW45860   3.332   3.701   3.678
11411SOL    HW145861   3.344   3.747   3.761
11411SOL    HW245862   3.245   3.727   3.648
11412SOL     OW45863   0.950   0.470  21.576
11412SOL    HW145864   1.002   0.510  21.645
11412SOL    HW245865   0.944   0.378  21.600
11413SOL     OW45866   2.311   2.052   0.738
11413SOL    HW145867   2.270   2.091   0.661
11413SOL    HW245868   2.304   2.119   0.806
11414SOL     OW45869   0.103   4.741  17.121
11414SOL    HW145870   0.033   4.684  17.091
11414SOL    HW245871   0.089   4.749  17.215
11415SOL     OW45872   3.635   4.133   2.898
11415SOL    HW145873   3.581   4.060   2.868
11415SOL    HW245874   3.575   4.190   2.946
11416SOL     OW45875   3.235   4.451  18.068
11416SOL    HW145876   3.269   4.395  17.998
11416SOL    HW245877   3.207   4.390  18.136
11417SOL     OW45878   4.402   0.046   4.660
11417SOL    HW145879   4.378   4.748   4.708
11417SOL    HW245880   4.393   0.022   4.568
11418SOL     OW45881   2.390   0.567  24.372
11418SOL    HW145882   2.429   0.482  24.394
11418SOL    HW245883   2.323   0.581  24.439
11419SOL     OW45884   0.672   2.340  25.801
11419SOL    HW145885   0.719   2.367  25.722
11419SOL    HW245886   0.693   2.408  25.866
11420SOL     OW45887   2.963   0.144  24.858
11420SOL    HW145888   2.933   0.070  24.805
11420SOL    HW245889   2.944   0.221  24.804
11421SOL     OW45890   3.700   1.936  23.698
11421SOL    HW145891   3.692   1.999  23.769
11421SOL    HW245892   3.639   1.866  23.721
11422SOL     OW45893   3.220   1.712   9.366
11422SOL    HW145894   3.177   1.690   9.283
11422SOL    HW245895   3.279   1.639   9.383
11423SOL     OW45896   0.488   0.284  15.605
11423SOL    HW145897   0.498   0.329  15.521
11423SOL    HW245898   0.421   0.334  15.651
11424SOL     OW45899   1.470   2.499  25.122
11424SOL    HW145900   1.499   2.533  25.207
11424SOL    HW245901   1.445   2.577  25.072
11425SOL     OW45902   0.914   3.255  24.042
11425SOL    HW145903   0.845   3.294  23.989
11425SOL    HW245904   0.965   3.330  24.074
11426SOL     OW45905   4.766   2.768   7.491
11426SOL    HW145906   0.079   2.769   7.510
11426SOL    HW245907   4.741   2.676   7.496
11427SOL     OW45908   0.338   3.557   1.130
11427SOL    HW145909   0.391   3.485   1.166
11427SOL    HW245910   0.281   3.515   1.065
11428SOL     OW45911   3.150   2.238  21.913
11428SOL    HW145912   3.170   2.262  22.003
11428SOL    HW245913   3.113   2.150  21.919
11429SOL     OW45914   1.137   1.721  27.163
11429SOL    HW145915   1.116   1.814  27.152
11429SOL    HW245916   1.184   1.717  27.246
11430SOL     OW45917   2.830   3.048  23.789
11430SOL    HW145918   2.851   3.069  23.880
11430SOL    HW245919   2.913   3.057  23.742
11431SOL     OW45920   0.956   3.679   3.678
11431SOL    HW145921   0.995   3.698   3.763
11431SOL    HW245922   0.862   3.695   3.691
11432SOL     OW45923   1.479   0.485  23.309
11432SOL    HW145924   1.452   0.530  23.389
11432SOL    HW245925   1.424   0.522  23.240
11433SOL     OW45926   0.297   0.644   5.199
11433SOL    HW145927   0.386   0.673   5.179
11433SOL    HW245928   0.277   0.683   5.284
11434SOL     OW45929   0.562   3.969   7.816
11434SOL    HW145930   0.635   3.908   7.809
11434SOL    HW245931   0.582   4.022   7.893
11435SOL     OW45932   1.163   0.307  26.727
11435SOL    HW145933   1.123   0.320  26.813
11435SOL    HW245934   1.097   0.337  26.665
11436SOL     OW45935   1.458   2.171   7.729
11436SOL    HW145936   1.484   2.152   7.639
11436SOL    HW245937   1.379   2.119   7.743
11437SOL     OW45938   1.229   4.762   2.090
11437SOL    HW145939   1.257   4.760   2.181
11437SOL    HW245940   1.305   4.730   2.041
11438SOL     OW45941   3.152   1.839   9.797
11438SOL    HW145942   3.156   1.744   9.788
11438SOL    HW245943   3.189   1.856   9.883
11439SOL     OW45944   0.069   0.036  24.652
11439SOL    HW145945   0.029   0.123  24.651
11439SOL    HW245946   4.778   4.757  24.672
11440SOL     OW45947   1.183   2.018  27.906
11440SOL    HW145948   1.260   2.047  27.856
11440SOL    HW245949   1.194   1.923  27.914
11441SOL     OW45950   3.058   1.015  24.514
11441SOL    HW145951   3.133   0.983  24.563
11441SOL    HW245952   3.017   0.936  24.479
11442SOL     OW45953   3.353   3.569  14.952
11442SOL    HW145954   3.300   3.648  14.963
11442SOL    HW245955   3.294   3.497  14.974
11443SOL     OW45956   4.425   1.990  24.555
11443SOL    HW145957   4.362   1.919  24.541
11443SOL    HW245958   4.499   1.949  24.600
11444SOL     OW45959   1.250   1.324  23.723
11444SOL    HW145960   1.189   1.264  23.681
11444SOL    HW245961   1.337   1.288  23.705
11445SOL     OW45962   3.150   1.554  21.576
11445SOL    HW145963   3.120   1.610  21.647
11445SOL    HW245964   3.225   1.601  21.538
11446SOL     OW45965   3.226   4.429   6.748
11446SOL    HW145966   3.303   4.483   6.732
11446SOL    HW245967   3.243   4.387   6.832
11447SOL     OW45968   0.775   2.127   8.997
11447SOL    HW145969   0.840   2.122   9.067
11447SOL    HW245970   0.766   2.221   8.979
11448SOL     OW45971   4.600   1.514   4.172
11448SOL    HW145972   4.556   1.441   4.129
11448SOL    HW245973   4.604   1.583   4.105
11449SOL     OW45974   3.328   3.084   6.114
11449SOL    HW145975   3.382   3.116   6.187
11449SOL    HW245976   3.258   3.148   6.106
11450SOL     OW45977   3.065   1.828  22.344
11450SOL    HW145978   3.052   1.810  22.251
11450SOL    HW245979   2.984   1.871  22.372
11451SOL     OW45980   0.446   1.626   7.984
11451SOL    HW145981   0.498   1.684   8.039
11451SOL    HW245982   0.469   1.538   8.013
11452SOL     OW45983   2.882   0.787   9.888
11452SOL    HW145984   2.944   0.834   9.944
11452SOL    HW245985   2.922   0.701   9.874
11453SOL     OW45986   4.112   1.218  24.855
11453SOL    HW145987   4.084   1.129  24.836
11453SOL    HW245988   4.039   1.273  24.828
11454SOL     OW45989   3.141   3.200  25.111
11454SOL    HW145990   3.207   3.222  25.176
11454SOL    HW245991   3.181   3.225  25.027
11455SOL     OW45992   2.178   3.912   1.132
11455SOL    HW145993   2.254   3.863   1.165
11455SOL    HW245994   2.172   3.988   1.189
11456SOL     OW45995   3.869   3.601  18.555
11456SOL    HW145996   3.819   3.682  18.549
11456SOL    HW245997   3.859   3.572  18.646
11457SOL     OW45998   0.577   2.245  19.369
11457SOL    HW145999   0.554   2.318  19.311
11457SOL    HW246000   0.556   2.167  19.319
11458SOL     OW46001   0.042   1.919  17.981
11458SOL    HW146002   0.103   1.936  18.052
11458SOL    HW246003   0.092   1.866  17.919
11459SOL     OW46004   2.056   4.692  23.487
11459SOL    HW146005   2.148   4.715  23.475
11459SOL    HW246006   2.010   4.746  23.422
11460SOL     OW46007   3.885   1.991  25.094
11460SOL    HW146008   3.924   1.992  25.007
11460SOL    HW246009   3.838   1.908  25.099
11461SOL     OW46010   3.302   4.278   7.802
11461SOL    HW146011   3.285   4.372   7.800
11461SOL    HW246012   3.375   4.266   7.742
11462SOL     OW46013   4.543   1.302   8.316
11462SOL    HW146014   4.540   1.253   8.234
11462SOL    HW246015   4.634   1.330   8.324
11463SOL     OW46016   4.333   1.775   5.012
11463SOL    HW146017   4.368   1.807   4.929
11463SOL    HW246018   4.314   1.683   4.997
11464SOL     OW46019   2.443   0.051  25.106
11464SOL    HW146020   2.458   4.737  25.104
11464SOL    HW246021   2.355   0.061  25.141
11465SOL     OW46022   2.748   3.673  25.907
11465SOL    HW146023   2.660   3.644  25.881
11465SOL    HW246024   2.796   3.592  25.923
11466SOL     OW46025   4.569   4.732   6.848
11466SOL    HW146026   4.608   0.036   6.871
11466SOL    HW246027   4.495   4.722   6.907
11467SOL     OW46028   0.425   2.741  23.359
11467SOL    HW146029   0.441   2.678  23.288
11467SOL    HW246030   0.332   2.730  23.380
11468SOL     OW46031   4.664   4.649  27.004
11468SOL    HW146032   4.644   4.616  26.916
11468SOL    HW246033   4.580   4.679  27.038
11469SOL     OW46034   1.221   4.189   2.008
11469SOL    HW146035   1.175   4.113   1.972
11469SOL    HW246036   1.222   4.253   1.936
11470SOL     OW46037   4.078   1.815  21.067
11470SOL    HW146038   4.159   1.864  21.049
11470SOL    HW246039   4.012   1.858  21.013
11471SOL     OW46040   3.320   3.910   5.250
11471SOL    HW146041   3.292   3.839   5.192
11471SOL    HW246042   3.415   3.912   5.241
11472SOL     OW46043   3.056   1.408   7.863
11472SOL    HW146044   3.102   1.449   7.936
11472SOL    HW246045   3.074   1.314   7.873
11473SOL     OW46046   3.580   1.821   9.304
11473SOL    HW146047   3.664   1.776   9.310
11473SOL    HW246048   3.543   1.814   9.392
11474SOL     OW46049   3.157   2.130  23.144
11474SOL    HW146050   3.215   2.134  23.220
11474SOL    HW246051   3.193   2.195  23.083
11475SOL     OW46052   0.079   2.890   8.259
11475SOL    HW146053   0.140   2.963   8.253
11475SOL    HW246054   0.076   2.854   8.170
11476SOL     OW46055   3.016   0.605  26.038
11476SOL    HW146056   3.021   0.565  26.125
11476SOL    HW246057   2.925   0.633  26.029
11477SOL     OW46058   3.169   2.901   0.159
11477SOL    HW146059   3.166   2.819   0.208
11477SOL    HW246060   3.257   2.903   0.121
11478SOL     OW46061   2.836   0.979  25.004
11478SOL    HW146062   2.808   1.033  24.930
11478SOL    HW246063   2.773   0.907  25.007
11479SOL     OW46064   2.044   2.044   8.677
11479SOL    HW146065   2.034   2.023   8.584
11479SOL    HW246066   2.135   2.072   8.686
11480SOL     OW46067   3.278   1.047   3.585
11480SOL    HW146068   3.265   1.065   3.678
11480SOL    HW246069   3.210   1.098   3.541
11481SOL     OW46070   3.323   0.307  20.111
11481SOL    HW146071   3.293   0.392  20.142
11481SOL    HW246072   3.276   0.293  20.029
11482SOL     OW46073   0.647   3.377  23.261
11482SOL    HW146074   0.652   3.300  23.317
11482SOL    HW246075   0.553   3.389  23.245
11483SOL     OW46076   3.821   4.306   6.621
11483SOL    HW146077   3.761   4.377   6.599
11483SOL    HW246078   3.812   4.243   6.549
11484SOL     OW46079   1.531   2.934   3.945
11484SOL    HW146080   1.606   2.941   3.886
11484SOL    HW246081   1.462   2.984   3.901
11485SOL     OW46082   0.050   3.662  10.690
11485SOL    HW146083   0.070   3.755  10.702
11485SOL    HW246084   4.736   3.656  10.702
11486SOL     OW46085   2.974   3.678   7.424
11486SOL    HW146086   3.009   3.682   7.513
11486SOL    HW246087   2.957   3.769   7.401
11487SOL     OW46088   3.316   1.848   1.373
11487SOL    HW146089   3.250   1.886   1.430
11487SOL    HW246090   3.391   1.907   1.380
11488SOL     OW46091   0.623   2.492   1.850
11488SOL    HW146092   0.600   2.523   1.937
11488SOL    HW246093   0.619   2.397   1.857
11489SOL     OW46094   3.475   0.858  21.275
11489SOL    HW146095   3.441   0.926  21.334
11489SOL    HW246096   3.418   0.782  21.290
11490SOL     OW46097   4.723   0.512  20.520
11490SOL    HW146098   4.673   0.500  20.601
11490SOL    HW246099   0.020   0.457  20.531
11491SOL     OW46100   3.323   0.727   8.162
11491SOL    HW146101   3.406   0.702   8.202
11491SOL    HW246102   3.261   0.727   8.235
11492SOL     OW46103   4.697   1.889   1.507
11492SOL    HW146104   4.771   1.947   1.492
11492SOL    HW246105   4.643   1.898   1.429
11493SOL     OW46106   2.729   3.337   2.772
11493SOL    HW146107   2.714   3.331   2.866
11493SOL    HW246108   2.719   3.247   2.741
11494SOL     OW46109   4.594   2.673  19.284
11494SOL    HW146110   4.532   2.602  19.266
11494SOL    HW246111   4.568   2.706  19.370
11495SOL     OW46112   0.455   4.179   6.483
11495SOL    HW146113   0.441   4.122   6.407
11495SOL    HW246114   0.543   4.215   6.470
11496SOL     OW46115   0.550   1.894   4.722
11496SOL    HW146116   0.468   1.863   4.761
11496SOL    HW246117   0.600   1.929   4.796
11497SOL     OW46118   4.731   1.843  25.983
11497SOL    HW146119   0.008   1.837  26.059
11497SOL    HW246120   4.780   1.895  25.919
11498SOL     OW46121   3.501   0.078   8.583
11498SOL    HW146122   3.562   0.092   8.655
11498SOL    HW246123   3.472   4.768   8.594
11499SOL     OW46124   1.869   3.806   2.330
11499SOL    HW146125   1.900   3.888   2.292
11499SOL    HW246126   1.939   3.780   2.390
11500SOL     OW46127   3.725   3.003   3.101
11500SOL    HW146128   3.670   3.078   3.126
11500SOL    HW246129   3.665   2.929   3.101
11501SOL     OW46130   1.419   0.365   1.026
11501SOL    HW146131   1.393   0.273   1.031
11501SOL    HW246132   1.489   0.367   0.961
11502SOL     OW46133   4.647   0.022  21.159
11502SOL    HW146134   4.726   4.768  21.118
11502SOL    HW246135   4.585   4.730  21.159
11503SOL     OW46136   3.783   2.189  22.363
11503SOL    HW146137   3.723   2.262  22.376
11503SOL    HW246138   3.854   2.225  22.310
11504SOL     OW46139   1.768   4.146  24.354
11504SOL    HW146140   1.858   4.179  24.355
11504SOL    HW246141   1.741   4.146  24.446
11505SOL     OW46142   0.154   1.021   5.935
11505SOL    HW146143   0.107   1.094   5.894
11505SOL    HW246144   0.109   1.007   6.018
11506SOL     OW46145   4.097   2.704  26.773
11506SOL    HW146146   4.191   2.687  26.780
11506SOL    HW246147   4.089   2.799  26.779
11507SOL     OW46148   2.337   2.896  23.656
11507SOL    HW146149   2.300   2.852  23.580
11507SOL    HW246150   2.424   2.856  23.666
11508SOL     OW46151   0.602   0.686  11.368
11508SOL    HW146152   0.544   0.762  11.360
11508SOL    HW246153   0.621   0.681  11.462
11509SOL     OW46154   1.853   0.620  19.322
11509SOL    HW146155   1.810   0.691  19.275
11509SOL    HW246156   1.928   0.661  19.365
11510SOL     OW46157   2.683   0.924   9.746
11510SOL    HW146158   2.608   0.865   9.748
11510SOL    HW246159   2.754   0.874   9.786
11511SOL     OW46160   2.513   1.237  23.754
11511SOL    HW146161   2.436   1.290  23.775
11511SOL    HW246162   2.477   1.158  23.714
11512SOL     OW46163   3.230   2.314   9.788
11512SOL    HW146164   3.234   2.225   9.753
11512SOL    HW246165   3.259   2.305   9.879
11513SOL     OW46166   2.498   4.103   2.672
11513SOL    HW146167   2.569   4.139   2.724
11513SOL    HW246168   2.526   4.013   2.653
11514SOL     OW46169   2.253   3.092   0.992
11514SOL    HW146170   2.222   3.047   1.071
11514SOL    HW246171   2.348   3.088   0.998
11515SOL     OW46172   2.711   1.337   4.731
11515SOL    HW146173   2.805   1.326   4.713
11515SOL    HW246174   2.675   1.249   4.721
11516SOL     OW46175   2.940   2.405   0.391
11516SOL    HW146176   2.881   2.433   0.461
11516SOL    HW246177   3.027   2.406   0.431
11517SOL     OW46178   3.023   3.181  19.957
11517SOL    HW146179   3.028   3.173  19.862
11517SOL    HW246180   3.034   3.092  19.990
11518SOL     OW46181   2.162   1.237   3.401
11518SOL    HW146182   2.248   1.203   3.376
11518SOL    HW246183   2.173   1.332   3.400
11519SOL     OW46184   3.685   3.214  20.714
11519SOL    HW146185   3.655   3.129  20.746
11519SOL    HW246186   3.655   3.217  20.623
11520SOL     OW46187   0.118   3.778  18.667
11520SOL    HW146188   0.059   3.703  18.671
11520SOL    HW246189   0.186   3.752  18.606
11521SOL     OW46190   1.014   2.458   9.225
11521SOL    HW146191   0.981   2.458   9.135
11521SOL    HW246192   1.052   2.545   9.237
11522SOL     OW46193   1.347   2.538   5.789
11522SOL    HW146194   1.347   2.606   5.856
11522SOL    HW246195   1.385   2.580   5.712
11523SOL     OW46196   3.148   4.323   4.540
11523SOL    HW146197   3.200   4.306   4.461
11523SOL    HW246198   3.139   4.418   4.543
11524SOL     OW46199   2.537   2.036  26.105
11524SOL    HW146200   2.599   2.108  26.119
11524SOL    HW246201   2.571   1.964  26.158
11525SOL     OW46202   4.348   2.171   3.918
11525SOL    HW146203   4.353   2.204   4.008
11525SOL    HW246204   4.257   2.185   3.892
11526SOL     OW46205   2.350   2.741  24.037
11526SOL    HW146206   2.301   2.806  24.088
11526SOL    HW246207   2.434   2.783  24.018
11527SOL     OW46208   4.346   2.722  20.300
11527SOL    HW146209   4.380   2.633  20.302
11527SOL    HW246210   4.402   2.770  20.362
11528SOL     OW46211   1.725   3.438   7.073
11528SOL    HW146212   1.787   3.446   7.001
11528SOL    HW246213   1.753   3.360   7.121
11529SOL     OW46214   2.665   0.189  10.249
11529SOL    HW146215   2.714   0.127  10.303
11529SOL    HW246216   2.715   0.195  10.167
11530SOL     OW46217   4.690   3.316   5.125
11530SOL    HW146218   4.675   3.399   5.080
11530SOL    HW246219   4.720   3.342   5.212
11531SOL     OW46220   0.070   3.841  20.140
11531SOL    HW146221   0.009   3.770  20.159
11531SOL    HW246222   0.071   3.847  20.045
11532SOL     OW46223   3.331   2.051  22.437
11532SOL    HW146224   3.314   2.087  22.524
11532SOL    HW246225   3.246   2.053  22.393
11533SOL     OW46226   2.754   0.183   4.912
11533SOL    HW146227   2.705   0.204   4.833
11533SOL    HW246228   2.828   0.131   4.882
11534SOL     OW46229   4.320   2.137  24.357
11534SOL    HW146230   4.397   2.151  24.302
11534SOL    HW246231   4.354   2.096  24.436
11535SOL     OW46232   4.083   3.351   5.620
11535SOL    HW146233   4.108   3.441   5.639
11535SOL    HW246234   3.990   3.346   5.641
11536SOL     OW46235   2.640   2.649   2.433
11536SOL    HW146236   2.567   2.707   2.455
11536SOL    HW246237   2.607   2.596   2.360
11537SOL     OW46238   4.670   1.905   7.588
11537SOL    HW146239   4.729   1.867   7.523
11537SOL    HW246240   4.705   1.877   7.672
11538SOL     OW46241   3.798   1.872   3.938
11538SOL    HW146242   3.822   1.937   3.872
11538SOL    HW246243   3.878   1.822   3.952
11539SOL     OW46244   3.173   2.085   7.147
11539SOL    HW146245   3.096   2.054   7.196
11539SOL    HW246246   3.166   2.043   7.062
11540SOL     OW46247   2.910   2.477  17.615
11540SOL    HW146248   2.860   2.398  17.595
11540SOL    HW246249   2.927   2.517  17.530
11541SOL     OW46250   2.473   4.270  26.664
11541SOL    HW146251   2.378   4.259  26.653
11541SOL    HW246252   2.511   4.222  26.590
11542SOL     OW46253   3.457   3.495   7.939
11542SOL    HW146254   3.385   3.508   8.001
11542SOL    HW246255   3.480   3.403   7.949
11543SOL     OW46256   1.714   3.720  19.955
11543SOL    HW146257   1.748   3.652  19.897
11543SOL    HW246258   1.673   3.783  19.896
11544SOL     OW46259   2.277   2.027   4.869
11544SOL    HW146260   2.334   2.067   4.935
11544SOL    HW246261   2.300   1.934   4.872
11545SOL     OW46262   0.979   3.516   9.335
11545SOL    HW146263   0.905   3.517   9.274
11545SOL    HW246264   1.025   3.434   9.316
11546SOL     OW46265   1.117   3.794  27.676
11546SOL    HW146266   1.023   3.811  27.686
11546SOL    HW246267   1.122   3.706  27.640
11547SOL     OW46268   4.138   0.357   7.155
11547SOL    HW146269   4.186   0.331   7.233
11547SOL    HW246270   4.116   0.275   7.111
11548SOL     OW46271   3.707   2.663  19.344
11548SOL    HW146272   3.754   2.701  19.270
11548SOL    HW246273   3.756   2.584  19.367
11549SOL     OW46274   3.925   3.321   7.566
11549SOL    HW146275   3.991   3.377   7.607
11549SOL    HW246276   3.966   3.234   7.563
11550SOL     OW46277   3.038   3.094   3.847
11550SOL    HW146278   3.017   3.001   3.856
11550SOL    HW246279   3.082   3.101   3.762
11551SOL     OW46280   4.495   3.121   0.855
11551SOL    HW146281   4.415   3.174   0.850
11551SOL    HW246282   4.566   3.185   0.859
11552SOL     OW46283   2.887   0.191  17.088
11552SOL    HW146284   2.907   0.248  17.162
11552SOL    HW246285   2.969   0.185  17.040
11553SOL     OW46286   4.484   1.481   0.631
11553SOL    HW146287   4.396   1.516   0.615
11553SOL    HW246288   4.474   1.386   0.622
11554SOL     OW46289   1.704   4.313   1.770
11554SOL    HW146290   1.782   4.364   1.794
11554SOL    HW246291   1.659   4.367   1.705
11555SOL     OW46292   2.495   2.314  26.980
11555SOL    HW146293   2.408   2.346  26.955
11555SOL    HW246294   2.553   2.346  26.911
11556SOL     OW46295   1.395   1.600  27.202
11556SOL    HW146296   1.478   1.555  27.188
11556SOL    HW246297   1.331   1.529  27.213
11557SOL     OW46298   2.926   0.886   2.344
11557SOL    HW146299   2.912   0.972   2.304
11557SOL    HW246300   2.993   0.901   2.410
11558SOL     OW46301   1.484   0.681   0.449
11558SOL    HW146302   1.449   0.688   0.360
11558SOL    HW246303   1.577   0.663   0.437
11559SOL     OW46304   1.249   2.132   3.875
11559SOL    HW146305   1.191   2.083   3.817
11559SOL    HW246306   1.321   2.072   3.895
11560SOL     OW46307   3.990   0.071   0.302
11560SOL    HW146308   3.911   0.020   0.284
11560SOL    HW246309   4.009   0.115   0.219
11561SOL     OW46310   3.472   4.638  26.962
11561SOL    HW146311   3.398   4.623  27.022
11561SOL    HW246312   3.464   4.730  26.936
11562SOL     OW46313   0.532   3.704   4.249
11562SOL    HW146314   0.490   3.618   4.253
11562SOL    HW246315   0.615   3.692   4.296
11563SOL     OW46316   1.568   2.223  22.541
11563SOL    HW146317   1.649   2.225  22.490
11563SOL    HW246318   1.501   2.255  22.481
11564SOL     OW46319   4.232   2.510  24.529
11564SOL    HW146320   4.319   2.479  24.503
11564SOL    HW246321   4.200   2.444  24.590
11565SOL     OW46322   2.705   1.152  22.067
11565SOL    HW146323   2.635   1.212  22.093
11565SOL    HW246324   2.660   1.080  22.023
11566SOL     OW46325   4.305   1.909   5.237
11566SOL    HW146326   4.393   1.938   5.259
11566SOL    HW246327   4.317   1.855   5.159
11567SOL     OW46328   1.958   4.155   8.355
11567SOL    HW146329   2.047   4.149   8.321
11567SOL    HW246330   1.920   4.230   8.309
11568SOL     OW46331   4.344   3.511   6.242
11568SOL    HW146332   4.348   3.516   6.147
11568SOL    HW246333   4.434   3.526   6.271
11569SOL     OW46334   2.326   3.835   2.500
11569SOL    HW146335   2.314   3.761   2.441
11569SOL    HW246336   2.415   3.824   2.535
11570SOL     OW46337   3.471   3.735   7.566
11570SOL    HW146338   3.458   3.755   7.659
11570SOL    HW246339   3.411   3.662   7.549
11571SOL     OW46340   1.354   3.047   9.242
11571SOL    HW146341   1.397   3.062   9.158
11571SOL    HW246342   1.317   3.132   9.265
11572SOL     OW46343   1.172   1.094   9.350
11572SOL    HW146344   1.220   1.122   9.272
11572SOL    HW246345   1.216   1.013   9.377
11573SOL     OW46346   2.955   3.030  21.241
11573SOL    HW146347   3.022   2.982  21.192
11573SOL    HW246348   2.912   3.085  21.175
11574SOL     OW46349   3.251   2.258   8.088
11574SOL    HW146350   3.276   2.311   8.012
11574SOL    HW246351   3.164   2.224   8.067
11575SOL     OW46352   4.537   3.182  23.577
11575SOL    HW146353   4.564   3.167  23.486
11575SOL    HW246354   4.467   3.118  23.592
11576SOL     OW46355   1.336   0.546  24.567
11576SOL    HW146356   1.247   0.530  24.535
11576SOL    HW246357   1.338   0.640  24.586
11577SOL     OW46358   3.555   3.111   3.996
11577SOL    HW146359   3.494   3.107   4.069
11577SOL    HW246360   3.529   3.039   3.939
11578SOL     OW46361   0.944   2.198   6.910
11578SOL    HW146362   0.893   2.168   6.835
11578SOL    HW246363   0.913   2.145   6.983
11579SOL     OW46364   0.741   2.978   8.790
11579SOL    HW146365   0.767   2.964   8.699
11579SOL    HW246366   0.654   2.938   8.796
11580SOL     OW46367   1.901   2.156  19.687
11580SOL    HW146368   1.983   2.199  19.711
11580SOL    HW246369   1.895   2.168  19.592
11581SOL     OW46370   4.030   1.513   2.193
11581SOL    HW146371   3.966   1.581   2.171
11581SOL    HW246372   4.064   1.484   2.109
11582SOL     OW46373   2.130   2.778  17.916
11582SOL    HW146374   2.204   2.839  17.914
11582SOL    HW246375   2.170   2.691  17.915
11583SOL     OW46376   1.228   2.811  19.182
11583SOL    HW146377   1.233   2.741  19.117
11583SOL    HW246378   1.166   2.779  19.247
11584SOL     OW46379   0.358   0.331  20.349
11584SOL    HW146380   0.333   0.260  20.408
11584SOL    HW246381   0.331   0.302  20.262
11585SOL     OW46382   0.609   0.823   8.715
11585SOL    HW146383   0.640   0.776   8.638
11585SOL    HW246384   0.631   0.915   8.698
11586SOL     OW46385   0.357   0.732  10.489
11586SOL    HW146386   0.269   0.716  10.456
11586SOL    HW246387   0.377   0.654  10.541
11587SOL     OW46388   1.326   0.576  21.108
11587SOL    HW146389   1.278   0.647  21.064
11587SOL    HW246390   1.411   0.614  21.129
11588SOL     OW46391   4.218   4.399   1.701
11588SOL    HW146392   4.216   4.312   1.740
11588SOL    HW246393   4.305   4.433   1.722
11589SOL     OW46394   1.805   1.136  23.586
11589SOL    HW146395   1.783   1.097  23.501
11589SOL    HW246396   1.826   1.227  23.566
11590SOL     OW46397   3.531   2.600  24.575
11590SOL    HW146398   3.542   2.678  24.520
11590SOL    HW246399   3.617   2.559  24.576
11591SOL     OW46400   2.829   2.304   8.764
11591SOL    HW146401   2.812   2.350   8.682
11591SOL    HW246402   2.912   2.340   8.795
11592SOL     OW46403   4.508   1.892  22.818
11592SOL    HW146404   4.467   1.951  22.881
11592SOL    HW246405   4.571   1.842  22.869
11593SOL     OW46406   2.475   1.244  23.005
11593SOL    HW146407   2.400   1.266  22.950
11593SOL    HW246408   2.466   1.150  23.022
11594SOL     OW46409   0.767   0.868   7.197
11594SOL    HW146410   0.860   0.874   7.177
11594SOL    HW246411   0.760   0.889   7.290
11595SOL     OW46412   2.684   2.478  20.243
11595SOL    HW146413   2.702   2.564  20.281
11595SOL    HW246414   2.749   2.420  20.283
11596SOL     OW46415   0.024   1.790   2.397
11596SOL    HW146416   4.733   1.821   2.452
11596SOL    HW246417   0.097   1.847   2.419
11597SOL     OW46418   4.343   4.603   5.847
11597SOL    HW146419   4.411   4.663   5.816
11597SOL    HW246420   4.373   4.516   5.820
11598SOL     OW46421   4.249   4.382   4.192
11598SOL    HW146422   4.300   4.303   4.173
11598SOL    HW246423   4.300   4.429   4.258
11599SOL     OW46424   0.236   2.718  28.244
11599SOL    HW146425   0.187   2.643  28.212
11599SOL    HW246426   0.328   2.694  28.231
11600SOL     OW46427   3.973   3.441  16.859
11600SOL    HW146428   3.976   3.350  16.828
11600SOL    HW246429   4.031   3.488  16.799
11601SOL     OW46430   2.863   3.370  19.517
11601SOL    HW146431   2.932   3.375  19.583
11601SOL    HW246432   2.869   3.281  19.482
11602SOL     OW46433   3.688   3.392  26.518
11602SOL    HW146434   3.663   3.311  26.562
11602SOL    HW246435   3.605   3.437  26.501
11603SOL     OW46436   3.070   1.984  18.418
11603SOL    HW146437   3.091   2.024  18.503
11603SOL    HW246438   3.002   2.041  18.381
11604SOL     OW46439   4.428   1.873  17.399
11604SOL    HW146440   4.506   1.924  17.376
11604SOL    HW246441   4.364   1.895  17.331
11605SOL     OW46442   1.189   1.749  27.893
11605SOL    HW146443   1.242   1.673  27.870
11605SOL    HW246444   1.141   1.722  27.971
11606SOL     OW46445   1.823   2.668  18.655
11606SOL    HW146446   1.843   2.761  18.662
11606SOL    HW246447   1.822   2.650  18.561
11607SOL     OW46448   3.646   0.227   9.387
11607SOL    HW146449   3.680   0.316   9.384
11607SOL    HW246450   3.716   0.173   9.350
11608SOL     OW46451   2.722   0.501   4.690
11608SOL    HW146452   2.661   0.568   4.660
11608SOL    HW246453   2.699   0.487   4.782
11609SOL     OW46454   0.426   4.048   9.668
11609SOL    HW146455   0.404   4.005   9.751
11609SOL    HW246456   0.341   4.066   9.628
11610SOL     OW46457   3.767   0.798   3.359
11610SOL    HW146458   3.734   0.832   3.442
11610SOL    HW246459   3.690   0.759   3.317
11611SOL     OW46460   0.093   2.470   4.968
11611SOL    HW146461   0.155   2.478   4.896
11611SOL    HW246462   0.146   2.440   5.042
11612SOL     OW46463   0.056   1.121  27.337
11612SOL    HW146464   0.134   1.070  27.317
11612SOL    HW246465   0.025   1.151  27.252
11613SOL     OW46466   1.447   4.011  26.319
11613SOL    HW146467   1.370   4.034  26.267
11613SOL    HW246468   1.438   3.917  26.335
11614SOL     OW46469   3.658   2.248  24.820
11614SOL    HW146470   3.718   2.323  24.818
11614SOL    HW246471   3.707   2.179  24.866
11615SOL     OW46472   1.010   2.562  10.750
11615SOL    HW146473   1.087   2.555  10.807
11615SOL    HW246474   0.998   2.473  10.716
11616SOL     OW46475   3.941   4.688   3.439
11616SOL    HW146476   3.853   4.651   3.445
11616SOL    HW246477   3.981   4.669   3.524
11617SOL     OW46478   4.264   4.489   3.832
11617SOL    HW146479   4.299   4.556   3.890
11617SOL    HW246480   4.205   4.438   3.888
11618SOL     OW46481   0.531   1.167  25.668
11618SOL    HW146482   0.557   1.138  25.581
11618SOL    HW246483   0.512   1.260  25.657
11619SOL     OW46484   0.757   3.493   9.181
11619SOL    HW146485   0.732   3.580   9.150
11619SOL    HW246486   0.703   3.433   9.130
11620SOL     OW46487   3.409   1.192   4.117
11620SOL    HW146488   3.345   1.259   4.142
11620SOL    HW246489   3.398   1.184   4.022
11621SOL     OW46490   0.474   3.413   0.674
11621SOL    HW146491   0.400   3.406   0.734
11621SOL    HW246492   0.494   3.507   0.672
11622SOL     OW46493   4.430   2.312   2.863
11622SOL    HW146494   4.524   2.331   2.868
11622SOL    HW246495   4.401   2.358   2.784
11623SOL     OW46496   1.415   0.485  23.587
11623SOL    HW146497   1.463   0.412  23.627
11623SOL    HW246498   1.331   0.448  23.562
11624SOL     OW46499   1.212   2.715  21.629
11624SOL    HW146500   1.277   2.741  21.564
11624SOL    HW246501   1.257   2.727  21.713
11625SOL     OW46502   4.122   2.955   6.800
11625SOL    HW146503   4.125   2.975   6.706
11625SOL    HW246504   4.120   2.859   6.804
11626SOL     OW46505   3.858   1.187   9.050
11626SOL    HW146506   3.894   1.183   8.961
11626SOL    HW246507   3.769   1.219   9.039
11627SOL     OW46508   4.398   2.182  17.452
11627SOL    HW146509   4.413   2.170  17.358
11627SOL    HW246510   4.309   2.149  17.466
11628SOL     OW46511   0.183   4.117   3.796
11628SOL    HW146512   0.163   4.104   3.703
11628SOL    HW246513   0.132   4.194   3.820
11629SOL     OW46514   0.739   1.571   7.423
11629SOL    HW146515   0.795   1.631   7.374
11629SOL    HW246516   0.651   1.587   7.390
11630SOL     OW46517   0.538   0.580   3.503
11630SOL    HW146518   0.581   0.503   3.466
11630SOL    HW246519   0.445   0.557   3.506
11631SOL     OW46520   0.683   0.013  26.977
11631SOL    HW146521   0.772   4.769  26.953
11631SOL    HW246522   0.628   4.726  26.939
11632SOL     OW46523   1.115   0.749  21.625
11632SOL    HW146524   1.049   0.784  21.565
11632SOL    HW246525   1.138   0.823  21.681
11633SOL     OW46526   2.127   3.710  22.337
11633SOL    HW146527   2.182   3.719  22.259
11633SOL    HW246528   2.177   3.752  22.407
11634SOL     OW46529   2.848   3.370   9.837
11634SOL    HW146530   2.889   3.428   9.773
11634SOL    HW246531   2.866   3.282   9.805
11635SOL     OW46532   2.658   1.133  26.970
11635SOL    HW146533   2.664   1.190  27.047
11635SOL    HW246534   2.571   1.149  26.935
11636SOL     OW46535   1.670   3.062  26.382
11636SOL    HW146536   1.583   3.026  26.363
11636SOL    HW246537   1.717   2.990  26.425
11637SOL     OW46538   2.714   0.381   9.952
11637SOL    HW146539   2.639   0.355   9.899
11637SOL    HW246540   2.759   0.299   9.971
11638SOL     OW46541   0.578   3.194   4.509
11638SOL    HW146542   0.564   3.249   4.586
11638SOL    HW246543   0.627   3.119   4.542
11639SOL     OW46544   1.566   1.209   0.826
11639SOL    HW146545   1.632   1.240   0.889
11639SOL    HW246546   1.567   1.275   0.757
11640SOL     OW46547   0.997   1.238   7.382
11640SOL    HW146548   1.023   1.226   7.473
11640SOL    HW246549   0.901   1.233   7.383
11641SOL     OW46550   1.778   0.634   4.866
11641SOL    HW146551   1.694   0.591   4.882
11641SOL    HW246552   1.763   0.726   4.888
11642SOL     OW46553   3.816   2.369  26.932
11642SOL    HW146554   3.870   2.419  26.871
11642SOL    HW246555   3.875   2.346  27.004
11643SOL     OW46556   1.323   2.915  25.691
11643SOL    HW146557   1.331   2.963  25.773
11643SOL    HW246558   1.239   2.943  25.655
11644SOL     OW46559   0.475   2.461   6.378
11644SOL    HW146560   0.518   2.377   6.395
11644SOL    HW246561   0.383   2.439   6.362
11645SOL     OW46562   4.130   4.525  26.590
11645SOL    HW146563   4.050   4.507  26.638
11645SOL    HW246564   4.196   4.542  26.658
11646SOL     OW46565   2.222   3.307   3.058
11646SOL    HW146566   2.304   3.315   3.107
11646SOL    HW246567   2.248   3.277   2.971
11647SOL     OW46568   3.422   0.315  25.427
11647SOL    HW146569   3.401   0.406  25.448
11647SOL    HW246570   3.340   0.268  25.440
11648SOL     OW46571   3.859   0.281  28.043
11648SOL    HW146572   3.783   0.232  28.076
11648SOL    HW246573   3.824   0.333  27.970
11649SOL     OW46574   0.178   1.346   3.758
11649SOL    HW146575   0.090   1.310   3.768
11649SOL    HW246576   0.200   1.381   3.844
11650SOL     OW46577   2.988   3.482  23.370
11650SOL    HW146578   3.053   3.422  23.333
11650SOL    HW246579   2.942   3.430  23.436
11651SOL     OW46580   2.006   1.609   4.387
11651SOL    HW146581   2.091   1.613   4.431
11651SOL    HW246582   2.024   1.635   4.297
11652SOL     OW46583   2.305   0.076   2.618
11652SOL    HW146584   2.360   0.015   2.569
11652SOL    HW246585   2.362   0.150   2.637
11653SOL     OW46586   3.429   1.535  18.795
11653SOL    HW146587   3.448   1.454  18.748
11653SOL    HW246588   3.477   1.603  18.747
11654SOL     OW46589   3.493   1.148  21.114
11654SOL    HW146590   3.415   1.192  21.080
11654SOL    HW246591   3.497   1.065  21.066
11655SOL     OW46592   0.767   1.297   6.506
11655SOL    HW146593   0.743   1.387   6.528
11655SOL    HW246594   0.757   1.292   6.411
11656SOL     OW46595   0.336   0.280   4.225
11656SOL    HW146596   0.420   0.296   4.183
11656SOL    HW246597   0.304   0.367   4.250
11657SOL     OW46598   0.568   2.519  22.957
11657SOL    HW146599   0.602   2.448  22.902
11657SOL    HW246600   0.490   2.550  22.911
11658SOL     OW46601   2.217   2.131   4.620
11658SOL    HW146602   2.194   2.221   4.597
11658SOL    HW246603   2.265   2.139   4.703
11659SOL     OW46604   1.056   2.253   2.310
11659SOL    HW146605   1.056   2.348   2.298
11659SOL    HW246606   1.082   2.218   2.225
11660SOL     OW46607   2.446   4.376   9.578
11660SOL    HW146608   2.448   4.412   9.667
11660SOL    HW246609   2.425   4.283   9.591
11661SOL     OW46610   1.519   2.411  17.815
11661SOL    HW146611   1.582   2.345  17.843
11661SOL    HW246612   1.434   2.377  17.844
11662SOL     OW46613   2.017   3.891  28.503
11662SOL    HW146614   2.072   3.967  28.485
11662SOL    HW246615   2.055   3.851   0.059
11663SOL     OW46616   2.283   2.094   0.457
11663SOL    HW146617   2.360   2.060   0.411
11663SOL    HW246618   2.209   2.050   0.415
11664SOL     OW46619   0.924   3.480  28.361
11664SOL    HW146620   0.958   3.391  28.367
11664SOL    HW246621   0.972   3.529  28.427
11665SOL     OW46622   1.120   0.811   9.054
11665SOL    HW146623   1.123   0.844   8.964
11665SOL    HW246624   1.153   0.721   9.048
11666SOL     OW46625   3.384   1.478   6.815
11666SOL    HW146626   3.295   1.446   6.803
11666SOL    HW246627   3.393   1.548   6.750
11667SOL     OW46628   3.473   3.395   8.479
11667SOL    HW146629   3.526   3.401   8.400
11667SOL    HW246630   3.407   3.329   8.458
11668SOL     OW46631   4.510   1.695  26.051
11668SOL    HW146632   4.589   1.748  26.040
11668SOL    HW246633   4.537   1.624  26.109
11669SOL     OW46634   1.027   2.733   3.696
11669SOL    HW146635   1.107   2.774   3.729
11669SOL    HW246636   1.040   2.727   3.601
11670SOL     OW46637   0.972   1.598   6.687
11670SOL    HW146638   0.987   1.671   6.747
11670SOL    HW246639   1.028   1.618   6.611
11671SOL     OW46640   1.526   4.155   1.916
11671SOL    HW146641   1.588   4.221   1.885
11671SOL    HW246642   1.440   4.194   1.899
11672SOL     OW46643   3.913   0.526   5.791
11672SOL    HW146644   3.949   0.458   5.848
11672SOL    HW246645   3.957   0.513   5.707
11673SOL     OW46646   1.732   0.522   0.612
11673SOL    HW146647   1.793   0.485   0.548
11673SOL    HW246648   1.778   0.598   0.648
11674SOL     OW46649   4.671   2.712  20.875
11674SOL    HW146650   4.633   2.643  20.930
11674SOL    HW246651   4.600   2.737  20.816
11675SOL     OW46652   3.182   4.087  28.098
11675SOL    HW146653   3.134   4.156  28.052
11675SOL    HW246654   3.166   4.008  28.047
11676SOL     OW46655   4.560   2.046   8.595
11676SOL    HW146656   4.647   2.083   8.578
11676SOL    HW246657   4.568   1.954   8.571
11677SOL     OW46658   1.718   2.100  20.397
11677SOL    HW146659   1.666   2.134  20.470
11677SOL    HW246660   1.767   2.027  20.435
11678SOL     OW46661   3.620   3.732   5.403
11678SOL    HW146662   3.543   3.788   5.392
11678SOL    HW246663   3.663   3.733   5.318
11679SOL     OW46664   0.318   0.623  24.379
11679SOL    HW146665   0.314   0.633  24.474
11679SOL    HW246666   0.243   0.568  24.357
11680SOL     OW46667   4.560   4.637  25.225
11680SOL    HW146668   4.638   4.692  25.229
11680SOL    HW246669   4.514   4.654  25.307
11681SOL     OW46670   3.367   3.063   8.798
11681SOL    HW146671   3.439   3.006   8.772
11681SOL    HW246672   3.343   3.033   8.886
11682SOL     OW46673   1.673   1.884  20.046
11682SOL    HW146674   1.679   1.846  20.133
11682SOL    HW246675   1.699   1.975  20.058
11683SOL     OW46676   1.451   2.789   9.243
11683SOL    HW146677   1.367   2.746   9.259
11683SOL    HW246678   1.436   2.881   9.266
11684SOL     OW46679   1.783   1.825   0.048
11684SOL    HW146680   1.783   1.763  28.497
11684SOL    HW246681   1.863   1.805   0.096
11685SOL     OW46682   1.443   1.928  10.841
11685SOL    HW146683   1.495   2.008  10.836
11685SOL    HW246684   1.487   1.875  10.908
11686SOL     OW46685   3.544   1.071   5.938
11686SOL    HW146686   3.600   0.997   5.913
11686SOL    HW246687   3.576   1.097   6.024
11687SOL     OW46688   3.860   4.672  20.498
11687SOL    HW146689   3.784   4.705  20.450
11687SOL    HW246690   3.927   4.660  20.431
11688SOL     OW46691   0.936   0.629  26.000
11688SOL    HW146692   0.848   0.662  25.981
11688SOL    HW246693   0.949   0.558  25.937
11689SOL     OW46694   3.221   1.437   2.444
11689SOL    HW146695   3.250   1.527   2.460
11689SOL    HW246696   3.131   1.447   2.412
11690SOL     OW46697   2.375   3.540   5.992
11690SOL    HW146698   2.425   3.580   6.063
11690SOL    HW246699   2.352   3.613   5.935
11691SOL     OW46700   1.220   0.184  21.614
11691SOL    HW146701   1.273   0.109  21.642
11691SOL    HW246702   1.284   0.251  21.589
11692SOL     OW46703   0.294   4.688  25.468
11692SOL    HW146704   0.289   4.737  25.550
11692SOL    HW246705   0.229   4.730  25.412
11693SOL     OW46706   1.755   1.621  25.195
11693SOL    HW146707   1.731   1.603  25.286
11693SOL    HW246708   1.698   1.565  25.143
11694SOL     OW46709   1.806   0.513   1.388
11694SOL    HW146710   1.724   0.493   1.344
11694SOL    HW246711   1.783   0.517   1.481
11695SOL     OW46712   2.172   1.805  18.433
11695SOL    HW146713   2.147   1.875  18.372
11695SOL    HW246714   2.093   1.752  18.442
11696SOL     OW46715   3.293   4.302   5.938
11696SOL    HW146716   3.244   4.336   5.863
11696SOL    HW246717   3.384   4.322   5.917
11697SOL     OW46718   4.399   3.943  17.799
11697SOL    HW146719   4.398   4.024  17.850
11697SOL    HW246720   4.490   3.933  17.772
11698SOL     OW46721   0.747   0.831   3.131
11698SOL    HW146722   0.787   0.896   3.073
11698SOL    HW246723   0.707   0.882   3.201
11699SOL     OW46724   4.605   1.950  22.143
11699SOL    HW146725   4.588   1.967  22.236
11699SOL    HW246726   4.587   2.034  22.100
11700SOL     OW46727   3.656   1.598   0.960
11700SOL    HW146728   3.684   1.669   1.017
11700SOL    HW246729   3.660   1.635   0.872
11701SOL     OW46730   0.746   2.208   9.587
11701SOL    HW146731   0.756   2.276   9.653
11701SOL    HW246732   0.653   2.186   9.588
11702SOL     OW46733   2.314   3.232  19.189
11702SOL    HW146734   2.408   3.238  19.206
11702SOL    HW246735   2.307   3.193  19.102
11703SOL     OW46736   2.262   0.407   2.861
11703SOL    HW146737   2.169   0.422   2.842
11703SOL    HW246738   2.295   0.493   2.887
11704SOL     OW46739   0.525   3.691  22.090
11704SOL    HW146740   0.510   3.785  22.094
11704SOL    HW246741   0.442   3.654  22.060
11705SOL     OW46742   1.541   0.634   0.008
11705SOL    HW146743   1.609   0.681  28.481
11705SOL    HW246744   1.563   0.541  28.519
11706SOL     OW46745   1.954   1.879   2.161
11706SOL    HW146746   1.872   1.886   2.112
11706SOL    HW246747   1.955   1.789   2.193
11707SOL     OW46748   3.383   0.763   7.097
11707SOL    HW146749   3.467   0.808   7.092
11707SOL    HW246750   3.342   0.779   7.012
11708SOL     OW46751   4.371   2.168  22.929
11708SOL    HW146752   4.367   2.218  23.010
11708SOL    HW246753   4.339   2.228  22.862
11709SOL     OW46754   2.990   4.676  20.790
11709SOL    HW146755   2.933   4.750  20.812
11709SOL    HW246756   2.935   4.619  20.736
11710SOL     OW46757   3.132   3.365   2.284
11710SOL    HW146758   3.085   3.442   2.252
11710SOL    HW246759   3.131   3.375   2.379
11711SOL     OW46760   1.449   1.058   1.899
11711SOL    HW146761   1.522   0.997   1.910
11711SOL    HW246762   1.387   1.011   1.843
11712SOL     OW46763   1.571   2.011   3.718
11712SOL    HW146764   1.573   2.067   3.640
11712SOL    HW246765   1.569   2.072   3.792
11713SOL     OW46766   3.246   0.611  18.869
11713SOL    HW146767   3.181   0.554  18.910
11713SOL    HW246768   3.213   0.700  18.884
11714SOL     OW46769   1.533   4.717   1.439
11714SOL    HW146770   1.565   4.689   1.353
11714SOL    HW246771   1.438   4.715   1.432
11715SOL     OW46772   4.486   0.271   5.892
11715SOL    HW146773   4.520   0.355   5.924
11715SOL    HW246774   4.416   0.296   5.831
11716SOL     OW46775   0.602   3.076  25.020
11716SOL    HW146776   0.600   3.154  24.965
11716SOL    HW246777   0.695   3.056  25.031
11717SOL     OW46778   0.199   4.244   7.291
11717SOL    HW146779   0.109   4.214   7.304
11717SOL    HW246780   0.240   4.175   7.240
11718SOL     OW46781   3.501   0.819   5.033
11718SOL    HW146782   3.529   0.769   4.956
11718SOL    HW246783   3.405   0.817   5.030
11719SOL     OW46784   2.496   1.679   6.916
11719SOL    HW146785   2.441   1.605   6.941
11719SOL    HW246786   2.566   1.680   6.982
11720SOL     OW46787   4.738   4.449   0.386
11720SOL    HW146788   0.044   4.410   0.380
11720SOL    HW246789   4.680   4.375   0.404
11721SOL     OW46790   4.260   1.823   1.346
11721SOL    HW146791   4.238   1.916   1.350
11721SOL    HW246792   4.175   1.779   1.349
11722SOL     OW46793   3.712   4.053   1.849
11722SOL    HW146794   3.691   4.039   1.941
11722SOL    HW246795   3.630   4.035   1.802
11723SOL     OW46796   0.369   3.736   8.340
11723SOL    HW146797   0.351   3.676   8.413
11723SOL    HW246798   0.448   3.783   8.367
11724SOL     OW46799   3.278   3.598  23.754
11724SOL    HW146800   3.324   3.527  23.798
11724SOL    HW246801   3.346   3.642  23.703
11725SOL     OW46802   4.141   0.831  25.082
11725SOL    HW146803   4.218   0.868  25.126
11725SOL    HW246804   4.076   0.901  25.084
11726SOL     OW46805   4.228   0.407   5.137
11726SOL    HW146806   4.197   0.361   5.059
11726SOL    HW246807   4.285   0.476   5.103
11727SOL     OW46808   2.478   0.884  24.893
11727SOL    HW146809   2.413   0.940  24.936
11727SOL    HW246810   2.529   0.847  24.965
11728SOL     OW46811   3.581   3.479  22.048
11728SOL    HW146812   3.545   3.412  22.106
11728SOL    HW246813   3.661   3.509  22.092
11729SOL     OW46814   1.965   1.875  27.989
11729SOL    HW146815   2.034   1.809  27.978
11729SOL    HW246816   1.897   1.849  27.927
11730SOL     OW46817   3.153   2.205  24.392
11730SOL    HW146818   3.146   2.223  24.298
11730SOL    HW246819   3.244   2.179  24.405
11731SOL     OW46820   0.107   4.359  24.542
11731SOL    HW146821   0.018   4.369  24.576
11731SOL    HW246822   0.147   4.445  24.556
11732SOL     OW46823   0.136   0.670  26.517
11732SOL    HW146824   0.110   0.707  26.601
11732SOL    HW246825   0.057   0.676  26.463
11733SOL     OW46826   2.484   0.291   9.565
11733SOL    HW146827   2.478   0.383   9.539
11733SOL    HW246828   2.472   0.293   9.660
11734SOL     OW46829   0.771   2.057  22.336
11734SOL    HW146830   0.723   1.989  22.289
11734SOL    HW246831   0.737   2.139  22.301
11735SOL     OW46832   0.718   3.920   4.259
11735SOL    HW146833   0.644   3.863   4.237
11735SOL    HW246834   0.730   3.975   4.181
11736SOL     OW46835   3.536   0.646  24.601
11736SOL    HW146836   3.448   0.653  24.564
11736SOL    HW246837   3.546   0.553  24.621
11737SOL     OW46838   3.264   4.547  20.596
11737SOL    HW146839   3.327   4.592  20.540
11737SOL    HW246840   3.303   4.550  20.683
11738SOL     OW46841   4.083   0.286   3.094
11738SOL    HW146842   4.163   0.337   3.081
11738SOL    HW246843   4.014   0.352   3.103
11739SOL     OW46844   3.217   1.665   3.964
11739SOL    HW146845   3.216   1.744   4.018
11739SOL    HW246846   3.126   1.653   3.938
11740SOL     OW46847   0.791   1.905   0.413
11740SOL    HW146848   0.708   1.861   0.429
11740SOL    HW246849   0.855   1.834   0.406
11741SOL     OW46850   4.346   3.568   5.972
11741SOL    HW146851   4.259   3.570   5.933
11741SOL    HW246852   4.402   3.533   5.903
11742SOL     OW46853   4.595   4.205   2.113
11742SOL    HW146854   4.631   4.292   2.128
11742SOL    HW246855   4.571   4.205   2.020
11743SOL     OW46856   0.660   4.777  25.500
11743SOL    HW146857   0.627   4.736  25.580
11743SOL    HW246858   0.613   4.733  25.429
11744SOL     OW46859   3.017   0.338   3.353
11744SOL    HW146860   3.068   0.404   3.401
11744SOL    HW246861   2.944   0.387   3.316
11745SOL     OW46862   2.219   3.843  28.256
11745SOL    HW146863   2.140   3.844  28.203
11745SOL    HW246864   2.262   3.761  28.233
11746SOL     OW46865   1.095   2.604  20.503
11746SOL    HW146866   1.117   2.658  20.427
11746SOL    HW246867   1.135   2.650  20.577
11747SOL     OW46868   1.910   0.588   9.350
11747SOL    HW146869   1.842   0.636   9.398
11747SOL    HW246870   1.862   0.541   9.282
11748SOL     OW46871   0.385   0.095  27.763
11748SOL    HW146872   0.475   0.081  27.791
11748SOL    HW246873   0.343   0.010  27.775
11749SOL     OW46874   4.527   2.200   0.565
11749SOL    HW146875   4.455   2.163   0.616
11749SOL    HW246876   4.563   2.270   0.620
11750SOL     OW46877   1.650   2.884   4.185
11750SOL    HW146878   1.628   2.932   4.265
11750SOL    HW246879   1.575   2.899   4.127
11751SOL     OW46880   3.721   1.406  26.180
11751SOL    HW146881   3.785   1.343  26.215
11751SOL    HW246882   3.724   1.393  26.085
11752SOL     OW46883   3.353   4.316  23.691
11752SOL    HW146884   3.263   4.301  23.720
11752SOL    HW246885   3.403   4.244  23.729
11753SOL     OW46886   1.967   3.685   5.842
11753SOL    HW146887   2.017   3.616   5.885
11753SOL    HW246888   1.890   3.697   5.897
11754SOL     OW46889   2.642   3.911   5.260
11754SOL    HW146890   2.605   3.929   5.347
11754SOL    HW246891   2.619   3.988   5.208
11755SOL     OW46892   3.604   0.956   7.118
11755SOL    HW146893   3.543   0.994   7.181
11755SOL    HW246894   3.673   1.021   7.109
11756SOL     OW46895   2.233   3.702  23.101
11756SOL    HW146896   2.232   3.748  23.185
11756SOL    HW246897   2.297   3.631  23.113
11757SOL     OW46898   0.982   3.792  20.337
11757SOL    HW146899   0.927   3.714  20.347
11757SOL    HW246900   1.016   3.808  20.425
11758SOL     OW46901   0.686   3.145  28.300
11758SOL    HW146902   0.765   3.106  28.338
11758SOL    HW246903   0.666   3.091  28.224
11759SOL     OW46904   4.472   0.117   5.438
11759SOL    HW146905   4.378   0.116   5.457
11759SOL    HW246906   4.483   0.193   5.380
11760SOL     OW46907   2.081   4.631  27.894
11760SOL    HW146908   1.998   4.654  27.935
11760SOL    HW246909   2.078   4.536  27.883
11761SOL     OW46910   0.774   2.658   5.983
11761SOL    HW146911   0.782   2.751   5.963
11761SOL    HW246912   0.705   2.654   6.050
11762SOL     OW46913   0.323   1.869   4.313
11762SOL    HW146914   0.241   1.822   4.327
11762SOL    HW246915   0.328   1.931   4.386
11763SOL     OW46916   0.433   4.734   6.716
11763SOL    HW146917   0.492   0.007   6.663
11763SOL    HW246918   0.485   4.657   6.738
11764SOL     OW46919   1.644   4.261  10.499
11764SOL    HW146920   1.555   4.284  10.474
11764SOL    HW246921   1.643   4.260  10.595
11765SOL     OW46922   2.137   3.704   6.535
11765SOL    HW146923   2.049   3.731   6.509
11765SOL    HW246924   2.180   3.679   6.453
11766SOL     OW46925   1.582   4.413   0.141
11766SOL    HW146926   1.490   4.409   0.166
11766SOL    HW246927   1.607   4.504   0.157
11767SOL     OW46928   0.302   4.613  22.534
11767SOL    HW146929   0.253   4.575  22.461
11767SOL    HW246930   0.297   4.707  22.519
11768SOL     OW46931   2.380   3.389   7.809
11768SOL    HW146932   2.381   3.465   7.867
11768SOL    HW246933   2.378   3.426   7.721
11769SOL     OW46934   3.733   2.734   5.166
11769SOL    HW146935   3.755   2.814   5.118
11769SOL    HW246936   3.647   2.709   5.131
11770SOL     OW46937   1.981   4.750  28.242
11770SOL    HW146938   1.994   4.759  28.336
11770SOL    HW246939   1.936   0.050  28.217
11771SOL     OW46940   1.611   3.175   7.480
11771SOL    HW146941   1.552   3.100   7.484
11771SOL    HW246942   1.641   3.177   7.389
11772SOL     OW46943   1.639   4.437  22.776
11772SOL    HW146944   1.571   4.370  22.777
11772SOL    HW246945   1.645   4.467  22.867
11773SOL     OW46946   0.604   2.381   9.217
11773SOL    HW146947   0.653   2.411   9.294
11773SOL    HW246948   0.548   2.310   9.250
11774SOL     OW46949   2.267   1.413   9.392
11774SOL    HW146950   2.235   1.334   9.349
11774SOL    HW246951   2.214   1.420   9.472
11775SOL     OW46952   0.135   2.701  22.987
11775SOL    HW146953   0.189   2.766  23.031
11775SOL    HW246954   0.152   2.715  22.894
11776SOL     OW46955   1.705   0.125  21.298
11776SOL    HW146956   1.612   0.130  21.275
11776SOL    HW246957   1.748   0.186  21.238
11777SOL     OW46958   2.863   3.886  26.047
11777SOL    HW146959   2.851   3.800  26.007
11777SOL    HW246960   2.777   3.908  26.083
11778SOL     OW46961   3.166   3.424  18.407
11778SOL    HW146962   3.217   3.457  18.481
11778SOL    HW246963   3.084   3.473  18.411
11779SOL     OW46964   3.096   3.538  18.706
11779SOL    HW146965   3.110   3.476  18.778
11779SOL    HW246966   3.183   3.552  18.669
11780SOL     OW46967   1.127   1.594  27.433
11780SOL    HW146968   1.218   1.619  27.449
11780SOL    HW246969   1.132   1.505  27.397
11781SOL     OW46970   1.964   3.754  26.872
11781SOL    HW146971   1.964   3.689  26.942
11781SOL    HW246972   2.019   3.715  26.803
11782SOL     OW46973   3.169   3.844   8.348
11782SOL    HW146974   3.077   3.826   8.328
11782SOL    HW246975   3.202   3.762   8.385
11783SOL     OW46976   3.728   1.182   5.338
11783SOL    HW146977   3.673   1.137   5.402
11783SOL    HW246978   3.811   1.196   5.384
11784SOL     OW46979   0.498   3.001  22.434
11784SOL    HW146980   0.507   2.906  22.426
11784SOL    HW246981   0.555   3.024  22.507
11785SOL     OW46982   1.381   2.944  21.182
11785SOL    HW146983   1.330   2.904  21.253
11785SOL    HW246984   1.334   2.919  21.102
11786SOL     OW46985   4.187   3.415  24.037
11786SOL    HW146986   4.208   3.469  24.113
11786SOL    HW246987   4.125   3.350  24.070
11787SOL     OW46988   4.663   2.488  17.646
11787SOL    HW146989   4.642   2.395  17.642
11787SOL    HW246990   4.657   2.510  17.739
11788SOL     OW46991   1.313   1.573  22.395
11788SOL    HW146992   1.228   1.583  22.438
11788SOL    HW246993   1.351   1.661  22.396
11789SOL     OW46994   1.185   1.239   0.483
11789SOL    HW146995   1.259   1.184   0.510
11789SOL    HW246996   1.172   1.218   0.391
11790SOL     OW46997   0.510   0.938   7.357
11790SOL    HW146998   0.506   1.031   7.333
11790SOL    HW246999   0.473   0.892   7.281
11791SOL     OW47000   3.360   3.053  24.988
11791SOL    HW147001   3.418   2.983  25.018
11791SOL    HW247002   3.407   3.134  25.009
11792SOL     OW47003   2.978   3.315  25.533
11792SOL    HW147004   2.919   3.301  25.459
11792SOL    HW247005   2.924   3.296  25.610
11793SOL     OW47006   1.712   1.079  23.311
11793SOL    HW147007   1.635   1.114  23.356
11793SOL    HW247008   1.716   1.128  23.229
11794SOL     OW47009   4.308   0.269  18.727
11794SOL    HW147010   4.303   0.250  18.633
11794SOL    HW247011   4.344   0.357  18.732
11795SOL     OW47012   1.079   2.935  22.718
11795SOL    HW147013   1.172   2.947  22.698
11795SOL    HW247014   1.052   3.018  22.757
11796SOL     OW47015   0.644   2.591   8.323
11796SOL    HW147016   0.698   2.523   8.364
11796SOL    HW247017   0.704   2.638   8.265
11797SOL     OW47018   1.113   2.689   5.174
11797SOL    HW147019   1.158   2.679   5.258
11797SOL    HW247020   1.026   2.723   5.197
11798SOL     OW47021   3.200   0.770  17.252
11798SOL    HW147022   3.112   0.805  17.235
11798SOL    HW247023   3.201   0.685  17.209
11799SOL     OW47024   0.369   1.743  27.413
11799SOL    HW147025   0.427   1.746  27.489
11799SOL    HW247026   0.285   1.713  27.447
11800SOL     OW47027   2.758   1.390   2.511
11800SOL    HW147028   2.679   1.428   2.472
11800SOL    HW247029   2.798   1.339   2.441
11801SOL     OW47030   4.525   0.649  27.422
11801SOL    HW147031   4.573   0.623  27.343
11801SOL    HW247032   4.593   0.683  27.481
11802SOL     OW47033   2.281   4.510   6.229
11802SOL    HW147034   2.269   4.590   6.178
11802SOL    HW247035   2.252   4.533   6.317
11803SOL     OW47036   1.484   1.998  17.427
11803SOL    HW147037   1.498   1.947  17.347
11803SOL    HW247038   1.571   2.009  17.464
11804SOL     OW47039   2.582   2.486   7.883
11804SOL    HW147040   2.490   2.460   7.889
11804SOL    HW247041   2.602   2.481   7.790
11805SOL     OW47042   1.184   1.313   2.451
11805SOL    HW147043   1.253   1.258   2.414
11805SOL    HW247044   1.107   1.256   2.453
11806SOL     OW47045   2.270   2.258  26.322
11806SOL    HW147046   2.216   2.306  26.259
11806SOL    HW247047   2.297   2.324  26.386
11807SOL     OW47048   3.129   2.898   0.730
11807SOL    HW147049   3.201   2.839   0.707
11807SOL    HW247050   3.086   2.856   0.804
11808SOL     OW47051   4.271   3.970   0.367
11808SOL    HW147052   4.236   4.059   0.362
11808SOL    HW247053   4.262   3.935   0.278
11809SOL     OW47054   0.700   2.694   4.553
11809SOL    HW147055   0.651   2.702   4.471
11809SOL    HW247056   0.750   2.613   4.543
11810SOL     OW47057   2.997   2.320   7.816
11810SOL    HW147058   2.937   2.291   7.884
11810SOL    HW247059   2.946   2.314   7.735
11811SOL     OW47060   4.572   2.907   9.247
11811SOL    HW147061   4.535   2.833   9.295
11811SOL    HW247062   4.659   2.919   9.286
11812SOL     OW47063   2.564   3.348   6.266
11812SOL    HW147064   2.601   3.266   6.297
11812SOL    HW247065   2.470   3.340   6.283
11813SOL     OW47066   3.529   4.228   4.935
11813SOL    HW147067   3.515   4.319   4.961
11813SOL    HW247068   3.482   4.177   5.001
11814SOL     OW47069   4.081   3.903  24.257
11814SOL    HW147070   4.169   3.915  24.293
11814SOL    HW247071   4.096   3.877  24.166
11815SOL     OW47072   4.551   2.674   7.110
11815SOL    HW147073   4.643   2.693   7.130
11815SOL    HW247074   4.553   2.631   7.024
11816SOL     OW47075   2.591   2.879  25.197
11816SOL    HW147076   2.600   2.851  25.288
11816SOL    HW247077   2.533   2.955  25.201
11817SOL     OW47078   1.705   4.569  23.442
11817SOL    HW147079   1.723   4.615  23.360
11817SOL    HW247080   1.774   4.503  23.448
11818SOL     OW47081   4.477   4.290   5.401
11818SOL    HW147082   4.527   4.208   5.399
11818SOL    HW247083   4.541   4.357   5.423
11819SOL     OW47084   1.953   1.608  23.141
11819SOL    HW147085   1.986   1.654  23.218
11819SOL    HW247086   1.877   1.559  23.172
11820SOL     OW47087   4.019   0.719  27.624
11820SOL    HW147088   4.027   0.744  27.716
11820SOL    HW247089   4.107   0.691  27.598
11821SOL     OW47090   0.721   1.229   7.069
11821SOL    HW147091   0.702   1.135   7.072
11821SOL    HW247092   0.772   1.246   7.148
11822SOL     OW47093   4.405   1.583   1.297
11822SOL    HW147094   4.367   1.671   1.299
11822SOL    HW247095   4.442   1.571   1.385
11823SOL     OW47096   2.034   3.036  28.120
11823SOL    HW147097   2.053   2.996  28.205
11823SOL    HW247098   2.049   3.130  28.134
11824SOL     OW47099   0.909   3.394  21.929
11824SOL    HW147100   0.841   3.330  21.949
11824SOL    HW247101   0.869   3.479  21.949
11825SOL     OW47102   3.615   2.697   7.764
11825SOL    HW147103   3.650   2.609   7.752
11825SOL    HW247104   3.621   2.713   7.858
11826SOL     OW47105   3.842   1.536  27.942
11826SOL    HW147106   3.833   1.581  27.858
11826SOL    HW247107   3.794   1.454  27.930
11827SOL     OW47108   4.552   1.535  26.724
11827SOL    HW147109   4.583   1.579  26.803
11827SOL    HW247110   4.618   1.467  26.708
11828SOL     OW47111   3.167   3.570  20.915
11828SOL    HW147112   3.245   3.621  20.937
11828SOL    HW247113   3.094   3.631  20.928
11829SOL     OW47114   1.715   2.309   2.478
11829SOL    HW147115   1.747   2.267   2.398
11829SOL    HW247116   1.758   2.394   2.479
11830SOL     OW47117   3.320   2.266  28.304
11830SOL    HW147118   3.341   2.287  28.213
11830SOL    HW247119   3.369   2.185  28.321
11831SOL     OW47120   4.319   1.346  18.003
11831SOL    HW147121   4.290   1.257  18.022
11831SOL    HW247122   4.391   1.335  17.941
11832SOL     OW47123   3.630   1.562  24.915
11832SOL    HW147124   3.620   1.544  24.822
11832SOL    HW247125   3.685   1.491  24.948
11833SOL     OW47126   2.080   4.464  27.019
11833SOL    HW147127   2.036   4.392  26.973
11833SOL    HW247128   2.099   4.528  26.951
11834SOL     OW47129   1.070   4.453   2.277
11834SOL    HW147130   1.166   4.451   2.280
11834SOL    HW247131   1.043   4.364   2.301
11835SOL     OW47132   0.504   1.060  23.259
11835SOL    HW147133   0.572   1.105  23.310
11835SOL    HW247134   0.457   1.130  23.214
11836SOL     OW47135   0.544   2.267   8.795
11836SOL    HW147136   0.618   2.304   8.843
11836SOL    HW247137   0.467   2.294   8.844
11837SOL     OW47138   3.838   3.538   5.628
11837SOL    HW147139   3.766   3.481   5.601
11837SOL    HW247140   3.879   3.565   5.546
11838SOL     OW47141   4.733   4.370  27.337
11838SOL    HW147142   4.754   4.450  27.289
11838SOL    HW247143   4.667   4.327  27.283
11839SOL     OW47144   3.133   2.935   2.562
11839SOL    HW147145   3.152   2.847   2.528
11839SOL    HW247146   3.210   2.987   2.537
11840SOL     OW47147   2.171   0.518   2.518
11840SOL    HW147148   2.252   0.522   2.467
11840SOL    HW247149   2.200   0.502   2.608
11841SOL     OW47150   4.295   4.133   4.449
11841SOL    HW147151   4.250   4.207   4.490
11841SOL    HW247152   4.243   4.057   4.473
11842SOL     OW47153   3.913   4.379  25.359
11842SOL    HW147154   3.848   4.429  25.407
11842SOL    HW247155   3.862   4.314  25.310
11843SOL     OW47156   0.781   3.735   6.949
11843SOL    HW147157   0.767   3.671   7.018
11843SOL    HW247158   0.867   3.713   6.912
11844SOL     OW47159   2.783   3.788  24.139
11844SOL    HW147160   2.840   3.711  24.143
11844SOL    HW247161   2.749   3.797  24.228
11845SOL     OW47162   0.331   3.969  21.104
11845SOL    HW147163   0.243   3.988  21.136
11845SOL    HW247164   0.333   4.005  21.015
11846SOL     OW47165   2.223   4.331  26.199
11846SOL    HW147166   2.134   4.343  26.165
11846SOL    HW247167   2.275   4.308  26.122
11847SOL     OW47168   4.185   2.807  21.469
11847SOL    HW147169   4.189   2.728  21.523
11847SOL    HW247170   4.248   2.791  21.399
11848SOL     OW47171   0.951   0.087   1.102
11848SOL    HW147172   0.856   0.083   1.090
11848SOL    HW247173   0.983   0.003   1.069
11849SOL     OW47174   3.697   3.961   0.477
11849SOL    HW147175   3.671   4.006   0.397
11849SOL    HW247176   3.757   3.892   0.447
11850SOL     OW47177   0.344   1.060   1.463
11850SOL    HW147178   0.425   1.014   1.441
11850SOL    HW247179   0.373   1.140   1.506
11851SOL     OW47180   2.239   2.638   2.517
11851SOL    HW147181   2.276   2.648   2.429
11851SOL    HW247182   2.191   2.555   2.513
11852SOL     OW47183   3.926   2.623   4.556
11852SOL    HW147184   3.849   2.571   4.532
11852SOL    HW247185   3.979   2.564   4.610
11853SOL     OW47186   1.088   3.869  18.754
11853SOL    HW147187   1.165   3.886  18.700
11853SOL    HW247188   1.054   3.956  18.776
11854SOL     OW47189   4.745   0.715  23.209
11854SOL    HW147190   4.669   0.768  23.187
11854SOL    HW247191   4.718   0.666  23.287
11855SOL     OW47192   4.352   1.296  27.799
11855SOL    HW147193   4.374   1.224  27.741
11855SOL    HW247194   4.427   1.356  27.793
11856SOL     OW47195   1.237   2.400  19.228
11856SOL    HW147196   1.275   2.475  19.273
11856SOL    HW247197   1.143   2.405  19.246
11857SOL     OW47198   2.271   2.491  24.193
11857SOL    HW147199   2.293   2.541  24.115
11857SOL    HW247200   2.283   2.552  24.265
11858SOL     OW47201   2.206   4.458  19.790
11858SOL    HW147202   2.290   4.460  19.744
11858SOL    HW247203   2.229   4.437  19.881
11859SOL     OW47204   4.621   2.031   0.378
11859SOL    HW147205   4.584   2.074   0.455
11859SOL    HW247206   4.701   2.080   0.360
11860SOL     OW47207   2.022   1.059   5.331
11860SOL    HW147208   1.946   1.001   5.340
11860SOL    HW247209   1.999   1.117   5.259
11861SOL     OW47210   1.018   4.271  21.577
11861SOL    HW147211   0.969   4.331  21.520
11861SOL    HW247212   0.964   4.192  21.580
11862SOL     OW47213   1.893   1.260   1.063
11862SOL    HW147214   1.851   1.187   1.109
11862SOL    HW247215   1.981   1.265   1.101
11863SOL     OW47216   2.051   3.169   6.816
11863SOL    HW147217   2.056   3.136   6.906
11863SOL    HW247218   2.136   3.210   6.801
11864SOL     OW47219   2.108   0.761   2.400
11864SOL    HW147220   2.095   0.679   2.448
11864SOL    HW247221   2.107   0.829   2.468
11865SOL     OW47222   4.097   0.889   1.511
11865SOL    HW147223   4.152   0.930   1.578
11865SOL    HW247224   4.139   0.911   1.428
11866SOL     OW47225   3.234   2.171   2.680
11866SOL    HW147226   3.140   2.182   2.694
11866SOL    HW247227   3.269   2.155   2.767
11867SOL     OW47228   2.285   1.066  26.217
11867SOL    HW147229   2.375   1.092  26.200
11867SOL    HW247230   2.256   1.025  26.136
11868SOL     OW47231   4.714   2.174   6.709
11868SOL    HW147232   4.633   2.130   6.681
11868SOL    HW247233   4.746   2.121   6.782
11869SOL     OW47234   1.923   3.417  10.844
11869SOL    HW147235   1.905   3.415  10.938
11869SOL    HW247236   2.013   3.450  10.838
11870SOL     OW47237   1.426   2.773  21.462
11870SOL    HW147238   1.480   2.851  21.474
11870SOL    HW247239   1.468   2.725  21.390
11871SOL     OW47240   1.528   1.121  17.698
11871SOL    HW147241   1.592   1.055  17.670
11871SOL    HW247242   1.447   1.097  17.652
11872SOL     OW47243   2.197   0.487   6.654
11872SOL    HW147244   2.261   0.548   6.618
11872SOL    HW247245   2.137   0.470   6.581
11873SOL     OW47246   1.121   0.402  25.332
11873SOL    HW147247   1.044   0.395  25.389
11873SOL    HW247248   1.161   0.315  25.335
11874SOL     OW47249   2.479   4.668   1.976
11874SOL    HW147250   2.418   4.738   1.999
11874SOL    HW247251   2.426   4.605   1.928
11875SOL     OW47252   0.597   3.005   6.137
11875SOL    HW147253   0.685   3.036   6.115
11875SOL    HW247254   0.605   2.970   6.226
11876SOL     OW47255   4.363   0.055   0.433
11876SOL    HW147256   4.431   4.771   0.414
11876SOL    HW247257   4.281   0.007   0.424
11877SOL     OW47258   2.343   0.355   2.317
11877SOL    HW147259   2.422   0.314   2.282
11877SOL    HW247260   2.369   0.386   2.404
11878SOL     OW47261   2.651   1.698  25.861
11878SOL    HW147262   2.719   1.754  25.898
11878SOL    HW247263   2.625   1.742  25.780
11879SOL     OW47264   0.646   1.590   5.897
11879SOL    HW147265   0.560   1.595   5.856
11879SOL    HW247266   0.628   1.593   5.991
11880SOL     OW47267   4.239   2.797  20.629
11880SOL    HW147268   4.162   2.750  20.599
11880SOL    HW247269   4.257   2.762  20.716
11881SOL     OW47270   0.968   4.503   4.328
11881SOL    HW147271   0.919   4.521   4.408
11881SOL    HW247272   1.060   4.509   4.355
11882SOL     OW47273   4.221   0.148   1.875
11882SOL    HW147274   4.226   0.239   1.905
11882SOL    HW247275   4.312   0.118   1.875
11883SOL     OW47276   1.572   0.487   7.419
11883SOL    HW147277   1.597   0.533   7.339
11883SOL    HW247278   1.650   0.492   7.474
11884SOL     OW47279   3.419   4.487  21.620
11884SOL    HW147280   3.356   4.524  21.681
11884SOL    HW247281   3.381   4.504  21.534
11885SOL     OW47282   4.492   3.411  18.294
11885SOL    HW147283   4.464   3.342  18.354
11885SOL    HW247284   4.470   3.378  18.207
11886SOL     OW47285   2.189   3.133  22.969
11886SOL    HW147286   2.108   3.096  23.004
11886SOL    HW247287   2.239   3.057  22.939
11887SOL     OW47288   0.295   2.064  20.373
11887SOL    HW147289   0.335   2.089  20.456
11887SOL    HW247290   0.369   2.051  20.314
11888SOL     OW47291   3.470   0.265   4.617
11888SOL    HW147292   3.519   0.204   4.562
11888SOL    HW247293   3.392   0.285   4.566
11889SOL     OW47294   2.325   1.754  27.482
11889SOL    HW147295   2.400   1.721  27.433
11889SOL    HW247296   2.251   1.701  27.452
11890SOL     OW47297   0.037   4.012  24.016
11890SOL    HW147298   4.772   3.950  23.959
11890SOL    HW247299   0.119   4.030  23.970
11891SOL     OW47300   0.713   0.602  20.093
11891SOL    HW147301   0.773   0.547  20.142
11891SOL    HW247302   0.700   0.679  20.148
11892SOL     OW47303   2.448   3.261  27.009
11892SOL    HW147304   2.487   3.179  26.978
11892SOL    HW247305   2.523   3.317  27.028
11893SOL     OW47306   0.197   3.649   1.588
11893SOL    HW147307   0.261   3.587   1.553
11893SOL    HW247308   0.218   3.655   1.681
11894SOL     OW47309   2.985   2.832  26.945
11894SOL    HW147310   3.073   2.828  26.908
11894SOL    HW247311   2.966   2.925  26.954
11895SOL     OW47312   3.615   3.946   7.482
11895SOL    HW147313   3.595   3.857   7.511
11895SOL    HW247314   3.650   3.989   7.560
11896SOL     OW47315   0.119   3.418  18.255
11896SOL    HW147316   0.061   3.407  18.179
11896SOL    HW247317   0.093   3.349  18.315
11897SOL     OW47318   4.429   0.777   9.778
11897SOL    HW147319   4.495   0.712   9.754
11897SOL    HW247320   4.358   0.726   9.817
11898SOL     OW47321   2.720   4.249  27.467
11898SOL    HW147322   2.694   4.305  27.540
11898SOL    HW247323   2.737   4.164  27.507
11899SOL     OW47324   4.483   2.458  17.407
11899SOL    HW147325   4.446   2.375  17.437
11899SOL    HW247326   4.558   2.474  17.464
11900SOL     OW47327   4.174   3.013  27.224
11900SOL    HW147328   4.108   3.072  27.188
11900SOL    HW247329   4.230   3.070  27.277
11901SOL     OW47330   1.262   2.725  20.671
11901SOL    HW147331   1.281   2.758  20.759
11901SOL    HW247332   1.311   2.783  20.613
11902SOL     OW47333   3.359   3.899  22.285
11902SOL    HW147334   3.289   3.958  22.314
11902SOL    HW247335   3.370   3.838  22.358
11903SOL     OW47336   2.089   3.547   1.916
11903SOL    HW147337   2.113   3.455   1.904
11903SOL    HW247338   2.061   3.576   1.829
11904SOL     OW47339   1.979   0.698  26.239
11904SOL    HW147340   1.906   0.638  26.222
11904SOL    HW247341   1.977   0.711  26.334
11905SOL     OW47342   4.278   2.195  27.343
11905SOL    HW147343   4.223   2.185  27.421
11905SOL    HW247344   4.360   2.232  27.376
11906SOL     OW47345   2.087   4.314  21.662
11906SOL    HW147346   2.014   4.374  21.646
11906SOL    HW247347   2.051   4.227  21.643
11907SOL     OW47348   4.316   3.369   3.078
11907SOL    HW147349   4.265   3.289   3.068
11907SOL    HW247350   4.253   3.435   3.106
11908SOL     OW47351   3.948   2.908   4.643
11908SOL    HW147352   3.946   2.946   4.731
11908SOL    HW247353   3.949   2.813   4.658
11909SOL     OW47354   0.623   0.129   8.663
11909SOL    HW147355   0.676   0.126   8.743
11909SOL    HW247356   0.632   0.042   8.625
11910SOL     OW47357   2.517   1.735  19.289
11910SOL    HW147358   2.513   1.698  19.377
11910SOL    HW247359   2.434   1.781  19.279
11911SOL     OW47360   2.888   0.492   9.114
11911SOL    HW147361   2.800   0.467   9.142
11911SOL    HW247362   2.930   0.524   9.194
11912SOL     OW47363   2.095   3.264  25.998
11912SOL    HW147364   2.180   3.300  25.974
11912SOL    HW247365   2.107   3.233  26.088
11913SOL     OW47366   2.058   3.393   7.290
11913SOL    HW147367   2.120   3.337   7.337
11913SOL    HW247368   2.093   3.482   7.300
11914SOL     OW47369   1.477   2.685   5.592
11914SOL    HW147370   1.454   2.778   5.590
11914SOL    HW247371   1.518   2.669   5.507
11915SOL     OW47372   0.682   3.442  27.783
11915SOL    HW147373   0.692   3.380  27.711
11915SOL    HW247374   0.602   3.490  27.762
11916SOL     OW47375   0.735   0.085   5.735
11916SOL    HW147376   0.806   0.134   5.694
11916SOL    HW247377   0.767   4.776   5.739
11917SOL     OW47378   4.295   0.848  22.510
11917SOL    HW147379   4.338   0.777  22.462
11917SOL    HW247380   4.273   0.809  22.595
11918SOL     OW47381   1.277   4.082   8.363
11918SOL    HW147382   1.250   3.991   8.375
11918SOL    HW247383   1.233   4.109   8.282
11919SOL     OW47384   0.161   0.743  21.570
11919SOL    HW147385   0.245   0.778  21.600
11919SOL    HW247386   0.158   0.764  21.477
11920SOL     OW47387   2.346   1.012   2.231
11920SOL    HW147388   2.265   1.005   2.282
11920SOL    HW247389   2.383   1.097   2.256
11921SOL     OW47390   1.036   2.668  23.200
11921SOL    HW147391   1.084   2.595  23.239
11921SOL    HW247392   1.070   2.746  23.245
11922SOL     OW47393   1.815   2.918  24.433
11922SOL    HW147394   1.869   2.959  24.501
11922SOL    HW247395   1.778   2.840  24.476
11923SOL     OW47396   0.776   4.595  23.014
11923SOL    HW147397   0.727   4.644  23.080
11923SOL    HW247398   0.740   4.507  23.017
11924SOL     OW47399   2.027   2.237  20.391
11924SOL    HW147400   1.994   2.312  20.440
11924SOL    HW247401   1.972   2.234  20.313
11925SOL     OW47402   0.593   0.695   6.440
11925SOL    HW147403   0.666   0.640   6.411
11925SOL    HW247404   0.619   0.784   6.417
11926SOL     OW47405   2.795   1.596   6.225
11926SOL    HW147406   2.869   1.610   6.166
11926SOL    HW247407   2.784   1.679   6.271
11927SOL     OW47408   1.198   0.749   3.007
11927SOL    HW147409   1.235   0.823   2.959
11927SOL    HW247410   1.160   0.787   3.086
11928SOL     OW47411   1.081   3.268  19.637
11928SOL    HW147412   1.016   3.315  19.584
11928SOL    HW247413   1.052   3.280  19.727
11929SOL     OW47414   4.710   1.745  25.222
11929SOL    HW147415   4.711   1.705  25.135
11929SOL    HW247416   4.623   1.784  25.229
11930SOL     OW47417   3.759   2.515   5.935
11930SOL    HW147418   3.705   2.503   5.857
11930SOL    HW247419   3.793   2.604   5.928
11931SOL     OW47420   0.178   2.480   8.675
11931SOL    HW147421   0.156   2.547   8.739
11931SOL    HW247422   0.253   2.515   8.628
11932SOL     OW47423   0.867   1.086   9.625
11932SOL    HW147424   0.940   1.136   9.588
11932SOL    HW247425   0.813   1.152   9.669
11933SOL     OW47426   1.351   0.581  26.746
11933SOL    HW147427   1.261   0.568  26.775
11933SOL    HW247428   1.346   0.583  26.650
11934SOL     OW47429   3.090   0.240  10.932
11934SOL    HW147430   3.073   0.148  10.952
11934SOL    HW247431   3.185   0.246  10.925
11935SOL     OW47432   0.725   1.011  12.290
11935SOL    HW147433   0.731   0.916  12.298
11935SOL    HW247434   0.768   1.044  12.369
11936SOL     OW47435   2.583   3.098   6.741
11936SOL    HW147436   2.554   3.009   6.761
11936SOL    HW247437   2.678   3.091   6.731
11937SOL     OW47438   1.671   1.326  22.028
11937SOL    HW147439   1.631   1.253  21.981
11937SOL    HW247440   1.765   1.306  22.029
11938SOL     OW47441   2.623   3.979   3.559
11938SOL    HW147442   2.592   4.033   3.632
11938SOL    HW247443   2.612   3.889   3.589
11939SOL     OW47444   3.788   0.849  27.499
11939SOL    HW147445   3.809   0.934  27.461
11939SOL    HW247446   3.859   0.833  27.562
11940SOL     OW47447   2.862   0.663   6.951
11940SOL    HW147448   2.881   0.677   7.044
11940SOL    HW247449   2.775   0.701   6.939
11941SOL     OW47450   0.841   2.085  21.948
11941SOL    HW147451   0.913   2.023  21.956
11941SOL    HW247452   0.819   2.084  21.855
11942SOL     OW47453   1.661   0.363  21.145
11942SOL    HW147454   1.628   0.443  21.187
11942SOL    HW247455   1.739   0.391  21.098
11943SOL     OW47456   2.893   3.563   8.486
11943SOL    HW147457   2.846   3.546   8.568
11943SOL    HW247458   2.929   3.478   8.461
11944SOL     OW47459   0.104   3.710   1.231
11944SOL    HW147460   0.167   3.639   1.244
11944SOL    HW247461   0.135   3.781   1.287
11945SOL     OW47462   0.619   0.871   0.372
11945SOL    HW147463   0.596   0.844   0.461
11945SOL    HW247464   0.543   0.847   0.319
11946SOL     OW47465   4.573   4.159  25.886
11946SOL    HW147466   4.493   4.108  25.871
11946SOL    HW247467   4.549   4.222  25.954
11947SOL     OW47468   0.091   3.978   6.980
11947SOL    HW147469   0.117   4.060   6.937
11947SOL    HW247470   0.002   3.995   7.012
11948SOL     OW47471   2.828   2.226   7.570
11948SOL    HW147472   2.852   2.228   7.477
11948SOL    HW247473   2.752   2.283   7.576
11949SOL     OW47474   1.115   2.676  18.884
11949SOL    HW147475   1.089   2.676  18.792
11949SOL    HW247476   1.206   2.705  18.883
11950SOL     OW47477   1.246   2.045  22.488
11950SOL    HW147478   1.181   2.001  22.433
11950SOL    HW247479   1.241   2.000  22.572
11951SOL     OW47480   4.637   4.627   4.736
11951SOL    HW147481   4.620   4.717   4.710
11951SOL    HW247482   4.551   4.590   4.755
11952SOL     OW47483   1.101   3.728  19.666
11952SOL    HW147484   1.179   3.757  19.713
11952SOL    HW247485   1.134   3.699  19.581
11953SOL     OW47486   4.321   3.646  17.121
11953SOL    HW147487   4.246   3.676  17.070
11953SOL    HW247488   4.291   3.647  17.212
11954SOL     OW47489   2.577   0.702  24.182
11954SOL    HW147490   2.511   0.662  24.239
11954SOL    HW247491   2.549   0.793  24.174
11955SOL     OW47492   0.591   1.784   4.351
11955SOL    HW147493   0.612   1.864   4.399
11955SOL    HW247494   0.498   1.792   4.330
11956SOL     OW47495   3.239   4.263   2.667
11956SOL    HW147496   3.163   4.264   2.725
11956SOL    HW247497   3.203   4.246   2.580
11957SOL     OW47498   3.951   2.239  22.119
11957SOL    HW147499   4.028   2.288  22.148
11957SOL    HW247500   3.984   2.176  22.055
11958SOL     OW47501   3.349   3.933   4.753
11958SOL    HW147502   3.291   3.901   4.822
11958SOL    HW247503   3.437   3.929   4.792
11959SOL     OW47504   4.204   2.087   1.917
11959SOL    HW147505   4.249   2.099   2.001
11959SOL    HW247506   4.135   2.153   1.918
11960SOL     OW47507   2.005   4.308   8.705
11960SOL    HW147508   2.047   4.374   8.759
11960SOL    HW247509   1.982   4.354   8.624
11961SOL     OW47510   1.620   4.571   3.285
11961SOL    HW147511   1.656   4.573   3.374
11961SOL    HW247512   1.656   4.491   3.247
11962SOL     OW47513   4.180   3.582   0.271
11962SOL    HW147514   4.169   3.672   0.301
11962SOL    HW247515   4.188   3.530   0.351
11963SOL     OW47516   1.138   3.419   9.564
11963SOL    HW147517   1.058   3.422   9.616
11963SOL    HW247518   1.170   3.509   9.564
11964SOL     OW47519   4.016   1.244   4.372
11964SOL    HW147520   3.936   1.295   4.362
11964SOL    HW247521   4.087   1.308   4.366
11965SOL     OW47522   0.414   3.216   6.313
11965SOL    HW147523   0.471   3.139   6.313
11965SOL    HW247524   0.431   3.259   6.397
11966SOL     OW47525   0.068   0.436  23.648
11966SOL    HW147526   4.775   0.431  23.708
11966SOL    HW247527   0.075   0.348  23.610
11967SOL     OW47528   2.777   3.819  22.632
11967SOL    HW147529   2.753   3.726  22.635
11967SOL    HW247530   2.730   3.853  22.556
11968SOL     OW47531   1.111   1.771  24.946
11968SOL    HW147532   1.047   1.839  24.927
11968SOL    HW247533   1.179   1.783  24.879
11969SOL     OW47534   0.594   2.985   7.998
11969SOL    HW147535   0.564   3.068   7.961
11969SOL    HW247536   0.652   3.010   8.069
11970SOL     OW47537   3.742   1.811   2.264
11970SOL    HW147538   3.726   1.717   2.265
11970SOL    HW247539   3.719   1.838   2.175
11971SOL     OW47540   1.500   0.676  21.620
11971SOL    HW147541   1.445   0.720  21.555
11971SOL    HW247542   1.588   0.711  21.603
11972SOL     OW47543   3.357   4.125  26.597
11972SOL    HW147544   3.285   4.121  26.660
11972SOL    HW247545   3.323   4.081  26.519
11973SOL     OW47546   3.318   2.802  23.643
11973SOL    HW147547   3.222   2.801  23.648
11973SOL    HW247548   3.338   2.868  23.577
11974SOL     OW47549   4.088   0.900   0.538
11974SOL    HW147550   4.183   0.890   0.541
11974SOL    HW247551   4.059   0.839   0.470
11975SOL     OW47552   2.955   4.091   4.592
11975SOL    HW147553   2.863   4.113   4.581
11975SOL    HW247554   2.997   4.174   4.614
11976SOL     OW47555   3.392   3.422  23.996
11976SOL    HW147556   3.434   3.352  23.945
11976SOL    HW247557   3.339   3.376  24.061
11977SOL     OW47558   3.688   0.132   0.504
11977SOL    HW147559   3.777   0.147   0.535
11977SOL    HW247560   3.634   0.191   0.556
11978SOL     OW47561   2.458   1.017   0.926
11978SOL    HW147562   2.403   0.960   0.872
11978SOL    HW247563   2.433   0.995   1.016
11979SOL     OW47564   2.064   2.049   9.405
11979SOL    HW147565   1.984   1.997   9.396
11979SOL    HW247566   2.135   1.988   9.385
11980SOL     OW47567   4.267   0.628  27.575
11980SOL    HW147568   4.333   0.693  27.599
11980SOL    HW247569   4.281   0.612  27.482
11981SOL     OW47570   2.871   2.972   0.747
11981SOL    HW147571   2.959   2.939   0.729
11981SOL    HW247572   2.885   3.050   0.801
11982SOL     OW47573   3.780   1.782  17.632
11982SOL    HW147574   3.744   1.769  17.544
11982SOL    HW247575   3.814   1.696  17.657
11983SOL     OW47576   1.947   0.460  21.975
11983SOL    HW147577   1.868   0.512  21.985
11983SOL    HW247578   2.018   0.519  21.998
11984SOL     OW47579   2.806   4.176  24.138
11984SOL    HW147580   2.884   4.138  24.097
11984SOL    HW247581   2.784   4.251  24.082
11985SOL     OW47582   1.575   3.732   2.179
11985SOL    HW147583   1.551   3.801   2.240
11985SOL    HW247584   1.603   3.659   2.235
11986SOL     OW47585   4.441   1.543   2.286
11986SOL    HW147586   4.477   1.455   2.277
11986SOL    HW247587   4.471   1.590   2.208
11987SOL     OW47588   3.330   4.134   1.969
11987SOL    HW147589   3.239   4.113   1.948
11987SOL    HW247590   3.334   4.230   1.967
11988SOL     OW47591   0.932   2.718   1.580
11988SOL    HW147592   0.943   2.635   1.534
11988SOL    HW247593   1.020   2.741   1.609
11989SOL     OW47594   1.676   3.784  17.939
11989SOL    HW147595   1.582   3.798  17.946
11989SOL    HW247596   1.714   3.871  17.953
11990SOL     OW47597   2.141   0.642   5.327
11990SOL    HW147598   2.066   0.680   5.373
11990SOL    HW247599   2.122   0.548   5.324
11991SOL     OW47600   3.312   1.438  26.851
11991SOL    HW147601   3.317   1.468  26.760
11991SOL    HW247602   3.283   1.347  26.845
11992SOL     OW47603   0.683   3.126  19.568
11992SOL    HW147604   0.617   3.073  19.523
11992SOL    HW247605   0.639   3.210  19.584
11993SOL     OW47606   4.373   1.120  22.911
11993SOL    HW147607   4.407   1.106  22.823
11993SOL    HW247608   4.423   1.195  22.944
11994SOL     OW47609   2.615   0.536  27.890
11994SOL    HW147610   2.673   0.462  27.906
11994SOL    HW247611   2.560   0.508  27.817
11995SOL     OW47612   1.197   4.106  10.976
11995SOL    HW147613   1.121   4.150  11.014
11995SOL    HW247614   1.161   4.050  10.908
11996SOL     OW47615   3.135   3.882   4.584
11996SOL    HW147616   3.216   3.908   4.628
11996SOL    HW247617   3.080   3.960   4.588
11997SOL     OW47618   4.116   1.708   3.292
11997SOL    HW147619   4.065   1.766   3.348
11997SOL    HW247620   4.154   1.766   3.226
11998SOL     OW47621   0.140   0.698  27.255
11998SOL    HW147622   0.100   0.774  27.212
11998SOL    HW247623   0.158   0.637  27.183
11999SOL     OW47624   0.947   3.305   4.702
11999SOL    HW147625   0.863   3.311   4.748
11999SOL    HW247626   0.966   3.395   4.675
12000SOL     OW47627   2.443   4.047  26.905
12000SOL    HW147628   2.411   4.134  26.929
12000SOL    HW247629   2.370   4.006  26.859
12001SOL     OW47630   2.740   0.901  23.780
12001SOL    HW147631   2.790   0.895  23.861
12001SOL    HW247632   2.766   0.984  23.741
12002SOL     OW47633   4.319   0.447  25.897
12002SOL    HW147634   4.255   0.403  25.841
12002SOL    HW247635   4.267   0.479  25.971
12003SOL     OW47636   0.711   1.630  27.204
12003SOL    HW147637   0.727   1.546  27.160
12003SOL    HW247638   0.765   1.627  27.283
12004SOL     OW47639   4.315   4.718   1.653
12004SOL    HW147640   4.250   0.006   1.643
12004SOL    HW247641   4.351   4.732   1.741
12005SOL     OW47642   3.349   0.955   7.488
12005SOL    HW147643   3.321   0.975   7.577
12005SOL    HW247644   3.353   0.859   7.486
12006SOL     OW47645   0.912   2.833   3.906
12006SOL    HW147646   0.934   2.795   3.821
12006SOL    HW247647   0.818   2.851   3.901
12007SOL     OW47648   3.580   4.146  11.413
12007SOL    HW147649   3.572   4.051  11.408
12007SOL    HW247650   3.645   4.162  11.481
12008SOL     OW47651   1.808   1.657   7.777
12008SOL    HW147652   1.870   1.588   7.754
12008SOL    HW247653   1.843   1.695   7.858
12009SOL     OW47654   2.647   3.465  18.168
12009SOL    HW147655   2.725   3.419  18.138
12009SOL    HW247656   2.610   3.505  18.089
12010SOL     OW47657   4.773   4.570   0.641
12010SOL    HW147658   0.059   4.503   0.653
12010SOL    HW247659   4.743   4.558   0.551
12011SOL     OW47660   2.146   0.530   8.596
12011SOL    HW147661   2.236   0.513   8.625
12011SOL    HW247662   2.148   0.620   8.563
12012SOL     OW47663   1.515   2.498  25.623
12012SOL    HW147664   1.542   2.414  25.587
12012SOL    HW247665   1.459   2.476  25.698
12013SOL     OW47666   4.578   1.918  19.074
12013SOL    HW147667   4.492   1.881  19.094
12013SOL    HW247668   4.577   2.004  19.116
12014SOL     OW47669   1.720   3.181  21.754
12014SOL    HW147670   1.721   3.198  21.848
12014SOL    HW247671   1.652   3.239  21.720
12015SOL     OW47672   3.526   1.576  26.254
12015SOL    HW147673   3.589   1.504  26.258
12015SOL    HW247674   3.443   1.534  26.232
12016SOL     OW47675   0.763   1.776   1.371
12016SOL    HW147676   0.786   1.690   1.335
12016SOL    HW247677   0.767   1.764   1.466
12017SOL     OW47678   2.875   3.145  23.078
12017SOL    HW147679   2.873   3.139  23.174
12017SOL    HW247680   2.850   3.058  23.048
12018SOL     OW47681   3.155   0.787   4.194
12018SOL    HW147682   3.171   0.757   4.105
12018SOL    HW247683   3.115   0.873   4.183
12019SOL     OW47684   3.454   4.673  27.897
12019SOL    HW147685   3.483   4.584  27.876
12019SOL    HW247686   3.385   4.662  27.962
12020SOL     OW47687   3.437   2.612  19.689
12020SOL    HW147688   3.438   2.527  19.644
12020SOL    HW247689   3.354   2.612  19.737
12021SOL     OW47690   1.045   3.801  26.150
12021SOL    HW147691   1.080   3.727  26.199
12021SOL    HW247692   0.954   3.808  26.179
12022SOL     OW47693   0.245   2.535   3.511
12022SOL    HW147694   0.288   2.559   3.593
12022SOL    HW247695   0.221   2.619   3.471
12023SOL     OW47696   1.637   0.336   0.782
12023SOL    HW147697   1.604   0.262   0.732
12023SOL    HW247698   1.661   0.401   0.716
12024SOL     OW47699   3.498   3.223   7.947
12024SOL    HW147700   3.526   3.164   7.877
12024SOL    HW247701   3.560   3.208   8.018
12025SOL     OW47702   4.393   2.782   7.350
12025SOL    HW147703   4.442   2.746   7.276
12025SOL    HW247704   4.460   2.811   7.412
12026SOL     OW47705   4.262   4.692  21.733
12026SOL    HW147706   4.176   4.652  21.749
12026SOL    HW247707   4.276   4.749  21.809
12027SOL     OW47708   0.400   3.553   8.538
12027SOL    HW147709   0.451   3.611   8.595
12027SOL    HW247710   0.460   3.482   8.516
12028SOL     OW47711   3.757   0.621  24.853
12028SOL    HW147712   3.756   0.637  24.947
12028SOL    HW247713   3.842   0.654  24.824
12029SOL     OW47714   3.532   3.577  21.125
12029SOL    HW147715   3.497   3.553  21.039
12029SOL    HW247716   3.564   3.666  21.114
12030SOL     OW47717   1.581   3.067  25.286
12030SOL    HW147718   1.518   3.099  25.351
12030SOL    HW247719   1.639   3.008  25.335
12031SOL     OW47720   1.696   2.468   3.851
12031SOL    HW147721   1.778   2.492   3.894
12031SOL    HW247722   1.720   2.396   3.792
12032SOL     OW47723   1.118   2.332   1.683
12032SOL    HW147724   1.176   2.259   1.704
12032SOL    HW247725   1.177   2.404   1.660
12033SOL     OW47726   2.322   0.216  22.948
12033SOL    HW147727   2.379   0.281  22.907
12033SOL    HW247728   2.382   0.152  22.986
12034SOL     OW47729   3.236   0.118   7.541
12034SOL    HW147730   3.294   0.176   7.591
12034SOL    HW247731   3.207   0.171   7.467
12035SOL     OW47732   2.496   4.359  27.586
12035SOL    HW147733   2.410   4.332  27.619
12035SOL    HW247734   2.495   4.334  27.494
12036SOL     OW47735   4.519   3.712  21.122
12036SOL    HW147736   4.509   3.804  21.099
12036SOL    HW247737   4.593   3.710  21.183
12037SOL     OW47738   0.486   0.907   4.319
12037SOL    HW147739   0.573   0.867   4.313
12037SOL    HW247740   0.504   1.000   4.333
12038SOL     OW47741   0.724   2.983  21.622
12038SOL    HW147742   0.695   3.073  21.637
12038SOL    HW247743   0.809   2.992  21.580
12039SOL     OW47744   4.284   4.231   7.507
12039SOL    HW147745   4.364   4.277   7.531
12039SOL    HW247746   4.214   4.279   7.551
12040SOL     OW47747   0.136   4.390  10.763
12040SOL    HW147748   0.041   4.385  10.773
12040SOL    HW247749   0.154   4.484  10.761
12041SOL     OW47750   0.815   1.699   9.539
12041SOL    HW147751   0.758   1.686   9.615
12041SOL    HW247752   0.840   1.791   9.544
12042SOL     OW47753   4.662   2.511   7.548
12042SOL    HW147754   4.647   2.486   7.457
12042SOL    HW247755   4.641   2.432   7.598
12043SOL     OW47756   2.377   3.296  25.324
12043SOL    HW147757   2.368   3.386  25.294
12043SOL    HW247758   2.287   3.264  25.328
12044SOL     OW47759   1.819   2.209   2.119
12044SOL    HW147760   1.754   2.139   2.129
12044SOL    HW247761   1.770   2.283   2.083
12045SOL     OW47762   3.040   0.013  11.056
12045SOL    HW147763   3.108   0.003  11.123
12045SOL    HW247764   2.961   0.034  11.105
12046SOL     OW47765   2.766   4.720   9.445
12046SOL    HW147766   2.736   4.630   9.434
12046SOL    HW247767   2.694   4.764   9.490
12047SOL     OW47768   3.487   4.569   9.215
12047SOL    HW147769   3.455   4.656   9.190
12047SOL    HW247770   3.523   4.581   9.303
12048SOL     OW47771   1.759   4.358  27.995
12048SOL    HW147772   1.780   4.435  28.048
12048SOL    HW247773   1.668   4.371  27.969
12049SOL     OW47774   1.882   3.594  20.335
12049SOL    HW147775   1.901   3.500  20.332
12049SOL    HW247776   1.899   3.624  20.246
12050SOL     OW47777   3.394   0.148  10.097
12050SOL    HW147778   3.376   0.174  10.007
12050SOL    HW247779   3.452   0.217  10.130
12051SOL     OW47780   3.566   1.433  22.485
12051SOL    HW147781   3.478   1.463  22.506
12051SOL    HW247782   3.614   1.513  22.462
12052SOL     OW47783   3.007   0.490  24.052
12052SOL    HW147784   3.049   0.435  24.118
12052SOL    HW247785   2.996   0.433  23.976
12053SOL     OW47786   2.439   1.694  26.063
12053SOL    HW147787   2.511   1.701  26.000
12053SOL    HW247788   2.442   1.603  26.094
12054SOL     OW47789   2.730   0.639   1.111
12054SOL    HW147790   2.785   0.686   1.049
12054SOL    HW247791   2.762   0.549   1.107
12055SOL     OW47792   3.130   0.281  21.036
12055SOL    HW147793   3.118   0.204  20.980
12055SOL    HW247794   3.178   0.248  21.112
12056SOL     OW47795   0.091   2.076  24.854
12056SOL    HW147796   0.151   2.100  24.784
12056SOL    HW247797   0.142   2.088  24.934
12057SOL     OW47798   3.357   2.322  10.779
12057SOL    HW147799   3.437   2.361  10.813
12057SOL    HW247800   3.309   2.294  10.857
12058SOL     OW47801   0.772   0.016   2.458
12058SOL    HW147802   0.792   0.109   2.444
12058SOL    HW247803   0.799   4.754   2.377
12059SOL     OW47804   1.653   1.964  22.747
12059SOL    HW147805   1.645   1.957  22.652
12059SOL    HW247806   1.607   2.045  22.769
12060SOL     OW47807   3.201   2.514  20.319
12060SOL    HW147808   3.159   2.535  20.402
12060SOL    HW247809   3.279   2.464  20.343
12061SOL     OW47810   1.457   2.989   5.733
12061SOL    HW147811   1.385   3.018   5.789
12061SOL    HW247812   1.444   3.036   5.651
12062SOL     OW47813   3.172   3.864   4.952
12062SOL    HW147814   3.082   3.844   4.927
12062SOL    HW247815   3.170   3.956   4.979
12063SOL     OW47816   1.257   4.480  27.214
12063SOL    HW147817   1.221   4.551  27.161
12063SOL    HW247818   1.181   4.444  27.259
12064SOL     OW47819   2.222   4.015  20.750
12064SOL    HW147820   2.278   4.091  20.763
12064SOL    HW247821   2.279   3.950  20.709
12065SOL     OW47822   0.729   0.600  28.186
12065SOL    HW147823   0.741   0.580  28.093
12065SOL    HW247824   0.636   0.583  28.202
12066SOL     OW47825   1.163   0.580   4.991
12066SOL    HW147826   1.196   0.668   5.011
12066SOL    HW247827   1.215   0.522   5.047
12067SOL     OW47828   2.859   2.747  19.287
12067SOL    HW147829   2.814   2.769  19.205
12067SOL    HW247830   2.909   2.668  19.267
12068SOL     OW47831   2.922   1.438   8.311
12068SOL    HW147832   2.902   1.354   8.270
12068SOL    HW247833   3.003   1.422   8.359
12069SOL     OW47834   2.565   4.549   0.576
12069SOL    HW147835   2.619   4.509   0.508
12069SOL    HW247836   2.628   4.581   0.641
12070SOL     OW47837   2.284   4.244   9.239
12070SOL    HW147838   2.217   4.176   9.233
12070SOL    HW247839   2.359   4.201   9.280
12071SOL     OW47840   0.126   0.821   8.730
12071SOL    HW147841   0.184   0.893   8.706
12071SOL    HW247842   0.179   0.742   8.717
12072SOL     OW47843   3.437   2.454  18.192
12072SOL    HW147844   3.388   2.468  18.111
12072SOL    HW247845   3.370   2.450  18.260
12073SOL     OW47846   3.574   4.385   2.176
12073SOL    HW147847   3.496   4.430   2.143
12073SOL    HW247848   3.622   4.360   2.097
12074SOL     OW47849   1.815   0.806   7.842
12074SOL    HW147850   1.856   0.787   7.758
12074SOL    HW247851   1.857   0.746   7.903
12075SOL     OW47852   4.621   2.414   3.185
12075SOL    HW147853   4.713   2.409   3.211
12075SOL    HW247854   4.617   2.365   3.103
12076SOL     OW47855   2.124   0.642   9.805
12076SOL    HW147856   2.178   0.711   9.765
12076SOL    HW247857   2.162   0.630   9.892
12077SOL     OW47858   0.275   2.261  11.379
12077SOL    HW147859   0.325   2.245  11.459
12077SOL    HW247860   0.228   2.343  11.397
12078SOL     OW47861   1.998   3.655  28.378
12078SOL    HW147862   2.071   3.593  28.384
12078SOL    HW247863   2.037   3.739  28.401
12079SOL     OW47864   0.120   4.742   8.014
12079SOL    HW147865   0.038   4.704   7.983
12079SOL    HW247866   0.183   4.670   8.008
12080SOL     OW47867   3.053   4.396  19.497
12080SOL    HW147868   3.031   4.487  19.518
12080SOL    HW247869   2.969   4.350  19.495
12081SOL     OW47870   1.895   0.731   5.458
12081SOL    HW147871   1.876   0.783   5.536
12081SOL    HW247872   1.874   0.641   5.483
12082SOL     OW47873   3.908   1.739   8.496
12082SOL    HW147874   3.973   1.672   8.518
12082SOL    HW247875   3.825   1.704   8.528
12083SOL     OW47876   4.770   2.611  27.044
12083SOL    HW147877   4.762   2.534  26.988
12083SOL    HW247878   4.723   2.680  26.997
12084SOL     OW47879   0.983   0.227   4.531
12084SOL    HW147880   0.947   0.228   4.442
12084SOL    HW247881   1.026   0.142   4.539
12085SOL     OW47882   3.516   4.577  23.816
12085SOL    HW147883   3.444   4.612  23.868
12085SOL    HW247884   3.484   4.492  23.785
12086SOL     OW47885   1.727   4.544  22.277
12086SOL    HW147886   1.734   4.487  22.354
12086SOL    HW247887   1.814   4.541  22.237
12087SOL     OW47888   3.823   1.946  27.077
12087SOL    HW147889   3.801   1.900  26.996
12087SOL    HW247890   3.918   1.960  27.071
12088SOL     OW47891   3.333   2.104   2.445
12088SOL    HW147892   3.418   2.061   2.457
12088SOL    HW247893   3.298   2.112   2.534
12089SOL     OW47894   2.971   0.775  19.896
12089SOL    HW147895   3.017   0.853  19.928
12089SOL    HW247896   2.911   0.808  19.829
12090SOL     OW47897   3.973   3.656  25.135
12090SOL    HW147898   4.000   3.575  25.179
12090SOL    HW247899   3.953   3.716  25.207
12091SOL     OW47900   4.213   0.794  24.605
12091SOL    HW147901   4.284   0.818  24.546
12091SOL    HW247902   4.137   0.844  24.574
12092SOL     OW47903   2.907   2.452   6.106
12092SOL    HW147904   2.826   2.434   6.153
12092SOL    HW247905   2.935   2.367   6.072
12093SOL     OW47906   4.724   0.343   7.283
12093SOL    HW147907   4.656   0.410   7.293
12093SOL    HW247908   0.018   0.390   7.247
12094SOL     OW47909   2.146   1.332  28.315
12094SOL    HW147910   2.240   1.341  28.300
12094SOL    HW247911   2.107   1.399  28.259
12095SOL     OW47912   0.485   1.147  24.009
12095SOL    HW147913   0.569   1.102  24.018
12095SOL    HW247914   0.481   1.174  23.917
12096SOL     OW47915   3.277   4.517  26.414
12096SOL    HW147916   3.346   4.562  26.463
12096SOL    HW247917   3.200   4.523  26.471
12097SOL     OW47918   3.840   2.651  20.461
12097SOL    HW147919   3.925   2.651  20.416
12097SOL    HW247920   3.776   2.643  20.391
12098SOL     OW47921   4.513   1.199   3.569
12098SOL    HW147922   4.543   1.215   3.480
12098SOL    HW247923   4.474   1.112   3.565
12099SOL     OW47924   4.318   3.392  26.248
12099SOL    HW147925   4.369   3.312  26.259
12099SOL    HW247926   4.280   3.409  26.334
12100SOL     OW47927   3.430   3.197  22.368
12100SOL    HW147928   3.415   3.279  22.320
12100SOL    HW247929   3.359   3.140  22.339
12101SOL     OW47930   2.857   3.222  27.187
12101SOL    HW147931   2.773   3.229  27.233
12101SOL    HW247932   2.841   3.261  27.101
12102SOL     OW47933   4.226   4.525   0.480
12102SOL    HW147934   4.180   4.589   0.534
12102SOL    HW247935   4.215   4.556   0.390
12103SOL     OW47936   3.718   0.063  27.589
12103SOL    HW147937   3.770   0.053  27.669
12103SOL    HW247938   3.708   0.158  27.579
12104SOL     OW47939   2.314   2.709   6.347
12104SOL    HW147940   2.291   2.722   6.255
12104SOL    HW247941   2.316   2.797   6.384
12105SOL     OW47942   0.927   0.211  21.657
12105SOL    HW147943   0.904   0.166  21.738
12105SOL    HW247944   1.020   0.193  21.644
12106SOL     OW47945   2.463   3.134  18.794
12106SOL    HW147946   2.535   3.119  18.855
12106SOL    HW247947   2.505   3.136  18.708
12107SOL     OW47948   1.136   2.135   5.819
12107SOL    HW147949   1.154   2.084   5.740
12107SOL    HW247950   1.212   2.193   5.828
12108SOL     OW47951   4.019   2.021  22.566
12108SOL    HW147952   4.086   2.016  22.498
12108SOL    HW247953   4.068   2.034  22.647
12109SOL     OW47954   3.174   2.520   6.130
12109SOL    HW147955   3.171   2.616   6.133
12109SOL    HW247956   3.096   2.495   6.081
12110SOL     OW47957   4.659   2.018  17.311
12110SOL    HW147958   4.703   2.100  17.287
12110SOL    HW247959   4.644   1.973  17.228
12111SOL     OW47960   2.318   3.039  25.146
12111SOL    HW147961   2.344   3.104  25.212
12111SOL    HW247962   2.234   3.071  25.113
12112SOL     OW47963   3.175   1.931   9.091
12112SOL    HW147964   3.155   1.843   9.123
12112SOL    HW247965   3.271   1.936   9.091
12113SOL     OW47966   4.772   2.293  24.145
12113SOL    HW147967   0.022   2.290  24.236
12113SOL    HW247968   0.046   2.230  24.099
12114SOL     OW47969   0.221   3.984  20.731
12114SOL    HW147970   0.213   3.949  20.642
12114SOL    HW247971   0.131   3.994  20.762
12115SOL     OW47972   4.703   2.544   9.340
12115SOL    HW147973   4.711   2.566   9.433
12115SOL    HW247974   4.722   2.450   9.335
12116SOL     OW47975   0.156   1.322   4.728
12116SOL    HW147976   0.067   1.322   4.764
12116SOL    HW247977   0.200   1.251   4.774
12117SOL     OW47978   4.555   3.751  25.392
12117SOL    HW147979   4.574   3.754  25.486
12117SOL    HW247980   4.639   3.768  25.350
12118SOL     OW47981   3.920   2.951   3.975
12118SOL    HW147982   3.869   3.030   3.992
12118SOL    HW247983   3.863   2.897   3.921
12119SOL     OW47984   2.331   3.509   0.903
12119SOL    HW147985   2.339   3.604   0.904
12119SOL    HW247986   2.318   3.486   0.811
12120SOL     OW47987   0.190   2.258  25.991
12120SOL    HW147988   0.140   2.336  26.016
12120SOL    HW247989   0.205   2.212  26.074
12121SOL     OW47990   1.314   0.584   6.486
12121SOL    HW147991   1.248   0.518   6.506
12121SOL    HW247992   1.373   0.583   6.561
12122SOL     OW47993   2.668   1.136  19.976
12122SOL    HW147994   2.697   1.153  19.886
12122SOL    HW247995   2.693   1.215  20.024
12123SOL     OW47996   3.490   4.261   3.636
12123SOL    HW147997   3.513   4.209   3.559
12123SOL    HW247998   3.475   4.349   3.602
12124SOL     OW47999   4.457   4.365  23.302
12124SOL    HW148000   4.412   4.284  23.328
12124SOL    HW248001   4.417   4.433  23.356
12125SOL     OW48002   0.486   4.594   2.357
12125SOL    HW148003   0.398   4.571   2.388
12125SOL    HW248004   0.538   4.604   2.437
12126SOL     OW48005   4.779   4.470  22.785
12126SOL    HW148006   0.077   4.424  22.812
12126SOL    HW248007   4.708   4.421  22.826
12127SOL     OW48008   0.203   1.178   4.316
12127SOL    HW148009   0.187   1.136   4.232
12127SOL    HW248010   0.150   1.258   4.313
12128SOL     OW48011   1.774   3.556   6.656
12128SOL    HW148012   1.807   3.646   6.650
12128SOL    HW248013   1.828   3.515   6.723
12129SOL     OW48014   3.309   2.357  22.132
12129SOL    HW148015   3.402   2.343  22.149
12129SOL    HW248016   3.268   2.356  22.219
12130SOL     OW48017   1.027   1.278  26.379
12130SOL    HW148018   1.034   1.270  26.284
12130SOL    HW248019   1.116   1.264  26.411
12131SOL     OW48020   1.999   1.328   6.557
12131SOL    HW148021   2.003   1.233   6.564
12131SOL    HW248022   1.942   1.344   6.482
12132SOL     OW48023   3.421   2.022   7.825
12132SOL    HW148024   3.454   2.014   7.914
12132SOL    HW248025   3.327   2.037   7.835
12133SOL     OW48026   2.830   0.539  25.523
12133SOL    HW148027   2.768   0.603  25.489
12133SOL    HW248028   2.858   0.489  25.446
12134SOL     OW48029   0.159   1.520   9.586
12134SOL    HW148030   0.067   1.543   9.572
12134SOL    HW248031   0.196   1.596   9.630
12135SOL     OW48032   1.752   2.274  23.526
12135SOL    HW148033   1.792   2.199  23.571
12135SOL    HW248034   1.762   2.255  23.433
12136SOL     OW48035   0.528   0.529   2.882
12136SOL    HW148036   0.549   0.583   2.958
12136SOL    HW248037   0.605   0.474   2.869
12137SOL     OW48038   1.741   2.184   5.374
12137SOL    HW148039   1.701   2.195   5.288
12137SOL    HW248040   1.676   2.134   5.424
12138SOL     OW48041   1.961   4.567   0.698
12138SOL    HW148042   1.929   4.478   0.682
12138SOL    HW248043   2.050   4.567   0.663
12139SOL     OW48044   1.488   2.687  17.882
12139SOL    HW148045   1.401   2.705  17.847
12139SOL    HW248046   1.517   2.609  17.836
12140SOL     OW48047   4.111   4.342   2.138
12140SOL    HW148048   4.154   4.382   2.062
12140SOL    HW248049   4.179   4.287   2.178
12141SOL     OW48050   0.620   0.225  22.441
12141SOL    HW148051   0.566   0.183  22.374
12141SOL    HW248052   0.569   0.302  22.468
12142SOL     OW48053   1.526   1.983   3.121
12142SOL    HW148054   1.550   2.045   3.053
12142SOL    HW248055   1.431   1.991   3.129
12143SOL     OW48056   0.574   4.186   8.919
12143SOL    HW148057   0.486   4.158   8.946
12143SOL    HW248058   0.600   4.251   8.985
12144SOL     OW48059   3.249   3.118   7.501
12144SOL    HW148060   3.335   3.159   7.490
12144SOL    HW248061   3.189   3.174   7.452
12145SOL     OW48062   2.839   0.094  20.108
12145SOL    HW148063   2.854   0.132  20.195
12145SOL    HW248064   2.747   0.067  20.109
12146SOL     OW48065   0.921   1.970  19.886
12146SOL    HW148066   0.858   1.986  19.957
12146SOL    HW248067   0.868   1.973  19.806
12147SOL     OW48068   0.748   0.529   5.826
12147SOL    HW148069   0.681   0.595   5.811
12147SOL    HW248070   0.791   0.519   5.741
12148SOL     OW48071   1.983   1.362   5.996
12148SOL    HW148072   2.047   1.308   5.950
12148SOL    HW248073   2.005   1.452   5.972
12149SOL     OW48074   3.508   2.204  18.353
12149SOL    HW148075   3.492   2.298  18.351
12149SOL    HW248076   3.451   2.168  18.285
12150SOL     OW48077   2.917   3.661   9.844
12150SOL    HW148078   2.898   3.750   9.874
12150SOL    HW248079   3.010   3.649   9.862
12151SOL     OW48080   2.385   2.747  27.647
12151SOL    HW148081   2.342   2.820  27.602
12151SOL    HW248082   2.477   2.754  27.622
12152SOL     OW48083   0.938   0.364   3.209
12152SOL    HW148084   0.935   0.277   3.170
12152SOL    HW248085   1.020   0.402   3.177
12153SOL     OW48086   4.673   2.527  18.311
12153SOL    HW148087   4.639   2.473  18.383
12153SOL    HW248088   4.762   2.495  18.298
12154SOL     OW48089   0.848   3.859  26.945
12154SOL    HW148090   0.921   3.818  26.991
12154SOL    HW248091   0.779   3.793  26.946
12155SOL     OW48092   3.549   1.861  17.161
12155SOL    HW148093   3.481   1.793  17.160
12155SOL    HW248094   3.513   1.931  17.106
12156SOL     OW48095   0.068   2.943   5.623
12156SOL    HW148096   0.068   2.907   5.712
12156SOL    HW248097   0.006   2.888   5.575
12157SOL     OW48098   2.767   4.517   5.197
12157SOL    HW148099   2.753   4.470   5.279
12157SOL    HW248100   2.744   4.608   5.217
12158SOL     OW48101   3.945   3.292  25.099
12158SOL    HW148102   4.017   3.298  25.036
12158SOL    HW248103   3.868   3.320  25.050
12159SOL     OW48104   3.697   4.135  20.550
12159SOL    HW148105   3.765   4.168  20.608
12159SOL    HW248106   3.620   4.124  20.606
12160SOL     OW48107   4.742   1.726   7.277
12160SOL    HW148108   4.776   1.815   7.275
12160SOL    HW248109   4.665   1.729   7.220
12161SOL     OW48110   4.118   2.152  23.910
12161SOL    HW148111   4.076   2.229  23.947
12161SOL    HW248112   4.101   2.082  23.973
12162SOL     OW48113   1.023   1.667  24.547
12162SOL    HW148114   1.100   1.688  24.494
12162SOL    HW248115   0.985   1.752  24.569
12163SOL     OW48116   3.891   3.601   6.942
12163SOL    HW148117   3.835   3.627   6.869
12163SOL    HW248118   3.846   3.526   6.981
12164SOL     OW48119   4.670   0.368  27.567
12164SOL    HW148120   4.651   0.279  27.596
12164SOL    HW248121   4.765   0.376  27.577
12165SOL     OW48122   3.941   2.538  17.486
12165SOL    HW148123   3.884   2.467  17.458
12165SOL    HW248124   4.023   2.495  17.510
12166SOL     OW48125   2.571   3.897  26.681
12166SOL    HW148126   2.588   3.962  26.613
12166SOL    HW248127   2.567   3.948  26.762
12167SOL     OW48128   2.383   0.101  10.180
12167SOL    HW148129   2.372   0.014  10.219
12167SOL    HW248130   2.473   0.125  10.200
12168SOL     OW48131   3.095   0.799   6.910
12168SOL    HW148132   3.003   0.774   6.913
12168SOL    HW248133   3.099   0.880   6.960
12169SOL     OW48134   2.454   3.843  20.150
12169SOL    HW148135   2.360   3.847  20.133
12169SOL    HW248136   2.467   3.760  20.196
12170SOL     OW48137   1.816   1.862  10.278
12170SOL    HW148138   1.751   1.910  10.226
12170SOL    HW248139   1.897   1.912  10.267
12171SOL     OW48140   2.329   2.619   4.240
12171SOL    HW148141   2.276   2.562   4.184
12171SOL    HW248142   2.317   2.584   4.328
12172SOL     OW48143   4.229   0.187   9.487
12172SOL    HW148144   4.135   0.169   9.492
12172SOL    HW248145   4.268   0.129   9.553
12173SOL     OW48146   0.441   3.629  23.093
12173SOL    HW148147   0.390   3.563  23.140
12173SOL    HW248148   0.375   3.684  23.051
12174SOL     OW48149   0.822   1.191  24.256
12174SOL    HW148150   0.847   1.283  24.267
12174SOL    HW248151   0.755   1.176  24.323
12175SOL     OW48152   3.035   4.422   5.768
12175SOL    HW148153   3.068   4.462   5.688
12175SOL    HW248154   2.975   4.487   5.805
12176SOL     OW48155   3.615   2.283   7.103
12176SOL    HW148156   3.532   2.310   7.143
12176SOL    HW248157   3.658   2.365   7.079
12177SOL     OW48158   0.016   1.171  25.101
12177SOL    HW148159   4.753   1.164  25.016
12177SOL    HW248160   4.743   1.233  25.151
12178SOL     OW48161   3.177   2.883   4.170
12178SOL    HW148162   3.083   2.879   4.188
12178SOL    HW248163   3.211   2.800   4.204
12179SOL     OW48164   3.119   1.188   1.544
12179SOL    HW148165   3.082   1.263   1.591
12179SOL    HW248166   3.173   1.143   1.609
12180SOL     OW48167   4.228   1.442   1.158
12180SOL    HW148168   4.162   1.456   1.226
12180SOL    HW248169   4.309   1.474   1.197
12181SOL     OW48170   3.829   4.076  11.528
12181SOL    HW148171   3.831   3.982  11.544
12181SOL    HW248172   3.782   4.112  11.603
12182SOL     OW48173   1.577   1.697  19.865
12182SOL    HW148174   1.649   1.693  19.802
12182SOL    HW248175   1.609   1.755  19.934
12183SOL     OW48176   0.005   1.963  19.302
12183SOL    HW148177   0.000   1.896  19.371
12183SOL    HW248178   4.729   1.930  19.233
12184SOL     OW48179   0.748   4.226  25.907
12184SOL    HW148180   0.795   4.231  25.824
12184SOL    HW248181   0.770   4.307  25.952
12185SOL     OW48182   4.008   0.454   2.473
12185SOL    HW148183   3.949   0.406   2.415
12185SOL    HW248184   4.093   0.452   2.429
12186SOL     OW48185   0.889   4.172  11.616
12186SOL    HW148186   0.828   4.152  11.687
12186SOL    HW248187   0.929   4.255  11.641
12187SOL     OW48188   0.657   2.929  27.518
12187SOL    HW148189   0.614   2.950  27.601
12187SOL    HW248190   0.585   2.906  27.459
12188SOL     OW48191   3.107   3.887  22.984
12188SOL    HW148192   3.105   3.793  22.968
12188SOL    HW248193   3.085   3.927  22.900
12189SOL     OW48194   0.419   1.912  10.557
12189SOL    HW148195   0.371   1.833  10.581
12189SOL    HW248196   0.454   1.946  10.640
12190SOL     OW48197   4.447   2.117   4.357
12190SOL    HW148198   4.361   2.076   4.350
12190SOL    HW248199   4.502   2.070   4.295
12191SOL     OW48200   3.035   1.201  22.926
12191SOL    HW148201   3.121   1.207  22.968
12191SOL    HW248202   3.054   1.174  22.836
12192SOL     OW48203   0.938   3.677  17.466
12192SOL    HW148204   0.892   3.761  17.461
12192SOL    HW248205   0.992   3.674  17.387
12193SOL     OW48206   0.800   0.907  18.701
12193SOL    HW148207   0.733   0.956  18.653
12193SOL    HW248208   0.881   0.926  18.654
12194SOL     OW48209   1.932   0.384  26.956
12194SOL    HW148210   1.903   0.464  26.912
12194SOL    HW248211   1.852   0.346  26.993
12195SOL     OW48212   3.557   2.807   6.557
12195SOL    HW148213   3.579   2.818   6.465
12195SOL    HW248214   3.551   2.896   6.592
12196SOL     OW48215   2.383   1.950   3.854
12196SOL    HW148216   2.365   2.043   3.839
12196SOL    HW248217   2.303   1.916   3.893
12197SOL     OW48218   0.502   3.816  21.270
12197SOL    HW148219   0.481   3.830  21.362
12197SOL    HW248220   0.439   3.870  21.223
12198SOL     OW48221   1.723   0.018  27.027
12198SOL    HW148222   1.698   0.109  27.011
12198SOL    HW248223   1.640   4.751  27.024
12199SOL     OW48224   1.139   1.661  23.564
12199SOL    HW148225   1.166   1.656  23.656
12199SOL    HW248226   1.105   1.750  23.554
12200SOL     OW48227   2.507   3.260   1.271
12200SOL    HW148228   2.501   3.279   1.365
12200SOL    HW248229   2.438   3.313   1.231
12201SOL     OW48230   2.155   1.364   8.610
12201SOL    HW148231   2.246   1.394   8.617
12201SOL    HW248232   2.158   1.271   8.632
12202SOL     OW48233   2.902   3.874  22.003
12202SOL    HW148234   2.813   3.858  22.033
12202SOL    HW248235   2.950   3.795  22.027
12203SOL     OW48236   0.872   1.059  20.767
12203SOL    HW148237   0.851   0.975  20.727
12203SOL    HW248238   0.889   1.038  20.859
12204SOL     OW48239   0.748   1.054   9.122
12204SOL    HW148240   0.777   1.025   9.209
12204SOL    HW248241   0.749   0.975   9.069
12205SOL     OW48242   3.419   4.605  24.744
12205SOL    HW148243   3.392   4.682  24.794
12205SOL    HW248244   3.346   4.590  24.684
12206SOL     OW48245   3.185   4.071   6.488
12206SOL    HW148246   3.169   4.076   6.582
12206SOL    HW248247   3.149   4.152   6.453
12207SOL     OW48248   4.271   1.571   9.279
12207SOL    HW148249   4.338   1.506   9.299
12207SOL    HW248250   4.213   1.528   9.217
12208SOL     OW48251   4.206   1.326   8.069
12208SOL    HW148252   4.188   1.411   8.109
12208SOL    HW248253   4.176   1.335   7.979
12209SOL     OW48254   1.507   1.338   9.023
12209SOL    HW148255   1.492   1.385   9.105
12209SOL    HW248256   1.426   1.349   8.974
12210SOL     OW48257   4.650   0.409  24.192
12210SOL    HW148258   4.573   0.371  24.234
12210SOL    HW248259   4.617   0.447  24.111
12211SOL     OW48260   3.518   0.959  25.998
12211SOL    HW148261   3.496   0.949  26.091
12211SOL    HW248262   3.473   1.039  25.971
12212SOL     OW48263   2.747   2.960   8.575
12212SOL    HW148264   2.824   3.000   8.535
12212SOL    HW248265   2.765   2.962   8.669
12213SOL     OW48266   3.835   4.648  19.887
12213SOL    HW148267   3.798   4.696  19.813
12213SOL    HW248268   3.923   4.684  19.897
12214SOL     OW48269   1.306   1.987   3.409
12214SOL    HW148270   1.270   2.075   3.420
12214SOL    HW248271   1.396   1.994   3.441
12215SOL     OW48272   0.007   0.151   1.582
12215SOL    HW148273   0.046   0.229   1.544
12215SOL    HW248274   4.761   0.098   1.507
12216SOL     OW48275   4.092   0.934  21.832
12216SOL    HW148276   4.110   0.902  21.744
12216SOL    HW248277   4.070   0.856  21.882
12217SOL     OW48278   0.553   3.766   6.735
12217SOL    HW148279   0.512   3.680   6.740
12217SOL    HW248280   0.618   3.766   6.805
12218SOL     OW48281   3.782   1.228   6.842
12218SOL    HW148282   3.707   1.266   6.888
12218SOL    HW248283   3.854   1.289   6.859
12219SOL     OW48284   3.444   3.546  22.877
12219SOL    HW148285   3.479   3.458  22.891
12219SOL    HW248286   3.357   3.532  22.840
12220SOL     OW48287   3.522   0.751   7.646
12220SOL    HW148288   3.613   0.768   7.670
12220SOL    HW248289   3.475   0.749   7.729
12221SOL     OW48290   3.141   3.867  27.539
12221SOL    HW148291   3.124   3.858  27.445
12221SOL    HW248292   3.061   3.836  27.581
12222SOL     OW48293   1.974   3.039   3.457
12222SOL    HW148294   1.919   3.015   3.531
12222SOL    HW248295   1.992   2.956   3.412
12223SOL     OW48296   0.587   0.439  22.836
12223SOL    HW148297   0.638   0.506  22.881
12223SOL    HW248298   0.527   0.406  22.903
12224SOL     OW48299   1.802   4.506   8.571
12224SOL    HW148300   1.802   4.565   8.496
12224SOL    HW248301   1.721   4.456   8.562
12225SOL     OW48302   3.299   4.373   4.772
12225SOL    HW148303   3.382   4.380   4.725
12225SOL    HW248304   3.244   4.318   4.716
12226SOL     OW48305   4.575   3.707  22.178
12226SOL    HW148306   4.578   3.685  22.085
12226SOL    HW248307   4.620   3.791  22.184
12227SOL     OW48308   2.257   1.116  24.977
12227SOL    HW148309   2.172   1.143  24.943
12227SOL    HW248310   2.319   1.179  24.940
12228SOL     OW48311   0.399   1.101  24.417
12228SOL    HW148312   0.448   1.077  24.496
12228SOL    HW248313   0.386   1.018  24.371
12229SOL     OW48314   2.659   3.496  22.967
12229SOL    HW148315   2.728   3.535  23.021
12229SOL    HW248316   2.609   3.571  22.935
12230SOL     OW48317   4.334   3.950  27.524
12230SOL    HW148318   4.408   3.898  27.556
12230SOL    HW248319   4.260   3.889  27.523
12231SOL     OW48320   2.008   2.688   1.359
12231SOL    HW148321   1.999   2.775   1.398
12231SOL    HW248322   1.925   2.673   1.314
12232SOL     OW48323   4.080   3.261   4.943
12232SOL    HW148324   4.156   3.226   4.896
12232SOL    HW248325   4.103   3.253   5.035
12233SOL     OW48326   1.824   1.818   8.511
12233SOL    HW148327   1.863   1.790   8.428
12233SOL    HW248328   1.815   1.913   8.502
12234SOL     OW48329   0.538   0.684   8.102
12234SOL    HW148330   0.517   0.623   8.031
12234SOL    HW248331   0.472   0.667   8.169
12235SOL     OW48332   2.795   2.671   4.383
12235SOL    HW148333   2.727   2.666   4.315
12235SOL    HW248334   2.806   2.581   4.412
12236SOL     OW48335   1.421   3.225   0.557
12236SOL    HW148336   1.335   3.226   0.599
12236SOL    HW248337   1.459   3.141   0.584
12237SOL     OW48338   0.482   2.676  28.134
12237SOL    HW148339   0.561   2.680  28.188
12237SOL    HW248340   0.508   2.716  28.051
12238SOL     OW48341   3.520   2.704  22.353
12238SOL    HW148342   3.577   2.769  22.394
12238SOL    HW248343   3.438   2.709  22.402
12239SOL     OW48344   1.365   2.617   8.202
12239SOL    HW148345   1.412   2.535   8.216
12239SOL    HW248346   1.313   2.602   8.123
12240SOL     OW48347   3.518   4.564   8.697
12240SOL    HW148348   3.612   4.568   8.679
12240SOL    HW248349   3.477   4.549   8.612
12241SOL     OW48350   1.227   4.194  22.313
12241SOL    HW148351   1.314   4.229  22.332
12241SOL    HW248352   1.167   4.251  22.362
12242SOL     OW48353   2.845   0.668   2.223
12242SOL    HW148354   2.864   0.748   2.273
12242SOL    HW248355   2.777   0.694   2.161
12243SOL     OW48356   2.167   3.763   9.430
12243SOL    HW148357   2.135   3.790   9.344
12243SOL    HW248358   2.176   3.845   9.479
12244SOL     OW48359   3.909   3.881  19.870
12244SOL    HW148360   3.963   3.894  19.948
12244SOL    HW248361   3.966   3.905  19.797
12245SOL     OW48362   2.261   1.197   0.213
12245SOL    HW148363   2.220   1.157   0.137
12245SOL    HW248364   2.309   1.272   0.178
12246SOL     OW48365   0.715   2.579  25.251
12246SOL    HW148366   0.782   2.540  25.195
12246SOL    HW248367   0.644   2.515  25.251
12247SOL     OW48368   1.148   0.277   4.166
12247SOL    HW148369   1.129   0.197   4.117
12247SOL    HW248370   1.072   0.289   4.223
12248SOL     OW48371   2.419   1.805  22.659
12248SOL    HW148372   2.353   1.736  22.647
12248SOL    HW248373   2.487   1.764  22.712
12249SOL     OW48374   3.011   0.556   8.633
12249SOL    HW148375   3.064   0.477   8.632
12249SOL    HW248376   3.020   0.591   8.722
12250SOL     OW48377   0.694   0.169   9.171
12250SOL    HW148378   0.697   0.087   9.220
12250SOL    HW248379   0.738   0.232   9.228
12251SOL     OW48380   4.276   2.365   0.924
12251SOL    HW148381   4.218   2.435   0.893
12251SOL    HW248382   4.270   2.297   0.856
12252SOL     OW48383   2.714   2.657   1.379
12252SOL    HW148384   2.627   2.618   1.379
12252SOL    HW248385   2.702   2.743   1.419
12253SOL     OW48386   0.063   2.128   1.524
12253SOL    HW148387   0.141   2.180   1.541
12253SOL    HW248388   4.771   2.185   1.547
12254SOL     OW48389   0.189   3.092  25.916
12254SOL    HW148390   0.200   3.108  26.010
12254SOL    HW248391   0.278   3.087  25.882
12255SOL     OW48392   1.603   3.416  23.895
12255SOL    HW148393   1.569   3.365  23.822
12255SOL    HW248394   1.630   3.499  23.855
12256SOL     OW48395   4.376   0.103   3.911
12256SOL    HW148396   4.461   0.146   3.900
12256SOL    HW248397   4.396   0.024   3.961
12257SOL     OW48398   0.548   3.381  19.644
12257SOL    HW148399   0.484   3.384  19.715
12257SOL    HW248400   0.586   3.469  19.641
12258SOL     OW48401   2.266   4.127  28.349
12258SOL    HW148402   2.233   4.186  28.281
12258SOL    HW248403   2.262   4.040  28.309
12259SOL     OW48404   4.602   1.232   2.581
12259SOL    HW148405   4.510   1.258   2.582
12259SOL    HW248406   4.600   1.138   2.565
12260SOL     OW48407   2.960   2.713   9.988
12260SOL    HW148408   2.951   2.723  10.083
12260SOL    HW248409   2.970   2.619   9.974
12261SOL     OW48410   2.082   0.649  27.432
12261SOL    HW148411   2.146   0.674  27.365
12261SOL    HW248412   2.130   0.589  27.489
12262SOL     OW48413   0.265   0.330  23.901
12262SOL    HW148414   0.249   0.329  23.995
12262SOL    HW248415   0.200   0.269  23.866
12263SOL     OW48416   3.345   0.957   4.670
12263SOL    HW148417   3.284   1.031   4.666
12263SOL    HW248418   3.428   0.992   4.638
12264SOL     OW48419   0.633   2.201  27.078
12264SOL    HW148420   0.650   2.294  27.092
12264SOL    HW248421   0.545   2.187  27.114
12265SOL     OW48422   1.101   1.563  18.483
12265SOL    HW148423   1.078   1.636  18.426
12265SOL    HW248424   1.097   1.486  18.426
12266SOL     OW48425   0.747   2.325   1.600
12266SOL    HW148426   0.825   2.380   1.598
12266SOL    HW248427   0.763   2.264   1.672
12267SOL     OW48428   1.192   3.544  26.216
12267SOL    HW148429   1.215   3.493  26.138
12267SOL    HW248430   1.121   3.495  26.257
12268SOL     OW48431   1.425   0.189   6.777
12268SOL    HW148432   1.332   0.198   6.796
12268SOL    HW248433   1.444   0.097   6.794
12269SOL     OW48434   0.721   1.818  25.818
12269SOL    HW148435   0.628   1.823  25.795
12269SOL    HW248436   0.747   1.909  25.832
12270SOL     OW48437   3.793   3.618  11.461
12270SOL    HW148438   3.886   3.638  11.454
12270SOL    HW248439   3.790   3.525  11.484
12271SOL     OW48440   0.612   4.381   3.138
12271SOL    HW148441   0.653   4.342   3.061
12271SOL    HW248442   0.647   4.470   3.141
12272SOL     OW48443   2.172   3.907  20.115
12272SOL    HW148444   2.172   3.974  20.184
12272SOL    HW248445   2.081   3.901  20.087
12273SOL     OW48446   2.743   0.022   2.161
12273SOL    HW148447   2.784   4.721   2.133
12273SOL    HW248448   2.763   0.028   2.254
12274SOL     OW48449   4.571   1.338  10.140
12274SOL    HW148450   4.641   1.365  10.199
12274SOL    HW248451   4.490   1.355  10.188
12275SOL     OW48452   2.144   4.558   5.830
12275SOL    HW148453   2.196   4.523   5.757
12275SOL    HW248454   2.093   4.483   5.861
12276SOL     OW48455   2.467   1.572   2.663
12276SOL    HW148456   2.555   1.581   2.700
12276SOL    HW248457   2.478   1.513   2.588
12277SOL     OW48458   4.016   2.357  24.639
12277SOL    HW148459   3.997   2.271  24.601
12277SOL    HW248460   4.028   2.340  24.732
12278SOL     OW48461   1.702   1.571   2.653
12278SOL    HW148462   1.702   1.487   2.608
12278SOL    HW248463   1.610   1.590   2.670
12279SOL     OW48464   0.443   3.510   5.476
12279SOL    HW148465   0.492   3.572   5.423
12279SOL    HW248466   0.402   3.451   5.412
12280SOL     OW48467   2.247   3.776  25.580
12280SOL    HW148468   2.311   3.744  25.516
12280SOL    HW248469   2.204   3.697  25.613
12281SOL     OW48470   4.724   0.453  23.109
12281SOL    HW148471   4.649   0.415  23.155
12281SOL    HW248472   4.721   0.546  23.131
12282SOL     OW48473   3.602   0.937  27.156
12282SOL    HW148474   3.543   0.933  27.080
12282SOL    HW248475   3.655   0.857  27.149
12283SOL     OW48476   1.480   4.263  26.195
12283SOL    HW148477   1.421   4.311  26.254
12283SOL    HW248478   1.496   4.180  26.240
12284SOL     OW48479   4.605   0.524  17.474
12284SOL    HW148480   4.697   0.498  17.470
12284SOL    HW248481   4.557   0.451  17.435
12285SOL     OW48482   1.447   4.323   8.250
12285SOL    HW148483   1.370   4.269   8.236
12285SOL    HW248484   1.516   4.280   8.201
12286SOL     OW48485   4.417   3.096  22.786
12286SOL    HW148486   4.398   3.114  22.878
12286SOL    HW248487   4.485   3.028  22.789
12287SOL     OW48488   1.620   0.656  25.078
12287SOL    HW148489   1.569   0.659  24.997
12287SOL    HW248490   1.580   0.723  25.134
12288SOL     OW48491   3.645   3.831   8.228
12288SOL    HW148492   3.684   3.796   8.308
12288SOL    HW248493   3.652   3.759   8.165
12289SOL     OW48494   2.405   1.138  21.847
12289SOL    HW148495   2.359   1.211  21.888
12289SOL    HW248496   2.339   1.097  21.792
12290SOL     OW48497   3.748   2.552   7.027
12290SOL    HW148498   3.816   2.549   7.094
12290SOL    HW248499   3.777   2.620   6.966
12291SOL     OW48500   2.897   2.447   2.082
12291SOL    HW148501   2.913   2.431   2.175
12291SOL    HW248502   2.957   2.517   2.059
12292SOL     OW48503   0.408   2.714  21.376
12292SOL    HW148504   0.460   2.698  21.297
12292SOL    HW248505   0.326   2.750  21.343
12293SOL     OW48506   4.454   0.432   0.205
12293SOL    HW148507   4.419   0.373   0.271
12293SOL    HW248508   4.547   0.438   0.225
12294SOL     OW48509   2.199   1.955  28.224
12294SOL    HW148510   2.209   1.876  28.170
12294SOL    HW248511   2.105   1.972  28.224
12295SOL     OW48512   4.763   0.527   6.688
12295SOL    HW148513   0.023   0.530   6.775
12295SOL    HW248514   4.670   0.516   6.705
12296SOL     OW48515   1.609   1.755  16.990
12296SOL    HW148516   1.699   1.786  16.983
12296SOL    HW248517   1.586   1.727  16.901
12297SOL     OW48518   4.120   1.585   3.585
12297SOL    HW148519   4.184   1.656   3.590
12297SOL    HW248520   4.098   1.579   3.492
12298SOL     OW48521   2.248   0.975   8.023
12298SOL    HW148522   2.185   1.024   8.077
12298SOL    HW248523   2.227   1.001   7.933
12299SOL     OW48524   3.110   0.314  26.160
12299SOL    HW148525   3.115   0.390  26.218
12299SOL    HW248526   3.201   0.295  26.136
12300SOL     OW48527   0.166   0.456   9.388
12300SOL    HW148528   0.214   0.401   9.326
12300SOL    HW248529   0.221   0.534   9.398
12301SOL     OW48530   4.055   2.639  24.107
12301SOL    HW148531   4.118   2.696  24.063
12301SOL    HW248532   4.065   2.660  24.200
12302SOL     OW48533   3.094   3.478  24.994
12302SOL    HW148534   3.053   3.529  25.064
12302SOL    HW248535   3.033   3.406  24.979
12303SOL     OW48536   3.274   3.662  26.241
12303SOL    HW148537   3.281   3.715  26.162
12303SOL    HW248538   3.322   3.712  26.307
12304SOL     OW48539   2.516   2.647   1.027
12304SOL    HW148540   2.511   2.644   1.122
12304SOL    HW248541   2.587   2.708   1.009
12305SOL     OW48542   1.336   1.028   5.405
12305SOL    HW148543   1.369   1.005   5.492
12305SOL    HW248544   1.261   1.085   5.423
12306SOL     OW48545   2.287   2.926  26.614
12306SOL    HW148546   2.283   2.860  26.684
12306SOL    HW248547   2.371   2.911  26.572
12307SOL     OW48548   4.530   3.419  23.261
12307SOL    HW148549   4.563   3.330  23.253
12307SOL    HW248550   4.484   3.419  23.345
12308SOL     OW48551   4.342   0.288  26.429
12308SOL    HW148552   4.342   0.239  26.511
12308SOL    HW248553   4.398   0.237  26.370
12309SOL     OW48554   2.949   3.524   9.234
12309SOL    HW148555   2.999   3.603   9.255
12309SOL    HW248556   2.928   3.532   9.141
12310SOL     OW48557   1.695   2.383   8.802
12310SOL    HW148558   1.733   2.296   8.813
12310SOL    HW248559   1.667   2.408   8.890
12311SOL     OW48560   0.149   3.307  23.526
12311SOL    HW148561   0.064   3.342  23.552
12311SOL    HW248562   0.211   3.376  23.548
12312SOL     OW48563   3.571   1.091  27.388
12312SOL    HW148564   3.661   1.098  27.420
12312SOL    HW248565   3.577   1.039  27.308
12313SOL     OW48566   1.080   3.083   6.979
12313SOL    HW148567   1.132   3.004   6.992
12313SOL    HW248568   1.140   3.155   7.000
12314SOL     OW48569   4.325   1.560  24.993
12314SOL    HW148570   4.347   1.497  25.061
12314SOL    HW248571   4.364   1.642  25.023
12315SOL     OW48572   2.923   3.187  17.841
12315SOL    HW148573   2.913   3.093  17.828
12315SOL    HW248574   3.015   3.205  17.820
12316SOL     OW48575   2.046   3.387  23.925
12316SOL    HW148576   2.115   3.332  23.963
12316SOL    HW248577   2.090   3.469  23.903
12317SOL     OW48578   1.245   3.251   7.790
12317SOL    HW148579   1.294   3.303   7.853
12317SOL    HW248580   1.301   3.176   7.771
12318SOL     OW48581   2.112   2.669   7.958
12318SOL    HW148582   2.078   2.733   7.895
12318SOL    HW248583   2.130   2.720   8.037
12319SOL     OW48584   3.110   0.536  25.546
12319SOL    HW148585   3.104   0.449  25.506
12319SOL    HW248586   3.020   0.556  25.573
12320SOL     OW48587   0.545   3.588  27.414
12320SOL    HW148588   0.531   3.499  27.380
12320SOL    HW248589   0.501   3.589  27.499
12321SOL     OW48590   1.002   2.449   8.174
12321SOL    HW148591   1.028   2.360   8.149
12321SOL    HW248592   0.916   2.461   8.133
12322SOL     OW48593   3.899   2.436   5.038
12322SOL    HW148594   3.868   2.349   5.064
12322SOL    HW248595   3.819   2.487   5.025
12323SOL     OW48596   1.608   1.698  22.152
12323SOL    HW148597   1.557   1.672  22.076
12323SOL    HW248598   1.585   1.790  22.166
12324SOL     OW48599   0.307   2.371  24.052
12324SOL    HW148600   0.389   2.325  24.072
12324SOL    HW248601   0.289   2.424  24.130
12325SOL     OW48602   1.521   0.237   6.136
12325SOL    HW148603   1.454   0.294   6.175
12325SOL    HW248604   1.552   0.184   6.209
12326SOL     OW48605   1.505   4.754   7.655
12326SOL    HW148606   1.507   0.054   7.706
12326SOL    HW248607   1.597   4.731   7.644
12327SOL     OW48608   4.030   0.641  24.724
12327SOL    HW148609   4.107   0.675  24.677
12327SOL    HW248610   4.065   0.574  24.782
12328SOL     OW48611   2.475   4.124  21.637
12328SOL    HW148612   2.521   4.157  21.714
12328SOL    HW248613   2.485   4.193  21.571
12329SOL     OW48614   3.543   0.613  26.243
12329SOL    HW148615   3.531   0.596  26.150
12329SOL    HW248616   3.628   0.575  26.264
12330SOL     OW48617   0.686   2.430  24.307
12330SOL    HW148618   0.631   2.456  24.381
12330SOL    HW248619   0.698   2.336  24.319
12331SOL     OW48620   2.876   3.200  26.088
12331SOL    HW148621   2.831   3.283  26.104
12331SOL    HW248622   2.806   3.135  26.082
12332SOL     OW48623   1.584   0.230   7.264
12332SOL    HW148624   1.589   0.312   7.313
12332SOL    HW248625   1.636   0.168   7.316
12333SOL     OW48626   0.956   4.463   7.211
12333SOL    HW148627   0.862   4.463   7.193
12333SOL    HW248628   0.979   4.371   7.220
12334SOL     OW48629   3.320   1.338   7.994
12334SOL    HW148630   3.332   1.265   8.055
12334SOL    HW248631   3.353   1.305   7.910
12335SOL     OW48632   3.624   4.226  25.123
12335SOL    HW148633   3.620   4.301  25.064
12335SOL    HW248634   3.588   4.154  25.072
12336SOL     OW48635   1.080   3.313   1.034
12336SOL    HW148636   1.168   3.326   1.069
12336SOL    HW248637   1.033   3.268   1.104
12337SOL     OW48638   4.229   2.440   3.634
12337SOL    HW148639   4.176   2.367   3.603
12337SOL    HW248640   4.222   2.506   3.565
12338SOL     OW48641   2.251   4.299   0.408
12338SOL    HW148642   2.282   4.253   0.330
12338SOL    HW248643   2.159   4.273   0.416
12339SOL     OW48644   3.999   4.284  19.854
12339SOL    HW148645   4.048   4.227  19.914
12339SOL    HW248646   4.046   4.278  19.771
12340SOL     OW48647   3.722   4.649  27.058
12340SOL    HW148648   3.634   4.638  27.021
12340SOL    HW248649   3.706   4.682  27.146
12341SOL     OW48650   2.566   3.441  19.214
12341SOL    HW148651   2.587   3.531  19.188
12341SOL    HW248652   2.532   3.400  19.135
12342SOL     OW48653   2.930   1.204   6.023
12342SOL    HW148654   2.939   1.297   6.000
12342SOL    HW248655   2.863   1.171   5.963
12343SOL     OW48656   1.268   1.637   7.946
12343SOL    HW148657   1.235   1.705   8.005
12343SOL    HW248658   1.359   1.662   7.930
12344SOL     OW48659   0.740   4.530  18.728
12344SOL    HW148660   0.784   4.513  18.811
12344SOL    HW248661   0.648   4.540  18.751
12345SOL     OW48662   2.793   1.528  25.485
12345SOL    HW148663   2.719   1.495  25.536
12345SOL    HW248664   2.844   1.450  25.464
12346SOL     OW48665   0.468   0.985  26.649
12346SOL    HW148666   0.485   1.047  26.720
12346SOL    HW248667   0.555   0.956  26.621
12347SOL     OW48668   2.213   3.957  18.796
12347SOL    HW148669   2.258   3.896  18.737
12347SOL    HW248670   2.259   3.948  18.879
12348SOL     OW48671   1.956   4.565  20.353
12348SOL    HW148672   1.865   4.578  20.325
12348SOL    HW248673   2.009   4.603  20.282
12349SOL     OW48674   0.258   1.547   7.008
12349SOL    HW148675   0.188   1.521   7.068
12349SOL    HW248676   0.297   1.465   6.979
12350SOL     OW48677   0.581   2.457   0.500
12350SOL    HW148678   0.634   2.379   0.483
12350SOL    HW248679   0.502   2.444   0.448
12351SOL     OW48680   3.669   0.682  19.003
12351SOL    HW148681   3.605   0.686  19.074
12351SOL    HW248682   3.630   0.623  18.939
12352SOL     OW48683   1.002   2.717  21.827
12352SOL    HW148684   1.063   2.693  21.897
12352SOL    HW248685   1.050   2.697  21.746
12353SOL     OW48686   2.581   3.047   3.397
12353SOL    HW148687   2.567   3.054   3.492
12353SOL    HW248688   2.500   3.082   3.359
12354SOL     OW48689   1.016   2.074  22.944
12354SOL    HW148690   0.967   2.021  23.006
12354SOL    HW248691   1.062   2.010  22.889
12355SOL     OW48692   2.770   1.669  24.173
12355SOL    HW148693   2.805   1.655  24.085
12355SOL    HW248694   2.686   1.712  24.158
12356SOL     OW48695   1.405   3.843  17.969
12356SOL    HW148696   1.335   3.792  17.928
12356SOL    HW248697   1.403   3.927  17.923
12357SOL     OW48698   2.589   1.480   5.457
12357SOL    HW148699   2.668   1.434   5.485
12357SOL    HW248700   2.531   1.410   5.427
12358SOL     OW48701   4.463   1.093  10.143
12358SOL    HW148702   4.414   1.104  10.061
12358SOL    HW248703   4.536   1.155  10.135
12359SOL     OW48704   1.559   0.733  24.792
12359SOL    HW148705   1.501   0.764  24.722
12359SOL    HW248706   1.573   0.810  24.847
12360SOL     OW48707   0.426   2.877   0.056
12360SOL    HW148708   0.394   2.819   0.125
12360SOL    HW248709   0.400   2.965   0.084
12361SOL     OW48710   4.409   3.869   2.866
12361SOL    HW148711   4.322   3.897   2.838
12361SOL    HW248712   4.434   3.933   2.933
12362SOL     OW48713   1.224   3.862   8.694
12362SOL    HW148714   1.196   3.832   8.780
12362SOL    HW248715   1.308   3.819   8.680
12363SOL     OW48716   3.600   0.299  20.363
12363SOL    HW148717   3.575   0.388  20.338
12363SOL    HW248718   3.616   0.255  20.280
12364SOL     OW48719   4.248   3.410   3.788
12364SOL    HW148720   4.318   3.406   3.723
12364SOL    HW248721   4.228   3.318   3.806
12365SOL     OW48722   3.729   3.309  26.020
12365SOL    HW148723   3.647   3.342  26.056
12365SOL    HW248724   3.711   3.217  26.000
12366SOL     OW48725   0.963   4.324   6.525
12366SOL    HW148726   1.039   4.345   6.579
12366SOL    HW248727   0.937   4.407   6.486
12367SOL     OW48728   3.925   3.871   2.264
12367SOL    HW148729   3.968   3.952   2.292
12367SOL    HW248730   3.997   3.811   2.245
12368SOL     OW48731   1.773   0.597  24.257
12368SOL    HW148732   1.740   0.512  24.230
12368SOL    HW248733   1.700   0.657  24.243
12369SOL     OW48734   1.312   2.959  27.660
12369SOL    HW148735   1.397   2.979  27.622
12369SOL    HW248736   1.310   3.009  27.742
12370SOL     OW48737   2.052   2.091   5.149
12370SOL    HW148738   2.147   2.099   5.136
12370SOL    HW248739   2.021   2.181   5.150
12371SOL     OW48740   3.854   1.134  27.457
12371SOL    HW148741   3.938   1.173  27.480
12371SOL    HW248742   3.856   1.129  27.361
12372SOL     OW48743   2.215   2.028  16.710
12372SOL    HW148744   2.207   1.955  16.648
12372SOL    HW248745   2.305   2.058  16.700
12373SOL     OW48746   3.212   2.245  21.509
12373SOL    HW148747   3.296   2.260  21.553
12373SOL    HW248748   3.188   2.331  21.475
12374SOL     OW48749   0.227   1.632  26.745
12374SOL    HW148750   0.282   1.608  26.820
12374SOL    HW248751   0.198   1.721  26.764
12375SOL     OW48752   1.876   2.409  26.804
12375SOL    HW148753   1.880   2.456  26.721
12375SOL    HW248754   1.905   2.473  26.869
12376SOL     OW48755   0.278   0.660   9.860
12376SOL    HW148756   0.189   0.667   9.895
12376SOL    HW248757   0.299   0.567   9.866
12377SOL     OW48758   4.021   1.344  21.093
12377SOL    HW148759   4.091   1.361  21.029
12377SOL    HW248760   4.018   1.249  21.101
12378SOL     OW48761   1.655   0.871  20.460
12378SOL    HW148762   1.613   0.909  20.383
12378SOL    HW248763   1.630   0.779  20.457
12379SOL     OW48764   3.767   0.804  23.638
12379SOL    HW148765   3.678   0.771  23.651
12379SOL    HW248766   3.756   0.883  23.585
12380SOL     OW48767   1.641   3.762   5.752
12380SOL    HW148768   1.632   3.671   5.724
12380SOL    HW248769   1.579   3.810   5.698
12381SOL     OW48770   4.697   3.950   9.322
12381SOL    HW148771   4.709   3.921   9.413
12381SOL    HW248772   4.699   4.046   9.327
12382SOL     OW48773   0.494   2.812   3.530
12382SOL    HW148774   0.498   2.747   3.460
12382SOL    HW248775   0.469   2.893   3.485
12383SOL     OW48776   3.076   4.117   6.737
12383SOL    HW148777   2.984   4.105   6.762
12383SOL    HW248778   3.112   4.175   6.804
12384SOL     OW48779   0.994   4.729   9.253
12384SOL    HW148780   1.027   0.036   9.271
12384SOL    HW248781   1.047   4.672   9.309
12385SOL     OW48782   1.417   4.324  20.709
12385SOL    HW148783   1.492   4.296  20.657
12385SOL    HW248784   1.341   4.299  20.657
12386SOL     OW48785   3.370   3.453   4.404
12386SOL    HW148786   3.450   3.484   4.361
12386SOL    HW248787   3.303   3.456   4.335
12387SOL     OW48788   4.539   3.461  27.237
12387SOL    HW148789   4.517   3.508  27.317
12387SOL    HW248790   4.464   3.403  27.222
12388SOL     OW48791   0.583   4.171   7.997
12388SOL    HW148792   0.522   4.191   8.068
12388SOL    HW248793   0.640   4.248   7.992
12389SOL     OW48794   4.010   1.156  22.786
12389SOL    HW148795   3.915   1.155  22.800
12389SOL    HW248796   4.043   1.212  22.856
12390SOL     OW48797   3.380   4.088   8.790
12390SOL    HW148798   3.418   4.031   8.723
12390SOL    HW248799   3.363   4.170   8.744
12391SOL     OW48800   0.299   2.279   7.743
12391SOL    HW148801   0.319   2.189   7.769
12391SOL    HW248802   0.272   2.322   7.824
12392SOL     OW48803   3.887   1.417   3.987
12392SOL    HW148804   3.800   1.422   3.947
12392SOL    HW248805   3.877   1.354   4.058
12393SOL     OW48806   3.666   3.628   5.846
12393SOL    HW148807   3.593   3.644   5.786
12393SOL    HW248808   3.731   3.581   5.793
12394SOL     OW48809   3.881   0.064   2.863
12394SOL    HW148810   3.802   0.038   2.816
12394SOL    HW248811   3.906   0.148   2.824
12395SOL     OW48812   3.195   0.859  20.927
12395SOL    HW148813   3.167   0.839  21.016
12395SOL    HW248814   3.115   0.888  20.883
12396SOL     OW48815   3.612   4.532   6.389
12396SOL    HW148816   3.688   4.522   6.446
12396SOL    HW248817   3.637   4.489   6.307
12397SOL     OW48818   4.705   2.585  27.739
12397SOL    HW148819   0.007   2.548  27.709
12397SOL    HW248820   4.657   2.604  27.659
12398SOL     OW48821   0.078   2.611  26.345
12398SOL    HW148822   0.012   2.660  26.296
12398SOL    HW248823   0.161   2.651  26.320
12399SOL     OW48824   2.442   2.109   5.693
12399SOL    HW148825   2.450   2.204   5.693
12399SOL    HW248826   2.460   2.083   5.783
12400SOL     OW48827   2.126   1.379  26.228
12400SOL    HW148828   2.123   1.287  26.254
12400SOL    HW248829   2.134   1.427  26.311
12401SOL     OW48830   1.329   4.266   9.825
12401SOL    HW148831   1.393   4.325   9.787
12401SOL    HW248832   1.266   4.324   9.869
12402SOL     OW48833   4.537   0.135  23.470
12402SOL    HW148834   4.507   0.143  23.561
12402SOL    HW248835   4.631   0.119  23.477
12403SOL     OW48836   0.346   2.616   3.748
12403SOL    HW148837   0.368   2.588   3.837
12403SOL    HW248838   0.273   2.677   3.759
12404SOL     OW48839   0.197   0.675  24.093
12404SOL    HW148840   0.211   0.615  24.167
12404SOL    HW248841   0.261   0.647  24.028
12405SOL     OW48842   0.254   0.251   0.108
12405SOL    HW148843   0.243   0.245   0.203
12405SOL    HW248844   0.305   0.174   0.085
12406SOL     OW48845   1.451   2.337  19.864
12406SOL    HW148846   1.374   2.281  19.859
12406SOL    HW248847   1.523   2.282  19.833
12407SOL     OW48848   2.174   2.293  11.257
12407SOL    HW148849   2.183   2.307  11.163
12407SOL    HW248850   2.193   2.200  11.269
12408SOL     OW48851   0.589   4.069   7.211
12408SOL    HW148852   0.552   4.121   7.140
12408SOL    HW248853   0.522   4.072   7.280
12409SOL     OW48854   2.910   1.231   2.360
12409SOL    HW148855   2.988   1.182   2.387
12409SOL    HW248856   2.888   1.195   2.274
12410SOL     OW48857   3.507   2.822  24.980
12410SOL    HW148858   3.495   2.730  24.955
12410SOL    HW248859   3.589   2.847  24.938
12411SOL     OW48860   0.005   2.133  19.599
12411SOL    HW148861   4.748   2.221  19.597
12411SOL    HW248862   0.097   2.146  19.575
12412SOL     OW48863   3.167   4.656  19.206
12412SOL    HW148864   3.256   4.660  19.171
12412SOL    HW248865   3.171   4.707  19.287
12413SOL     OW48866   4.479   3.746   2.257
12413SOL    HW148867   4.541   3.736   2.185
12413SOL    HW248868   4.519   3.699   2.330
12414SOL     OW48869   3.445   2.187   5.853
12414SOL    HW148870   3.501   2.264   5.845
12414SOL    HW248871   3.484   2.123   5.794
12415SOL     OW48872   1.949   1.531   3.633
12415SOL    HW148873   1.886   1.560   3.567
12415SOL    HW248874   1.906   1.550   3.717
12416SOL     OW48875   0.957   4.720  26.135
12416SOL    HW148876   0.911   4.655  26.082
12416SOL    HW248877   1.031   4.746  26.080
12417SOL     OW48878   2.092   1.040  20.226
12417SOL    HW148879   2.124   1.109  20.168
12417SOL    HW248880   1.997   1.038  20.211
12418SOL     OW48881   1.573   4.343   5.825
12418SOL    HW148882   1.666   4.354   5.804
12418SOL    HW248883   1.531   4.423   5.793
12419SOL     OW48884   3.184   3.784  26.629
12419SOL    HW148885   3.166   3.868  26.670
12419SOL    HW248886   3.156   3.719  26.694
12420SOL     OW48887   4.131   4.172   7.784
12420SOL    HW148888   4.041   4.189   7.756
12420SOL    HW248889   4.153   4.087   7.746
12421SOL     OW48890   0.373   1.411  19.377
12421SOL    HW148891   0.286   1.404  19.338
12421SOL    HW248892   0.411   1.324  19.368
12422SOL     OW48893   4.618   0.502  18.997
12422SOL    HW148894   4.642   0.536  18.911
12422SOL    HW248895   4.523   0.490  18.993
12423SOL     OW48896   2.562   4.733  28.089
12423SOL    HW148897   2.553   4.655  28.143
12423SOL    HW248898   2.495   0.012  28.121
12424SOL     OW48899   2.093   3.775   4.602
12424SOL    HW148900   2.180   3.755   4.636
12424SOL    HW248901   2.108   3.839   4.533
12425SOL     OW48902   1.387   2.119   8.623
12425SOL    HW148903   1.358   2.034   8.656
12425SOL    HW248904   1.311   2.176   8.633
12426SOL     OW48905   0.612   1.414   0.931
12426SOL    HW148906   0.524   1.378   0.936
12426SOL    HW248907   0.638   1.426   1.022
12427SOL     OW48908   2.669   2.576   2.004
12427SOL    HW148909   2.758   2.545   1.986
12427SOL    HW248910   2.612   2.508   1.968
12428SOL     OW48911   1.895   4.184   1.385
12428SOL    HW148912   1.900   4.247   1.313
12428SOL    HW248913   1.805   4.191   1.418
12429SOL     OW48914   2.012   1.244   9.799
12429SOL    HW148915   2.049   1.327   9.769
12429SOL    HW248916   1.917   1.257   9.794
12430SOL     OW48917   3.943   2.983  17.208
12430SOL    HW148918   3.990   2.933  17.275
12430SOL    HW248919   4.011   3.036  17.166
12431SOL     OW48920   4.688   0.719   6.295
12431SOL    HW148921   4.732   0.720   6.210
12431SOL    HW248922   4.748   0.672   6.353
12432SOL     OW48923   1.289   3.142   6.094
12432SOL    HW148924   1.383   3.156   6.106
12432SOL    HW248925   1.272   3.058   6.136
12433SOL     OW48926   2.110   4.427  25.877
12433SOL    HW148927   2.054   4.351  25.860
12433SOL    HW248928   2.196   4.402  25.843
12434SOL     OW48929   0.246   1.809  24.468
12434SOL    HW148930   0.211   1.739  24.413
12434SOL    HW248931   0.290   1.868  24.406
12435SOL     OW48932   4.430   1.220   6.832
12435SOL    HW148933   4.464   1.138   6.797
12435SOL    HW248934   4.428   1.279   6.757
12436SOL     OW48935   0.441   3.399  10.588
12436SOL    HW148936   0.496   3.466  10.548
12436SOL    HW248937   0.439   3.328  10.524
12437SOL     OW48938   4.747   2.588   7.833
12437SOL    HW148939   4.654   2.584   7.854
12437SOL    HW248940   4.755   2.546   7.747
12438SOL     OW48941   3.274   2.805  22.822
12438SOL    HW148942   3.214   2.880  22.828
12438SOL    HW248943   3.217   2.730  22.802
12439SOL     OW48944   3.386   1.012  10.067
12439SOL    HW148945   3.364   1.042  10.155
12439SOL    HW248946   3.402   0.918  10.077
12440SOL     OW48947   4.103   1.848   5.742
12440SOL    HW148948   4.148   1.888   5.668
12440SOL    HW248949   4.100   1.755   5.720
12441SOL     OW48950   0.806   1.960  26.548
12441SOL    HW148951   0.843   2.033  26.597
12441SOL    HW248952   0.720   1.946  26.587
12442SOL     OW48953   0.586   3.793  24.641
12442SOL    HW148954   0.506   3.746  24.663
12442SOL    HW248955   0.565   3.838  24.559
12443SOL     OW48956   1.496   0.483   2.727
12443SOL    HW148957   1.487   0.576   2.749
12443SOL    HW248958   1.412   0.445   2.753
12444SOL     OW48959   2.589   0.690  23.923
12444SOL    HW148960   2.588   0.676  24.018
12444SOL    HW248961   2.642   0.769  23.911
12445SOL     OW48962   2.123   0.876   9.174
12445SOL    HW148963   2.086   0.841   9.093
12445SOL    HW248964   2.079   0.826   9.243
12446SOL     OW48965   0.400   1.577  26.234
12446SOL    HW148966   0.405   1.614  26.146
12446SOL    HW248967   0.489   1.583  26.268
12447SOL     OW48968   1.667   0.895  27.519
12447SOL    HW148969   1.677   0.933  27.432
12447SOL    HW248970   1.757   0.879  27.548
12448SOL     OW48971   1.340   2.147   0.786
12448SOL    HW148972   1.261   2.092   0.790
12448SOL    HW248973   1.348   2.183   0.874
12449SOL     OW48974   4.666   1.192  27.729
12449SOL    HW148975   4.643   1.189  27.822
12449SOL    HW248976   4.762   1.196  27.728
12450SOL     OW48977   4.694   4.077   8.711
12450SOL    HW148978   4.614   4.059   8.662
12450SOL    HW248979   4.737   3.992   8.719
12451SOL     OW48980   1.370   0.928   8.307
12451SOL    HW148981   1.275   0.914   8.309
12451SOL    HW248982   1.391   0.966   8.393
12452SOL     OW48983   2.708   3.122  10.887
12452SOL    HW148984   2.786   3.078  10.922
12452SOL    HW248985   2.648   3.127  10.962
12453SOL     OW48986   4.180   3.535  20.580
12453SOL    HW148987   4.219   3.569  20.661
12453SOL    HW248988   4.201   3.601  20.514
12454SOL     OW48989   3.593   3.895  24.214
12454SOL    HW148990   3.515   3.948  24.230
12454SOL    HW248991   3.571   3.844  24.136
12455SOL     OW48992   0.182   1.191  10.742
12455SOL    HW148993   0.271   1.171  10.713
12455SOL    HW248994   0.131   1.199  10.661
12456SOL     OW48995   2.358   1.962  19.337
12456SOL    HW148996   2.420   1.978  19.408
12456SOL    HW248997   2.274   1.951  19.381
12457SOL     OW48998   0.481   2.880  24.308
12457SOL    HW148999   0.478   2.864  24.214
12457SOL    HW249000   0.545   2.951  24.319
12458SOL     OW49001   2.177   4.764  24.596
12458SOL    HW149002   2.102   0.017  24.547
12458SOL    HW249003   2.141   4.692  24.648
12459SOL     OW49004   3.014   1.967  22.780
12459SOL    HW149005   2.985   1.883  22.743
12459SOL    HW249006   2.997   1.959  22.874
12460SOL     OW49007   2.811   1.615  24.732
12460SOL    HW149008   2.852   1.606  24.818
12460SOL    HW249009   2.884   1.627  24.671
12461SOL     OW49010   1.805   1.284  23.106
12461SOL    HW149011   1.829   1.328  23.188
12461SOL    HW249012   1.714   1.310  23.092
12462SOL     OW49013   3.037   3.848  10.610
12462SOL    HW149014   3.130   3.865  10.624
12462SOL    HW249015   2.993   3.923  10.651
12463SOL     OW49016   2.685   4.411   3.555
12463SOL    HW149017   2.746   4.462   3.502
12463SOL    HW249018   2.672   4.463   3.634
12464SOL     OW49019   3.889   1.113   0.273
12464SOL    HW149020   3.837   1.189   0.248
12464SOL    HW249021   3.967   1.150   0.314
12465SOL     OW49022   1.105   3.684   6.515
12465SOL    HW149023   1.171   3.752   6.500
12465SOL    HW249024   1.030   3.731   6.550
12466SOL     OW49025   1.471   4.124  22.089
12466SOL    HW149026   1.512   4.093  22.170
12466SOL    HW249027   1.484   4.219  22.090
12467SOL     OW49028   0.600   4.182  21.850
12467SOL    HW149029   0.689   4.213  21.864
12467SOL    HW249030   0.559   4.185  21.936
12468SOL     OW49031   0.337   1.702  22.336
12468SOL    HW149032   0.290   1.630  22.295
12468SOL    HW249033   0.279   1.778  22.325
12469SOL     OW49034   3.532   3.669  25.714
12469SOL    HW149035   3.569   3.621  25.788
12469SOL    HW249036   3.489   3.602  25.661
12470SOL     OW49037   4.582   2.191  28.366
12470SOL    HW149038   4.569   2.236  28.282
12470SOL    HW249039   4.543   2.105  28.353
12471SOL     OW49040   1.146   4.082  20.239
12471SOL    HW149041   1.182   4.028  20.169
12471SOL    HW249042   1.222   4.114  20.287
12472SOL     OW49043   2.854   0.955   3.145
12472SOL    HW149044   2.787   0.929   3.082
12472SOL    HW249045   2.928   0.897   3.126
12473SOL     OW49046   0.887   4.651   2.174
12473SOL    HW149047   0.803   4.608   2.193
12473SOL    HW249048   0.952   4.595   2.216
12474SOL     OW49049   3.915   2.709   5.337
12474SOL    HW149050   3.934   2.803   5.341
12474SOL    HW249051   3.835   2.703   5.285
12475SOL     OW49052   3.391   1.519  22.683
12475SOL    HW149053   3.303   1.482  22.694
12475SOL    HW249054   3.378   1.597  22.630
12476SOL     OW49055   2.945   1.874  21.657
12476SOL    HW149056   3.029   1.907  21.625
12476SOL    HW249057   2.969   1.808  21.722
12477SOL     OW49058   2.919   0.777   6.303
12477SOL    HW149059   2.975   0.845   6.341
12477SOL    HW249060   2.913   0.800   6.210
12478SOL     OW49061   2.542   3.013  12.433
12478SOL    HW149062   2.579   2.963  12.505
12478SOL    HW249063   2.541   3.103  12.465
12479SOL     OW49064   3.740   2.079  21.094
12479SOL    HW149065   3.776   2.112  21.176
12479SOL    HW249066   3.666   2.024  21.121
12480SOL     OW49067   4.083   4.768  24.890
12480SOL    HW149068   4.052   4.777  24.980
12480SOL    HW249069   4.170   4.728  24.899
12481SOL     OW49070   4.660   2.785   3.435
12481SOL    HW149071   4.624   2.863   3.476
12481SOL    HW249072   4.608   2.713   3.470
12482SOL     OW49073   1.056   2.908  18.582
12482SOL    HW149074   1.092   2.927  18.495
12482SOL    HW249075   1.018   2.821  18.573
12483SOL     OW49076   2.325   1.127   8.709
12483SOL    HW149077   2.384   1.172   8.648
12483SOL    HW249078   2.371   1.129   8.793
12484SOL     OW49079   3.675   0.248  10.246
12484SOL    HW149080   3.705   0.320  10.301
12484SOL    HW249081   3.663   0.175  10.307
12485SOL     OW49082   2.485   4.643   3.050
12485SOL    HW149083   2.424   4.630   2.977
12485SOL    HW249084   2.511   4.735   3.043
12486SOL     OW49085   1.986   1.904   2.956
12486SOL    HW149086   1.892   1.920   2.953
12486SOL    HW249087   2.008   1.876   2.867
12487SOL     OW49088   2.585   3.116   0.165
12487SOL    HW149089   2.665   3.125   0.216
12487SOL    HW249090   2.516   3.146   0.224
12488SOL     OW49091   4.086   1.001   2.340
12488SOL    HW149092   4.165   1.034   2.383
12488SOL    HW249093   4.030   1.078   2.330
12489SOL     OW49094   2.867   3.615  23.135
12489SOL    HW149095   2.917   3.572  23.204
12489SOL    HW249096   2.785   3.641  23.177
12490SOL     OW49097   4.741   0.300  25.056
12490SOL    HW149098   0.014   0.345  24.991
12490SOL    HW249099   4.672   0.362  25.078
12491SOL     OW49100   3.082   3.568  27.849
12491SOL    HW149101   2.993   3.584  27.879
12491SOL    HW249102   3.075   3.491  27.793
12492SOL     OW49103   3.299   0.954  24.611
12492SOL    HW149104   3.370   0.937  24.673
12492SOL    HW249105   3.309   1.046  24.587
12493SOL     OW49106   1.820   1.015  25.613
12493SOL    HW149107   1.905   1.056  25.596
12493SOL    HW249108   1.809   0.953  25.541
12494SOL     OW49109   4.131   2.795   1.728
12494SOL    HW149110   4.188   2.786   1.652
12494SOL    HW249111   4.142   2.714   1.777
12495SOL     OW49112   1.683   1.017   5.430
12495SOL    HW149113   1.711   0.980   5.346
12495SOL    HW249114   1.608   1.072   5.408
12496SOL     OW49115   4.328   0.487  24.596
12496SOL    HW149116   4.378   0.406  24.590
12496SOL    HW249117   4.386   0.554  24.560
12497SOL     OW49118   1.194   1.427  22.182
12497SOL    HW149119   1.212   1.450  22.273
12497SOL    HW249120   1.103   1.397  22.182
12498SOL     OW49121   1.679   4.243  18.887
12498SOL    HW149122   1.739   4.255  18.813
12498SOL    HW249123   1.708   4.307  18.952
12499SOL     OW49124   4.470   4.700   1.437
12499SOL    HW149125   4.403   4.734   1.497
12499SOL    HW249126   4.511   4.628   1.485
12500SOL     OW49127   3.858   2.374   8.100
12500SOL    HW149128   3.875   2.291   8.055
12500SOL    HW249129   3.903   2.440   8.047
12501SOL     OW49130   1.193   0.820  27.409
12501SOL    HW149131   1.185   0.845  27.317
12501SOL    HW249132   1.131   0.876  27.455
12502SOL     OW49133   2.125   3.782  21.654
12502SOL    HW149134   2.140   3.864  21.701
12502SOL    HW249135   2.070   3.730  21.713
12503SOL     OW49136   0.035   3.260  10.050
12503SOL    HW149137   0.059   3.220  10.134
12503SOL    HW249138   0.045   3.189   9.986
12504SOL     OW49139   2.562   4.125   1.395
12504SOL    HW149140   2.590   4.045   1.440
12504SOL    HW249141   2.641   4.179   1.390
12505SOL     OW49142   0.716   3.563  11.002
12505SOL    HW149143   0.776   3.489  10.992
12505SOL    HW249144   0.629   3.523  11.000
12506SOL     OW49145   1.907   2.624  11.924
12506SOL    HW149146   2.002   2.630  11.931
12506SOL    HW249147   1.875   2.660  12.007
12507SOL     OW49148   1.722   3.548   3.983
12507SOL    HW149149   1.704   3.636   3.951
12507SOL    HW249150   1.643   3.523   4.031
12508SOL     OW49151   3.583   3.200   3.383
12508SOL    HW149152   3.531   3.272   3.420
12508SOL    HW249153   3.549   3.189   3.294
12509SOL     OW49154   4.575   1.588   7.426
12509SOL    HW149155   4.643   1.641   7.385
12509SOL    HW249156   4.494   1.636   7.410
12510SOL     OW49157   0.016   0.545   1.659
12510SOL    HW149158   4.726   0.535   1.722
12510SOL    HW249159   0.092   0.570   1.711
12511SOL     OW49160   2.027   2.530   9.313
12511SOL    HW149161   2.119   2.558   9.310
12511SOL    HW249162   1.987   2.574   9.238
12512SOL     OW49163   3.124   2.299   1.769
12512SOL    HW149164   3.190   2.231   1.753
12512SOL    HW249165   3.155   2.374   1.719
12513SOL     OW49166   2.969   0.023  28.416
12513SOL    HW149167   2.998   0.047  28.328
12513SOL    HW249168   2.876   0.003  28.407
12514SOL     OW49169   3.508   0.525  25.987
12514SOL    HW149170   3.543   0.601  25.941
12514SOL    HW249171   3.424   0.508  25.945
12515SOL     OW49172   2.584   4.672   7.761
12515SOL    HW149173   2.602   4.582   7.734
12515SOL    HW249174   2.551   4.665   7.850
12516SOL     OW49175   0.039   0.773   2.363
12516SOL    HW149176   0.064   0.787   2.454
12516SOL    HW249177   0.111   0.722   2.326
12517SOL     OW49178   3.072   4.609  24.239
12517SOL    HW149179   3.147   4.550  24.235
12517SOL    HW249180   3.010   4.575  24.174
12518SOL     OW49181   2.523   2.734   2.979
12518SOL    HW149182   2.610   2.760   3.010
12518SOL    HW249183   2.476   2.817   2.968
12519SOL     OW49184   4.693   4.034  28.376
12519SOL    HW149185   4.683   4.050  28.470
12519SOL    HW249186   4.608   4.058  28.339
12520SOL     OW49187   3.537   1.649  17.825
12520SOL    HW149188   3.473   1.584  17.854
12520SOL    HW249189   3.598   1.600  17.770
12521SOL     OW49190   3.817   1.576   5.966
12521SOL    HW149191   3.729   1.589   5.931
12521SOL    HW249192   3.872   1.561   5.889
12522SOL     OW49193   3.777   1.232   2.058
12522SOL    HW149194   3.685   1.243   2.081
12522SOL    HW249195   3.804   1.317   2.024
12523SOL     OW49196   2.175   2.795   9.416
12523SOL    HW149197   2.104   2.833   9.468
12523SOL    HW249198   2.175   2.845   9.335
12524SOL     OW49199   4.717   1.670   6.328
12524SOL    HW149200   4.662   1.721   6.269
12524SOL    HW249201   4.727   1.585   6.285
12525SOL     OW49202   2.911   2.348  19.112
12525SOL    HW149203   2.964   2.271  19.091
12525SOL    HW249204   2.821   2.317  19.109
12526SOL     OW49205   0.674   0.930   6.355
12526SOL    HW149206   0.770   0.927   6.360
12526SOL    HW249207   0.656   0.991   6.283
12527SOL     OW49208   3.013   2.071  20.600
12527SOL    HW149209   2.932   2.121  20.607
12527SOL    HW249210   2.986   1.986  20.564
12528SOL     OW49211   3.786   1.739  17.931
12528SOL    HW149212   3.710   1.708  17.882
12528SOL    HW249213   3.833   1.659  17.956
12529SOL     OW49214   0.358   0.822   9.121
12529SOL    HW149215   0.427   0.888   9.120
12529SOL    HW249216   0.369   0.776   9.204
12530SOL     OW49217   3.204   2.443  10.316
12530SOL    HW149218   3.134   2.497  10.353
12530SOL    HW249219   3.274   2.446  10.381
12531SOL     OW49220   3.615   4.605  27.661
12531SOL    HW149221   3.624   4.700  27.649
12531SOL    HW249222   3.538   4.582  27.608
12532SOL     OW49223   2.707   3.345  26.391
12532SOL    HW149224   2.632   3.286  26.381
12532SOL    HW249225   2.774   3.291  26.434
12533SOL     OW49226   3.701   0.654   7.304
12533SOL    HW149227   3.666   0.572   7.338
12533SOL    HW249228   3.790   0.632   7.277
12534SOL     OW49229   0.557   1.580   1.508
12534SOL    HW149230   0.638   1.573   1.558
12534SOL    HW249231   0.492   1.609   1.572
12535SOL     OW49232   3.558   0.852  18.757
12535SOL    HW149233   3.581   0.836  18.666
12535SOL    HW249234   3.539   0.765  18.793
12536SOL     OW49235   0.579   1.530  26.907
12536SOL    HW149236   0.606   1.470  26.838
12536SOL    HW249237   0.648   1.523  26.973
12537SOL     OW49238   1.219   2.617  10.904
12537SOL    HW149239   1.225   2.709  10.928
12537SOL    HW249240   1.307   2.583  10.919
12538SOL     OW49241   0.326   4.563   0.395
12538SOL    HW149242   0.387   4.503   0.352
12538SOL    HW249243   0.381   4.618   0.451
12539SOL     OW49244   1.759   1.429  23.335
12539SOL    HW149245   1.819   1.438  23.409
12539SOL    HW249246   1.673   1.448  23.372
12540SOL     OW49247   0.468   1.122   3.186
12540SOL    HW149248   0.557   1.110   3.218
12540SOL    HW249249   0.478   1.138   3.092
12541SOL     OW49250   4.443   0.498  25.051
12541SOL    HW149251   4.436   0.417  25.101
12541SOL    HW249252   4.353   0.531  25.047
12542SOL     OW49253   0.647   1.623  26.287
12542SOL    HW149254   0.705   1.613  26.363
12542SOL    HW249255   0.679   1.702  26.242
12543SOL     OW49256   1.396   2.451   2.268
12543SOL    HW149257   1.374   2.408   2.351
12543SOL    HW249258   1.478   2.497   2.286
12544SOL     OW49259   3.765   2.701   1.943
12544SOL    HW149260   3.792   2.705   1.851
12544SOL    HW249261   3.728   2.787   1.961
12545SOL     OW49262   3.499   1.950  21.223
12545SOL    HW149263   3.429   2.015  21.229
12545SOL    HW249264   3.454   1.867  21.210
12546SOL     OW49265   1.958   2.342   0.187
12546SOL    HW149266   2.021   2.319   0.255
12546SOL    HW249267   1.916   2.422   0.219
12547SOL     OW49268   0.894   2.460   3.200
12547SOL    HW149269   0.812   2.462   3.249
12547SOL    HW249270   0.887   2.531   3.137
12548SOL     OW49271   3.279   2.121  20.221
12548SOL    HW149272   3.344   2.183  20.188
12548SOL    HW249273   3.282   2.130  20.316
12549SOL     OW49274   2.430   0.207   5.251
12549SOL    HW149275   2.450   0.295   5.219
12549SOL    HW249276   2.436   0.214   5.346
12550SOL     OW49277   4.297   1.411   0.302
12550SOL    HW149278   4.386   1.406   0.268
12550SOL    HW249279   4.307   1.451   0.388
12551SOL     OW49280   3.158   0.694   9.852
12551SOL    HW149281   3.144   0.730   9.764
12551SOL    HW249282   3.251   0.674   9.855
12552SOL     OW49283   1.802   4.599  11.988
12552SOL    HW149284   1.827   4.675  11.935
12552SOL    HW249285   1.770   4.637  12.070
12553SOL     OW49286   3.926   4.557   1.572
12553SOL    HW149287   3.897   4.510   1.650
12553SOL    HW249288   3.953   4.488   1.511
12554SOL     OW49289   4.696   0.672  11.257
12554SOL    HW149290   4.679   0.735  11.327
12554SOL    HW249291   0.010   0.671  11.247
12555SOL     OW49292   2.760   0.888  22.540
12555SOL    HW149293   2.854   0.871  22.547
12555SOL    HW249294   2.729   0.826  22.474
12556SOL     OW49295   4.530   0.139   2.747
12556SOL    HW149296   4.499   0.098   2.828
12556SOL    HW249297   4.602   0.196   2.775
12557SOL     OW49298   4.007   3.202  24.047
12557SOL    HW149299   3.955   3.151  23.984
12557SOL    HW249300   3.982   3.167  24.132
12558SOL     OW49301   1.836   4.631  25.536
12558SOL    HW149302   1.878   4.711  25.568
12558SOL    HW249303   1.761   4.618  25.595
12559SOL     OW49304   0.998   0.148   1.978
12559SOL    HW149305   0.924   0.128   2.035
12559SOL    HW249306   1.074   0.113   2.024
12560SOL     OW49307   3.732   0.637   8.426
12560SOL    HW149308   3.760   0.592   8.506
12560SOL    HW249309   3.737   0.730   8.448
12561SOL     OW49310   1.510   0.472   1.820
12561SOL    HW149311   1.453   0.401   1.849
12561SOL    HW249312   1.544   0.510   1.901
12562SOL     OW49313   4.581   1.644  20.231
12562SOL    HW149314   4.584   1.685  20.317
12562SOL    HW249315   4.544   1.557  20.247
12563SOL     OW49316   0.181   2.558   7.365
12563SOL    HW149317   0.207   2.566   7.457
12563SOL    HW249318   0.209   2.470   7.340
12564SOL     OW49319   0.411   0.360   8.345
12564SOL    HW149320   0.464   0.335   8.269
12564SOL    HW249321   0.393   0.453   8.331
12565SOL     OW49322   1.433   0.320  10.512
12565SOL    HW149323   1.382   0.324  10.593
12565SOL    HW249324   1.524   0.312  10.542
12566SOL     OW49325   2.255   1.495   3.300
12566SOL    HW149326   2.214   1.527   3.220
12566SOL    HW249327   2.282   1.574   3.346
12567SOL     OW49328   4.184   0.545  25.064
12567SOL    HW149329   4.127   0.488  25.013
12567SOL    HW249330   4.145   0.632  25.054
12568SOL     OW49331   4.635   2.269   9.121
12568SOL    HW149332   4.550   2.274   9.164
12568SOL    HW249333   4.620   2.214   9.044
12569SOL     OW49334   1.964   2.746  27.376
12569SOL    HW149335   1.998   2.784  27.457
12569SOL    HW249336   2.002   2.799  27.306
12570SOL     OW49337   4.527   1.685  27.053
12570SOL    HW149338   4.584   1.608  27.055
12570SOL    HW249339   4.440   1.651  27.073
12571SOL     OW49340   0.794   0.138  23.765
12571SOL    HW149341   0.838   0.081  23.829
12571SOL    HW249342   0.839   0.222  23.774
12572SOL     OW49343   0.943   3.826  23.564
12572SOL    HW149344   1.000   3.762  23.522
12572SOL    HW249345   0.987   3.910  23.549
12573SOL     OW49346   3.572   1.234  26.742
12573SOL    HW149347   3.508   1.269  26.679
12573SOL    HW249348   3.575   1.299  26.812
12574SOL     OW49349   0.555   4.726  20.622
12574SOL    HW149350   0.471   4.708  20.580
12574SOL    HW249351   0.586   4.640  20.650
12575SOL     OW49352   3.835   2.688   6.758
12575SOL    HW149353   3.825   2.696   6.663
12575SOL    HW249354   3.808   2.773   6.792
12576SOL     OW49355   1.914   0.305   6.701
12576SOL    HW149356   1.846   0.239   6.711
12576SOL    HW249357   1.963   0.302   6.783
12577SOL     OW49358   1.553   3.629   3.771
12577SOL    HW149359   1.570   3.547   3.725
12577SOL    HW249360   1.465   3.655   3.742
12578SOL     OW49361   3.118   1.671   9.127
12578SOL    HW149362   3.038   1.634   9.090
12578SOL    HW249363   3.188   1.637   9.071
12579SOL     OW49364   1.823   1.913  26.290
12579SOL    HW149365   1.914   1.940  26.276
12579SOL    HW249366   1.811   1.840  26.229
12580SOL     OW49367   3.715   2.812   2.671
12580SOL    HW149368   3.793   2.863   2.693
12580SOL    HW249369   3.722   2.798   2.577
12581SOL     OW49370   0.294   3.794  24.598
12581SOL    HW149371   0.316   3.886  24.613
12581SOL    HW249372   0.213   3.780  24.647
12582SOL     OW49373   0.449   1.324  24.215
12582SOL    HW149374   0.430   1.281  24.298
12582SOL    HW249375   0.443   1.254  24.150
12583SOL     OW49376   0.763   3.161   4.022
12583SOL    HW149377   0.776   3.248   3.985
12583SOL    HW249378   0.732   3.108   3.948
12584SOL     OW49379   3.265   2.233  23.562
12584SOL    HW149380   3.324   2.308  23.571
12584SOL    HW249381   3.178   2.271  23.555
12585SOL     OW49382   0.458   1.087   3.985
12585SOL    HW149383   0.490   1.175   4.006
12585SOL    HW249384   0.380   1.077   4.040
12586SOL     OW49385   4.447   4.013   8.624
12586SOL    HW149386   4.383   3.961   8.576
12586SOL    HW249387   4.454   3.970   8.709
12587SOL     OW49388   3.312   4.078   1.276
12587SOL    HW149389   3.397   4.088   1.319
12587SOL    HW249390   3.306   3.985   1.255
12588SOL     OW49391   3.980   2.395   8.938
12588SOL    HW149392   3.999   2.357   9.024
12588SOL    HW249393   4.046   2.463   8.927
12589SOL     OW49394   2.508   1.632  18.161
12589SOL    HW149395   2.488   1.550  18.116
12589SOL    HW249396   2.459   1.627  18.243
12590SOL     OW49397   4.336   2.578   4.234
12590SOL    HW149398   4.260   2.630   4.258
12590SOL    HW249399   4.404   2.603   4.297
12591SOL     OW49400   1.904   0.604   8.019
12591SOL    HW149401   1.827   0.594   8.075
12591SOL    HW249402   1.976   0.621   8.080
12592SOL     OW49403   1.074   4.391  26.865
12592SOL    HW149404   1.165   4.392  26.835
12592SOL    HW249405   1.065   4.308  26.911
12593SOL     OW49406   2.888   3.392   3.382
12593SOL    HW149407   2.823   3.458   3.404
12593SOL    HW249408   2.874   3.375   3.289
12594SOL     OW49409   0.764   4.430  25.393
12594SOL    HW149410   0.721   4.494  25.336
12594SOL    HW249411   0.857   4.454  25.391
12595SOL     OW49412   2.582   2.909  23.967
12595SOL    HW149413   2.645   2.977  23.945
12595SOL    HW249414   2.622   2.861  24.040
12596SOL     OW49415   0.108   1.435  18.760
12596SOL    HW149416   0.029   1.382  18.756
12596SOL    HW249417   0.174   1.384  18.714
12597SOL     OW49418   0.039   4.610  26.333
12597SOL    HW149419   0.029   4.522  26.296
12597SOL    HW249420   0.095   4.597  26.410
12598SOL     OW49421   1.362   4.142   8.695
12598SOL    HW149422   1.279   4.116   8.655
12598SOL    HW249423   1.359   4.238   8.697
12599SOL     OW49424   1.468   0.866   2.250
12599SOL    HW149425   1.514   0.893   2.171
12599SOL    HW249426   1.401   0.805   2.219
12600SOL     OW49427   1.136   4.648   6.916
12600SOL    HW149428   1.150   4.597   6.996
12600SOL    HW249429   1.218   4.695   6.903
12601SOL     OW49430   1.901   4.124   2.316
12601SOL    HW149431   1.881   4.216   2.333
12601SOL    HW249432   1.996   4.117   2.328
12602SOL     OW49433   3.007   0.232   0.531
12602SOL    HW149434   2.982   0.223   0.439
12602SOL    HW249435   2.942   0.292   0.568
12603SOL     OW49436   3.368   1.682   3.227
12603SOL    HW149437   3.353   1.666   3.320
12603SOL    HW249438   3.410   1.602   3.196
12604SOL     OW49439   2.681   3.443   6.626
12604SOL    HW149440   2.742   3.459   6.554
12604SOL    HW249441   2.730   3.390   6.688
12605SOL     OW49442   4.295   3.930   4.745
12605SOL    HW149443   4.202   3.909   4.737
12605SOL    HW249444   4.300   3.987   4.822
12606SOL     OW49445   3.363   4.372  28.298
12606SOL    HW149446   3.417   4.376  28.219
12606SOL    HW249447   3.317   4.456  28.300
12607SOL     OW49448   2.705   4.679   4.053
12607SOL    HW149449   2.676   4.752   3.998
12607SOL    HW249450   2.669   4.698   4.139
12608SOL     OW49451   1.746   0.992  26.212
12608SOL    HW149452   1.665   1.010  26.260
12608SOL    HW249453   1.724   1.007  26.120
12609SOL     OW49454   0.015   2.106   9.291
12609SOL    HW149455   4.732   2.153   9.238
12609SOL    HW249456   0.016   2.153   9.374
12610SOL     OW49457   1.340   4.587  19.953
12610SOL    HW149458   1.312   4.644  19.882
12610SOL    HW249459   1.267   4.527  19.966
12611SOL     OW49460   0.093   4.464   8.390
12611SOL    HW149461   0.067   4.556   8.390
12611SOL    HW249462   0.101   4.442   8.297
12612SOL     OW49463   2.811   0.437  20.885
12612SOL    HW149464   2.904   0.460  20.891
12612SOL    HW249465   2.795   0.428  20.791
12613SOL     OW49466   3.026   2.658   2.566
12613SOL    HW149467   2.962   2.619   2.507
12613SOL    HW249468   3.111   2.627   2.534
12614SOL     OW49469   0.352   2.806  21.630
12614SOL    HW149470   0.437   2.807  21.673
12614SOL    HW249471   0.370   2.772  21.542
12615SOL     OW49472   4.196   2.351  21.798
12615SOL    HW149473   4.150   2.403  21.864
12615SOL    HW249474   4.152   2.266  21.800
12616SOL     OW49475   2.215   3.987  10.883
12616SOL    HW149476   2.269   4.008  10.807
12616SOL    HW249477   2.278   3.964  10.952
12617SOL     OW49478   4.295   4.609  27.867
12617SOL    HW149479   4.294   4.654  27.952
12617SOL    HW249480   4.315   4.518  27.888
12618SOL     OW49481   0.409   0.795   0.237
12618SOL    HW149482   0.364   0.722   0.193
12618SOL    HW249483   0.417   0.862   0.170
12619SOL     OW49484   1.027   3.703  24.349
12619SOL    HW149485   0.958   3.752  24.394
12619SOL    HW249486   0.981   3.634  24.301
12620SOL     OW49487   0.221   2.219   7.154
12620SOL    HW149488   0.245   2.302   7.112
12620SOL    HW249489   0.300   2.193   7.201
12621SOL     OW49490   0.186   3.022   3.605
12621SOL    HW149491   0.168   3.021   3.511
12621SOL    HW249492   0.193   3.115   3.627
12622SOL     OW49493   0.814   4.113  25.667
12622SOL    HW149494   0.900   4.128  25.627
12622SOL    HW249495   0.813   4.020  25.689
12623SOL     OW49496   2.222   0.112   5.031
12623SOL    HW149497   2.297   0.136   5.086
12623SOL    HW249498   2.257   0.113   4.942
12624SOL     OW49499   3.043   1.865  18.925
12624SOL    HW149500   2.973   1.923  18.893
12624SOL    HW249501   3.086   1.833  18.845
12625SOL     OW49502   3.228   2.604  23.071
12625SOL    HW149503   3.262   2.561  22.992
12625SOL    HW249504   3.261   2.551  23.143
12626SOL     OW49505   3.386   1.606  24.338
12626SOL    HW149506   3.419   1.519  24.315
12626SOL    HW249507   3.297   1.608  24.303
12627SOL     OW49508   1.631   1.705   9.456
12627SOL    HW149509   1.686   1.627   9.454
12627SOL    HW249510   1.567   1.687   9.525
12628SOL     OW49511   0.598   3.962   4.924
12628SOL    HW149512   0.618   4.055   4.911
12628SOL    HW249513   0.513   3.962   4.968
12629SOL     OW49514   0.617   0.005  27.890
12629SOL    HW149515   0.706   4.767  27.860
12629SOL    HW249516   0.628   0.037  27.980
12630SOL     OW49517   3.820   4.262   5.621
12630SOL    HW149518   3.828   4.311   5.703
12630SOL    HW249519   3.864   4.316   5.556
12631SOL     OW49520   1.740   2.905  25.457
12631SOL    HW149521   1.828   2.897  25.494
12631SOL    HW249522   1.684   2.853  25.515
12632SOL     OW49523   3.472   0.622   8.660
12632SOL    HW149524   3.532   0.550   8.641
12632SOL    HW249525   3.505   0.660   8.741
12633SOL     OW49526   0.956   1.588  21.141
12633SOL    HW149527   0.972   1.531  21.066
12633SOL    HW249528   0.875   1.635  21.119
12634SOL     OW49529   1.533   4.247  17.533
12634SOL    HW149530   1.584   4.287  17.463
12634SOL    HW249531   1.584   4.263  17.612
12635SOL     OW49532   4.024   2.612  25.240
12635SOL    HW149533   4.107   2.652  25.213
12635SOL    HW249534   4.049   2.527  25.277
12636SOL     OW49535   3.250   2.285   2.026
12636SOL    HW149536   3.265   2.373   2.059
12636SOL    HW249537   3.190   2.297   1.952
12637SOL     OW49538   2.040   0.473   7.805
12637SOL    HW149539   2.032   0.545   7.743
12637SOL    HW249540   2.009   0.509   7.888
12638SOL     OW49541   2.803   2.342   8.029
12638SOL    HW149542   2.768   2.287   8.099
12638SOL    HW249543   2.726   2.375   7.983
12639SOL     OW49544   1.165   0.243  27.294
12639SOL    HW149545   1.094   0.195  27.337
12639SOL    HW249546   1.158   0.332  27.330
12640SOL     OW49547   4.477   3.846  20.699
12640SOL    HW149548   4.458   3.939  20.706
12640SOL    HW249549   4.419   3.814  20.630
12641SOL     OW49550   2.976   1.677   2.175
12641SOL    HW149551   3.008   1.734   2.245
12641SOL    HW249552   3.043   1.683   2.106
12642SOL     OW49553   2.249   1.605   5.844
12642SOL    HW149554   2.321   1.607   5.782
12642SOL    HW249555   2.233   1.697   5.864
12643SOL     OW49556   4.736   3.657  21.292
12643SOL    HW149557   4.713   3.574  21.334
12643SOL    HW249558   4.768   3.712  21.363
12644SOL     OW49559   0.690   2.616  12.040
12644SOL    HW149560   0.766   2.618  12.099
12644SOL    HW249561   0.677   2.707  12.015
12645SOL     OW49562   2.170   3.377  24.307
12645SOL    HW149563   2.201   3.366  24.217
12645SOL    HW249564   2.079   3.404  24.298
12646SOL     OW49565   2.617   4.258   4.239
12646SOL    HW149566   2.533   4.265   4.194
12646SOL    HW249567   2.667   4.194   4.188
12647SOL     OW49568   2.819   3.120   3.212
12647SOL    HW149569   2.768   3.062   3.269
12647SOL    HW249570   2.899   3.138   3.261
12648SOL     OW49571   4.550   2.913   7.529
12648SOL    HW149572   4.578   3.004   7.523
12648SOL    HW249573   4.630   2.862   7.516
12649SOL     OW49574   4.583   4.377   6.801
12649SOL    HW149575   4.636   4.305   6.767
12649SOL    HW249576   4.493   4.354   6.778
12650SOL     OW49577   1.200   4.383   6.654
12650SOL    HW149578   1.156   4.397   6.738
12650SOL    HW249579   1.280   4.335   6.677
12651SOL     OW49580   0.403   3.482   2.099
12651SOL    HW149581   0.461   3.537   2.046
12651SOL    HW249582   0.418   3.512   2.189
12652SOL     OW49583   0.747   4.384   9.044
12652SOL    HW149584   0.805   4.457   9.022
12652SOL    HW249585   0.752   4.377   9.139
12653SOL     OW49586   0.995   2.463   0.442
12653SOL    HW149587   0.987   2.472   0.347
12653SOL    HW249588   1.036   2.377   0.455
12654SOL     OW49589   1.694   2.643  20.765
12654SOL    HW149590   1.703   2.549  20.751
12654SOL    HW249591   1.642   2.673  20.691
12655SOL     OW49592   0.375   4.230   3.157
12655SOL    HW149593   0.443   4.296   3.146
12655SOL    HW249594   0.297   4.280   3.181
12656SOL     OW49595   3.468   3.595  19.933
12656SOL    HW149596   3.531   3.532  19.967
12656SOL    HW249597   3.484   3.597  19.839
12657SOL     OW49598   4.208   0.364   0.838
12657SOL    HW149599   4.243   0.453   0.839
12657SOL    HW249600   4.237   0.326   0.921
12658SOL     OW49601   2.726   3.072   2.652
12658SOL    HW149602   2.706   3.047   2.742
12658SOL    HW249603   2.749   2.990   2.609
12659SOL     OW49604   0.652   3.352  22.578
12659SOL    HW149605   0.675   3.296  22.503
12659SOL    HW249606   0.558   3.365  22.570
12660SOL     OW49607   1.052   3.390  20.057
12660SOL    HW149608   1.058   3.462  19.994
12660SOL    HW249609   1.124   3.407  20.118
12661SOL     OW49610   3.490   3.687   4.842
12661SOL    HW149611   3.550   3.616   4.863
12661SOL    HW249612   3.445   3.658   4.763
12662SOL     OW49613   2.952   2.046  19.881
12662SOL    HW149614   3.012   2.048  19.807
12662SOL    HW249615   2.998   1.995  19.948
12663SOL     OW49616   0.457   0.069   7.165
12663SOL    HW149617   0.457   0.018   7.084
12663SOL    HW249618   0.549   0.092   7.178
12664SOL     OW49619   4.108   4.563   0.220
12664SOL    HW149620   4.030   4.608   0.253
12664SOL    HW249621   4.077   4.515   0.143
12665SOL     OW49622   0.629   3.299   2.193
12665SOL    HW149623   0.542   3.310   2.154
12665SOL    HW249624   0.656   3.210   2.169
12666SOL     OW49625   2.557   2.191  25.093
12666SOL    HW149626   2.625   2.173  25.158
12666SOL    HW249627   2.582   2.138  25.017
12667SOL     OW49628   4.202   1.018  24.243
12667SOL    HW149629   4.111   1.010  24.271
12667SOL    HW249630   4.231   1.102  24.278
12668SOL     OW49631   2.966   3.121   0.956
12668SOL    HW149632   2.999   3.207   0.932
12668SOL    HW249633   2.977   3.116   1.051
12669SOL     OW49634   0.674   1.030   7.703
12669SOL    HW149635   0.766   1.047   7.721
12669SOL    HW249636   0.674   0.957   7.641
12670SOL     OW49637   0.081   4.155  26.431
12670SOL    HW149638   0.144   4.217  26.469
12670SOL    HW249639   0.134   4.100  26.373
12671SOL     OW49640   2.008   1.560  21.257
12671SOL    HW149641   2.093   1.516  21.247
12671SOL    HW249642   1.946   1.489  21.274
12672SOL     OW49643   1.461   4.755  25.590
12672SOL    HW149644   1.477   0.068  25.578
12672SOL    HW249645   1.547   4.717  25.606
12673SOL     OW49646   1.051   1.206   4.097
12673SOL    HW149647   1.040   1.157   4.016
12673SOL    HW249648   1.116   1.273   4.076
12674SOL     OW49649   3.593   4.489  24.965
12674SOL    HW149650   3.646   4.568  24.954
12674SOL    HW249651   3.531   4.491  24.892
12675SOL     OW49652   3.182   2.391   0.167
12675SOL    HW149653   3.187   2.354   0.079
12675SOL    HW249654   3.110   2.344   0.209
12676SOL     OW49655   0.957   1.068   3.099
12676SOL    HW149656   1.051   1.085   3.103
12676SOL    HW249657   0.947   1.010   3.023
12677SOL     OW49658   2.732   4.719   5.473
12677SOL    HW149659   2.670   4.649   5.494
12677SOL    HW249660   2.771   4.742   5.557
12678SOL     OW49661   2.304   3.431   5.650
12678SOL    HW149662   2.331   3.521   5.633
12678SOL    HW249663   2.208   3.435   5.653
12679SOL     OW49664   4.666   0.635  26.079
12679SOL    HW149665   4.742   0.580  26.100
12679SOL    HW249666   4.703   0.716  26.045
12680SOL     OW49667   1.475   1.577  28.423
12680SOL    HW149668   1.433   1.651  28.466
12680SOL    HW249669   1.441   1.500  28.468
12681SOL     OW49670   0.180   2.717  17.378
12681SOL    HW149671   0.120   2.785  17.409
12681SOL    HW249672   0.266   2.743  17.412
12682SOL     OW49673   1.862   1.900  17.247
12682SOL    HW149674   1.852   1.970  17.182
12682SOL    HW249675   1.878   1.821  17.195
12683SOL     OW49676   4.653   2.087  22.423
12683SOL    HW149677   4.731   2.035  22.405
12683SOL    HW249678   4.665   2.118  22.513
12684SOL     OW49679   1.652   3.966   7.342
12684SOL    HW149680   1.728   3.933   7.389
12684SOL    HW249681   1.584   3.976   7.409
12685SOL     OW49682   2.495   1.235   9.252
12685SOL    HW149683   2.437   1.182   9.306
12685SOL    HW249684   2.580   1.230   9.295
12686SOL     OW49685   0.253   4.398  20.603
12686SOL    HW149686   0.292   4.346  20.673
12686SOL    HW249687   0.205   4.334  20.550
12687SOL     OW49688   2.560   1.912   6.556
12687SOL    HW149689   2.574   1.826   6.516
12687SOL    HW249690   2.471   1.936   6.531
12688SOL     OW49691   4.565   4.243  24.380
12688SOL    HW149692   4.620   4.263  24.304
12688SOL    HW249693   4.578   4.317  24.439
12689SOL     OW49694   4.100   0.108  26.371
12689SOL    HW149695   4.136   0.020  26.378
12689SOL    HW249696   4.167   0.158  26.325
12690SOL     OW49697   0.662   4.093  21.159
12690SOL    HW149698   0.718   4.135  21.094
12690SOL    HW249699   0.582   4.145  21.159
12691SOL     OW49700   4.635   3.001   7.917
12691SOL    HW149701   4.694   2.938   7.959
12691SOL    HW249702   4.567   3.018   7.982
12692SOL     OW49703   0.427   2.334  26.523
12692SOL    HW149704   0.484   2.276  26.473
12692SOL    HW249705   0.438   2.306  26.614
12693SOL     OW49706   4.597   2.236  18.057
12693SOL    HW149707   4.596   2.140  18.054
12693SOL    HW249708   4.688   2.259  18.076
12694SOL     OW49709   4.692   2.504  23.678
12694SOL    HW149710   4.627   2.520  23.746
12694SOL    HW249711   4.651   2.441  23.619
12695SOL     OW49712   4.579   1.176  26.886
12695SOL    HW149713   4.591   1.083  26.907
12695SOL    HW249714   4.515   1.177  26.815
12696SOL     OW49715   3.438   3.192  27.746
12696SOL    HW149716   3.359   3.142  27.727
12696SOL    HW249717   3.445   3.254  27.673
12697SOL     OW49718   1.013   1.647   3.643
12697SOL    HW149719   0.929   1.690   3.659
12697SOL    HW249720   1.078   1.704   3.684
12698SOL     OW49721   2.910   2.202  20.936
12698SOL    HW149722   2.915   2.108  20.952
12698SOL    HW249723   2.848   2.235  21.001
12699SOL     OW49724   0.264   3.043  27.885
12699SOL    HW149725   0.278   3.087  27.969
12699SOL    HW249726   0.229   2.957  27.909
12700SOL     OW49727   2.232   2.186   7.340
12700SOL    HW149728   2.261   2.228   7.421
12700SOL    HW249729   2.244   2.092   7.357
12701SOL     OW49730   1.429   3.783   4.291
12701SOL    HW149731   1.416   3.777   4.196
12701SOL    HW249732   1.379   3.861   4.317
12702SOL     OW49733   2.768   3.654  25.616
12702SOL    HW149734   2.745   3.645  25.709
12702SOL    HW249735   2.698   3.708  25.579
12703SOL     OW49736   2.517   1.451  26.151
12703SOL    HW149737   2.456   1.377  26.158
12703SOL    HW249738   2.604   1.412  26.162
12704SOL     OW49739   2.455   2.735  10.565
12704SOL    HW149740   2.545   2.757  10.541
12704SOL    HW249741   2.423   2.683  10.491
12705SOL     OW49742   0.559   0.453   4.837
12705SOL    HW149743   0.586   0.544   4.825
12705SOL    HW249744   0.593   0.408   4.760
12706SOL     OW49745   3.673   3.993  27.235
12706SOL    HW149746   3.758   3.949  27.241
12706SOL    HW249747   3.612   3.924  27.211
12707SOL     OW49748   4.714   0.787   2.897
12707SOL    HW149749   4.625   0.762   2.924
12707SOL    HW249750   4.734   0.864   2.950
12708SOL     OW49751   0.136   0.780   2.598
12708SOL    HW149752   0.096   0.860   2.631
12708SOL    HW249753   0.206   0.761   2.660
12709SOL     OW49754   3.857   0.605   1.832
12709SOL    HW149755   3.944   0.568   1.815
12709SOL    HW249756   3.868   0.699   1.819
12710SOL     OW49757   3.968   0.566   7.222
12710SOL    HW149758   4.021   0.490   7.200
12710SOL    HW249759   4.031   0.633   7.249
12711SOL     OW49760   0.208   2.523   5.277
12711SOL    HW149761   0.268   2.467   5.228
12711SOL    HW249762   0.257   2.547   5.356
12712SOL     OW49763   3.348   0.190  27.469
12712SOL    HW149764   3.290   0.120  27.439
12712SOL    HW249765   3.304   0.271  27.442
12713SOL     OW49766   4.465   2.433  19.649
12713SOL    HW149767   4.406   2.454  19.577
12713SOL    HW249768   4.410   2.389  19.713
12714SOL     OW49769   1.120   1.789  26.175
12714SOL    HW149770   1.207   1.815  26.204
12714SOL    HW249771   1.069   1.781  26.256
12715SOL     OW49772   3.008   4.261  27.637
12715SOL    HW149773   2.951   4.184  27.642
12715SOL    HW249774   3.097   4.225  27.633
12716SOL     OW49775   4.537   0.243  19.348
12716SOL    HW149776   4.480   0.319  19.358
12716SOL    HW249777   4.596   0.266  19.277
12717SOL     OW49778   4.551   1.016   6.661
12717SOL    HW149779   4.543   0.924   6.684
12717SOL    HW249780   4.645   1.035   6.668
12718SOL     OW49781   0.737   4.337   5.530
12718SOL    HW149782   0.710   4.418   5.574
12718SOL    HW249783   0.737   4.271   5.599
12719SOL     OW49784   3.542   0.790   0.395
12719SOL    HW149785   3.632   0.819   0.407
12719SOL    HW249786   3.539   0.703   0.435
12720SOL     OW49787   2.867   4.128   8.811
12720SOL    HW149788   2.888   4.095   8.724
12720SOL    HW249789   2.951   4.156   8.847
12721SOL     OW49790   2.028   0.347  21.724
12721SOL    HW149791   2.035   0.384  21.812
12721SOL    HW249792   1.996   0.419  21.670
12722SOL     OW49793   4.358   2.380   2.188
12722SOL    HW149794   4.360   2.291   2.153
12722SOL    HW249795   4.297   2.375   2.262
12723SOL     OW49796   2.457   0.479   2.524
12723SOL    HW149797   2.533   0.529   2.495
12723SOL    HW249798   2.491   0.419   2.590
12724SOL     OW49799   0.987   1.468  21.375
12724SOL    HW149800   0.964   1.510  21.292
12724SOL    HW249801   1.073   1.504  21.398
12725SOL     OW49802   0.817   2.955  28.156
12725SOL    HW149803   0.901   3.000  28.167
12725SOL    HW249804   0.834   2.865  28.184
12726SOL     OW49805   4.471   1.944  26.761
12726SOL    HW149806   4.396   1.896  26.725
12726SOL    HW249807   4.453   1.949  26.855
12727SOL     OW49808   4.600   3.051  22.383
12727SOL    HW149809   4.629   2.986  22.447
12727SOL    HW249810   4.609   3.008  22.298
12728SOL     OW49811   1.952   1.469  22.345
12728SOL    HW149812   1.858   1.488  22.351
12728SOL    HW249813   1.969   1.408  22.416
12729SOL     OW49814   2.947   4.167  24.752
12729SOL    HW149815   3.002   4.245  24.749
12729SOL    HW249816   2.867   4.196  24.795
12730SOL     OW49817   2.661   4.173  24.925
12730SOL    HW149818   2.623   4.231  24.990
12730SOL    HW249819   2.609   4.188  24.846
12731SOL     OW49820   4.043   4.413   6.760
12731SOL    HW149821   3.982   4.381   6.694
12731SOL    HW249822   4.060   4.504   6.734
12732SOL     OW49823   2.115   0.541  21.305
12732SOL    HW149824   2.090   0.453  21.334
12732SOL    HW249825   2.172   0.526  21.229
12733SOL     OW49826   0.223   4.313   6.378
12733SOL    HW149827   0.180   4.230   6.357
12733SOL    HW249828   0.302   4.287   6.426
12734SOL     OW49829   1.704   2.461   4.794
12734SOL    HW149830   1.734   2.525   4.859
12734SOL    HW249831   1.778   2.401   4.784
12735SOL     OW49832   2.466   1.045  25.707
12735SOL    HW149833   2.554   1.007  25.714
12735SOL    HW249834   2.457   1.068  25.615
12736SOL     OW49835   3.006   1.973   2.314
12736SOL    HW149836   2.977   1.983   2.405
12736SOL    HW249837   3.070   2.043   2.301
12737SOL     OW49838   3.360   4.530   3.541
12737SOL    HW149839   3.315   4.614   3.527
12737SOL    HW249840   3.303   4.465   3.499
12738SOL     OW49841   0.270   1.739  27.820
12738SOL    HW149842   0.282   1.780  27.734
12738SOL    HW249843   0.175   1.730  27.829
12739SOL     OW49844   4.613   1.659   8.071
12739SOL    HW149845   4.691   1.651   8.126
12739SOL    HW249846   4.631   1.734   8.015
12740SOL     OW49847   3.112   2.727  25.072
12740SOL    HW149848   3.090   2.817  25.050
12740SOL    HW249849   3.161   2.734  25.154
12741SOL     OW49850   2.837   2.250   6.607
12741SOL    HW149851   2.860   2.333   6.648
12741SOL    HW249852   2.741   2.252   6.602
12742SOL     OW49853   1.916   0.209   5.678
12742SOL    HW149854   1.882   0.281   5.732
12742SOL    HW249855   1.858   0.206   5.602
12743SOL     OW49856   3.679   0.926   4.228
12743SOL    HW149857   3.662   0.898   4.138
12743SOL    HW249858   3.683   0.844   4.278
12744SOL     OW49859   1.123   4.435  19.436
12744SOL    HW149860   1.058   4.373  19.469
12744SOL    HW249861   1.079   4.520  19.438
12745SOL     OW49862   3.124   2.401  26.924
12745SOL    HW149863   3.054   2.433  26.867
12745SOL    HW249864   3.185   2.357  26.865
12746SOL     OW49865   0.728   3.004   6.648
12746SOL    HW149866   0.791   2.955   6.701
12746SOL    HW249867   0.643   2.971   6.677
12747SOL     OW49868   0.222   1.662  27.085
12747SOL    HW149869   0.232   1.752  27.117
12747SOL    HW249870   0.283   1.611  27.138
12748SOL     OW49871   0.205   0.825   4.319
12748SOL    HW149872   0.200   0.915   4.287
12748SOL    HW249873   0.298   0.812   4.339
12749SOL     OW49874   0.319   3.506   6.791
12749SOL    HW149875   0.272   3.585   6.818
12749SOL    HW249876   0.321   3.451   6.869
12750SOL     OW49877   4.057   0.777   5.513
12750SOL    HW149878   4.070   0.693   5.470
12750SOL    HW249879   4.142   0.821   5.505
12751SOL     OW49880   1.246   2.520   1.867
12751SOL    HW149881   1.316   2.473   1.914
12751SOL    HW249882   1.276   2.524   1.776
12752SOL     OW49883   4.292   4.577  23.058
12752SOL    HW149884   4.293   4.649  22.995
12752SOL    HW249885   4.274   4.619  23.142
12753SOL     OW49886   1.576   4.479   0.715
12753SOL    HW149887   1.550   4.551   0.658
12753SOL    HW249888   1.550   4.400   0.667
12754SOL     OW49889   0.897   0.532   4.955
12754SOL    HW149890   0.888   0.437   4.965
12754SOL    HW249891   0.990   0.549   4.973
12755SOL     OW49892   0.139   1.564  28.365
12755SOL    HW149893   0.079   1.565  28.290
12755SOL    HW249894   0.082   1.575  28.441
12756SOL     OW49895   4.467   4.045   1.396
12756SOL    HW149896   4.414   3.987   1.451
12756SOL    HW249897   4.463   4.130   1.440
12757SOL     OW49898   2.351   2.864   3.527
12757SOL    HW149899   2.417   2.805   3.489
12757SOL    HW249900   2.307   2.903   3.452
12758SOL     OW49901   2.493   1.745  11.001
12758SOL    HW149902   2.584   1.769  11.017
12758SOL    HW249903   2.443   1.815  11.043
12759SOL     OW49904   4.475   4.058  11.104
12759SOL    HW149905   4.414   3.995  11.142
12759SOL    HW249906   4.429   4.093  11.028
12760SOL     OW49907   3.491   0.424  10.113
12760SOL    HW149908   3.483   0.488  10.183
12760SOL    HW249909   3.547   0.356  10.149
12761SOL     OW49910   3.909   4.448   3.768
12761SOL    HW149911   3.824   4.430   3.808
12761SOL    HW249912   3.927   4.371   3.714
12762SOL     OW49913   1.657   3.357   8.991
12762SOL    HW149914   1.666   3.390   8.902
12762SOL    HW249915   1.729   3.398   9.039
12763SOL     OW49916   4.042   3.164  21.138
12763SOL    HW149917   4.005   3.081  21.168
12763SOL    HW249918   4.089   3.141  21.058
12764SOL     OW49919   1.891   3.450   3.729
12764SOL    HW149920   1.972   3.407   3.757
12764SOL    HW249921   1.838   3.457   3.809
12765SOL     OW49922   3.653   1.314   7.353
12765SOL    HW149923   3.650   1.334   7.259
12765SOL    HW249924   3.576   1.259   7.368
12766SOL     OW49925   4.037   3.265  27.152
12766SOL    HW149926   3.968   3.320  27.190
12766SOL    HW249927   4.045   3.296  27.062
12767SOL     OW49928   3.127   0.040  22.844
12767SOL    HW149929   3.134   4.766  22.922
12767SOL    HW249930   3.216   0.071  22.829
12768SOL     OW49931   2.410   3.754   8.851
12768SOL    HW149932   2.424   3.752   8.946
12768SOL    HW249933   2.481   3.808   8.817
12769SOL     OW49934   2.107   3.569   6.760
12769SOL    HW149935   2.112   3.620   6.679
12769SOL    HW249936   2.192   3.525   6.766
12770SOL     OW49937   3.270   0.351  23.525
12770SOL    HW149938   3.256   0.436  23.483
12770SOL    HW249939   3.365   0.342  23.530
12771SOL     OW49940   1.752   4.007   7.639
12771SOL    HW149941   1.840   3.990   7.606
12771SOL    HW249942   1.761   4.088   7.690
12772SOL     OW49943   1.340   0.252  22.859
12772SOL    HW149944   1.281   0.180  22.879
12772SOL    HW249945   1.412   0.243  22.921
12773SOL     OW49946   0.396   3.006   1.028
12773SOL    HW149947   0.314   3.055   1.021
12773SOL    HW249948   0.406   2.964   0.943
12774SOL     OW49949   2.594   2.257  10.297
12774SOL    HW149950   2.645   2.336  10.315
12774SOL    HW249951   2.561   2.269  10.208
12775SOL     OW49952   2.235   2.876   8.166
12775SOL    HW149953   2.306   2.824   8.128
12775SOL    HW249954   2.259   2.886   8.258
12776SOL     OW49955   1.857   1.989  23.591
12776SOL    HW149956   1.785   1.939  23.628
12776SOL    HW249957   1.862   1.961  23.500
12777SOL     OW49958   4.064   2.643   2.932
12777SOL    HW149959   4.122   2.572   2.959
12777SOL    HW249960   4.076   2.650   2.837
12778SOL     OW49961   2.689   4.108  24.551
12778SOL    HW149962   2.762   4.155  24.510
12778SOL    HW249963   2.726   4.024  24.578
12779SOL     OW49964   4.606   0.931   9.952
12779SOL    HW149965   4.527   0.899   9.909
12779SOL    HW249966   4.577   0.954  10.040
12780SOL     OW49967   3.946   0.109   4.097
12780SOL    HW149968   3.893   0.079   4.023
12780SOL    HW249969   4.000   0.034   4.120
12781SOL     OW49970   2.508   0.865   5.314
12781SOL    HW149971   2.477   0.822   5.234
12781SOL    HW249972   2.468   0.815   5.385
12782SOL     OW49973   1.455   1.888   1.620
12782SOL    HW149974   1.506   1.823   1.669
12782SOL    HW249975   1.367   1.851   1.616
12783SOL     OW49976   0.706   4.709  10.429
12783SOL    HW149977   0.799   4.707  10.452
12783SOL    HW249978   0.668   4.635  10.476
12784SOL     OW49979   1.776   4.003   9.269
12784SOL    HW149980   1.738   4.090   9.284
12784SOL    HW249981   1.742   3.977   9.183
12785SOL     OW49982   0.218   1.883  10.822
12785SOL    HW149983   0.128   1.903  10.848
12785SOL    HW249984   0.209   1.825  10.746
12786SOL     OW49985   1.579   2.275  19.452
12786SOL    HW149986   1.535   2.350  19.493
12786SOL    HW249987   1.517   2.244  19.386
12787SOL     OW49988   1.122   4.062   3.918
12787SOL    HW149989   1.099   4.083   3.828
12787SOL    HW249990   1.206   4.105   3.932
12788SOL     OW49991   3.210   3.967   1.687
12788SOL    HW149992   3.160   4.003   1.614
12788SOL    HW249993   3.163   3.996   1.765
12789SOL     OW49994   2.224   3.751  22.084
12789SOL    HW149995   2.286   3.816  22.051
12789SOL    HW249996   2.215   3.688  22.013
12790SOL     OW49997   0.418   4.362  26.528
12790SOL    HW149998   0.504   4.349  26.489
12790SOL    HW249999   0.433   4.353  26.622
12791SOL     OW50000   0.001   4.198   9.361
12791SOL    HW150001   0.090   4.190   9.326
12791SOL    HW250002   4.765   4.292   9.361
12792SOL     OW50003   2.425   3.221  20.435
12792SOL    HW150004   2.357   3.180  20.381
12792SOL    HW250005   2.388   3.306  20.460
12793SOL     OW50006   4.046   4.643   6.557
12793SOL    HW150007   4.128   4.662   6.602
12793SOL    HW250008   4.071   4.631   6.465
12794SOL     OW50009   0.817   3.785   3.960
12794SOL    HW150010   0.831   3.877   3.983
12794SOL    HW250011   0.727   3.782   3.926
12795SOL     OW50012   3.934   2.053  26.437
12795SOL    HW150013   3.975   1.968  26.451
12795SOL    HW250014   3.843   2.041  26.465
12796SOL     OW50015   0.034   1.968  17.565
12796SOL    HW150016   0.001   1.961  17.475
12796SOL    HW250017   4.736   1.973  17.619
12797SOL     OW50018   4.022   1.141   9.733
12797SOL    HW150019   4.096   1.125   9.675
12797SOL    HW250020   4.034   1.079   9.805
12798SOL     OW50021   2.769   0.567  24.846
12798SOL    HW150022   2.847   0.607  24.884
12798SOL    HW250023   2.721   0.533  24.921
12799SOL     OW50024   0.316   0.051   9.287
12799SOL    HW150025   0.257   4.757   9.277
12799SOL    HW250026   0.272   0.109   9.349
12800SOL     OW50027   3.672   1.174  11.940
12800SOL    HW150028   3.713   1.196  12.024
12800SOL    HW250029   3.582   1.152  11.962
12801SOL     OW50030   1.221   4.733  19.716
12801SOL    HW150031   1.252   4.642  19.712
12801SOL    HW250032   1.246   4.770  19.632
12802SOL     OW50033   0.373   2.548   6.638
12802SOL    HW150034   0.448   2.521   6.691
12802SOL    HW250035   0.398   2.524   6.549
12803SOL     OW50036   1.066   0.043   5.494
12803SOL    HW150037   1.043   4.738   5.530
12803SOL    HW250038   1.117   0.024   5.416
12804SOL     OW50039   0.672   0.169  10.309
12804SOL    HW150040   0.720   0.226  10.370
12804SOL    HW250041   0.682   0.081  10.346
12805SOL     OW50042   0.959   3.096   2.481
12805SOL    HW150043   1.025   3.162   2.457
12805SOL    HW250044   1.008   3.029   2.528
12806SOL     OW50045   3.882   2.283  23.234
12806SOL    HW150046   3.966   2.308  23.273
12806SOL    HW250047   3.844   2.222  23.297
12807SOL     OW50048   4.772   3.214   3.412
12807SOL    HW150049   0.044   3.288   3.441
12807SOL    HW250050   4.722   3.248   3.337
12808SOL     OW50051   3.187   3.774   8.809
12808SOL    HW150052   3.194   3.689   8.853
12808SOL    HW250053   3.253   3.770   8.739
12809SOL     OW50054   2.320   4.050  21.134
12809SOL    HW150055   2.332   3.969  21.184
12809SOL    HW250056   2.236   4.084  21.164
12810SOL     OW50057   2.178   4.375  23.746
12810SOL    HW150058   2.173   4.338  23.658
12810SOL    HW250059   2.145   4.464  23.737
12811SOL     OW50060   0.792   2.301  23.804
12811SOL    HW150061   0.740   2.343  23.872
12811SOL    HW250062   0.879   2.291  23.842
12812SOL     OW50063   3.533   4.102  23.779
12812SOL    HW150064   3.514   4.047  23.855
12812SOL    HW250065   3.477   4.068  23.710
12813SOL     OW50066   0.390   2.568  27.541
12813SOL    HW150067   0.467   2.616  27.511
12813SOL    HW250068   0.337   2.633  27.587
12814SOL     OW50069   3.930   2.522  20.036
12814SOL    HW150070   4.017   2.549  20.005
12814SOL    HW250071   3.947   2.447  20.093
12815SOL     OW50072   0.209   3.062   1.685
12815SOL    HW150073   0.182   2.974   1.710
12815SOL    HW250074   0.305   3.058   1.683
12816SOL     OW50075   1.279   0.008   5.279
12816SOL    HW150076   1.374   4.780   5.277
12816SOL    HW250077   1.258   0.061   5.202
12817SOL     OW50078   3.787   3.248   3.896
12817SOL    HW150079   3.730   3.297   3.837
12817SOL    HW250080   3.727   3.208   3.959
12818SOL     OW50081   0.176   3.889  20.480
12818SOL    HW150082   0.260   3.848  20.460
12818SOL    HW250083   0.174   3.967  20.424
12819SOL     OW50084   2.497   2.025  27.892
12819SOL    HW150085   2.441   2.079  27.836
12819SOL    HW250086   2.547   2.088  27.943
12820SOL     OW50087   4.622   3.532   0.810
12820SOL    HW150088   4.709   3.496   0.830
12820SOL    HW250089   4.639   3.608   0.754
12821SOL     OW50090   0.453   2.578  23.737
12821SOL    HW150091   0.524   2.575  23.673
12821SOL    HW250092   0.378   2.610  23.688
12822SOL     OW50093   1.938   4.280  22.817
12822SOL    HW150094   1.956   4.371  22.794
12822SOL    HW250095   1.853   4.282  22.862
12823SOL     OW50096   1.123   0.410   6.578
12823SOL    HW150097   1.145   0.340   6.640
12823SOL    HW250098   1.045   0.451   6.616
12824SOL     OW50099   1.825   4.641   7.944
12824SOL    HW150100   1.914   4.655   7.912
12824SOL    HW250101   1.797   4.727   7.975
12825SOL     OW50102   4.256   0.753   4.222
12825SOL    HW150103   4.211   0.808   4.286
12825SOL    HW250104   4.205   0.764   4.142
12826SOL     OW50105   0.136   4.677   6.822
12826SOL    HW150106   0.218   4.719   6.795
12826SOL    HW250107   0.118   4.613   6.753
12827SOL     OW50108   4.572   0.099   7.948
12827SOL    HW150109   4.614   0.084   7.863
12827SOL    HW250110   4.478   0.089   7.931
12828SOL     OW50111   2.098   0.558   0.810
12828SOL    HW150112   2.165   0.499   0.776
12828SOL    HW250113   2.066   0.605   0.733
12829SOL     OW50114   1.484   4.152   6.303
12829SOL    HW150115   1.573   4.164   6.271
12829SOL    HW250116   1.430   4.208   6.248
12830SOL     OW50117   3.936   2.313  17.954
12830SOL    HW150118   3.966   2.262  18.030
12830SOL    HW250119   3.935   2.404  17.985
12831SOL     OW50120   4.190   4.112   6.328
12831SOL    HW150121   4.173   4.175   6.258
12831SOL    HW250122   4.107   4.065   6.339
12832SOL     OW50123   0.061   1.881  16.918
12832SOL    HW150124   0.137   1.836  16.956
12832SOL    HW250125   0.091   1.910  16.832
12833SOL     OW50126   1.692   3.835  22.995
12833SOL    HW150127   1.617   3.882  23.032
12833SOL    HW250128   1.761   3.901  22.988
12834SOL     OW50129   1.820   0.333   9.653
12834SOL    HW150130   1.861   0.385   9.722
12834SOL    HW250131   1.734   0.373   9.640
12835SOL     OW50132   3.279   1.161  12.194
12835SOL    HW150133   3.331   1.238  12.172
12835SOL    HW250134   3.292   1.101  12.121
12836SOL     OW50135   0.138   0.706  23.633
12836SOL    HW150136   0.198   0.693  23.707
12836SOL    HW250137   0.107   0.618  23.612
12837SOL     OW50138   0.728   4.675  21.035
12837SOL    HW150139   0.683   4.611  20.980
12837SOL    HW250140   0.821   4.658  21.022
12838SOL     OW50141   1.038   3.302  21.709
12838SOL    HW150142   0.987   3.334  21.783
12838SOL    HW250143   1.117   3.264  21.748
12839SOL     OW50144   0.821   2.801   9.301
12839SOL    HW150145   0.845   2.893   9.287
12839SOL    HW250146   0.773   2.800   9.384
12840SOL     OW50147   1.951   4.609   0.962
12840SOL    HW150148   1.924   4.613   0.870
12840SOL    HW250149   2.035   4.655   0.965
12841SOL     OW50150   4.007   4.755  23.053
12841SOL    HW150151   3.973   4.668  23.031
12841SOL    HW250152   4.102   4.747  23.046
12842SOL     OW50153   4.292   0.312   8.970
12842SOL    HW150154   4.318   0.373   8.901
12842SOL    HW250155   4.269   0.232   8.923
12843SOL     OW50156   3.717   3.068  21.281
12843SOL    HW150157   3.788   3.012  21.312
12843SOL    HW250158   3.681   3.107  21.360
12844SOL     OW50159   3.649   3.016  17.838
12844SOL    HW150160   3.711   2.978  17.776
12844SOL    HW250161   3.673   3.108  17.844
12845SOL     OW50162   3.223   0.792   5.009
12845SOL    HW150163   3.178   0.709   4.993
12845SOL    HW250164   3.178   0.855   4.953
12846SOL     OW50165   4.725   2.006   6.136
12846SOL    HW150166   4.706   2.077   6.198
12846SOL    HW250167   0.038   2.015   6.118
12847SOL     OW50168   1.907   2.600   2.357
12847SOL    HW150169   1.966   2.654   2.410
12847SOL    HW250170   1.963   2.562   2.289
12848SOL     OW50171   1.275   2.646  28.298
12848SOL    HW150172   1.299   2.663  28.389
12848SOL    HW250173   1.341   2.585  28.266
12849SOL     OW50174   2.833   1.299  21.464
12849SOL    HW150175   2.846   1.381  21.417
12849SOL    HW250176   2.851   1.320  21.556
12850SOL     OW50177   1.843   3.707  18.402
12850SOL    HW150178   1.868   3.693  18.493
12850SOL    HW250179   1.836   3.619  18.366
12851SOL     OW50180   4.716   4.692  19.539
12851SOL    HW150181   4.773   4.717  19.466
12851SOL    HW250182   4.628   4.689  19.501
12852SOL     OW50183   1.919   4.278   7.322
12852SOL    HW150184   1.926   4.196   7.273
12852SOL    HW250185   2.008   4.313   7.322
12853SOL     OW50186   0.684   4.528   6.352
12853SOL    HW150187   0.738   4.603   6.378
12853SOL    HW250188   0.719   4.455   6.404
12854SOL     OW50189   2.009   1.135   0.308
12854SOL    HW150190   2.037   1.134   0.399
12854SOL    HW250191   2.083   1.173   0.260
12855SOL     OW50192   4.533   4.611  25.503
12855SOL    HW150193   4.491   4.679  25.556
12855SOL    HW250194   4.554   4.541  25.565
12856SOL     OW50195   2.677   3.513   8.020
12856SOL    HW150196   2.654   3.595   8.063
12856SOL    HW250197   2.680   3.535   7.927
12857SOL     OW50198   3.198   1.162  20.690
12857SOL    HW150199   3.221   1.207  20.771
12857SOL    HW250200   3.112   1.198  20.666
12858SOL     OW50201   1.869   4.137   3.896
12858SOL    HW150202   1.871   4.160   3.803
12858SOL    HW250203   1.892   4.218   3.941
12859SOL     OW50204   2.565   1.076   6.918
12859SOL    HW150205   2.580   1.166   6.889
12859SOL    HW250206   2.589   1.076   7.011
12860SOL     OW50207   4.248   3.792  20.557
12860SOL    HW150208   4.176   3.784  20.619
12860SOL    HW250209   4.208   3.833  20.480
12861SOL     OW50210   2.447   1.805  17.598
12861SOL    HW150211   2.472   1.739  17.663
12861SOL    HW250212   2.359   1.779  17.571
12862SOL     OW50213   1.241   3.381  24.403
12862SOL    HW150214   1.197   3.415  24.481
12862SOL    HW250215   1.311   3.325  24.437
12863SOL     OW50216   2.694   0.451  10.334
12863SOL    HW150217   2.699   0.363  10.296
12863SOL    HW250218   2.658   0.437  10.422
12864SOL     OW50219   3.216   0.356  28.189
12864SOL    HW150220   3.263   0.402  28.259
12864SOL    HW250221   3.169   0.286  28.234
12865SOL     OW50222   0.417   4.012   1.347
12865SOL    HW150223   0.509   4.027   1.370
12865SOL    HW250224   0.420   3.976   1.258
12866SOL     OW50225   2.292   0.567  24.088
12866SOL    HW150226   2.347   0.505  24.040
12866SOL    HW250227   2.324   0.562  24.178
12867SOL     OW50228   3.271   0.033   5.983
12867SOL    HW150229   3.231   4.735   6.019
12867SOL    HW250230   3.200   0.077   5.936
12868SOL     OW50231   4.659   1.713   0.456
12868SOL    HW150232   4.673   1.806   0.439
12868SOL    HW250233   4.733   1.688   0.511
12869SOL     OW50234   1.563   2.756  24.258
12869SOL    HW150235   1.520   2.685  24.306
12869SOL    HW250236   1.600   2.812  24.326
12870SOL     OW50237   1.447   1.419   4.150
12870SOL    HW150238   1.371   1.374   4.114
12870SOL    HW250239   1.414   1.504   4.178
12871SOL     OW50240   2.443   1.938   5.481
12871SOL    HW150241   2.442   1.964   5.573
12871SOL    HW250242   2.352   1.946   5.453
12872SOL     OW50243   2.004   4.288  26.819
12872SOL    HW150244   1.911   4.270  26.830
12872SOL    HW250245   2.009   4.338  26.738
12873SOL     OW50246   2.152   3.896   1.842
12873SOL    HW150247   2.098   3.962   1.799
12873SOL    HW250248   2.117   3.892   1.931
12874SOL     OW50249   1.872   2.468  20.446
12874SOL    HW150250   1.907   2.555  20.427
12874SOL    HW250251   1.855   2.429  20.360
12875SOL     OW50252   2.596   1.207  21.262
12875SOL    HW150253   2.665   1.164  21.212
12875SOL    HW250254   2.613   1.301  21.252
12876SOL     OW50255   4.225   0.508   6.463
12876SOL    HW150256   4.223   0.446   6.390
12876SOL    HW250257   4.314   0.543   6.462
12877SOL     OW50258   1.703   0.950   2.783
12877SOL    HW150259   1.650   1.029   2.784
12877SOL    HW250260   1.724   0.936   2.691
12878SOL     OW50261   2.816   1.920  27.814
12878SOL    HW150262   2.805   1.827  27.795
12878SOL    HW250263   2.732   1.959  27.792
12879SOL     OW50264   4.065   1.422  10.631
12879SOL    HW150265   4.083   1.505  10.587
12879SOL    HW250266   3.970   1.410  10.623
12880SOL     OW50267   0.396   2.653  25.592
12880SOL    HW150268   0.418   2.560  25.597
12880SOL    HW250269   0.309   2.660  25.632
12881SOL     OW50270   0.725   2.633  24.141
12881SOL    HW150271   0.734   2.548  24.184
12881SOL    HW250272   0.716   2.696  24.213
12882SOL     OW50273   4.124   0.050   3.270
12882SOL    HW150274   4.076   0.105   3.208
12882SOL    HW250275   4.058   0.023   3.334
12883SOL     OW50276   3.137   3.048   7.739
12883SOL    HW150277   3.082   2.971   7.724
12883SOL    HW250278   3.191   3.055   7.660
12884SOL     OW50279   3.730   2.043  24.377
12884SOL    HW150280   3.640   2.050  24.410
12884SOL    HW250281   3.732   1.959  24.331
12885SOL     OW50282   4.112   1.237   6.420
12885SOL    HW150283   4.199   1.201   6.439
12885SOL    HW250284   4.085   1.194   6.339
12886SOL     OW50285   2.184   1.163  27.147
12886SOL    HW150286   2.239   1.240  27.131
12886SOL    HW250287   2.094   1.197  27.145
12887SOL     OW50288   4.383   2.894   3.361
12887SOL    HW150289   4.458   2.928   3.410
12887SOL    HW250290   4.308   2.945   3.393
12888SOL     OW50291   2.083   3.496   5.989
12888SOL    HW150292   2.177   3.481   5.977
12888SOL    HW250293   2.076   3.532   6.077
12889SOL     OW50294   2.103   1.454  12.820
12889SOL    HW150295   2.079   1.402  12.897
12889SOL    HW250296   2.164   1.520  12.853
12890SOL     OW50297   2.907   1.318  23.199
12890SOL    HW150298   2.813   1.334  23.189
12890SOL    HW250299   2.949   1.390  23.151
12891SOL     OW50300   3.187   1.421  25.670
12891SOL    HW150301   3.116   1.480  25.694
12891SOL    HW250302   3.151   1.333  25.684
12892SOL     OW50303   0.560   2.797  12.240
12892SOL    HW150304   0.492   2.732  12.257
12892SOL    HW250305   0.639   2.761  12.281
12893SOL     OW50306   2.776   3.572   2.668
12893SOL    HW150307   2.757   3.489   2.712
12893SOL    HW250308   2.723   3.569   2.588
12894SOL     OW50309   2.409   3.015  24.608
12894SOL    HW150310   2.376   2.929  24.636
12894SOL    HW250311   2.498   3.019  24.642
12895SOL     OW50312   2.355   4.493   2.284
12895SOL    HW150313   2.433   4.462   2.238
12895SOL    HW250314   2.323   4.566   2.231
12896SOL     OW50315   1.033   2.276  22.081
12896SOL    HW150316   0.945   2.241  22.065
12896SOL    HW250317   1.040   2.280  22.176
12897SOL     OW50318   2.559   1.123   3.487
12897SOL    HW150319   2.492   1.110   3.420
12897SOL    HW250320   2.532   1.068   3.560
12898SOL     OW50321   0.532   3.374  24.158
12898SOL    HW150322   0.502   3.284  24.169
12898SOL    HW250323   0.511   3.396  24.067
12899SOL     OW50324   2.311   3.415  26.101
12899SOL    HW150325   2.395   3.370  26.091
12899SOL    HW250326   2.266   3.365  26.169
12900SOL     OW50327   0.843   0.662   1.802
12900SOL    HW150328   0.917   0.683   1.745
12900SOL    HW250329   0.770   0.713   1.766
12901SOL     OW50330   3.796   1.418   8.341
12901SOL    HW150331   3.841   1.373   8.413
12901SOL    HW250332   3.829   1.375   8.262
12902SOL     OW50333   4.372   1.730   3.541
12902SOL    HW150334   4.356   1.668   3.469
12902SOL    HW250335   4.466   1.747   3.538
12903SOL     OW50336   0.606   0.314   6.945
12903SOL    HW150337   0.622   0.342   7.035
12903SOL    HW250338   0.676   0.355   6.895
12904SOL     OW50339   1.174   3.678  25.021
12904SOL    HW150340   1.184   3.675  24.926
12904SOL    HW250341   1.227   3.605  25.053
12905SOL     OW50342   4.387   3.807   6.970
12905SOL    HW150343   4.445   3.758   6.912
12905SOL    HW250344   4.301   3.800   6.929
12906SOL     OW50345   3.602   3.444  10.994
12906SOL    HW150346   3.655   3.366  10.975
12906SOL    HW250347   3.522   3.410  11.033
12907SOL     OW50348   0.292   1.325   6.522
12907SOL    HW150349   0.343   1.249   6.549
12907SOL    HW250350   0.210   1.288   6.488
12908SOL     OW50351   2.613   0.830  25.113
12908SOL    HW150352   2.549   0.882  25.162
12908SOL    HW250353   2.608   0.743  25.152
12909SOL     OW50354   2.294   3.143   2.320
12909SOL    HW150355   2.273   3.081   2.250
12909SOL    HW250356   2.300   3.089   2.399
12910SOL     OW50357   1.563   3.075   6.370
12910SOL    HW150358   1.485   3.078   6.426
12910SOL    HW250359   1.630   3.034   6.424
12911SOL     OW50360   2.868   3.297   0.680
12911SOL    HW150361   2.854   3.375   0.626
12911SOL    HW250362   2.954   3.264   0.652
12912SOL     OW50363   3.238   4.722  21.128
12912SOL    HW150364   3.241   0.008  21.196
12912SOL    HW250365   3.260   4.769  21.047
12913SOL     OW50366   3.042   1.543  23.106
12913SOL    HW150367   3.127   1.505  23.083
12913SOL    HW250368   3.063   1.614  23.167
12914SOL     OW50369   0.329   0.655   6.440
12914SOL    HW150370   0.422   0.659   6.461
12914SOL    HW250371   0.325   0.671   6.346
12915SOL     OW50372   0.627   0.570   4.062
12915SOL    HW150373   0.590   0.531   3.983
12915SOL    HW250374   0.721   0.576   4.044
12916SOL     OW50375   3.270   3.501  23.137
12916SOL    HW150376   3.318   3.429  23.096
12916SOL    HW250377   3.338   3.561  23.168
12917SOL     OW50378   0.783   2.984  22.542
12917SOL    HW150379   0.865   3.010  22.585
12917SOL    HW250380   0.799   2.895  22.510
12918SOL     OW50381   2.624   3.240  12.553
12918SOL    HW150382   2.690   3.228  12.621
12918SOL    HW250383   2.623   3.334  12.538
12919SOL     OW50384   0.983   3.288  11.749
12919SOL    HW150385   0.983   3.207  11.800
12919SOL    HW250386   1.034   3.349  11.802
12920SOL     OW50387   2.731   2.774   0.940
12920SOL    HW150388   2.715   2.863   0.909
12920SOL    HW250389   2.826   2.764   0.938
12921SOL     OW50390   2.547   4.536  28.266
12921SOL    HW150391   2.606   4.463  28.287
12921SOL    HW250392   2.465   4.514  28.310
12922SOL     OW50393   0.303   1.581   6.565
12922SOL    HW150394   0.290   1.489   6.543
12922SOL    HW250395   0.387   1.583   6.611
12923SOL     OW50396   4.008   1.370   0.569
12923SOL    HW150397   4.029   1.353   0.661
12923SOL    HW250398   3.986   1.463   0.567
12924SOL     OW50399   4.743   4.524   7.015
12924SOL    HW150400   4.673   4.483   6.964
12924SOL    HW250401   4.779   4.591   6.957
12925SOL     OW50402   4.044   2.564  27.420
12925SOL    HW150403   3.969   2.623  27.429
12925SOL    HW250404   4.115   2.621  27.390
12926SOL     OW50405   2.725   1.265  18.361
12926SOL    HW150406   2.647   1.224  18.399
12926SOL    HW250407   2.741   1.342  18.415
12927SOL     OW50408   2.332   1.510  27.840
12927SOL    HW150409   2.380   1.592  27.850
12927SOL    HW250410   2.362   1.475  27.756
12928SOL     OW50411   2.046   4.717   9.775
12928SOL    HW150412   2.031   4.769   9.854
12928SOL    HW250413   1.986   4.753   9.710
12929SOL     OW50414   3.503   1.678  11.125
12929SOL    HW150415   3.533   1.625  11.199
12929SOL    HW250416   3.505   1.768  11.158
12930SOL     OW50417   2.337   4.778  23.501
12930SOL    HW150418   2.398   4.715  23.539
12930SOL    HW250419   2.389   0.046  23.438
12931SOL     OW50420   2.277   0.581   0.497
12931SOL    HW150421   2.320   0.557   0.579
12931SOL    HW250422   2.307   0.516   0.434
12932SOL     OW50423   4.234   0.138   6.975
12932SOL    HW150424   4.238   0.049   7.009
12932SOL    HW250425   4.320   0.151   6.934
12933SOL     OW50426   3.672   2.966  23.582
12933SOL    HW150427   3.668   3.056  23.615
12933SOL    HW250428   3.645   2.973  23.490
12934SOL     OW50429   3.064   2.395  28.360
12934SOL    HW150430   3.159   2.386  28.354
12934SOL    HW250431   3.034   2.311  28.395
12935SOL     OW50432   2.082   2.242   8.324
12935SOL    HW150433   2.020   2.315   8.332
12935SOL    HW250434   2.156   2.267   8.380
12936SOL     OW50435   3.415   1.639  21.785
12936SOL    HW150436   3.508   1.650  21.806
12936SOL    HW250437   3.403   1.685  21.702
12937SOL     OW50438   0.192   4.163   6.057
12937SOL    HW150439   0.139   4.124   5.987
12937SOL    HW250440   0.182   4.257   6.045
12938SOL     OW50441   1.512   0.030   0.073
12938SOL    HW150442   1.456   0.105   0.093
12938SOL    HW250443   1.452   4.745   0.038
12939SOL     OW50444   4.724   2.880  23.225
12939SOL    HW150445   4.774   2.953  23.187
12939SOL    HW250446   4.635   2.892  23.191
12940SOL     OW50447   4.024   3.603   2.074
12940SOL    HW150448   4.030   3.510   2.054
12940SOL    HW250449   4.017   3.607   2.169
12941SOL     OW50450   3.297   0.670  23.814
12941SOL    HW150451   3.229   0.672  23.746
12941SOL    HW250452   3.299   0.759  23.848
12942SOL     OW50453   1.519   0.458   2.300
12942SOL    HW150454   1.458   0.504   2.358
12942SOL    HW250455   1.603   0.463   2.346
12943SOL     OW50456   2.437   1.570   8.422
12943SOL    HW150457   2.399   1.636   8.364
12943SOL    HW250458   2.432   1.609   8.509
12944SOL     OW50459   2.514   2.481   2.250
12944SOL    HW150460   2.429   2.436   2.250
12944SOL    HW250461   2.556   2.452   2.169
12945SOL     OW50462   2.949   2.449  26.047
12945SOL    HW150463   3.024   2.430  26.103
12945SOL    HW250464   2.881   2.481  26.107
12946SOL     OW50465   0.596   3.858  28.304
12946SOL    HW150466   0.555   3.929  28.255
12946SOL    HW250467   0.533   3.786  28.300
12947SOL     OW50468   0.845   0.999  28.243
12947SOL    HW150469   0.823   1.013  28.151
12947SOL    HW250470   0.892   0.915  28.243
12948SOL     OW50471   0.339   3.405   5.017
12948SOL    HW150472   0.305   3.448   5.096
12948SOL    HW250473   0.306   3.315   5.023
12949SOL     OW50474   0.931   0.069  23.258
12949SOL    HW150475   0.924   0.051  23.352
12949SOL    HW250476   0.855   0.124  23.239
12950SOL     OW50477   2.029   0.228  22.109
12950SOL    HW150478   1.951   0.216  22.163
12950SOL    HW250479   2.014   0.311  22.064
12951SOL     OW50480   1.986   2.664  25.437
12951SOL    HW150481   2.017   2.749  25.405
12951SOL    HW250482   2.056   2.603  25.414
12952SOL     OW50483   0.065   3.608   6.151
12952SOL    HW150484   0.144   3.583   6.199
12952SOL    HW250485   0.025   3.677   6.204
12953SOL     OW50486   2.039   2.950  26.585
12953SOL    HW150487   2.131   2.933  26.606
12953SOL    HW250488   2.005   2.995  26.662
12954SOL     OW50489   0.375   4.221  27.059
12954SOL    HW150490   0.458   4.181  27.085
12954SOL    HW250491   0.381   4.311  27.090
12955SOL     OW50492   3.333   1.640   7.027
12955SOL    HW150493   3.365   1.578   6.961
12955SOL    HW250494   3.244   1.662   6.998
12956SOL     OW50495   2.648   0.832  20.653
12956SOL    HW150496   2.674   0.913  20.609
12956SOL    HW250497   2.580   0.795  20.597
12957SOL     OW50498   3.579   1.170   4.315
12957SOL    HW150499   3.585   1.075   4.318
12957SOL    HW250500   3.540   1.190   4.230
12958SOL     OW50501   2.290   2.624   6.790
12958SOL    HW150502   2.265   2.571   6.715
12958SOL    HW250503   2.383   2.606   6.802
12959SOL     OW50504   4.038   0.649  22.749
12959SOL    HW150505   4.046   0.736  22.788
12959SOL    HW250506   4.122   0.606  22.767
12960SOL     OW50507   3.929   1.543  26.740
12960SOL    HW150508   3.967   1.523  26.826
12960SOL    HW250509   3.946   1.636  26.727
12961SOL     OW50510   3.693   1.185  24.846
12961SOL    HW150511   3.627   1.183  24.915
12961SOL    HW250512   3.669   1.112  24.788
12962SOL     OW50513   3.927   3.326   0.279
12962SOL    HW150514   3.923   3.242   0.325
12962SOL    HW250515   3.994   3.376   0.327
12963SOL     OW50516   2.989   2.003   4.650
12963SOL    HW150517   2.960   2.067   4.715
12963SOL    HW250518   2.923   1.933   4.654
12964SOL     OW50519   0.684   1.862   0.062
12964SOL    HW150520   0.766   1.822   0.091
12964SOL    HW250521   0.683   1.847  28.490
12965SOL     OW50522   2.573   1.192   1.078
12965SOL    HW150523   2.529   1.156   1.155
12965SOL    HW250524   2.545   1.136   1.006
12966SOL     OW50525   2.858   1.227  23.504
12966SOL    HW150526   2.765   1.249  23.505
12966SOL    HW250527   2.869   1.173  23.426
12967SOL     OW50528   4.123   0.859   8.560
12967SOL    HW150529   4.199   0.915   8.573
12967SOL    HW250530   4.060   0.887   8.626
12968SOL     OW50531   3.382   0.314   7.691
12968SOL    HW150532   3.331   0.347   7.765
12968SOL    HW250533   3.405   0.392   7.641
12969SOL     OW50534   3.837   1.056  21.304
12969SOL    HW150535   3.763   1.022  21.355
12969SOL    HW250536   3.895   0.981  21.292
12970SOL     OW50537   0.560   1.460  23.226
12970SOL    HW150538   0.652   1.452  23.251
12970SOL    HW250539   0.547   1.391  23.161
12971SOL     OW50540   2.709   2.845   2.140
12971SOL    HW150541   2.686   2.768   2.088
12971SOL    HW250542   2.781   2.886   2.092
12972SOL     OW50543   2.895   3.472  11.750
12972SOL    HW150544   2.909   3.471  11.845
12972SOL    HW250545   2.934   3.554  11.721
12973SOL     OW50546   3.719   2.717  19.968
12973SOL    HW150547   3.760   2.796  19.933
12973SOL    HW250548   3.792   2.662  19.994
12974SOL     OW50549   3.727   0.326  11.313
12974SOL    HW150550   3.703   0.289  11.398
12974SOL    HW250551   3.821   0.344  11.320
12975SOL     OW50552   1.890   4.481   4.436
12975SOL    HW150553   1.962   4.419   4.446
12975SOL    HW250554   1.921   4.561   4.477
12976SOL     OW50555   1.604   0.935   4.506
12976SOL    HW150556   1.518   0.940   4.464
12976SOL    HW250557   1.635   1.026   4.506
12977SOL     OW50558   1.351   2.371   7.522
12977SOL    HW150559   1.271   2.337   7.561
12977SOL    HW250560   1.388   2.296   7.475
12978SOL     OW50561   3.021   1.770   7.052
12978SOL    HW150562   3.021   1.691   7.106
12978SOL    HW250563   3.043   1.739   6.964
12979SOL     OW50564   4.149   4.592   0.795
12979SOL    HW150565   4.239   4.625   0.799
12979SOL    HW250566   4.109   4.642   0.724
12980SOL     OW50567   1.786   2.058   0.367
12980SOL    HW150568   1.815   1.968   0.383
12980SOL    HW250569   1.848   2.113   0.414
12981SOL     OW50570   2.997   3.050   6.279
12981SOL    HW150571   2.948   2.969   6.262
12981SOL    HW250572   3.012   3.088   6.192
12982SOL     OW50573   0.319   0.896  12.354
12982SOL    HW150574   0.333   0.841  12.431
12982SOL    HW250575   0.233   0.869  12.321
12983SOL     OW50576   1.229   2.639   2.867
12983SOL    HW150577   1.292   2.572   2.839
12983SOL    HW250578   1.260   2.720   2.826
12984SOL     OW50579   4.726   1.530   6.830
12984SOL    HW150580   0.028   1.573   6.852
12984SOL    HW250581   4.726   1.449   6.882
12985SOL     OW50582   4.630   2.374  10.122
12985SOL    HW150583   4.552   2.340  10.165
12985SOL    HW250584   4.692   2.301  10.123
12986SOL     OW50585   3.717   2.750  13.139
12986SOL    HW150586   3.690   2.818  13.201
12986SOL    HW250587   3.663   2.766  13.061
12987SOL     OW50588   2.705   1.462   4.263
12987SOL    HW150589   2.740   1.468   4.352
12987SOL    HW250590   2.628   1.406   4.272
12988SOL     OW50591   2.217   2.762  20.807
12988SOL    HW150592   2.226   2.849  20.846
12988SOL    HW250593   2.126   2.738  20.824
12989SOL     OW50594   1.836   2.014  20.864
12989SOL    HW150595   1.930   2.030  20.860
12989SOL    HW250596   1.821   1.983  20.953
12990SOL     OW50597   3.041   3.633   7.708
12990SOL    HW150598   3.094   3.695   7.758
12990SOL    HW250599   3.097   3.556   7.699
12991SOL     OW50600   0.820   3.724  25.895
12991SOL    HW150601   0.843   3.796  25.954
12991SOL    HW250602   0.765   3.764  25.828
12992SOL     OW50603   2.724   0.077   8.069
12992SOL    HW150604   2.670   0.057   8.145
12992SOL    HW250605   2.675   0.143   8.021
12993SOL     OW50606   2.529   3.688   2.017
12993SOL    HW150607   2.481   3.724   2.092
12993SOL    HW250608   2.464   3.685   1.946
12994SOL     OW50609   2.738   3.201  11.575
12994SOL    HW150610   2.783   3.137  11.631
12994SOL    HW250611   2.808   3.243  11.525
12995SOL     OW50612   2.890   3.789   4.860
12995SOL    HW150613   2.835   3.799   4.938
12995SOL    HW250614   2.834   3.817   4.787
12996SOL     OW50615   3.859   3.319  24.415
12996SOL    HW150616   3.882   3.234  24.378
12996SOL    HW250617   3.829   3.371  24.340
12997SOL     OW50618   0.280   1.237  22.127
12997SOL    HW150619   0.223   1.279  22.063
12997SOL    HW250620   0.231   1.160  22.156
12998SOL     OW50621   3.276   4.000   4.234
12998SOL    HW150622   3.188   4.035   4.222
12998SOL    HW250623   3.273   3.956   4.319
12999SOL     OW50624   0.918   4.600   5.055
12999SOL    HW150625   0.938   4.517   5.011
12999SOL    HW250626   0.832   4.586   5.095
13000SOL     OW50627   2.393   1.161   3.256
13000SOL    HW150628   2.388   1.233   3.193
13000SOL    HW250629   2.404   1.082   3.203
13001SOL     OW50630   1.488   2.089  27.159
13001SOL    HW150631   1.502   2.158  27.224
13001SOL    HW250632   1.469   2.011  27.211
13002SOL     OW50633   1.353   1.548   6.825
13002SOL    HW150634   1.277   1.597   6.857
13002SOL    HW250635   1.382   1.496   6.900
13003SOL     OW50636   3.503   1.489  28.240
13003SOL    HW150637   3.476   1.525  28.155
13003SOL    HW250638   3.572   1.549  28.270
13004SOL     OW50639   0.344   1.498  20.903
13004SOL    HW150640   0.369   1.480  20.994
13004SOL    HW250641   0.398   1.572  20.877
13005SOL     OW50642   4.505   3.099   5.240
13005SOL    HW150643   4.571   3.067   5.179
13005SOL    HW250644   4.519   3.049   5.320
13006SOL     OW50645   0.527   1.761  10.325
13006SOL    HW150646   0.595   1.812  10.281
13006SOL    HW250647   0.531   1.789  10.416
13007SOL     OW50648   0.672   0.315   5.507
13007SOL    HW150649   0.690   0.406   5.484
13007SOL    HW250650   0.725   0.299   5.585
13008SOL     OW50651   0.170   2.416  11.146
13008SOL    HW150652   0.255   2.455  11.168
13008SOL    HW250653   0.191   2.325  11.124
13009SOL     OW50654   3.294   2.515  25.535
13009SOL    HW150655   3.312   2.578  25.465
13009SOL    HW250656   3.238   2.563  25.596
13010SOL     OW50657   1.658   1.853  21.629
13010SOL    HW150658   1.661   1.933  21.682
13010SOL    HW250659   1.708   1.875  21.550
13011SOL     OW50660   2.835   2.603  11.651
13011SOL    HW150661   2.879   2.583  11.568
13011SOL    HW250662   2.769   2.534  11.660
13012SOL     OW50663   4.707   2.746  26.167
13012SOL    HW150664   4.726   2.789  26.083
13012SOL    HW250665   4.613   2.758  26.179
13013SOL     OW50666   3.109   4.617  12.817
13013SOL    HW150667   3.037   4.599  12.757
13013SOL    HW250668   3.078   4.691  12.869
13014SOL     OW50669   1.046   3.581  11.652
13014SOL    HW150670   1.121   3.587  11.592
13014SOL    HW250671   1.076   3.522  11.722
13015SOL     OW50672   3.868   1.416  28.399
13015SOL    HW150673   3.803   1.482  28.375
13015SOL    HW250674   3.838   1.336  28.355
13016SOL     OW50675   1.549   3.913   2.363
13016SOL    HW150676   1.518   3.889   2.450
13016SOL    HW250677   1.470   3.939   2.316
13017SOL     OW50678   0.024   3.918  10.458
13017SOL    HW150679   4.755   3.923  10.539
13017SOL    HW250680   0.005   3.830  10.424
13018SOL     OW50681   4.569   3.014  28.326
13018SOL    HW150682   4.617   3.001  28.408
13018SOL    HW250683   4.552   3.108  28.323
13019SOL     OW50684   4.350   2.330  17.723
13019SOL    HW150685   4.437   2.302  17.695
13019SOL    HW250686   4.359   2.347  17.817
13020SOL     OW50687   0.472   3.054  11.594
13020SOL    HW150688   0.555   3.021  11.628
13020SOL    HW250689   0.487   3.148  11.582
13021SOL     OW50690   1.162   1.932  10.799
13021SOL    HW150691   1.254   1.927  10.825
13021SOL    HW250692   1.123   1.995  10.860
13022SOL     OW50693   3.832   3.330  11.934
13022SOL    HW150694   3.852   3.237  11.944
13022SOL    HW250695   3.880   3.356  11.856
13023SOL     OW50696   1.065   3.427  13.610
13023SOL    HW150697   1.014   3.485  13.553
13023SOL    HW250698   1.085   3.480  13.687
13024SOL     OW50699   0.596   2.288  12.685
13024SOL    HW150700   0.534   2.245  12.745
13024SOL    HW250701   0.651   2.217  12.652
13025SOL     OW50702   4.540   1.423  12.904
13025SOL    HW150703   4.622   1.460  12.938
13025SOL    HW250704   4.476   1.494  12.914
13026SOL     OW50705   4.207   2.888  11.330
13026SOL    HW150706   4.267   2.919  11.398
13026SOL    HW250707   4.139   2.841  11.377
13027SOL     OW50708   0.787   3.180  12.764
13027SOL    HW150709   0.744   3.101  12.732
13027SOL    HW250710   0.815   3.158  12.853
13028SOL     OW50711   3.611   2.456  10.154
13028SOL    HW150712   3.532   2.492  10.115
13028SOL    HW250713   3.681   2.516  10.127
13029SOL     OW50714   4.149   2.823  11.974
13029SOL    HW150715   4.111   2.850  12.057
13029SOL    HW250716   4.154   2.904  11.922
13030SOL     OW50717   0.903   2.291  12.706
13030SOL    HW150718   0.903   2.306  12.801
13030SOL    HW250719   0.870   2.202  12.695
13031SOL     OW50720   0.123   1.707  13.172
13031SOL    HW150721   0.060   1.765  13.215
13031SOL    HW250722   0.189   1.690  13.239
13032SOL     OW50723   3.669   2.028  13.174
13032SOL    HW150724   3.697   1.960  13.235
13032SOL    HW250725   3.668   1.985  13.088
13033SOL     OW50726   4.589   1.604  13.263
13033SOL    HW150727   4.665   1.596  13.321
13033SOL    HW250728   4.623   1.581  13.176
13034SOL     OW50729   1.180   2.240  12.953
13034SOL    HW150730   1.176   2.149  12.925
13034SOL    HW250731   1.243   2.241  13.025
13035SOL     OW50732   3.680   0.474   7.514
13035SOL    HW150733   3.644   0.558   7.543
13035SOL    HW250734   3.772   0.478   7.540
13036SOL     OW50735   0.027   1.947  12.475
13036SOL    HW150736   4.741   2.013  12.495
13036SOL    HW250737   0.103   1.972  12.528
13037SOL     OW50738   2.927   4.130  12.876
13037SOL    HW150739   3.016   4.102  12.856
13037SOL    HW250740   2.936   4.222  12.902
13038SOL     OW50741   1.105   3.325  13.030
13038SOL    HW150742   1.119   3.371  12.947
13038SOL    HW250743   1.027   3.367  13.067
13039SOL     OW50744   0.831   2.469  12.519
13039SOL    HW150745   0.860   2.395  12.573
13039SOL    HW250746   0.850   2.546  12.572
13040SOL     OW50747   1.580   0.674  11.172
13040SOL    HW150748   1.555   0.584  11.153
13040SOL    HW250749   1.668   0.667  11.210
13041SOL     OW50750   3.057   0.998  11.442
13041SOL    HW150751   3.105   0.916  11.448
13041SOL    HW250752   2.993   0.993  11.513
13042SOL     OW50753   3.114   4.247   8.885
13042SOL    HW150754   3.173   4.174   8.906
13042SOL    HW250755   3.148   4.281   8.802
13043SOL     OW50756   0.592   3.124  13.690
13043SOL    HW150757   0.601   3.041  13.643
13043SOL    HW250758   0.499   3.147  13.682
13044SOL     OW50759   3.389   2.036  11.498
13044SOL    HW150760   3.373   1.993  11.414
13044SOL    HW250761   3.386   1.965  11.562
13045SOL     OW50762   4.742   2.862  12.405
13045SOL    HW150763   0.039   2.828  12.450
13045SOL    HW250764   4.680   2.789  12.405
13046SOL     OW50765   0.553   1.922  12.929
13046SOL    HW150766   0.542   2.016  12.914
13046SOL    HW250767   0.464   1.890  12.943
13047SOL     OW50768   2.401   2.349  12.540
13047SOL    HW150769   2.363   2.353  12.452
13047SOL    HW250770   2.326   2.334  12.598
13048SOL     OW50771   4.726   2.678  12.735
13048SOL    HW150772   4.658   2.720  12.682
13048SOL    HW250773   4.686   2.668  12.821
13049SOL     OW50774   0.787   2.549  11.748
13049SOL    HW150775   0.694   2.550  11.727
13049SOL    HW250776   0.790   2.557  11.843
13050SOL     OW50777   4.083   3.612  13.051
13050SOL    HW150778   4.037   3.557  13.114
13050SOL    HW250779   4.026   3.613  12.974
13051SOL     OW50780   0.478   3.359  13.976
13051SOL    HW150781   0.532   3.392  14.048
13051SOL    HW250782   0.433   3.283  14.012
13052SOL     OW50783   4.662   2.635  12.997
13052SOL    HW150784   4.756   2.621  13.007
13052SOL    HW250785   4.643   2.711  13.051
13053SOL     OW50786   0.886   2.693  12.653
13053SOL    HW150787   0.931   2.776  12.667
13053SOL    HW250788   0.814   2.693  12.716
13054SOL     OW50789   0.252   0.579  13.124
13054SOL    HW150790   0.339   0.603  13.156
13054SOL    HW250791   0.194   0.595  13.198
13055SOL     OW50792   4.172   3.139  11.219
13055SOL    HW150793   4.178   3.044  11.225
13055SOL    HW250794   4.203   3.171  11.304
13056SOL     OW50795   3.476   2.397  13.730
13056SOL    HW150796   3.487   2.432  13.818
13056SOL    HW250797   3.542   2.328  13.722
13057SOL     OW50798   1.343   3.340  13.560
13057SOL    HW150799   1.409   3.399  13.596
13057SOL    HW250800   1.262   3.365  13.603
13058SOL     OW50801   4.214   2.799  14.680
13058SOL    HW150802   4.123   2.820  14.702
13058SOL    HW250803   4.213   2.782  14.586
13059SOL     OW50804   0.670   2.681  12.837
13059SOL    HW150805   0.701   2.618  12.902
13059SOL    HW250806   0.593   2.639  12.798
13060SOL     OW50807   1.080   2.748  14.063
13060SOL    HW150808   1.087   2.665  14.016
13060SOL    HW250809   1.012   2.796  14.016
13061SOL     OW50810   2.900   2.298  12.145
13061SOL    HW150811   2.934   2.381  12.179
13061SOL    HW250812   2.806   2.313  12.136
13062SOL     OW50813   3.955   2.820  14.756
13062SOL    HW150814   3.877   2.764  14.757
13062SOL    HW250815   3.956   2.862  14.842
13063SOL     OW50816   0.975   2.083  13.828
13063SOL    HW150817   0.952   2.022  13.898
13063SOL    HW250818   0.914   2.156  13.838
13064SOL     OW50819   2.998   2.373  14.819
13064SOL    HW150820   3.065   2.441  14.814
13064SOL    HW250821   3.030   2.312  14.885
13065SOL     OW50822   2.591   2.055  14.697
13065SOL    HW150823   2.617   1.977  14.648
13065SOL    HW250824   2.651   2.058  14.772
13066SOL     OW50825   0.372   3.637  13.914
13066SOL    HW150826   0.316   3.616  13.839
13066SOL    HW250827   0.440   3.569  13.914
13067SOL     OW50828   1.696   0.838  12.603
13067SOL    HW150829   1.652   0.919  12.578
13067SOL    HW250830   1.787   0.851  12.576
13068SOL     OW50831   0.487   2.502  12.185
13068SOL    HW150832   0.523   2.474  12.269
13068SOL    HW250833   0.558   2.551  12.144
13069SOL     OW50834   1.122   2.938  14.493
13069SOL    HW150835   1.058   2.969  14.557
13069SOL    HW250836   1.201   2.920  14.544
13070SOL     OW50837   4.411   1.866  13.032
13070SOL    HW150838   4.498   1.860  12.993
13070SOL    HW250839   4.426   1.904  13.119
13071SOL     OW50840   4.745   2.632  14.005
13071SOL    HW150841   0.037   2.639  13.943
13071SOL    HW250842   4.674   2.682  13.964
13072SOL     OW50843   1.174   1.970  12.932
13072SOL    HW150844   1.112   1.904  12.964
13072SOL    HW250845   1.254   1.953  12.981
13073SOL     OW50846   3.167   3.807  14.041
13073SOL    HW150847   3.238   3.868  14.061
13073SOL    HW250848   3.138   3.775  14.127
13074SOL     OW50849   1.117   4.023  13.671
13074SOL    HW150850   1.147   4.020  13.762
13074SOL    HW250851   1.041   4.082  13.673
13075SOL     OW50852   0.375   2.542  14.661
13075SOL    HW150853   0.338   2.568  14.577
13075SOL    HW250854   0.359   2.448  14.667
13076SOL     OW50855   4.064   2.417  14.614
13076SOL    HW150856   4.134   2.368  14.658
13076SOL    HW250857   4.019   2.463  14.685
13077SOL     OW50858   0.312   2.192  15.947
13077SOL    HW150859   0.325   2.105  15.908
13077SOL    HW250860   0.303   2.175  16.041
13078SOL     OW50861   4.744   1.989  14.540
13078SOL    HW150862   4.762   1.895  14.547
13078SOL    HW250863   4.765   2.011  14.449
13079SOL     OW50864   3.903   2.602  13.902
13079SOL    HW150865   3.975   2.592  13.965
13079SOL    HW250866   3.827   2.625  13.956
13080SOL     OW50867   0.169   2.754  12.573
13080SOL    HW150868   0.105   2.724  12.638
13080SOL    HW250869   0.200   2.838  12.607
13081SOL     OW50870   1.185   2.344  12.689
13081SOL    HW150871   1.218   2.339  12.779
13081SOL    HW250872   1.095   2.313  12.695
13082SOL     OW50873   4.409   2.666  14.340
13082SOL    HW150874   4.316   2.690  14.342
13082SOL    HW250875   4.454   2.745  14.369
13083SOL     OW50876   4.669   3.096  14.557
13083SOL    HW150877   4.710   3.181  14.575
13083SOL    HW250878   4.586   3.099  14.605
13084SOL     OW50879   4.288   3.108  13.936
13084SOL    HW150880   4.250   3.161  14.006
13084SOL    HW250881   4.219   3.045  13.914
13085SOL     OW50882   4.632   2.845  14.447
13085SOL    HW150883   4.582   2.826  14.527
13085SOL    HW250884   4.667   2.933  14.461
13086SOL     OW50885   0.847   1.439  12.495
13086SOL    HW150886   0.784   1.456  12.565
13086SOL    HW250887   0.874   1.348  12.509
13087SOL     OW50888   4.224   2.781  14.944
13087SOL    HW150889   4.222   2.799  14.850
13087SOL    HW250890   4.243   2.687  14.950
13088SOL     OW50891   1.014   3.105  13.279
13088SOL    HW150892   1.013   3.199  13.298
13088SOL    HW250893   0.958   3.066  13.346
13089SOL     OW50894   0.108   2.978  13.581
13089SOL    HW150895   0.150   2.917  13.641
13089SOL    HW250896   0.016   2.978  13.607
13090SOL     OW50897   0.313   3.130  13.666
13090SOL    HW150898   0.255   3.163  13.734
13090SOL    HW250899   0.263   3.061  13.623
13091SOL     OW50900   0.697   2.038  14.134
13091SOL    HW150901   0.645   1.971  14.178
13091SOL    HW250902   0.635   2.084  14.078
13092SOL     OW50903   1.467   0.272  12.254
13092SOL    HW150904   1.462   0.228  12.339
13092SOL    HW250905   1.464   0.365  12.275
13093SOL     OW50906   0.054   2.360  13.846
13093SOL    HW150907   4.776   2.407  13.788
13093SOL    HW250908   0.116   2.426  13.876
13094SOL     OW50909   4.733   2.010  14.244
13094SOL    HW150910   4.652   1.959  14.244
13094SOL    HW250911   4.734   2.053  14.159
13095SOL     OW50912   2.793   2.290  13.168
13095SOL    HW150913   2.830   2.224  13.226
13095SOL    HW250914   2.868   2.342  13.140
13096SOL     OW50915   1.174   1.298  13.355
13096SOL    HW150916   1.176   1.235  13.427
13096SOL    HW250917   1.229   1.371  13.385
13097SOL     OW50918   4.279   2.517  14.954
13097SOL    HW150919   4.270   2.442  14.895
13097SOL    HW250920   4.215   2.502  15.023
13098SOL     OW50921   4.564   2.232  14.314
13098SOL    HW150922   4.631   2.230  14.383
13098SOL    HW250923   4.581   2.314  14.268
13099SOL     OW50924   0.019   2.692  14.311
13099SOL    HW150925   4.763   2.679  14.224
13099SOL    HW250926   4.736   2.747  14.356
13100SOL     OW50927   3.842   2.475  15.946
13100SOL    HW150928   3.774   2.453  15.882
13100SOL    HW250929   3.849   2.570  15.940
13101SOL     OW50930   4.297   1.885  15.548
13101SOL    HW150931   4.347   1.958  15.583
13101SOL    HW250932   4.363   1.828  15.508
13102SOL     OW50933   3.534   3.446  14.807
13102SOL    HW150934   3.524   3.355  14.835
13102SOL    HW250935   3.476   3.496  14.865
13103SOL     OW50936   2.592   4.239  16.057
13103SOL    HW150937   2.504   4.274  16.074
13103SOL    HW250938   2.651   4.306  16.091
13104SOL     OW50939   0.214   2.977  15.229
13104SOL    HW150940   0.242   2.895  15.187
13104SOL    HW250941   0.120   2.965  15.245
13105SOL     OW50942   0.274   2.196  15.345
13105SOL    HW150943   0.318   2.272  15.306
13105SOL    HW250944   0.335   2.165  15.412
13106SOL     OW50945   4.185   3.144  17.111
13106SOL    HW150946   4.170   3.220  17.167
13106SOL    HW250947   4.111   3.145  17.050
13107SOL     OW50948   0.730   2.675  16.518
13107SOL    HW150949   0.699   2.585  16.532
13107SOL    HW250950   0.824   2.672  16.537
13108SOL     OW50951   0.109   3.630  15.147
13108SOL    HW150952   0.185   3.577  15.124
13108SOL    HW250953   0.060   3.639  15.065
13109SOL     OW50954   0.503   1.167  15.245
13109SOL    HW150955   0.424   1.163  15.192
13109SOL    HW250956   0.554   1.091  15.218
13110SOL     OW50957   4.547   2.621  14.862
13110SOL    HW150958   4.594   2.559  14.806
13110SOL    HW250959   4.466   2.575  14.885
13111SOL     OW50960   3.716   2.692  14.763
13111SOL    HW150961   3.621   2.689  14.753
13111SOL    HW250962   3.733   2.640  14.842
13112SOL     OW50963   2.812   2.252  14.651
13112SOL    HW150964   2.864   2.315  14.701
13112SOL    HW250965   2.784   2.188  14.716
13113SOL     OW50966   3.678   2.062  15.137
13113SOL    HW150967   3.622   2.133  15.105
13113SOL    HW250968   3.622   2.012  15.197
13114SOL     OW50969   3.074   3.613  17.720
13114SOL    HW150970   3.115   3.583  17.801
13114SOL    HW250971   3.075   3.709  17.726
13115SOL     OW50972   3.892   2.754  15.915
13115SOL    HW150973   3.973   2.714  15.948
13115SOL    HW250974   3.922   2.830  15.865
13116SOL     OW50975   4.753   2.511  14.544
13116SOL    HW150976   4.762   2.592  14.594
13116SOL    HW250977   4.742   2.540  14.453
13117SOL     OW50978   4.701   2.150  16.202
13117SOL    HW150979   4.613   2.181  16.224
13117SOL    HW250980   4.691   2.106  16.118
13118SOL     OW50981   4.750   1.248  15.663
13118SOL    HW150982   0.004   1.336  15.649
13118SOL    HW250983   4.773   1.200  15.584
13119SOL     OW50984   0.571   3.069  16.620
13119SOL    HW150985   0.605   3.046  16.533
13119SOL    HW250986   0.597   3.160  16.632
13120SOL     OW50987   2.365   2.140  14.809
13120SOL    HW150988   2.352   2.099  14.895
13120SOL    HW250989   2.457   2.122  14.788
13121SOL     OW50990   0.255   2.562  15.400
13121SOL    HW150991   0.200   2.627  15.356
13121SOL    HW250992   0.204   2.534  15.476
13122SOL     OW50993   0.525   1.631  15.920
13122SOL    HW150994   0.492   1.542  15.906
13122SOL    HW250995   0.533   1.639  16.015
13123SOL     OW50996   4.614   2.137  14.736
13123SOL    HW150997   4.671   2.077  14.688
13123SOL    HW250998   4.646   2.224  14.712
13124SOL     OW50999   0.298   1.786  15.095
13124SOL    HW151000   0.222   1.800  15.152
13124SOL    HW251001   0.345   1.869  15.097
13125SOL     OW51002   4.484   2.806  14.661
13125SOL    HW151003   4.520   2.743  14.723
13125SOL    HW251004   4.389   2.800  14.673
13126SOL     OW51005   3.780   2.888  16.156
13126SOL    HW151006   3.692   2.918  16.132
13126SOL    HW251007   3.819   2.860  16.073
13127SOL     OW51008   1.310   3.157  14.783
13127SOL    HW151009   1.287   3.069  14.755
13127SOL    HW251010   1.283   3.160  14.875
13128SOL     OW51011   0.216   3.529  14.767
13128SOL    HW151012   0.195   3.438  14.788
13128SOL    HW251013   0.143   3.579  14.803
13129SOL     OW51014   4.557   2.478  14.191
13129SOL    HW151015   4.511   2.547  14.239
13129SOL    HW251016   4.615   2.525  14.131
13130SOL     OW51017   4.159   2.231  15.082
13130SOL    HW151018   4.088   2.291  15.105
13130SOL    HW251019   4.200   2.209  15.166
13131SOL     OW51020   3.435   2.496  14.912
13131SOL    HW151021   3.341   2.509  14.921
13131SOL    HW251022   3.455   2.523  14.822
13132SOL     OW51023   4.641   3.948  15.304
13132SOL    HW151024   4.641   3.853  15.318
13132SOL    HW251025   4.681   3.960  15.218
13133SOL     OW51026   0.262   2.582  14.401
13133SOL    HW151027   0.273   2.497  14.357
13133SOL    HW251028   0.182   2.618  14.362
13134SOL     OW51029   0.597   2.845  16.355
13134SOL    HW151030   0.661   2.785  16.393
13134SOL    HW251031   0.643   2.929  16.350
13135SOL     OW51032   0.910   2.132  14.916
13135SOL    HW151033   0.947   2.218  14.896
13135SOL    HW251034   0.855   2.146  14.993
13136SOL     OW51035   0.885   1.919  14.760
13136SOL    HW151036   0.951   1.866  14.805
13136SOL    HW251037   0.874   1.996  14.815
13137SOL     OW51038   3.693   2.744   3.994
13137SOL    HW151039   3.681   2.769   3.902
13137SOL    HW251040   3.609   2.705   4.019
13138SOL     OW51041   2.778   0.997  16.538
13138SOL    HW151042   2.860   1.037  16.508
13138SOL    HW251043   2.732   0.974  16.457
13139SOL     OW51044   0.931   2.644   8.794
13139SOL    HW151045   0.960   2.723   8.748
13139SOL    HW251046   0.921   2.672   8.885
13140SOL     OW51047   1.767   1.540  15.461
13140SOL    HW151048   1.691   1.540  15.403
13140SOL    HW251049   1.819   1.615  15.433
13141SOL     OW51050   3.061   3.986  15.763
13141SOL    HW151051   3.028   3.908  15.807
13141SOL    HW251052   3.156   3.983  15.775
13142SOL     OW51053   2.566   0.745   1.785
13142SOL    HW151054   2.626   0.789   1.726
13142SOL    HW251055   2.576   0.652   1.765
13143SOL     OW51056   0.914   1.723   9.923
13143SOL    HW151057   0.905   1.787   9.853
13143SOL    HW251058   0.992   1.750   9.971
13144SOL     OW51059   0.063   2.981  24.185
13144SOL    HW151060   0.059   3.017  24.097
13144SOL    HW251061   0.075   2.887  24.172
13145SOL     OW51062   4.444   2.222  17.175
13145SOL    HW151063   4.539   2.231  17.183
13145SOL    HW251064   4.431   2.179  17.091
13146SOL     OW51065   4.620   2.686  15.643
13146SOL    HW151066   4.701   2.731  15.618
13146SOL    HW251067   4.614   2.612  15.582
13147SOL     OW51068   3.671   2.640  20.946
13147SOL    HW151069   3.686   2.602  20.860
13147SOL    HW251070   3.722   2.585  21.006
13148SOL     OW51071   0.971   3.081  21.564
13148SOL    HW151072   0.998   3.163  21.605
13148SOL    HW251073   1.050   3.027  21.564
13149SOL     OW51074   0.044   4.419  22.498
13149SOL    HW151075   4.749   4.470  22.472
13149SOL    HW251076   0.053   4.436  22.592
13150SOL     OW51077   3.723   1.093   2.873
13150SOL    HW151078   3.760   1.030   2.811
13150SOL    HW251079   3.744   1.179   2.836
13151SOL     OW51080   4.304   2.168  14.391
13151SOL    HW151081   4.393   2.201  14.377
13151SOL    HW251082   4.290   2.173  14.486
13152SOL     OW51083   4.236   0.113  17.602
13152SOL    HW151084   4.142   0.112  17.582
13152SOL    HW251085   4.268   0.192  17.558
13153SOL     OW51086   1.269   1.465  23.470
13153SOL    HW151087   1.194   1.405  23.469
13153SOL    HW251088   1.231   1.550  23.490
13154SOL     OW51089   1.103   2.509   8.451
13154SOL    HW151090   1.120   2.506   8.357
13154SOL    HW251091   1.068   2.597   8.466
13155SOL     OW51092   2.671   2.851  27.564
13155SOL    HW151093   2.637   2.775  27.518
13155SOL    HW251094   2.740   2.816  27.621
13156SOL     OW51095   2.048   4.636  23.766
13156SOL    HW151096   1.962   4.601  23.790
13156SOL    HW251097   2.044   4.645  23.671
13157SOL     OW51098   0.033   0.926  24.126
13157SOL    HW151099   0.082   0.851  24.091
13157SOL    HW251100   0.079   1.003  24.092
13158SOL     OW51101   1.293   2.821  26.063
13158SOL    HW151102   1.384   2.848  26.053
13158SOL    HW251103   1.243   2.903  26.060
13159SOL     OW51104   4.749   0.219  17.054
13159SOL    HW151105   0.014   0.139  17.078
13159SOL    HW251106   4.693   0.193  16.981
13160SOL     OW51107   0.067   1.580  18.134
13160SOL    HW151108   0.018   1.616  18.208
13160SOL    HW251109   0.116   1.507  18.171
13161SOL     OW51110   1.268   1.803   1.131
13161SOL    HW151111   1.195   1.760   1.086
13161SOL    HW251112   1.338   1.738   1.132
13162SOL     OW51113   0.349   3.972   5.047
13162SOL    HW151114   0.321   3.886   5.015
13162SOL    HW251115   0.281   4.032   5.015
13163SOL     OW51116   2.926   0.404  18.237
13163SOL    HW151117   2.940   0.452  18.319
13163SOL    HW251118   2.954   0.464  18.168
13164SOL     OW51119   4.231   4.072  21.421
13164SOL    HW151120   4.301   4.025  21.466
13164SOL    HW251121   4.191   4.007  21.364
13165SOL     OW51122   4.764   1.610  24.714
13165SOL    HW151123   4.707   1.533  24.712
13165SOL    HW251124   0.064   1.580  24.672
13166SOL     OW51125   1.038   1.094  25.773
13166SOL    HW151126   0.950   1.125  25.796
13166SOL    HW251127   1.046   1.110  25.679
13167SOL     OW51128   0.349   1.518  17.620
13167SOL    HW151129   0.387   1.431  17.633
13167SOL    HW251130   0.255   1.504  17.630
13168SOL     OW51131   4.032   3.852  22.606
13168SOL    HW151132   4.003   3.878  22.519
13168SOL    HW251133   4.124   3.829  22.594
13169SOL     OW51134   4.108   4.522   8.795
13169SOL    HW151135   4.191   4.491   8.830
13169SOL    HW251136   4.046   4.451   8.812
13170SOL     OW51137   4.374   3.475  21.868
13170SOL    HW151138   4.418   3.390  21.874
13170SOL    HW251139   4.342   3.479  21.778
13171SOL     OW51140   1.423   2.331  16.162
13171SOL    HW151141   1.514   2.322  16.134
13171SOL    HW251142   1.374   2.346  16.081
13172SOL     OW51143   1.760   1.667  16.544
13172SOL    HW151144   1.770   1.632  16.455
13172SOL    HW251145   1.782   1.594  16.601
13173SOL     OW51146   3.292   3.480   9.234
13173SOL    HW151147   3.231   3.406   9.234
13173SOL    HW251148   3.292   3.511   9.325
13174SOL     OW51149   0.710   1.708  20.072
13174SOL    HW151150   0.622   1.674  20.090
13174SOL    HW251151   0.696   1.775  20.005
13175SOL     OW51152   0.050   4.023  17.459
13175SOL    HW151153   0.129   3.971  17.447
13175SOL    HW251154   0.009   4.024  17.372
13176SOL     OW51155   2.978   1.910  19.431
13176SOL    HW151156   3.041   1.883  19.365
13176SOL    HW251157   2.896   1.923  19.383
13177SOL     OW51158   0.875   1.624   3.332
13177SOL    HW151159   0.850   1.569   3.406
13177SOL    HW251160   0.882   1.712   3.368
13178SOL     OW51161   3.036   0.885  18.058
13178SOL    HW151162   3.040   0.878  18.153
13178SOL    HW251163   3.066   0.974  18.039
13179SOL     OW51164   4.292   2.015  18.446
13179SOL    HW151165   4.339   2.084  18.400
13179SOL    HW251166   4.241   1.971  18.378
13180SOL     OW51167   3.033   3.662  16.769
13180SOL    HW151168   3.053   3.569  16.780
13180SOL    HW251169   3.071   3.684  16.684
13181SOL     OW51170   2.731   2.130  24.239
13181SOL    HW151171   2.771   2.054  24.198
13181SOL    HW251172   2.759   2.126  24.330
13182SOL     OW51173   0.737   0.209   0.704
13182SOL    HW151174   0.762   0.205   0.612
13182SOL    HW251175   0.712   0.300   0.718
13183SOL     OW51176   1.770   3.716  22.394
13183SOL    HW151177   1.689   3.670  22.371
13183SOL    HW251178   1.834   3.646  22.409
13184SOL     OW51179   3.602   3.356  15.856
13184SOL    HW151180   3.671   3.373  15.792
13184SOL    HW251181   3.528   3.325  15.803
13185SOL     OW51182   4.382   4.275  17.650
13185SOL    HW151183   4.310   4.232  17.604
13185SOL    HW251184   4.400   4.353  17.598
13186SOL     OW51185   2.346   2.219   0.956
13186SOL    HW151186   2.423   2.208   1.012
13186SOL    HW251187   2.333   2.314   0.953
13187SOL     OW51188   1.021   4.252   0.050
13187SOL    HW151189   1.070   4.236   0.131
13187SOL    HW251190   1.088   4.263  28.505
13188SOL     OW51191   3.174   3.031  25.497
13188SOL    HW151192   3.185   2.994  25.410
13188SOL    HW251193   3.080   3.025  25.515
13189SOL     OW51194   0.101   3.848   5.784
13189SOL    HW151195   0.041   3.782   5.818
13189SOL    HW251196   0.049   3.928   5.780
13190SOL     OW51197   2.864   2.740  19.569
13190SOL    HW151198   2.914   2.817  19.595
13190SOL    HW251199   2.860   2.744  19.473
13191SOL     OW51200   1.396   0.460   8.607
13191SOL    HW151201   1.427   0.463   8.697
13191SOL    HW251202   1.302   0.479   8.614
13192SOL     OW51203   2.445   4.202   6.582
13192SOL    HW151204   2.439   4.294   6.607
13192SOL    HW251205   2.385   4.193   6.508
13193SOL     OW51206   1.990   1.707   0.162
13193SOL    HW151207   1.975   1.613   0.173
13193SOL    HW251208   2.082   1.720   0.184
13194SOL     OW51209   3.723   1.312  25.918
13194SOL    HW151210   3.637   1.274  25.936
13194SOL    HW251211   3.783   1.263  25.974
13195SOL     OW51212   4.770   2.676   0.037
13195SOL    HW151213   4.758   2.760   0.082
13195SOL    HW251214   4.687   2.661  28.514
13196SOL     OW51215   3.980   1.792   7.650
13196SOL    HW151216   3.904   1.849   7.659
13196SOL    HW251217   4.055   1.848   7.673
13197SOL     OW51218   1.151   3.131  10.123
13197SOL    HW151219   1.145   3.059  10.186
13197SOL    HW251220   1.220   3.104  10.063
13198SOL     OW51221   2.885   0.907  25.415
13198SOL    HW151222   2.952   0.958  25.369
13198SOL    HW251223   2.917   0.902  25.505
13199SOL     OW51224   0.483   1.857  25.695
13199SOL    HW151225   0.430   1.813  25.629
13199SOL    HW251226   0.556   1.895  25.646
13200SOL     OW51227   2.416   4.483   7.357
13200SOL    HW151228   2.434   4.476   7.263
13200SOL    HW251229   2.480   4.546   7.389
13201SOL     OW51230   2.264   0.900   9.813
13201SOL    HW151231   2.349   0.880   9.852
13201SOL    HW251232   2.242   0.987   9.846
13202SOL     OW51233   3.863   3.777   7.464
13202SOL    HW151234   3.878   3.869   7.443
13202SOL    HW251235   3.874   3.731   7.381
13203SOL     OW51236   3.172   2.188  24.094
13203SOL    HW151237   3.197   2.232  24.013
13203SOL    HW251238   3.087   2.149  24.075
13204SOL     OW51239   2.071   0.856  23.375
13204SOL    HW151240   2.086   0.920  23.444
13204SOL    HW251241   2.009   0.794  23.413
13205SOL     OW51242   3.049   2.959  18.630
13205SOL    HW151243   3.044   3.042  18.677
13205SOL    HW251244   2.958   2.934  18.616
13206SOL     OW51245   3.165   1.683   5.852
13206SOL    HW151246   3.239   1.711   5.906
13206SOL    HW251247   3.185   1.715   5.764
13207SOL     OW51248   1.789   1.821   2.548
13207SOL    HW151249   1.711   1.870   2.574
13207SOL    HW251250   1.761   1.730   2.547
13208SOL     OW51251   3.862   4.098  25.183
13208SOL    HW151252   3.768   4.112  25.172
13208SOL    HW251253   3.892   4.067  25.097
13209SOL     OW51254   4.445   0.090  22.658
13209SOL    HW151255   4.470   0.002  22.685
13209SOL    HW251256   4.503   0.148  22.707
13210SOL     OW51257   0.229   0.580   2.230
13210SOL    HW151258   0.240   0.490   2.199
13210SOL    HW251259   0.151   0.611   2.184
13211SOL     OW51260   0.376   0.205  27.005
13211SOL    HW151261   0.382   0.210  27.100
13211SOL    HW251262   0.371   0.111  26.987
13212SOL     OW51263   0.533   2.780  21.950
13212SOL    HW151264   0.531   2.871  21.920
13212SOL    HW251265   0.576   2.733  21.879
13213SOL     OW51266   0.673   4.150  27.277
13213SOL    HW151267   0.702   4.176  27.189
13213SOL    HW251268   0.635   4.063  27.265
13214SOL     OW51269   1.262   1.808  20.182
13214SOL    HW151270   1.328   1.749  20.146
13214SOL    HW251271   1.234   1.862  20.108
13215SOL     OW51272   2.598   4.758  20.102
13215SOL    HW151273   2.512   0.018  20.116
13215SOL    HW251274   2.600   4.739  20.008
13216SOL     OW51275   3.394   2.844  24.408
13216SOL    HW151276   3.383   2.768  24.351
13216SOL    HW251277   3.322   2.837  24.471
13217SOL     OW51278   1.981   3.245   1.582
13217SOL    HW151279   2.026   3.266   1.500
13217SOL    HW251280   2.020   3.162   1.610
13218SOL     OW51281   3.830   3.655  19.608
13218SOL    HW151282   3.743   3.646  19.647
13218SOL    HW251283   3.869   3.729  19.654
13219SOL     OW51284   1.613   3.214   2.512
13219SOL    HW151285   1.707   3.203   2.496
13219SOL    HW251286   1.609   3.260   2.596
13220SOL     OW51287   3.579   4.504   5.061
13220SOL    HW151288   3.674   4.498   5.054
13220SOL    HW251289   3.561   4.598   5.067
13221SOL     OW51290   0.305   1.157  19.746
13221SOL    HW151291   0.213   1.178  19.728
13221SOL    HW251292   0.351   1.184  19.667
13222SOL     OW51293   4.620   4.000  26.503
13222SOL    HW151294   4.552   4.051  26.546
13222SOL    HW251295   4.689   4.063  26.484
13223SOL     OW51296   4.436   0.699  18.180
13223SOL    HW151297   4.357   0.717  18.230
13223SOL    HW251298   4.414   0.723  18.090
13224SOL     OW51299   0.948   0.072  25.221
13224SOL    HW151300   0.859   0.057  25.190
13224SOL    HW251301   0.937   0.101  25.312
13225SOL     OW51302   1.092   1.961   6.281
13225SOL    HW151303   1.123   1.992   6.366
13225SOL    HW251304   1.151   2.003   6.218
13226SOL     OW51305   2.202   0.902   4.322
13226SOL    HW151306   2.161   0.921   4.237
13226SOL    HW251307   2.189   0.982   4.373
13227SOL     OW51308   1.562   1.250  27.988
13227SOL    HW151309   1.617   1.223  27.915
13227SOL    HW251310   1.610   1.323  28.028
13228SOL     OW51311   2.936   0.168  26.013
13228SOL    HW151312   2.991   0.232  26.058
13228SOL    HW251313   2.924   0.203  25.925
13229SOL     OW51314   0.881   3.970   0.907
13229SOL    HW151315   0.858   4.019   0.986
13229SOL    HW251316   0.900   4.037   0.842
13230SOL     OW51317   1.973   4.075  28.076
13230SOL    HW151318   1.971   4.162  28.035
13230SOL    HW251319   2.046   4.030  28.033
13231SOL     OW51320   4.193   3.014   8.561
13231SOL    HW151321   4.261   2.947   8.569
13231SOL    HW251322   4.234   3.094   8.595
13232SOL     OW51323   2.610   3.071   2.279
13232SOL    HW151324   2.628   3.023   2.198
13232SOL    HW251325   2.622   3.006   2.348
13233SOL     OW51326   2.595   3.140   9.231
13233SOL    HW151327   2.540   3.062   9.231
13233SOL    HW251328   2.533   3.213   9.228
13234SOL     OW51329   3.466   3.388  26.849
13234SOL    HW151330   3.480   3.388  26.944
13234SOL    HW251331   3.387   3.336  26.836
13235SOL     OW51332   3.871   2.712   1.669
13235SOL    HW151333   3.862   2.629   1.621
13235SOL    HW251334   3.965   2.730   1.668
13236SOL     OW51335   0.944   0.869  21.937
13236SOL    HW151336   0.879   0.813  21.894
13236SOL    HW251337   1.004   0.807  21.979
13237SOL     OW51338   0.281   2.459   4.252
13237SOL    HW151339   0.238   2.520   4.192
13237SOL    HW251340   0.231   2.378   4.243
13238SOL     OW51341   4.622   3.909   5.652
13238SOL    HW151342   4.528   3.912   5.671
13238SOL    HW251343   4.649   4.001   5.647
13239SOL     OW51344   0.939   2.348  19.697
13239SOL    HW151345   0.874   2.286  19.663
13239SOL    HW251346   0.965   2.311  19.781
13240SOL     OW51347   3.467   1.823   7.161
13240SOL    HW151348   3.551   1.781   7.179
13240SOL    HW251349   3.418   1.758   7.111
13241SOL     OW51350   0.101   2.494   0.271
13241SOL    HW151351   0.077   2.402   0.282
13241SOL    HW251352   0.059   2.520   0.189
13242SOL     OW51353   1.548   2.581  22.223
13242SOL    HW151354   1.624   2.540  22.182
13242SOL    HW251355   1.517   2.516  22.287
13243SOL     OW51356   3.456   0.613   7.919
13243SOL    HW151357   3.496   0.649   7.998
13243SOL    HW251358   3.380   0.564   7.951
13244SOL     OW51359   3.813   0.436  16.410
13244SOL    HW151360   3.806   0.393  16.325
13244SOL    HW251361   3.772   0.522  16.397
13245SOL     OW51362   0.373   3.915  22.154
13245SOL    HW151363   0.310   3.954  22.093
13245SOL    HW251364   0.319   3.874  22.221
13246SOL     OW51365   2.957   0.654  20.709
13246SOL    HW151366   3.001   0.578  20.747
13246SOL    HW251367   2.890   0.616  20.652
13247SOL     OW51368   1.917   3.598   4.502
13247SOL    HW151369   1.854   3.598   4.574
13247SOL    HW251370   1.993   3.644   4.538
13248SOL     OW51371   1.078   4.689  27.115
13248SOL    HW151372   1.056   4.692  27.022
13248SOL    HW251373   1.013   4.745  27.157
13249SOL     OW51374   0.982   3.581  22.362
13249SOL    HW151375   0.976   3.539  22.448
13249SOL    HW251376   1.027   3.517  22.307
13250SOL     OW51377   1.546   0.821   4.758
13250SOL    HW151378   1.594   0.872   4.692
13250SOL    HW251379   1.490   0.885   4.802
13251SOL     OW51380   4.376   4.251   7.892
13251SOL    HW151381   4.423   4.168   7.879
13251SOL    HW251382   4.292   4.238   7.849
13252SOL     OW51383   3.752   0.220   4.297
13252SOL    HW151384   3.724   0.139   4.339
13252SOL    HW251385   3.816   0.192   4.231
13253SOL     OW51386   3.495   4.220  25.393
13253SOL    HW151387   3.511   4.309  25.425
13253SOL    HW251388   3.563   4.206  25.327
13254SOL     OW51389   3.085   1.105   6.947
13254SOL    HW151390   3.019   1.095   7.015
13254SOL    HW251391   3.036   1.103   6.865
13255SOL     OW51392   2.016   4.402  17.925
13255SOL    HW151393   1.972   4.333  17.974
13255SOL    HW251394   2.050   4.359  17.847
13256SOL     OW51395   2.679   1.929  19.189
13256SOL    HW151396   2.640   1.848  19.222
13256SOL    HW251397   2.607   1.973  19.144
13257SOL     OW51398   0.230   2.894  19.182
13257SOL    HW151399   0.287   2.963  19.149
13257SOL    HW251400   0.159   2.889  19.118
13258SOL     OW51401   3.876   2.207  17.686
13258SOL    HW151402   3.912   2.269  17.749
13258SOL    HW251403   3.952   2.164  17.648
13259SOL     OW51404   1.605   3.302  27.051
13259SOL    HW151405   1.623   3.227  27.107
13259SOL    HW251406   1.649   3.375  27.094
13260SOL     OW51407   2.951   0.526   0.563
13260SOL    HW151408   2.934   0.517   0.657
13260SOL    HW251409   2.921   0.615   0.542
13261SOL     OW51410   0.071   0.587   6.438
13261SOL    HW151411   0.164   0.583   6.461
13261SOL    HW251412   0.026   0.560   6.518
13262SOL     OW51413   2.572   0.709   4.612
13262SOL    HW151414   2.510   0.762   4.662
13262SOL    HW251415   2.622   0.773   4.562
13263SOL     OW51416   4.316   0.832  26.442
13263SOL    HW151417   4.367   0.909  26.467
13263SOL    HW251418   4.371   0.788  26.377
13264SOL     OW51419   1.008   4.037  27.407
13264SOL    HW151420   0.946   4.060  27.476
13264SOL    HW251421   0.959   3.977  27.350
13265SOL     OW51422   1.154   3.678   4.174
13265SOL    HW151423   1.168   3.585   4.189
13265SOL    HW251424   1.111   3.709   4.254
13266SOL     OW51425   3.412   4.326  21.107
13266SOL    HW151426   3.328   4.372  21.110
13266SOL    HW251427   3.473   4.384  21.153
13267SOL     OW51428   3.676   3.408   7.675
13267SOL    HW151429   3.655   3.439   7.587
13267SOL    HW251430   3.767   3.379   7.670
13268SOL     OW51431   4.074   1.882  27.387
13268SOL    HW151432   4.044   1.872  27.477
13268SOL    HW251433   4.166   1.856  27.389
13269SOL     OW51434   3.657   1.981  25.365
13269SOL    HW151435   3.665   2.075  25.380
13269SOL    HW251436   3.564   1.968  25.347
13270SOL     OW51437   0.603   4.021  26.012
13270SOL    HW151438   0.629   4.107  25.979
13270SOL    HW251439   0.552   3.982  25.941
13271SOL     OW51440   0.404   1.764   7.066
13271SOL    HW151441   0.359   1.684   7.041
13271SOL    HW251442   0.399   1.766   7.162
13272SOL     OW51443   2.097   4.225   5.149
13272SOL    HW151444   2.058   4.167   5.083
13272SOL    HW251445   2.156   4.282   5.099
13273SOL     OW51446   3.942   0.171   7.924
13273SOL    HW151447   3.985   0.237   7.869
13273SOL    HW251448   3.848   0.189   7.915
13274SOL     OW51449   0.407   0.694  21.908
13274SOL    HW151450   0.342   0.638  21.865
13274SOL    HW251451   0.417   0.768  21.848
13275SOL     OW51452   1.278   1.022   4.088
13275SOL    HW151453   1.208   1.087   4.090
13275SOL    HW251454   1.331   1.045   4.012
13276SOL     OW51455   0.971   1.751   0.659
13276SOL    HW151456   0.935   1.839   0.647
13276SOL    HW251457   0.895   1.695   0.674
13277SOL     OW51458   2.219   4.095   4.843
13277SOL    HW151459   2.233   4.000   4.839
13277SOL    HW251460   2.293   4.128   4.894
13278SOL     OW51461   0.428   1.575  17.883
13278SOL    HW151462   0.371   1.563  17.807
13278SOL    HW251463   0.423   1.492  17.931
13279SOL     OW51464   4.759   0.705   0.907
13279SOL    HW151465   4.776   0.790   0.867
13279SOL    HW251466   4.670   0.712   0.941
13280SOL     OW51467   0.921   0.813  20.334
13280SOL    HW151468   0.840   0.761  20.334
13280SOL    HW251469   0.891   0.904  20.328
13281SOL     OW51470   4.093   1.320  22.041
13281SOL    HW151471   4.127   1.314  22.130
13281SOL    HW251472   3.998   1.317  22.052
13282SOL     OW51473   1.231   2.747  24.813
13282SOL    HW151474   1.139   2.768  24.827
13282SOL    HW251475   1.246   2.669  24.867
13283SOL     OW51476   1.365   0.165  27.095
13283SOL    HW151477   1.294   0.205  27.145
13283SOL    HW251478   1.353   0.199  27.006
13284SOL     OW51479   3.464   0.800   6.784
13284SOL    HW151480   3.448   0.892   6.803
13284SOL    HW251481   3.425   0.785   6.698
13285SOL     OW51482   1.112   0.310   8.371
13285SOL    HW151483   1.103   0.282   8.462
13285SOL    HW251484   1.203   0.291   8.350
13286SOL     OW51485   1.981   3.756  18.875
13286SOL    HW151486   2.058   3.715  18.915
13286SOL    HW251487   1.984   3.847  18.903
13287SOL     OW51488   3.672   1.796  10.248
13287SOL    HW151489   3.633   1.709  10.254
13287SOL    HW251490   3.625   1.838  10.176
13288SOL     OW51491   3.308   3.261  19.418
13288SOL    HW151492   3.383   3.233  19.365
13288SOL    HW251493   3.254   3.313  19.358
13289SOL     OW51494   3.149   3.195   5.494
13289SOL    HW151495   3.160   3.233   5.581
13289SOL    HW251496   3.171   3.103   5.505
13290SOL     OW51497   2.295   1.449  26.948
13290SOL    HW151498   2.320   1.468  27.038
13290SOL    HW251499   2.349   1.373  26.924
13291SOL     OW51500   1.668   2.111  24.306
13291SOL    HW151501   1.749   2.104  24.256
13291SOL    HW251502   1.692   2.085  24.395
13292SOL     OW51503   3.104   3.308  21.135
13292SOL    HW151504   3.137   3.384  21.182
13292SOL    HW251505   3.136   3.319  21.045
13293SOL     OW51506   0.322   3.431   8.199
13293SOL    HW151507   0.415   3.411   8.211
13293SOL    HW251508   0.319   3.527   8.196
13294SOL     OW51509   2.949   0.392   8.125
13294SOL    HW151510   2.944   0.432   8.038
13294SOL    HW251511   2.986   0.305   8.109
13295SOL     OW51512   3.428   4.454  18.481
13295SOL    HW151513   3.481   4.468  18.560
13295SOL    HW251514   3.490   4.420  18.417
13296SOL     OW51515   0.192   1.794  20.369
13296SOL    HW151516   0.181   1.787  20.274
13296SOL    HW251517   0.230   1.881  20.383
13297SOL     OW51518   3.292   1.432   2.174
13297SOL    HW151519   3.284   1.427   2.269
13297SOL    HW251520   3.279   1.525   2.153
13298SOL     OW51521   0.664   2.422   2.680
13298SOL    HW151522   0.743   2.432   2.627
13298SOL    HW251523   0.594   2.409   2.616
13299SOL     OW51524   0.993   1.911   1.380
13299SOL    HW151525   0.909   1.878   1.347
13299SOL    HW251526   1.019   1.978   1.317
13300SOL     OW51527   3.144   3.602   2.876
13300SOL    HW151528   3.109   3.520   2.841
13300SOL    HW251529   3.067   3.652   2.902
13301SOL     OW51530   2.699   2.785   6.027
13301SOL    HW151531   2.706   2.830   5.943
13301SOL    HW251532   2.739   2.699   6.012
13302SOL     OW51533   1.732   0.759   0.913
13302SOL    HW151534   1.742   0.686   0.975
13302SOL    HW251535   1.761   0.836   0.962
13303SOL     OW51536   3.535   0.889  21.015
13303SOL    HW151537   3.489   0.861  21.094
13303SOL    HW251538   3.600   0.820  20.999
13304SOL     OW51539   0.230   1.002  27.696
13304SOL    HW151540   0.311   0.953  27.684
13304SOL    HW251541   0.182   0.990  27.614
13305SOL     OW51542   1.776   4.283  20.966
13305SOL    HW151543   1.846   4.250  20.909
13305SOL    HW251544   1.728   4.345  20.911
13306SOL     OW51545   1.396   1.226  28.210
13306SOL    HW151546   1.439   1.294  28.157
13306SOL    HW251547   1.369   1.160  28.147
13307SOL     OW51548   1.363   2.440   0.375
13307SOL    HW151549   1.433   2.485   0.423
13307SOL    HW251550   1.396   2.435   0.285
13308SOL     OW51551   1.453   3.325   1.497
13308SOL    HW151552   1.459   3.339   1.591
13308SOL    HW251553   1.544   3.324   1.467
13309SOL     OW51554   2.892   3.061  26.515
13309SOL    HW151555   2.950   3.117  26.464
13309SOL    HW251556   2.884   3.106  26.599
13310SOL     OW51557   2.471   2.516   1.280
13310SOL    HW151558   2.382   2.487   1.259
13310SOL    HW251559   2.514   2.437   1.313
13311SOL     OW51560   1.622   3.171  23.007
13311SOL    HW151561   1.605   3.180  22.913
13311SOL    HW251562   1.645   3.259  23.036
13312SOL     OW51563   0.160   2.818   6.301
13312SOL    HW151564   0.181   2.791   6.391
13312SOL    HW251565   0.174   2.913   6.300
13313SOL     OW51566   2.842   2.284  27.314
13313SOL    HW151567   2.922   2.299  27.263
13313SOL    HW251568   2.838   2.189  27.326
13314SOL     OW51569   0.196   2.108  19.180
13314SOL    HW151570   0.142   2.074  19.251
13314SOL    HW251571   0.133   2.141  19.116
13315SOL     OW51572   1.885   3.281   9.411
13315SOL    HW151573   1.890   3.376   9.418
13315SOL    HW251574   1.946   3.248   9.477
13316SOL     OW51575   3.714   4.470   7.705
13316SOL    HW151576   3.706   4.545   7.646
13316SOL    HW251577   3.693   4.505   7.792
13317SOL     OW51578   2.864   3.309   5.191
13317SOL    HW151579   2.882   3.249   5.264
13317SOL    HW251580   2.913   3.272   5.117
13318SOL     OW51581   1.765   2.259  25.176
13318SOL    HW151582   1.803   2.187  25.226
13318SOL    HW251583   1.769   2.334  25.235
13319SOL     OW51584   1.688   2.949   6.000
13319SOL    HW151585   1.768   2.943   5.948
13319SOL    HW251586   1.637   3.018   5.958
13320SOL     OW51587   0.172   3.605  27.352
13320SOL    HW151588   0.191   3.625  27.444
13320SOL    HW251589   0.168   3.509  27.349
13321SOL     OW51590   4.108   0.696  21.939
13321SOL    HW151591   4.163   0.617  21.940
13321SOL    HW251592   4.063   0.694  22.023
13322SOL     OW51593   1.265   2.529  26.206
13322SOL    HW151594   1.357   2.510  26.187
13322SOL    HW251595   1.258   2.624  26.200
13323SOL     OW51596   3.010   4.438   8.292
13323SOL    HW151597   3.100   4.467   8.282
13323SOL    HW251598   2.963   4.477   8.218
13324SOL     OW51599   1.229   1.074  24.898
13324SOL    HW151600   1.182   1.069  24.814
13324SOL    HW251601   1.192   1.003  24.950
13325SOL     OW51602   1.294   4.312   9.439
13325SOL    HW151603   1.250   4.248   9.496
13325SOL    HW251604   1.349   4.259   9.381
13326SOL     OW51605   0.321   4.098   8.994
13326SOL    HW151606   0.283   4.117   8.908
13326SOL    HW251607   0.294   4.008   9.013
13327SOL     OW51608   2.619   0.200  19.421
13327SOL    HW151609   2.540   0.194  19.367
13327SOL    HW251610   2.691   0.184  19.360
13328SOL     OW51611   0.456   0.162  21.107
13328SOL    HW151612   0.511   0.140  21.182
13328SOL    HW251613   0.493   0.112  21.034
13329SOL     OW51614   1.121   3.836  22.535
13329SOL    HW151615   1.074   3.770  22.484
13329SOL    HW251616   1.060   3.860  22.605
13330SOL     OW51617   1.103   0.284   7.632
13330SOL    HW151618   1.185   0.276   7.584
13330SOL    HW251619   1.109   0.369   7.675
13331SOL     OW51620   4.121   1.037  22.351
13331SOL    HW151621   4.034   1.013  22.318
13331SOL    HW251622   4.144   0.966  22.411
13332SOL     OW51623   0.248   0.142   6.503
13332SOL    HW151624   0.212   0.073   6.447
13332SOL    HW251625   0.177   0.163   6.564
13333SOL     OW51626   4.178   2.062  11.924
13333SOL    HW151627   4.188   2.050  12.018
13333SOL    HW251628   4.212   1.981  11.886
13334SOL     OW51629   0.309   3.908   2.402
13334SOL    HW151630   0.313   3.812   2.405
13334SOL    HW251631   0.234   3.930   2.458
13335SOL     OW51632   0.392   1.289   5.654
13335SOL    HW151633   0.309   1.243   5.643
13335SOL    HW251634   0.410   1.284   5.748
13336SOL     OW51635   3.146   3.263  23.351
13336SOL    HW151636   3.203   3.212  23.293
13336SOL    HW251637   3.059   3.224  23.339
13337SOL     OW51638   2.687   2.917  27.868
13337SOL    HW151639   2.650   2.912  27.780
13337SOL    HW251640   2.666   2.832  27.908
13338SOL     OW51641   0.663   0.146  27.560
13338SOL    HW151642   0.664   0.218  27.623
13338SOL    HW251643   0.735   0.089  27.588
13339SOL     OW51644   3.233   2.777  24.638
13339SOL    HW151645   3.226   2.719  24.714
13339SOL    HW251646   3.211   2.864  24.672
13340SOL     OW51647   1.303   3.180  20.724
13340SOL    HW151648   1.343   3.207  20.641
13340SOL    HW251649   1.238   3.248  20.743
13341SOL     OW51650   2.890   3.146  23.379
13341SOL    HW151651   2.904   3.056  23.408
13341SOL    HW251652   2.882   3.197  23.460
13342SOL     OW51653   1.836   0.365  19.408
13342SOL    HW151654   1.790   0.317  19.339
13342SOL    HW251655   1.844   0.454  19.374
13343SOL     OW51656   0.128   0.876  23.047
13343SOL    HW151657   0.102   0.813  23.114
13343SOL    HW251658   0.222   0.886  23.058
13344SOL     OW51659   4.138   1.979  25.890
13344SOL    HW151660   4.228   1.952  25.906
13344SOL    HW251661   4.091   1.955  25.970
13345SOL     OW51662   1.178   4.210  23.120
13345SOL    HW151663   1.217   4.125  23.140
13345SOL    HW251664   1.101   4.189  23.066
13346SOL     OW51665   1.984   2.131  27.983
13346SOL    HW151666   1.997   2.128  28.078
13346SOL    HW251667   1.989   2.040  27.955
13347SOL     OW51668   1.177   4.131   7.044
13347SOL    HW151669   1.226   4.175   6.974
13347SOL    HW251670   1.233   4.058   7.070
13348SOL     OW51671   1.730   1.008   7.168
13348SOL    HW151672   1.654   0.951   7.158
13348SOL    HW251673   1.793   0.975   7.104
13349SOL     OW51674   0.946   4.640  17.301
13349SOL    HW151675   0.914   4.718  17.345
13349SOL    HW251676   1.041   4.647  17.306
13350SOL     OW51677   4.708   0.607  18.735
13350SOL    HW151678   4.695   0.699  18.713
13350SOL    HW251679   0.022   0.594  18.726
13351SOL     OW51680   2.607   1.948   5.898
13351SOL    HW151681   2.642   1.917   5.815
13351SOL    HW251682   2.636   1.883   5.962
13352SOL     OW51683   2.608   2.275   3.414
13352SOL    HW151684   2.654   2.342   3.364
13352SOL    HW251685   2.659   2.266   3.495
13353SOL     OW51686   2.987   3.373   2.869
13353SOL    HW151687   3.013   3.331   2.787
13353SOL    HW251688   2.893   3.357   2.875
13354SOL     OW51689   3.910   0.022   8.379
13354SOL    HW151690   3.933   4.733   8.440
13354SOL    HW251691   3.964   0.006   8.302
13355SOL     OW51692   0.731   0.441  26.303
13355SOL    HW151693   0.780   0.361  26.285
13355SOL    HW251694   0.651   0.433  26.252
13356SOL     OW51695   3.970   0.607   1.006
13356SOL    HW151696   3.982   0.612   0.911
13356SOL    HW251697   3.963   0.513   1.024
13357SOL     OW51698   3.208   1.986   1.939
13357SOL    HW151699   3.234   2.051   1.873
13357SOL    HW251700   3.129   2.022   1.978
13358SOL     OW51701   0.656   2.132  21.310
13358SOL    HW151702   0.614   2.098  21.389
13358SOL    HW251703   0.745   2.154  21.337
13359SOL     OW51704   2.257   0.048   6.642
13359SOL    HW151705   2.176   0.024   6.687
13359SOL    HW251706   2.298   0.113   6.700
13360SOL     OW51707   2.112   3.019   7.634
13360SOL    HW151708   2.056   2.995   7.708
13360SOL    HW251709   2.201   3.015   7.669
13361SOL     OW51710   0.290   3.733   0.101
13361SOL    HW151711   0.195   3.737   0.093
13361SOL    HW251712   0.322   3.804   0.045
13362SOL     OW51713   2.236   2.912   9.648
13362SOL    HW151714   2.254   2.855   9.573
13362SOL    HW251715   2.169   2.973   9.616
13363SOL     OW51716   2.310   1.428  25.077
13363SOL    HW151717   2.247   1.362  25.107
13363SOL    HW251718   2.359   1.451  25.156
13364SOL     OW51719   3.897   1.874  26.061
13364SOL    HW151720   3.853   1.893  25.978
13364SOL    HW251721   3.832   1.827  26.113
13365SOL     OW51722   3.552   0.992  26.864
13365SOL    HW151723   3.619   0.941  26.817
13365SOL    HW251724   3.544   1.073  26.813
13366SOL     OW51725   2.038   2.891   6.568
13366SOL    HW151726   2.087   2.971   6.548
13366SOL    HW251727   2.060   2.871   6.659
13367SOL     OW51728   2.600   2.267   1.362
13367SOL    HW151729   2.610   2.274   1.457
13367SOL    HW251730   2.688   2.248   1.330
13368SOL     OW51731   0.947   1.080  10.290
13368SOL    HW151732   1.006   1.060  10.363
13368SOL    HW251733   0.940   0.998  10.241
13369SOL     OW51734   3.923   4.628  28.176
13369SOL    HW151735   3.836   4.663  28.159
13369SOL    HW251736   3.982   4.688  28.130
13370SOL     OW51737   0.712   3.027   2.524
13370SOL    HW151738   0.656   3.104   2.512
13370SOL    HW251739   0.798   3.054   2.492
13371SOL     OW51740   4.078   1.096   3.125
13371SOL    HW151741   4.062   1.123   3.215
13371SOL    HW251742   3.999   1.049   3.099
13372SOL     OW51743   1.539   1.597   5.346
13372SOL    HW151744   1.536   1.518   5.293
13372SOL    HW251745   1.622   1.638   5.323
13373SOL     OW51746   4.485   3.078  20.218
13373SOL    HW151747   4.469   3.054  20.309
13373SOL    HW251748   4.561   3.026  20.193
13374SOL     OW51749   0.509   3.752   2.057
13374SOL    HW151750   0.513   3.757   1.962
13374SOL    HW251751   0.484   3.840   2.085
13375SOL     OW51752   3.984   3.646  26.980
13375SOL    HW151753   4.046   3.665  27.050
13375SOL    HW251754   3.982   3.726  26.927
13376SOL     OW51755   4.540   0.152  21.885
13376SOL    HW151756   4.582   0.089  21.827
13376SOL    HW251757   4.612   0.187  21.938
13377SOL     OW51758   0.095   4.064   8.060
13377SOL    HW151759   0.038   4.058   7.983
13377SOL    HW251760   0.156   3.991   8.050
13378SOL     OW51761   4.078   4.649  27.653
13378SOL    HW151762   4.038   4.725  27.695
13378SOL    HW251763   4.087   4.674  27.561
13379SOL     OW51764   0.082   1.354  24.197
13379SOL    HW151765   0.165   1.397  24.175
13379SOL    HW251766   0.088   1.336  24.291
13380SOL     OW51767   3.018   3.809  26.420
13380SOL    HW151768   2.973   3.784  26.501
13380SOL    HW251769   3.100   3.760  26.422
13381SOL     OW51770   2.669   4.118  25.373
13381SOL    HW151771   2.758   4.115  25.338
13381SOL    HW251772   2.659   4.207  25.407
13382SOL     OW51773   2.269   2.509  25.180
13382SOL    HW151774   2.266   2.414  25.166
13382SOL    HW251775   2.284   2.519  25.274
13383SOL     OW51776   4.211   1.993   6.378
13383SOL    HW151777   4.260   1.931   6.432
13383SOL    HW251778   4.203   1.950   6.293
13384SOL     OW51779   2.734   0.880   4.442
13384SOL    HW151780   2.739   0.975   4.434
13384SOL    HW251781   2.731   0.849   4.352
13385SOL     OW51782   0.952   1.521  23.968
13385SOL    HW151783   1.016   1.584  23.935
13385SOL    HW251784   0.912   1.565  24.043
13386SOL     OW51785   0.931   2.557  17.484
13386SOL    HW151786   1.004   2.556  17.423
13386SOL    HW251787   0.910   2.465  17.498
13387SOL     OW51788   0.228   3.904   1.016
13387SOL    HW151789   0.153   3.867   1.061
13387SOL    HW251790   0.304   3.866   1.060
13388SOL     OW51791   1.135   0.208  21.221
13388SOL    HW151792   1.123   0.303  21.224
13388SOL    HW251793   1.062   0.173  21.273
13389SOL     OW51794   4.265   2.721  23.347
13389SOL    HW151795   4.267   2.627  23.363
13389SOL    HW251796   4.205   2.731  23.273
13390SOL     OW51797   2.881   3.777  11.696
13390SOL    HW151798   2.818   3.833  11.742
13390SOL    HW251799   2.963   3.827  11.697
13391SOL     OW51800   3.047   1.043  20.190
13391SOL    HW151801   3.022   1.072  20.102
13391SOL    HW251802   3.132   1.084  20.206
13392SOL     OW51803   2.323   3.110  11.628
13392SOL    HW151804   2.348   3.020  11.650
13392SOL    HW251805   2.230   3.116  11.651
13393SOL     OW51806   2.880   2.832  22.360
13393SOL    HW151807   2.810   2.771  22.335
13393SOL    HW251808   2.840   2.919  22.353
13394SOL     OW51809   1.711   3.280  11.847
13394SOL    HW151810   1.798   3.283  11.887
13394SOL    HW251811   1.682   3.190  11.860
13395SOL     OW51812   2.695   4.128   5.053
13395SOL    HW151813   2.682   4.162   5.142
13395SOL    HW251814   2.789   4.109   5.049
13396SOL     OW51815   1.919   4.391   2.408
13396SOL    HW151816   1.916   4.468   2.352
13396SOL    HW251817   1.972   4.418   2.483
13397SOL     OW51818   1.414   4.419   4.592
13397SOL    HW151819   1.484   4.481   4.573
13397SOL    HW251820   1.392   4.434   4.684
13398SOL     OW51821   4.426   1.092  27.647
13398SOL    HW151822   4.449   0.999  27.654
13398SOL    HW251823   4.510   1.137  27.637
13399SOL     OW51824   0.898   2.867  27.439
13399SOL    HW151825   0.981   2.877  27.485
13399SOL    HW251826   0.836   2.921  27.488
13400SOL     OW51827   2.464   3.609  20.308
13400SOL    HW151828   2.392   3.550  20.332
13400SOL    HW251829   2.498   3.573  20.226
13401SOL     OW51830   0.767   1.673  20.842
13401SOL    HW151831   0.818   1.743  20.802
13401SOL    HW251832   0.780   1.598  20.785
13402SOL     OW51833   0.394   3.041   4.351
13402SOL    HW151834   0.340   3.115   4.324
13402SOL    HW251835   0.449   3.076   4.421
13403SOL     OW51836   3.108   0.118  20.073
13403SOL    HW151837   3.137   0.076  19.992
13403SOL    HW251838   3.016   0.093  20.081
13404SOL     OW51839   0.283   2.707  24.436
13404SOL    HW151840   0.204   2.755  24.461
13404SOL    HW251841   0.336   2.770  24.387
13405SOL     OW51842   3.227   3.496  18.943
13405SOL    HW151843   3.196   3.577  18.983
13405SOL    HW251844   3.304   3.472  18.994
13406SOL     OW51845   1.138   0.534  27.446
13406SOL    HW151846   1.176   0.615  27.411
13406SOL    HW251847   1.133   0.549  27.540
13407SOL     OW51848   3.835   2.750   8.838
13407SOL    HW151849   3.879   2.792   8.912
13407SOL    HW251850   3.858   2.804   8.763
13408SOL     OW51851   2.619   3.704  19.596
13408SOL    HW151852   2.539   3.666  19.561
13408SOL    HW251853   2.645   3.769  19.531
13409SOL     OW51854   3.297   0.880   2.939
13409SOL    HW151855   3.235   0.848   2.873
13409SOL    HW251856   3.255   0.958   2.976
13410SOL     OW51857   1.453   0.278  21.444
13410SOL    HW151858   1.391   0.345  21.414
13410SOL    HW251859   1.527   0.328  21.479
13411SOL     OW51860   0.997   1.689   2.155
13411SOL    HW151861   1.071   1.630   2.173
13411SOL    HW251862   0.933   1.634   2.111
13412SOL     OW51863   0.524   2.604  26.067
13412SOL    HW151864   0.511   2.585  26.160
13412SOL    HW251865   0.561   2.523  26.031
13413SOL     OW51866   1.883   1.309  24.099
13413SOL    HW151867   1.869   1.244  24.031
13413SOL    HW251868   1.845   1.270  24.178
13414SOL     OW51869   2.051   0.133   2.680
13414SOL    HW151870   2.142   0.115   2.656
13414SOL    HW251871   2.002   0.059   2.644
13415SOL     OW51872   0.617   1.773   1.129
13415SOL    HW151873   0.668   1.800   1.205
13415SOL    HW251874   0.630   1.843   1.065
13416SOL     OW51875   4.660   2.973   8.582
13416SOL    HW151876   4.735   3.018   8.544
13416SOL    HW251877   4.608   3.043   8.622
13417SOL     OW51878   1.915   3.613  23.765
13417SOL    HW151879   1.910   3.675  23.692
13417SOL    HW251880   1.876   3.532  23.730
13418SOL     OW51881   3.662   2.846  10.102
13418SOL    HW151882   3.586   2.859  10.159
13418SOL    HW251883   3.637   2.887  10.019
13419SOL     OW51884   1.169   1.209   5.129
13419SOL    HW151885   1.155   1.193   5.222
13419SOL    HW251886   1.081   1.223   5.093
13420SOL     OW51887   0.530   0.506   3.826
13420SOL    HW151888   0.459   0.461   3.781
13420SOL    HW251889   0.601   0.510   3.762
13421SOL     OW51890   2.486   4.778   9.934
13421SOL    HW151891   2.441   4.754   9.853
13421SOL    HW251892   2.435   4.735  10.003
13422SOL     OW51893   4.233   1.618  20.183
13422SOL    HW151894   4.287   1.544  20.210
13422SOL    HW251895   4.278   1.695  20.217
13423SOL     OW51896   0.507   1.662  19.822
13423SOL    HW151897   0.485   1.642  19.913
13423SOL    HW251898   0.448   1.608  19.770
13424SOL     OW51899   2.926   3.765   0.883
13424SOL    HW151900   2.904   3.858   0.886
13424SOL    HW251901   3.022   3.763   0.887
13425SOL     OW51902   3.639   3.914  19.932
13425SOL    HW151903   3.725   3.904  19.891
13425SOL    HW251904   3.642   3.855  20.008
13426SOL     OW51905   2.785   0.988   9.103
13426SOL    HW151906   2.699   0.950   9.087
13426SOL    HW251907   2.813   1.020   9.017
13427SOL     OW51908   4.035   2.969   4.376
13427SOL    HW151909   4.037   2.934   4.465
13427SOL    HW251910   3.943   2.992   4.361
13428SOL     OW51911   2.888   2.007   4.165
13428SOL    HW151912   2.823   1.946   4.200
13428SOL    HW251913   2.839   2.062   4.105
13429SOL     OW51914   0.243   0.699   4.770
13429SOL    HW151915   0.325   0.682   4.723
13429SOL    HW251916   0.269   0.750   4.846
13430SOL     OW51917   4.238   1.769  18.852
13430SOL    HW151918   4.197   1.729  18.775
13430SOL    HW251919   4.269   1.854  18.821
13431SOL     OW51920   3.594   1.940   5.717
13431SOL    HW151921   3.684   1.924   5.746
13431SOL    HW251922   3.555   1.853   5.713
13432SOL     OW51923   3.128   3.796   3.537
13432SOL    HW151924   3.124   3.796   3.441
13432SOL    HW251925   3.042   3.828   3.564
13433SOL     OW51926   4.659   0.448   7.888
13433SOL    HW151927   4.703   0.373   7.929
13433SOL    HW251928   4.692   0.448   7.798
13434SOL     OW51929   1.044   4.449   3.159
13434SOL    HW151930   1.082   4.361   3.160
13434SOL    HW251931   0.987   4.449   3.082
13435SOL     OW51932   2.508   1.311   2.230
13435SOL    HW151933   2.557   1.392   2.245
13435SOL    HW251934   2.422   1.340   2.199
13436SOL     OW51935   1.422   0.580  23.064
13436SOL    HW151936   1.466   0.534  22.993
13436SOL    HW251937   1.409   0.669  23.031
13437SOL     OW51938   0.118   1.936  23.903
13437SOL    HW151939   0.047   1.888  23.861
13437SOL    HW251940   0.100   2.028  23.882
13438SOL     OW51941   3.153   0.271   9.481
13438SOL    HW151942   3.085   0.273   9.548
13438SOL    HW251943   3.233   0.297   9.527
13439SOL     OW51944   3.570   4.488  20.487
13439SOL    HW151945   3.534   4.576  20.494
13439SOL    HW251946   3.643   4.487  20.549
13440SOL     OW51947   1.752   4.674   7.606
13440SOL    HW151948   1.785   4.618   7.536
13440SOL    HW251949   1.801   4.647   7.684
13441SOL     OW51950   1.491   2.959   3.621
13441SOL    HW151951   1.569   2.953   3.676
13441SOL    HW251952   1.491   3.049   3.589
13442SOL     OW51953   0.924   0.576  21.960
13442SOL    HW151954   0.913   0.484  21.985
13442SOL    HW251955   1.008   0.602  21.997
13443SOL     OW51956   0.627   1.037  24.689
13443SOL    HW151957   0.623   1.101  24.760
13443SOL    HW251958   0.689   0.971  24.720
13444SOL     OW51959   0.277   3.932   9.282
13444SOL    HW151960   0.366   3.949   9.313
13444SOL    HW251961   0.243   4.018   9.258
13445SOL     OW51962   4.487   1.194  23.245
13445SOL    HW151963   4.522   1.194  23.334
13445SOL    HW251964   4.436   1.113  23.239
13446SOL     OW51965   3.716   2.719   4.287
13446SOL    HW151966   3.719   2.799   4.340
13446SOL    HW251967   3.724   2.749   4.197
13447SOL     OW51968   3.937   1.336  18.562
13447SOL    HW151969   3.969   1.293  18.483
13447SOL    HW251970   4.009   1.329  18.624
13448SOL     OW51971   3.136   2.863  23.100
13448SOL    HW151972   3.053   2.838  23.059
13448SOL    HW251973   3.178   2.780  23.123
13449SOL     OW51974   1.134   3.055   9.787
13449SOL    HW151975   1.126   2.974   9.736
13449SOL    HW251976   1.060   3.053   9.847
13450SOL     OW51977   3.272   4.643   1.896
13450SOL    HW151978   3.338   4.711   1.913
13450SOL    HW251979   3.219   4.678   1.825
13451SOL     OW51980   0.812   0.458   1.138
13451SOL    HW151981   0.861   0.493   1.064
13451SOL    HW251982   0.793   0.367   1.113
13452SOL     OW51983   1.442   1.634   1.482
13452SOL    HW151984   1.515   1.643   1.543
13452SOL    HW251985   1.418   1.541   1.486
13453SOL     OW51986   3.981   3.809  28.194
13453SOL    HW151987   3.945   3.896  28.213
13453SOL    HW251988   3.938   3.751  28.257
13454SOL     OW51989   4.342   3.648  25.694
13454SOL    HW151990   4.435   3.636  25.712
13454SOL    HW251991   4.311   3.561  25.668
13455SOL     OW51992   3.120   0.784  20.241
13455SOL    HW151993   3.094   0.791  20.333
13455SOL    HW251994   3.091   0.866  20.202
13456SOL     OW51995   4.181   3.494   6.631
13456SOL    HW151996   4.193   3.468   6.540
13456SOL    HW251997   4.175   3.411   6.679
13457SOL     OW51998   1.261   0.230   0.175
13457SOL    HW151999   1.335   0.288   0.195
13457SOL    HW252000   1.210   0.278   0.110
13458SOL     OW52001   3.683   4.424  22.143
13458SOL    HW152002   3.607   4.482  22.137
13458SOL    HW252003   3.652   4.340  22.110
13459SOL     OW52004   0.740   3.351   0.353
13459SOL    HW152005   0.786   3.430   0.325
13459SOL    HW252006   0.782   3.280   0.304
13460SOL     OW52007   1.206   4.009   4.717
13460SOL    HW152008   1.287   4.053   4.744
13460SOL    HW252009   1.207   4.014   4.621
13461SOL     OW52010   2.370   2.775   7.449
13461SOL    HW152011   2.397   2.698   7.400
13461SOL    HW252012   2.438   2.786   7.516
13462SOL     OW52013   3.199   4.769   3.478
13462SOL    HW152014   3.175   0.024   3.563
13462SOL    HW252015   3.118   4.730   3.445
13463SOL     OW52016   4.470   2.988   4.713
13463SOL    HW152017   4.412   2.912   4.708
13463SOL    HW252018   4.539   2.961   4.773
13464SOL     OW52019   4.365   1.672  17.564
13464SOL    HW152020   4.295   1.659  17.501
13464SOL    HW252021   4.407   1.753  17.537
13465SOL     OW52022   2.634   0.573  26.508
13465SOL    HW152023   2.595   0.660  26.518
13465SOL    HW252024   2.586   0.533  26.436
13466SOL     OW52025   2.041   3.591  21.057
13466SOL    HW152026   2.021   3.656  21.124
13466SOL    HW252027   1.962   3.538  21.051
13467SOL     OW52028   2.006   0.782   3.103
13467SOL    HW152029   1.946   0.757   3.033
13467SOL    HW252030   2.007   0.878   3.101
13468SOL     OW52031   3.904   1.037   0.759
13468SOL    HW152032   3.903   1.061   0.852
13468SOL    HW252033   3.993   1.006   0.743
13469SOL     OW52034   0.723   0.802   4.256
13469SOL    HW152035   0.765   0.887   4.240
13469SOL    HW252036   0.796   0.741   4.265
13470SOL     OW52037   0.749   1.063  27.025
13470SOL    HW152038   0.698   1.126  26.974
13470SOL    HW252039   0.798   1.014  26.959
13471SOL     OW52040   3.796   4.763  18.620
13471SOL    HW152041   3.881   0.006  18.583
13471SOL    HW252042   3.772   4.682  18.574
13472SOL     OW52043   0.924   0.640   3.014
13472SOL    HW152044   0.898   0.645   3.106
13472SOL    HW252045   1.011   0.680   3.011
13473SOL     OW52046   3.476   1.606   7.459
13473SOL    HW152047   3.383   1.599   7.436
13473SOL    HW252048   3.478   1.671   7.530
13474SOL     OW52049   2.319   3.852  10.607
13474SOL    HW152050   2.335   3.770  10.654
13474SOL    HW252051   2.394   3.907  10.629
13475SOL     OW52052   4.758   2.164  10.104
13475SOL    HW152053   0.023   2.169  10.020
13475SOL    HW252054   4.733   2.072  10.111
13476SOL     OW52055   4.199   1.686  27.815
13476SOL    HW152056   4.204   1.664  27.908
13476SOL    HW252057   4.130   1.752  27.810
13477SOL     OW52058   4.482   2.062  21.728
13477SOL    HW152059   4.560   2.098  21.686
13477SOL    HW252060   4.496   2.079  21.821
13478SOL     OW52061   0.076   1.489   3.577
13478SOL    HW152062   0.031   1.566   3.611
13478SOL    HW252063   0.112   1.446   3.655
13479SOL     OW52064   1.789   2.219   5.002
13479SOL    HW152065   1.704   2.223   5.045
13479SOL    HW252066   1.850   2.254   5.066
13480SOL     OW52067   2.113   4.005  10.574
13480SOL    HW152068   2.142   4.060  10.501
13480SOL    HW252069   2.186   3.945  10.589
13481SOL     OW52070   1.151   4.518   0.508
13481SOL    HW152071   1.091   4.450   0.478
13481SOL    HW252072   1.097   4.576   0.562
13482SOL     OW52073   0.594   3.261  19.159
13482SOL    HW152074   0.679   3.295  19.188
13482SOL    HW252075   0.538   3.269  19.236
13483SOL     OW52076   2.032   2.164   3.049
13483SOL    HW152077   2.048   2.073   3.075
13483SOL    HW252078   1.989   2.157   2.964
13484SOL     OW52079   2.097   2.022  26.273
13484SOL    HW152080   2.148   2.082  26.327
13484SOL    HW252081   2.054   2.078  26.209
13485SOL     OW52082   3.392   1.920  25.098
13485SOL    HW152083   3.439   1.918  25.015
13485SOL    HW252084   3.412   1.836  25.139
13486SOL     OW52085   3.754   1.299   5.663
13486SOL    HW152086   3.667   1.338   5.660
13486SOL    HW252087   3.738   1.205   5.673
13487SOL     OW52088   2.955   3.177  12.127
13487SOL    HW152089   3.038   3.224  12.131
13487SOL    HW252090   2.916   3.190  12.213
13488SOL     OW52091   0.917   0.926  23.873
13488SOL    HW152092   0.907   1.013  23.912
13488SOL    HW252093   0.992   0.888  23.918
13489SOL     OW52094   2.797   1.506   8.732
13489SOL    HW152095   2.755   1.516   8.646
13489SOL    HW252096   2.891   1.516   8.714
13490SOL     OW52097   0.440   2.509  23.202
13490SOL    HW152098   0.496   2.489  23.127
13490SOL    HW252099   0.459   2.440  23.265
13491SOL     OW52100   0.561   0.394  18.996
13491SOL    HW152101   0.620   0.439  18.936
13491SOL    HW252102   0.595   0.416  19.083
13492SOL     OW52103   3.519   3.141  24.014
13492SOL    HW152104   3.510   3.171  24.104
13492SOL    HW252105   3.614   3.136  24.000
13493SOL     OW52106   0.704   0.669   4.828
13493SOL    HW152107   0.761   0.731   4.783
13493SOL    HW252108   0.762   0.622   4.888
13494SOL     OW52109   3.386   4.145  21.388
13494SOL    HW152110   3.460   4.203  21.407
13494SOL    HW252111   3.363   4.107  21.473
13495SOL     OW52112   0.436   0.589  20.399
13495SOL    HW152113   0.354   0.625  20.433
13495SOL    HW252114   0.427   0.494  20.409
13496SOL     OW52115   2.983   0.907  25.651
13496SOL    HW152116   2.911   0.874  25.704
13496SOL    HW252117   3.056   0.914  25.712
13497SOL     OW52118   0.996   3.949   8.601
13497SOL    HW152119   1.083   3.918   8.627
13497SOL    HW252120   0.997   4.042   8.623
13498SOL     OW52121   4.778   3.978   0.377
13498SOL    HW152122   0.080   3.934   0.394
13498SOL    HW252123   4.771   4.045   0.445
13499SOL     OW52124   3.322   2.725   5.703
13499SOL    HW152125   3.315   2.631   5.718
13499SOL    HW252126   3.383   2.756   5.770
13500SOL     OW52127   1.901   4.438   7.639
13500SOL    HW152128   1.961   4.499   7.681
13500SOL    HW252129   1.953   4.395   7.571
13501SOL     OW52130   1.058   1.500  26.791
13501SOL    HW152131   1.146   1.463  26.786
13501SOL    HW252132   1.033   1.491  26.883
13502SOL     OW52133   4.096   0.376  27.708
13502SOL    HW152134   4.174   0.428  27.689
13502SOL    HW252135   4.027   0.414  27.653
13503SOL     OW52136   3.886   0.817  20.255
13503SOL    HW152137   3.921   0.737  20.294
13503SOL    HW252138   3.901   0.807  20.161
13504SOL     OW52139   3.406   1.405  17.907
13504SOL    HW152140   3.387   1.374  17.996
13504SOL    HW252141   3.366   1.340  17.850
13505SOL     OW52142   2.861   4.078  10.379
13505SOL    HW152143   2.943   4.127  10.369
13505SOL    HW252144   2.815   4.124  10.449
13506SOL     OW52145   2.083   1.019  27.949
13506SOL    HW152146   2.136   1.096  27.971
13506SOL    HW252147   2.114   0.993  27.862
13507SOL     OW52148   3.549   4.619   1.355
13507SOL    HW152149   3.460   4.587   1.371
13507SOL    HW252150   3.539   4.713   1.338
13508SOL     OW52151   0.270   3.803  18.286
13508SOL    HW152152   0.297   3.727  18.234
13508SOL    HW252153   0.315   3.791  18.370
13509SOL     OW52154   4.715   3.136   5.501
13509SOL    HW152155   4.764   3.216   5.520
13509SOL    HW252156   4.750   3.072   5.563
13510SOL     OW52157   0.293   4.485   2.525
13510SOL    HW152158   0.202   4.462   2.509
13510SOL    HW252159   0.341   4.403   2.513
13511SOL     OW52160   4.309   1.078  27.003
13511SOL    HW152161   4.226   1.085  26.956
13511SOL    HW252162   4.312   1.156  27.058
13512SOL     OW52163   1.631   3.335   7.728
13512SOL    HW152164   1.645   3.295   7.642
13512SOL    HW252165   1.612   3.427   7.708
13513SOL     OW52166   3.910   2.912   6.257
13513SOL    HW152167   3.905   2.827   6.301
13513SOL    HW252168   3.830   2.957   6.283
13514SOL     OW52169   3.578   2.402   8.939
13514SOL    HW152170   3.649   2.340   8.921
13514SOL    HW252171   3.499   2.348   8.942
13515SOL     OW52172   2.121   3.887  23.610
13515SOL    HW152173   2.093   3.951  23.676
13515SOL    HW252174   2.042   3.838  23.589
13516SOL     OW52175   2.095   3.539   2.597
13516SOL    HW152176   2.097   3.601   2.670
13516SOL    HW252177   2.112   3.592   2.519
13517SOL     OW52178   0.332   3.890  24.938
13517SOL    HW152179   0.265   3.919  24.876
13517SOL    HW252180   0.328   3.953  25.010
13518SOL     OW52181   2.864   2.275  20.008
13518SOL    HW152182   2.903   2.201  19.961
13518SOL    HW252183   2.937   2.314  20.056
13519SOL     OW52184   2.745   2.627   8.246
13519SOL    HW152185   2.703   2.700   8.291
13519SOL    HW252186   2.683   2.555   8.254
13520SOL     OW52187   2.868   3.900   3.446
13520SOL    HW152188   2.914   3.983   3.434
13520SOL    HW252189   2.795   3.921   3.505
13521SOL     OW52190   0.178   1.260  27.805
13521SOL    HW152191   0.232   1.266  27.884
13521SOL    HW252192   0.198   1.173  27.770
13522SOL     OW52193   3.278   1.119  17.224
13522SOL    HW152194   3.183   1.132  17.221
13522SOL    HW252195   3.292   1.069  17.304
13523SOL     OW52196   1.312   4.265   3.981
13523SOL    HW152197   1.382   4.227   4.034
13523SOL    HW252198   1.251   4.303   4.044
13524SOL     OW52199   2.389   3.604  20.840
13524SOL    HW152200   2.465   3.548  20.823
13524SOL    HW252201   2.410   3.687  20.797
13525SOL     OW52202   1.477   3.903  27.836
13525SOL    HW152203   1.444   3.872  27.920
13525SOL    HW252204   1.560   3.945  27.857
13526SOL     OW52205   3.006   4.616   7.661
13526SOL    HW152206   2.985   4.547   7.724
13526SOL    HW252207   3.102   4.622   7.664
13527SOL     OW52208   2.156   0.802  22.785
13527SOL    HW152209   2.113   0.727  22.745
13527SOL    HW252210   2.085   0.854  22.821
13528SOL     OW52211   2.505   2.583  20.615
13528SOL    HW152212   2.434   2.612  20.558
13528SOL    HW252213   2.507   2.488  20.605
13529SOL     OW52214   0.929   3.688   8.659
13529SOL    HW152215   0.950   3.701   8.752
13529SOL    HW252216   0.940   3.775   8.620
13530SOL     OW52217   1.514   4.302  22.350
13530SOL    HW152218   1.542   4.239  22.416
13530SOL    HW252219   1.472   4.372  22.400
13531SOL     OW52220   1.124   3.561  16.803
13531SOL    HW152221   1.190   3.624  16.773
13531SOL    HW252222   1.174   3.484  16.831
13532SOL     OW52223   1.515   3.513   5.735
13532SOL    HW152224   1.446   3.536   5.672
13532SOL    HW252225   1.557   3.436   5.697
13533SOL     OW52226   1.079   0.543  20.503
13533SOL    HW152227   1.054   0.512  20.416
13533SOL    HW252228   1.062   0.469  20.561
13534SOL     OW52229   3.644   1.319  21.966
13534SOL    HW152230   3.721   1.264  21.977
13534SOL    HW252231   3.676   1.408  21.979
13535SOL     OW52232   2.704   4.239   9.971
13535SOL    HW152233   2.718   4.203   9.883
13535SOL    HW252234   2.785   4.220  10.018
13536SOL     OW52235   2.183   0.250   0.136
13536SOL    HW152236   2.157   0.159   0.150
13536SOL    HW252237   2.170   0.265   0.042
13537SOL     OW52238   1.751   2.648   1.263
13537SOL    HW152239   1.690   2.696   1.208
13537SOL    HW252240   1.697   2.613   1.334
13538SOL     OW52241   4.639   2.562   6.876
13538SOL    HW152242   4.647   2.524   6.788
13538SOL    HW252243   4.694   2.506   6.931
13539SOL     OW52244   4.456   0.659  25.322
13539SOL    HW152245   4.499   0.613  25.250
13539SOL    HW252246   4.521   0.659  25.392
13540SOL     OW52247   1.017   1.519  27.766
13540SOL    HW152248   1.063   1.437  27.781
13540SOL    HW252249   1.073   1.567  27.705
13541SOL     OW52250   1.469   0.934  23.895
13541SOL    HW152251   1.414   0.887  23.833
13541SOL    HW252252   1.533   0.869  23.924
13542SOL     OW52253   2.837   3.281  21.373
13542SOL    HW152254   2.904   3.335  21.415
13542SOL    HW252255   2.886   3.226  21.312
13543SOL     OW52256   3.709   4.387  26.425
13543SOL    HW152257   3.640   4.418  26.484
13543SOL    HW252258   3.667   4.381  26.339
13544SOL     OW52259   2.683   1.001  20.425
13544SOL    HW152260   2.658   0.956  20.345
13544SOL    HW252261   2.779   1.004  20.422
13545SOL     OW52262   4.058   2.066   5.905
13545SOL    HW152263   3.979   2.120   5.912
13545SOL    HW252264   4.038   2.002   5.837
13546SOL     OW52265   1.219   1.757   7.231
13546SOL    HW152266   1.298   1.723   7.274
13546SOL    HW252267   1.147   1.718   7.280
13547SOL     OW52268   2.252   3.507   9.508
13547SOL    HW152269   2.295   3.580   9.463
13547SOL    HW252270   2.159   3.528   9.503
13548SOL     OW52271   4.468   3.331   0.632
13548SOL    HW152272   4.524   3.351   0.707
13548SOL    HW252273   4.404   3.268   0.666
13549SOL     OW52274   1.890   0.265   0.856
13549SOL    HW152275   1.909   0.193   0.796
13549SOL    HW252276   1.795   0.264   0.865
13550SOL     OW52277   3.885   3.371  20.836
13550SOL    HW152278   3.807   3.326  20.805
13550SOL    HW252279   3.926   3.406  20.757
13551SOL     OW52280   4.384   2.976   5.764
13551SOL    HW152281   4.312   3.010   5.710
13551SOL    HW252282   4.345   2.963   5.850
13552SOL     OW52283   3.723   3.813   6.140
13552SOL    HW152284   3.692   3.723   6.133
13552SOL    HW252285   3.677   3.848   6.217
13553SOL     OW52286   3.757   2.087  21.816
13553SOL    HW152287   3.750   2.064  21.909
13553SOL    HW252288   3.669   2.072  21.781
13554SOL     OW52289   4.267   2.978  26.470
13554SOL    HW152290   4.200   3.036  26.434
13554SOL    HW252291   4.301   2.930  26.394
13555SOL     OW52292   4.434   3.949   3.291
13555SOL    HW152293   4.528   3.933   3.293
13555SOL    HW252294   4.421   4.025   3.347
13556SOL     OW52295   2.220   0.830  25.822
13556SOL    HW152296   2.139   0.789  25.853
13556SOL    HW252297   2.266   0.760  25.775
13557SOL     OW52298   4.697   0.932   5.214
13557SOL    HW152299   4.754   0.999   5.177
13557SOL    HW252300   4.618   0.979   5.242
13558SOL     OW52301   3.384   0.795  28.469
13558SOL    HW152302   3.374   0.743   0.026
13558SOL    HW252303   3.369   0.733  28.397
13559SOL     OW52304   4.614   0.817  11.468
13559SOL    HW152305   4.565   0.881  11.520
13559SOL    HW252306   4.631   0.745  11.529
13560SOL     OW52307   3.721   1.259  25.292
13560SOL    HW152308   3.740   1.167  25.274
13560SOL    HW252309   3.720   1.265  25.388
13561SOL     OW52310   1.515   2.963  26.694
13561SOL    HW152311   1.425   2.992  26.680
13561SOL    HW252312   1.506   2.881  26.742
13562SOL     OW52313   3.058   4.387   3.155
13562SOL    HW152314   3.029   4.319   3.094
13562SOL    HW252315   3.078   4.462   3.099
13563SOL     OW52316   0.703   2.468  24.655
13563SOL    HW152317   0.783   2.450  24.704
13563SOL    HW252318   0.678   2.557  24.681
13564SOL     OW52319   1.510   3.353   4.380
13564SOL    HW152320   1.586   3.324   4.431
13564SOL    HW252321   1.455   3.275   4.373
13565SOL     OW52322   1.255   2.338   6.287
13565SOL    HW152323   1.170   2.376   6.265
13565SOL    HW252324   1.247   2.313   6.379
13566SOL     OW52325   4.674   3.920   3.424
13566SOL    HW152326   4.767   3.936   3.438
13566SOL    HW252327   4.638   3.906   3.512
13567SOL     OW52328   3.624   2.949   6.053
13567SOL    HW152329   3.537   2.929   6.019
13567SOL    HW252330   3.632   3.044   6.043
13568SOL     OW52331   2.086   4.767   7.992
13568SOL    HW152332   2.158   0.049   7.995
13568SOL    HW252333   2.122   4.687   8.031
13569SOL     OW52334   4.089   0.522  21.241
13569SOL    HW152335   4.028   0.540  21.312
13569SOL    HW252336   4.155   0.591  21.248
13570SOL     OW52337   4.032   1.574  25.172
13570SOL    HW152338   4.057   1.599  25.261
13570SOL    HW252339   4.092   1.502  25.150
13571SOL     OW52340   0.615   1.224   5.497
13571SOL    HW152341   0.604   1.129   5.506
13571SOL    HW252342   0.535   1.261   5.535
13572SOL     OW52343   2.845   2.299  18.584
13572SOL    HW152344   2.751   2.282  18.595
13572SOL    HW252345   2.875   2.230  18.525
13573SOL     OW52346   0.649   4.648  15.553
13573SOL    HW152347   0.592   4.712  15.510
13573SOL    HW252348   0.707   4.617  15.483
13574SOL     OW52349   0.276   2.693  19.390
13574SOL    HW152350   0.335   2.752  19.437
13574SOL    HW252351   0.256   2.740  19.309
13575SOL     OW52352   4.485   0.938  24.569
13575SOL    HW152353   4.518   0.973  24.487
13575SOL    HW252354   4.546   0.970  24.636
13576SOL     OW52355   3.650   2.542  17.867
13576SOL    HW152356   3.624   2.625  17.906
13576SOL    HW252357   3.700   2.566  17.789
13577SOL     OW52358   0.814   3.562  20.343
13577SOL    HW152359   0.786   3.538  20.255
13577SOL    HW252360   0.791   3.486  20.397
13578SOL     OW52361   0.085   1.658   5.380
13578SOL    HW152362   0.111   1.595   5.447
13578SOL    HW252363   4.776   1.633   5.358
13579SOL     OW52364   0.235   3.912   0.535
13579SOL    HW152365   0.317   3.913   0.486
13579SOL    HW252366   0.258   3.873   0.619
13580SOL     OW52367   1.141   4.269  24.962
13580SOL    HW152368   1.116   4.297  24.874
13580SOL    HW252369   1.228   4.306  24.975
13581SOL     OW52370   2.213   3.813  20.950
13581SOL    HW152371   2.236   3.872  21.022
13581SOL    HW252372   2.197   3.871  20.876
13582SOL     OW52373   3.559   4.492  26.116
13582SOL    HW152374   3.496   4.428  26.150
13582SOL    HW252375   3.507   4.547  26.058
13583SOL     OW52376   3.046   2.350  26.474
13583SOL    HW152377   2.963   2.303  26.465
13583SOL    HW252378   3.096   2.298  26.536
13584SOL     OW52379   2.623   3.754  28.221
13584SOL    HW152380   2.592   3.737  28.132
13584SOL    HW252381   2.629   3.849  28.226
13585SOL     OW52382   1.330   3.934  20.574
13585SOL    HW152383   1.245   3.892  20.588
13585SOL    HW252384   1.342   3.932  20.479
13586SOL     OW52385   1.805   1.963  19.388
13586SOL    HW152386   1.822   2.057  19.384
13586SOL    HW252387   1.711   1.956  19.406
13587SOL     OW52388   3.813   2.895   8.417
13587SOL    HW152389   3.883   2.911   8.480
13587SOL    HW252390   3.758   2.829   8.459
13588SOL     OW52391   1.119   0.723   8.280
13588SOL    HW152392   1.062   0.797   8.257
13588SOL    HW252393   1.064   0.667   8.335
13589SOL     OW52394   3.121   1.058   1.316
13589SOL    HW152395   3.088   1.089   1.400
13589SOL    HW252396   3.102   0.964   1.315
13590SOL     OW52397   3.014   0.800   1.261
13590SOL    HW152398   2.949   0.866   1.239
13590SOL    HW252399   2.965   0.718   1.265
13591SOL     OW52400   0.274   3.074   5.508
13591SOL    HW152401   0.226   3.058   5.427
13591SOL    HW252402   0.234   3.015   5.572
13592SOL     OW52403   3.209   1.163  22.324
13592SOL    HW152404   3.231   1.109  22.400
13592SOL    HW252405   3.292   1.175  22.278
13593SOL     OW52406   0.111   1.673   8.206
13593SOL    HW152407   0.129   1.690   8.113
13593SOL    HW252408   0.151   1.747   8.252
13594SOL     OW52409   2.463   1.611  10.280
13594SOL    HW152410   2.403   1.658  10.338
13594SOL    HW252411   2.549   1.621  10.322
13595SOL     OW52412   4.103   3.062  22.348
13595SOL    HW152413   4.164   3.082  22.419
13595SOL    HW252414   4.058   3.145  22.331
13596SOL     OW52415   0.836   1.375  10.548
13596SOL    HW152416   0.905   1.410  10.492
13596SOL    HW252417   0.855   1.410  10.635
13597SOL     OW52418   3.547   2.380  25.771
13597SOL    HW152419   3.524   2.457  25.823
13597SOL    HW252420   3.467   2.328  25.768
13598SOL     OW52421   4.083   4.004  27.250
13598SOL    HW152422   4.075   3.982  27.343
13598SOL    HW252423   4.177   4.005  27.234
13599SOL     OW52424   4.627   0.210   6.892
13599SOL    HW152425   4.722   0.214   6.886
13599SOL    HW252426   4.600   0.300   6.911
13600SOL     OW52427   1.296   2.878   4.217
13600SOL    HW152428   1.299   2.965   4.177
13600SOL    HW252429   1.346   2.887   4.298
13601SOL     OW52430   3.139   0.835   2.084
13601SOL    HW152431   3.091   0.854   2.003
13601SOL    HW252432   3.071   0.811   2.147
13602SOL     OW52433   4.197   3.030  28.389
13602SOL    HW152434   4.267   3.049  28.326
13602SOL    HW252435   4.134   2.977  28.340
13603SOL     OW52436   4.468   3.330   3.295
13603SOL    HW152437   4.476   3.237   3.316
13603SOL    HW252438   4.415   3.332   3.216
13604SOL     OW52439   2.618   4.525  27.755
13604SOL    HW152440   2.550   4.574  27.801
13604SOL    HW252441   2.572   4.482  27.683
13605SOL     OW52442   2.182   4.261   7.196
13605SOL    HW152443   2.203   4.334   7.137
13605SOL    HW252444   2.166   4.187   7.138
13606SOL     OW52445   0.601   4.667   2.909
13606SOL    HW152446   0.594   4.577   2.876
13606SOL    HW252447   0.577   4.722   2.835
13607SOL     OW52448   4.463   1.699  26.492
13607SOL    HW152449   4.489   1.655  26.411
13607SOL    HW252450   4.492   1.641  26.562
13608SOL     OW52451   4.344   2.264  20.894
13608SOL    HW152452   4.278   2.249  20.961
13608SOL    HW252453   4.372   2.176  20.868
13609SOL     OW52454   2.231   3.390  20.977
13609SOL    HW152455   2.170   3.319  20.958
13609SOL    HW252456   2.273   3.364  21.059
13610SOL     OW52457   0.376   1.918  24.001
13610SOL    HW152458   0.283   1.913  23.981
13610SOL    HW252459   0.417   1.853  23.943
13611SOL     OW52460   2.466   3.044  19.976
13611SOL    HW152461   2.559   3.038  19.996
13611SOL    HW252462   2.422   3.014  20.056
13612SOL     OW52463   3.019   0.836  24.856
13612SOL    HW152464   2.974   0.908  24.900
13612SOL    HW252465   3.052   0.874  24.775
13613SOL     OW52466   3.137   2.576  27.630
13613SOL    HW152467   3.097   2.568  27.543
13613SOL    HW252468   3.127   2.489  27.669
13614SOL     OW52469   2.283   0.450  21.107
13614SOL    HW152470   2.291   0.512  21.034
13614SOL    HW252471   2.279   0.364  21.065
13615SOL     OW52472   3.711   4.637   4.620
13615SOL    HW152473   3.773   4.565   4.633
13615SOL    HW252474   3.724   4.693   4.697
13616SOL     OW52475   3.764   2.950   7.886
13616SOL    HW152476   3.793   2.996   7.965
13616SOL    HW252477   3.826   2.877   7.877
13617SOL     OW52478   2.902   3.913  21.306
13617SOL    HW152479   2.891   3.853  21.380
13617SOL    HW252480   2.997   3.926  21.299
13618SOL     OW52481   2.135   3.580  20.755
13618SOL    HW152482   2.171   3.636  20.686
13618SOL    HW252483   2.044   3.565  20.728
13619SOL     OW52484   0.913   2.851   8.981
13619SOL    HW152485   0.843   2.875   8.920
13619SOL    HW252486   0.970   2.928   8.984
13620SOL     OW52487   3.463   2.096  23.929
13620SOL    HW152488   3.508   2.161  23.984
13620SOL    HW252489   3.405   2.148  23.873
13621SOL     OW52490   3.710   0.531  21.341
13621SOL    HW152491   3.674   0.596  21.401
13621SOL    HW252492   3.679   0.557  21.254
13622SOL     OW52493   3.825   2.667  26.339
13622SOL    HW152494   3.761   2.712  26.284
13622SOL    HW252495   3.805   2.696  26.428
13623SOL     OW52496   1.912   2.625  22.305
13623SOL    HW152497   2.005   2.648  22.297
13623SOL    HW252498   1.906   2.579  22.389
13624SOL     OW52499   1.550   1.967   7.957
13624SOL    HW152500   1.555   1.965   8.053
13624SOL    HW252501   1.505   2.049   7.937
13625SOL     OW52502   1.986   3.510  25.058
13625SOL    HW152503   1.945   3.451  24.995
13625SOL    HW252504   1.921   3.520  25.128
13626SOL     OW52505   2.306   0.834   1.728
13626SOL    HW152506   2.393   0.794   1.726
13626SOL    HW252507   2.304   0.884   1.809
13627SOL     OW52508   0.381   3.093   7.277
13627SOL    HW152509   0.310   3.030   7.264
13627SOL    HW252510   0.337   3.178   7.278
13628SOL     OW52511   0.503   2.307   9.882
13628SOL    HW152512   0.577   2.273   9.933
13628SOL    HW252513   0.429   2.305   9.943
13629SOL     OW52514   2.130   3.774   7.855
13629SOL    HW152515   2.065   3.813   7.913
13629SOL    HW252516   2.198   3.841   7.848
13630SOL     OW52517   1.100   3.425  24.157
13630SOL    HW152518   1.181   3.406  24.109
13630SOL    HW252519   1.128   3.430  24.249
13631SOL     OW52520   1.870   0.110   2.929
13631SOL    HW152521   1.931   0.104   2.855
13631SOL    HW252522   1.799   0.166   2.897
13632SOL     OW52523   1.103   3.637   2.314
13632SOL    HW152524   1.021   3.608   2.273
13632SOL    HW252525   1.133   3.709   2.259
13633SOL     OW52526   2.236   0.172   1.739
13633SOL    HW152527   2.192   0.092   1.710
13633SOL    HW252528   2.166   0.226   1.775
13634SOL     OW52529   2.894   1.492  25.916
13634SOL    HW152530   2.893   1.422  25.851
13634SOL    HW252531   2.835   1.559  25.880
13635SOL     OW52532   3.255   3.154  19.665
13635SOL    HW152533   3.267   3.194  19.579
13635SOL    HW252534   3.263   3.060  19.649
13636SOL     OW52535   4.053   4.769   7.275
13636SOL    HW152536   3.965   0.026   7.280
13636SOL    HW252537   4.044   4.695   7.214
13637SOL     OW52538   1.943   0.500  24.476
13637SOL    HW152539   1.889   0.509  24.397
13637SOL    HW252540   1.932   0.583  24.522
13638SOL     OW52541   3.335   2.726   8.739
13638SOL    HW152542   3.263   2.783   8.767
13638SOL    HW252543   3.412   2.782   8.742
13639SOL     OW52544   2.733   3.817  10.539
13639SOL    HW152545   2.685   3.898  10.523
13639SOL    HW252546   2.748   3.816  10.634
13640SOL     OW52547   3.894   3.769  24.889
13640SOL    HW152548   3.863   3.842  24.943
13640SOL    HW252549   3.932   3.708  24.952
13641SOL     OW52550   2.028   1.485  26.834
13641SOL    HW152551   2.049   1.556  26.773
13641SOL    HW252552   2.106   1.477  26.889
13642SOL     OW52553   3.036   2.610  20.818
13642SOL    HW152554   3.099   2.653  20.761
13642SOL    HW252555   2.956   2.662  20.810
13643SOL     OW52556   2.335   3.513  22.620
13643SOL    HW152557   2.352   3.464  22.540
13643SOL    HW252558   2.282   3.588  22.592
13644SOL     OW52559   4.111   4.314  21.504
13644SOL    HW152560   4.133   4.227  21.470
13644SOL    HW252561   4.074   4.297  21.590
13645SOL     OW52562   2.047   0.232  24.977
13645SOL    HW152563   2.001   0.154  24.946
13645SOL    HW252564   2.002   0.305  24.934
13646SOL     OW52565   0.801   4.350  26.723
13646SOL    HW152566   0.870   4.284  26.726
13646SOL    HW252567   0.845   4.432  26.746
13647SOL     OW52568   3.811   2.218   1.326
13647SOL    HW152569   3.837   2.220   1.234
13647SOL    HW252570   3.771   2.132   1.338
13648SOL     OW52571   0.534   0.363  21.403
13648SOL    HW152572   0.525   0.273  21.433
13648SOL    HW252573   0.604   0.359  21.338
13649SOL     OW52574   0.785   0.800  22.234
13649SOL    HW152575   0.759   0.779  22.144
13649SOL    HW252576   0.747   0.730  22.287
13650SOL     OW52577   1.429   1.124  21.362
13650SOL    HW152578   1.351   1.161  21.404
13650SOL    HW252579   1.431   1.033  21.390
13651SOL     OW52580   4.090   1.932  24.264
13651SOL    HW152581   4.132   1.924  24.178
13651SOL    HW252582   4.158   1.968  24.321
13652SOL     OW52583   2.298   0.488   3.292
13652SOL    HW152584   2.257   0.500   3.378
13652SOL    HW252585   2.225   0.488   3.230
13653SOL     OW52586   0.604   3.380   4.736
13653SOL    HW152587   0.621   3.470   4.707
13653SOL    HW252588   0.526   3.387   4.791
13654SOL     OW52589   2.192   0.849  24.155
13654SOL    HW152590   2.209   0.755  24.148
13654SOL    HW252591   2.278   0.888  24.168
13655SOL     OW52592   0.823   3.906   7.912
13655SOL    HW152593   0.889   3.914   7.981
13655SOL    HW252594   0.859   3.954   7.838
13656SOL     OW52595   4.065   1.557  27.330
13656SOL    HW152596   4.102   1.640  27.360
13656SOL    HW252597   3.977   1.579  27.301
13657SOL     OW52598   0.909   0.534   4.048
13657SOL    HW152599   0.932   0.472   3.978
13657SOL    HW252600   0.952   0.616   4.023
13658SOL     OW52601   1.151   4.560   9.373
13658SOL    HW152602   1.177   4.468   9.376
13658SOL    HW252603   1.210   4.603   9.435
13659SOL     OW52604   1.784   2.511   0.671
13659SOL    HW152605   1.809   2.504   0.763
13659SOL    HW252606   1.729   2.434   0.655
13660SOL     OW52607   2.188   2.552  21.330
13660SOL    HW152608   2.270   2.583  21.290
13660SOL    HW252609   2.136   2.520  21.256
13661SOL     OW52610   3.966   2.234  20.533
13661SOL    HW152611   4.004   2.277  20.610
13661SOL    HW252612   3.923   2.156  20.568
13662SOL     OW52613   3.315   3.044  23.227
13662SOL    HW152614   3.245   2.997  23.181
13662SOL    HW252615   3.395   3.019  23.182
13663SOL     OW52616   2.360   2.386  22.713
13663SOL    HW152617   2.335   2.306  22.760
13663SOL    HW252618   2.337   2.368  22.622
13664SOL     OW52619   3.690   1.516  23.301
13664SOL    HW152620   3.632   1.581  23.262
13664SOL    HW252621   3.731   1.472  23.227
13665SOL     OW52622   3.737   2.333   1.617
13665SOL    HW152623   3.697   2.274   1.553
13665SOL    HW252624   3.785   2.396   1.564
13666SOL     OW52625   1.265   4.773  20.610
13666SOL    HW152626   1.336   0.035  20.658
13666SOL    HW252627   1.290   4.780  20.518
13667SOL     OW52628   1.264   1.044  25.232
13667SOL    HW152629   1.206   0.969  25.219
13667SOL    HW252630   1.206   1.120  25.228
13668SOL     OW52631   2.055   2.617  23.273
13668SOL    HW152632   1.983   2.656  23.224
13668SOL    HW252633   2.013   2.570  23.345
13669SOL     OW52634   2.632   0.343  11.420
13669SOL    HW152635   2.703   0.356  11.483
13669SOL    HW252636   2.568   0.411  11.441
13670SOL     OW52637   4.624   0.569  20.804
13670SOL    HW152638   4.539   0.598  20.838
13670SOL    HW252639   4.625   0.475  20.821
13671SOL     OW52640   0.650   3.099  27.992
13671SOL    HW152641   0.705   3.039  28.043
13671SOL    HW252642   0.712   3.155  27.946
13672SOL     OW52643   1.312   4.311  23.595
13672SOL    HW152644   1.365   4.322  23.516
13672SOL    HW252645   1.375   4.289  23.664
13673SOL     OW52646   0.767   1.273  24.569
13673SOL    HW152647   0.750   1.341  24.634
13673SOL    HW252648   0.722   1.195  24.603
13674SOL     OW52649   2.813   3.320   0.320
13674SOL    HW152650   2.826   3.225   0.318
13674SOL    HW252651   2.785   3.343   0.231
13675SOL     OW52652   1.500   4.679  27.020
13675SOL    HW152653   1.461   4.628  26.949
13675SOL    HW252654   1.438   4.751  27.035
13676SOL     OW52655   1.629   3.247   3.286
13676SOL    HW152656   1.651   3.312   3.352
13676SOL    HW252657   1.551   3.203   3.320
13677SOL     OW52658   0.121   1.967  25.230
13677SOL    HW152659   0.186   1.974  25.160
13677SOL    HW252660   0.076   1.884  25.214
13678SOL     OW52661   0.001   3.397  21.850
13678SOL    HW152662   0.074   3.386  21.789
13678SOL    HW252663   4.765   3.491  21.851
13679SOL     OW52664   3.369   0.034   2.389
13679SOL    HW152665   3.338   0.114   2.431
13679SOL    HW252666   3.421   0.064   2.315
13680SOL     OW52667   3.532   3.334   4.618
13680SOL    HW152668   3.480   3.404   4.578
13680SOL    HW252669   3.482   3.309   4.696
13681SOL     OW52670   3.991   2.876   8.631
13681SOL    HW152671   4.039   2.794   8.639
13681SOL    HW252672   4.058   2.944   8.633
13682SOL     OW52673   2.357   3.695   5.592
13682SOL    HW152674   2.308   3.716   5.672
13682SOL    HW252675   2.311   3.743   5.523
13683SOL     OW52676   3.903   3.529  23.457
13683SOL    HW152677   3.888   3.447  23.410
13683SOL    HW252678   3.975   3.571  23.410
13684SOL     OW52679   2.156   3.261  21.428
13684SOL    HW152680   2.227   3.319  21.402
13684SOL    HW252681   2.168   3.249  21.522
13685SOL     OW52682   3.240   4.622  16.419
13685SOL    HW152683   3.168   4.601  16.359
13685SOL    HW252684   3.284   4.538  16.434
13686SOL     OW52685   4.459   3.258   3.681
13686SOL    HW152686   4.501   3.291   3.760
13686SOL    HW252687   4.416   3.177   3.708
13687SOL     OW52688   1.103   0.477  28.297
13687SOL    HW152689   1.109   0.448  28.388
13687SOL    HW252690   1.194   0.490  28.270
13688SOL     OW52691   3.478   2.392   3.417
13688SOL    HW152692   3.442   2.464   3.469
13688SOL    HW252693   3.444   2.313   3.459
13689SOL     OW52694   4.242   0.603   2.423
13689SOL    HW152695   4.280   0.659   2.491
13689SOL    HW252696   4.300   0.527   2.419
13690SOL     OW52697   2.745   0.335   6.483
13690SOL    HW152698   2.837   0.314   6.499
13690SOL    HW252699   2.741   0.430   6.492
13691SOL     OW52700   1.460   3.761  11.026
13691SOL    HW152701   1.423   3.760  11.114
13691SOL    HW252702   1.543   3.713  11.034
13692SOL     OW52703   0.158   3.089  26.514
13692SOL    HW152704   0.073   3.056  26.543
13692SOL    HW252705   0.167   3.174  26.556
13693SOL     OW52706   2.461   1.309  22.121
13693SOL    HW152707   2.375   1.317  22.162
13693SOL    HW252708   2.453   1.358  22.039
13694SOL     OW52709   1.564   1.713   3.042
13694SOL    HW152710   1.638   1.668   3.082
13694SOL    HW252711   1.558   1.796   3.089
13695SOL     OW52712   3.385   1.171   5.709
13695SOL    HW152713   3.380   1.097   5.648
13695SOL    HW252714   3.408   1.131   5.793
13696SOL     OW52715   4.385   0.813   3.897
13696SOL    HW152716   4.441   0.865   3.840
13696SOL    HW252717   4.301   0.858   3.896
13697SOL     OW52718   3.816   1.251   3.638
13697SOL    HW152719   3.768   1.333   3.650
13697SOL    HW252720   3.908   1.274   3.650
13698SOL     OW52721   4.672   4.053   8.299
13698SOL    HW152722   4.630   4.139   8.299
13698SOL    HW252723   4.736   4.057   8.228
13699SOL     OW52724   4.336   0.013  26.003
13699SOL    HW152725   4.395   0.075  26.046
13699SOL    HW252726   4.386   4.762  25.928
13700SOL     OW52727   2.081   2.394   7.766
13700SOL    HW152728   2.148   2.461   7.757
13700SOL    HW252729   2.044   2.408   7.853
13701SOL     OW52730   2.286   0.369   0.763
13701SOL    HW152731   2.291   0.298   0.699
13701SOL    HW252732   2.376   0.380   0.793
13702SOL     OW52733   0.240   1.247  18.610
13702SOL    HW152734   0.293   1.247  18.531
13702SOL    HW252735   0.243   1.156  18.641
13703SOL     OW52736   4.271   3.153  24.514
13703SOL    HW152737   4.231   3.068  24.495
13703SOL    HW252738   4.353   3.131  24.559
13704SOL     OW52739   2.526   0.971  23.014
13704SOL    HW152740   2.452   0.918  22.986
13704SOL    HW252741   2.575   0.915  23.074
13705SOL     OW52742   2.496   2.072   8.909
13705SOL    HW152743   2.503   2.090   9.003
13705SOL    HW252744   2.586   2.057   8.881
13706SOL     OW52745   3.855   0.424   6.203
13706SOL    HW152746   3.793   0.488   6.168
13706SOL    HW252747   3.831   0.342   6.160
13707SOL     OW52748   0.578   1.601  22.695
13707SOL    HW152749   0.531   1.558  22.624
13707SOL    HW252750   0.509   1.628  22.756
13708SOL     OW52751   2.292   3.087  22.290
13708SOL    HW152752   2.300   3.176  22.255
13708SOL    HW252753   2.333   3.091  22.376
13709SOL     OW52754   2.045   3.850   2.538
13709SOL    HW152755   2.135   3.846   2.506
13709SOL    HW252756   2.052   3.833   2.632
13710SOL     OW52757   4.640   4.135   6.644
13710SOL    HW152758   4.572   4.068   6.635
13710SOL    HW252759   4.722   4.088   6.629
13711SOL     OW52760   2.538   3.719  27.964
13711SOL    HW152761   2.502   3.804  27.937
13711SOL    HW252762   2.517   3.660  27.891
13712SOL     OW52763   0.174   4.241  25.915
13712SOL    HW152764   0.254   4.292  25.900
13712SOL    HW252765   0.108   4.283  25.859
13713SOL     OW52766   4.509   0.314  20.205
13713SOL    HW152767   4.525   0.405  20.231
13713SOL    HW252768   4.595   0.282  20.177
13714SOL     OW52769   4.333   1.607   7.965
13714SOL    HW152770   4.282   1.610   8.046
13714SOL    HW252771   4.423   1.595   7.994
13715SOL     OW52772   3.683   1.080   6.194
13715SOL    HW152773   3.760   1.027   6.175
13715SOL    HW252774   3.714   1.170   6.191
13716SOL     OW52775   2.493   1.398   8.728
13716SOL    HW152776   2.542   1.380   8.808
13716SOL    HW252777   2.472   1.491   8.734
13717SOL     OW52778   0.958   4.624  25.510
13717SOL    HW152779   0.941   4.717  25.498
13717SOL    HW252780   0.925   4.605  25.598
13718SOL     OW52781   4.509   3.751  23.026
13718SOL    HW152782   4.521   3.671  22.975
13718SOL    HW252783   4.416   3.772  23.015
13719SOL     OW52784   0.254   3.757  21.688
13719SOL    HW152785   0.162   3.775  21.709
13719SOL    HW252786   0.303   3.812  21.749
13720SOL     OW52787   0.154   0.041   7.180
13720SOL    HW152788   0.248   0.036   7.196
13720SOL    HW252789   0.147   0.088   7.097
13721SOL     OW52790   4.685   4.147  22.390
13721SOL    HW152791   4.717   4.231  22.423
13721SOL    HW252792   4.590   4.154  22.393
13722SOL     OW52793   0.179   4.614  21.752
13722SOL    HW152794   0.192   4.527  21.716
13722SOL    HW252795   0.150   4.667  21.678
13723SOL     OW52796   1.925   3.459   2.794
13723SOL    HW152797   1.987   3.471   2.722
13723SOL    HW252798   1.977   3.475   2.873
13724SOL     OW52799   0.712   4.343   4.718
13724SOL    HW152800   0.750   4.288   4.649
13724SOL    HW252801   0.707   4.286   4.794
13725SOL     OW52802   3.395   4.652  25.064
13725SOL    HW152803   3.418   4.713  25.134
13725SOL    HW252804   3.467   4.589  25.063
13726SOL     OW52805   2.588   3.847   2.617
13726SOL    HW152806   2.670   3.829   2.570
13726SOL    HW252807   2.561   3.762   2.651
13727SOL     OW52808   2.924   3.660   8.170
13727SOL    HW152809   2.931   3.619   8.256
13727SOL    HW252810   2.863   3.604   8.122
13728SOL     OW52811   1.842   2.615  19.764
13728SOL    HW152812   1.775   2.597  19.698
13728SOL    HW252813   1.893   2.687  19.727
13729SOL     OW52814   4.694   2.800  18.382
13729SOL    HW152815   4.738   2.846  18.311
13729SOL    HW252816   4.708   2.707  18.363
13730SOL     OW52817   1.407   1.079   0.588
13730SOL    HW152818   1.468   1.006   0.596
13730SOL    HW252819   1.385   1.101   0.678
13731SOL     OW52820   3.074   1.711   0.807
13731SOL    HW152821   2.996   1.656   0.799
13731SOL    HW252822   3.046   1.797   0.774
13732SOL     OW52823   1.713   0.730  28.006
13732SOL    HW152824   1.660   0.731  27.926
13732SOL    HW252825   1.693   0.813  28.049
13733SOL     OW52826   3.721   1.790  21.567
13733SOL    HW152827   3.773   1.776  21.646
13733SOL    HW252828   3.681   1.705  21.548
13734SOL     OW52829   0.898   0.113   3.125
13734SOL    HW152830   0.815   0.125   3.079
13734SOL    HW252831   0.878   0.052   3.196
13735SOL     OW52832   1.416   2.228   0.063
13735SOL    HW152833   1.450   2.149   0.104
13735SOL    HW252834   1.364   2.196  28.512
13736SOL     OW52835   4.601   0.297  20.759
13736SOL    HW152836   4.587   0.272  20.668
13736SOL    HW252837   4.564   0.225  20.810
13737SOL     OW52838   2.950   4.407  25.211
13737SOL    HW152839   2.883   4.475  25.213
13737SOL    HW252840   2.951   4.377  25.120
13738SOL     OW52841   0.109   2.997   8.954
13738SOL    HW152842   0.172   3.069   8.942
13738SOL    HW252843   0.093   2.964   8.865
13739SOL     OW52844   3.282   1.682  24.714
13739SOL    HW152845   3.257   1.748  24.779
13739SOL    HW252846   3.203   1.667  24.662
13740SOL     OW52847   2.886   1.859  20.527
13740SOL    HW152848   2.803   1.852  20.575
13740SOL    HW252849   2.865   1.826  20.439
13741SOL     OW52850   2.390   4.175   5.038
13741SOL    HW152851   2.446   4.201   5.111
13741SOL    HW252852   2.412   4.236   4.968
13742SOL     OW52853   2.933   3.612  10.502
13742SOL    HW152854   2.984   3.533  10.521
13742SOL    HW252855   2.989   3.684  10.531
13743SOL     OW52856   0.858   1.831  19.567
13743SOL    HW152857   0.812   1.747  19.564
13743SOL    HW252858   0.879   1.843  19.660
13744SOL     OW52859   0.782   2.065   7.108
13744SOL    HW152860   0.718   2.011   7.061
13744SOL    HW252861   0.732   2.105   7.179
13745SOL     OW52862   3.333   0.222   3.855
13745SOL    HW152863   3.282   0.166   3.796
13745SOL    HW252864   3.302   0.198   3.943
13746SOL     OW52865   2.245   1.085   6.462
13746SOL    HW152866   2.271   1.118   6.376
13746SOL    HW252867   2.304   1.012   6.479
13747SOL     OW52868   1.087   3.603  26.583
13747SOL    HW152869   1.063   3.529  26.528
13747SOL    HW252870   1.183   3.600  26.587
13748SOL     OW52871   0.307   4.178   1.835
13748SOL    HW152872   0.360   4.110   1.793
13748SOL    HW252873   0.352   4.260   1.813
13749SOL     OW52874   1.554   0.179   7.829
13749SOL    HW152875   1.603   0.242   7.776
13749SOL    HW252876   1.483   0.231   7.868
13750SOL     OW52877   0.967   3.769   9.214
13750SOL    HW152878   0.979   3.847   9.268
13750SOL    HW252879   1.014   3.700   9.261
13751SOL     OW52880   4.387   0.057   3.387
13751SOL    HW152881   4.383   0.057   3.483
13751SOL    HW252882   4.296   0.062   3.359
13752SOL     OW52883   1.366   4.386  18.597
13752SOL    HW152884   1.319   4.329  18.536
13752SOL    HW252885   1.458   4.374  18.576
13753SOL     OW52886   0.398   0.347   5.471
13753SOL    HW152887   0.492   0.332   5.481
13753SOL    HW252888   0.357   0.282   5.528
13754SOL     OW52889   4.422   3.978  21.014
13754SOL    HW152890   4.489   4.039  20.983
13754SOL    HW252891   4.346   3.996  20.958
13755SOL     OW52892   3.642   3.620  27.945
13755SOL    HW152893   3.578   3.651  28.009
13755SOL    HW252894   3.624   3.526  27.937
13756SOL     OW52895   2.510   4.288   3.370
13756SOL    HW152896   2.575   4.332   3.425
13756SOL    HW252897   2.513   4.336   3.287
13757SOL     OW52898   1.634   3.626   4.373
13757SOL    HW152899   1.572   3.560   4.404
13757SOL    HW252900   1.588   3.671   4.302
13758SOL     OW52901   2.558   3.649   4.889
13758SOL    HW152902   2.561   3.668   4.983
13758SOL    HW252903   2.561   3.553   4.884
13759SOL     OW52904   3.790   1.381  20.508
13759SOL    HW152905   3.766   1.308  20.451
13759SOL    HW252906   3.813   1.340  20.591
13760SOL     OW52907   0.710   4.522   0.259
13760SOL    HW152908   0.703   4.458   0.188
13760SOL    HW252909   0.757   4.476   0.328
13761SOL     OW52910   0.644   0.713   0.903
13761SOL    HW152911   0.640   0.665   0.986
13761SOL    HW252912   0.668   0.802   0.928
13762SOL     OW52913   3.556   0.286  20.832
13762SOL    HW152914   3.517   0.323  20.753
13762SOL    HW252915   3.515   0.200  20.840
13763SOL     OW52916   0.556   2.608   5.262
13763SOL    HW152917   0.512   2.605   5.177
13763SOL    HW252918   0.513   2.679   5.309
13764SOL     OW52919   3.610   2.766  22.101
13764SOL    HW152920   3.689   2.807  22.136
13764SOL    HW252921   3.555   2.751  22.178
13765SOL     OW52922   3.311   3.795   2.715
13765SOL    HW152923   3.243   3.799   2.648
13765SOL    HW252924   3.283   3.725   2.774
13766SOL     OW52925   1.052   1.662   0.367
13766SOL    HW152926   1.101   1.720   0.426
13766SOL    HW252927   1.119   1.621   0.313
13767SOL     OW52928   4.031   3.238  19.735
13767SOL    HW152929   3.941   3.207  19.743
13767SOL    HW252930   4.059   3.208  19.648
13768SOL     OW52931   4.219   3.531  25.179
13768SOL    HW152932   4.213   3.622  25.209
13768SOL    HW252933   4.241   3.538  25.086
13769SOL     OW52934   3.626   1.188   5.092
13769SOL    HW152935   3.538   1.223   5.107
13769SOL    HW252936   3.667   1.189   5.179
13770SOL     OW52937   1.827   3.494  20.802
13770SOL    HW152938   1.817   3.566  20.740
13770SOL    HW252939   1.795   3.417  20.755
13771SOL     OW52940   4.697   2.794   5.464
13771SOL    HW152941   4.605   2.819   5.465
13771SOL    HW252942   4.716   2.774   5.372
13772SOL     OW52943   3.230   0.251   9.223
13772SOL    HW152944   3.187   0.289   9.146
13772SOL    HW252945   3.170   0.268   9.295
13773SOL     OW52946   2.088   0.821   8.489
13773SOL    HW152947   2.144   0.873   8.431
13773SOL    HW252948   2.025   0.779   8.430
13774SOL     OW52949   2.669   1.868   7.331
13774SOL    HW152950   2.646   1.959   7.314
13774SOL    HW252951   2.638   1.851   7.420
13775SOL     OW52952   0.080   4.369   9.733
13775SOL    HW152953   4.779   4.362   9.782
13775SOL    HW252954   0.069   4.449   9.681
13776SOL     OW52955   1.557   2.734   2.967
13776SOL    HW152956   1.500   2.757   3.040
13776SOL    HW252957   1.540   2.802   2.902
13777SOL     OW52958   1.451   1.086   8.544
13777SOL    HW152959   1.458   1.012   8.604
13777SOL    HW252960   1.537   1.128   8.549
13778SOL     OW52961   3.025   0.540   1.243
13778SOL    HW152962   3.118   0.562   1.232
13778SOL    HW252963   3.025   0.470   1.308
13779SOL     OW52964   4.647   3.063   4.306
13779SOL    HW152965   4.733   3.050   4.265
13779SOL    HW252966   4.601   2.980   4.292
13780SOL     OW52967   2.361   2.149   2.046
13780SOL    HW152968   2.427   2.216   2.065
13780SOL    HW252969   2.279   2.198   2.041
13781SOL     OW52970   4.440   3.306   4.428
13781SOL    HW152971   4.466   3.226   4.382
13781SOL    HW252972   4.437   3.281   4.520
13782SOL     OW52973   3.560   1.567   1.981
13782SOL    HW152974   3.590   1.648   1.940
13782SOL    HW252975   3.464   1.573   1.979
13783SOL     OW52976   4.091   2.351   5.223
13783SOL    HW152977   4.086   2.267   5.178
13783SOL    HW252978   4.068   2.415   5.156
13784SOL     OW52979   0.014   2.880   9.415
13784SOL    HW152980   0.055   2.966   9.411
13784SOL    HW252981   0.058   2.830   9.347
13785SOL     OW52982   2.728   4.638   9.736
13785SOL    HW152983   2.712   4.546   9.716
13785SOL    HW252984   2.658   4.685   9.690
13786SOL     OW52985   2.378   2.819  25.413
13786SOL    HW152986   2.389   2.738  25.364
13786SOL    HW252987   2.383   2.792  25.505
13787SOL     OW52988   1.169   0.041   0.336
13787SOL    HW152989   1.226   4.745   0.334
13787SOL    HW252990   1.203   0.098   0.267
13788SOL     OW52991   3.216   0.059  24.327
13788SOL    HW152992   3.157   0.129  24.299
13788SOL    HW252993   3.192   4.765  24.272
13789SOL     OW52994   0.930   4.391   2.717
13789SOL    HW152995   0.910   4.367   2.626
13789SOL    HW252996   0.916   4.486   2.720
13790SOL     OW52997   1.261   4.132  11.422
13790SOL    HW152998   1.278   4.149  11.515
13790SOL    HW252999   1.242   4.218  11.385
13791SOL     OW53000   4.486   3.655   6.500
13791SOL    HW153001   4.391   3.661   6.509
13791SOL    HW253002   4.503   3.561   6.491
13792SOL     OW53003   0.090   1.902  20.781
13792SOL    HW153004   0.185   1.899  20.796
13792SOL    HW253005   0.066   1.811  20.763
13793SOL     OW53006   3.916   4.277  24.081
13793SOL    HW153007   3.886   4.347  24.140
13793SOL    HW253008   3.888   4.196  24.124
13794SOL     OW53009   0.639   0.692  26.417
13794SOL    HW153010   0.596   0.651  26.492
13794SOL    HW253011   0.681   0.620  26.370
13795SOL     OW53012   2.574   4.656  24.071
13795SOL    HW153013   2.613   4.732  24.029
13795SOL    HW253014   2.518   4.617  24.004
13796SOL     OW53015   1.377   2.117  24.510
13796SOL    HW153016   1.303   2.062  24.486
13796SOL    HW253017   1.454   2.066  24.486
13797SOL     OW53018   0.613   2.774  24.658
13797SOL    HW153019   0.665   2.826  24.597
13797SOL    HW253020   0.537   2.828  24.677
13798SOL     OW53021   0.647   0.451  19.258
13798SOL    HW153022   0.719   0.514  19.260
13798SOL    HW253023   0.576   0.494  19.307
13799SOL     OW53024   2.684   4.603  10.719
13799SOL    HW153025   2.746   4.593  10.647
13799SOL    HW253026   2.732   4.653  10.785
13800SOL     OW53027   1.368   0.240  24.117
13800SOL    HW153028   1.402   0.156  24.088
13800SOL    HW253029   1.328   0.221  24.202
13801SOL     OW53030   3.012   1.132  17.187
13801SOL    HW153031   2.991   1.041  17.210
13801SOL    HW253032   2.940   1.159  17.131
13802SOL     OW53033   0.960   3.229  25.956
13802SOL    HW153034   0.939   3.269  25.872
13802SOL    HW253035   0.938   3.296  26.021
13803SOL     OW53036   3.727   0.113   2.469
13803SOL    HW153037   3.693   0.201   2.453
13803SOL    HW253038   3.821   0.121   2.455
13804SOL     OW53039   2.799   1.319  27.331
13804SOL    HW153040   2.853   1.330  27.252
13804SOL    HW253041   2.843   1.251  27.381
13805SOL     OW53042   2.594   2.699   5.138
13805SOL    HW153043   2.539   2.653   5.074
13805SOL    HW253044   2.672   2.723   5.089
13806SOL     OW53045   2.953   1.540   1.562
13806SOL    HW153046   3.045   1.564   1.550
13806SOL    HW253047   2.928   1.582   1.644
13807SOL     OW53048   2.183   0.559   6.905
13807SOL    HW153049   2.100   0.541   6.949
13807SOL    HW253050   2.166   0.540   6.813
13808SOL     OW53051   4.067   3.118  20.697
13808SOL    HW153052   4.001   3.137  20.764
13808SOL    HW253053   4.021   3.063  20.634
13809SOL     OW53054   4.076   1.620   8.799
13809SOL    HW153055   4.058   1.583   8.712
13809SOL    HW253056   4.113   1.707   8.781
13810SOL     OW53057   0.004   1.423   8.371
13810SOL    HW153058   0.006   1.509   8.329
13810SOL    HW253059   0.095   1.393   8.370
13811SOL     OW53060   0.514   0.855  27.874
13811SOL    HW153061   0.575   0.808  27.817
13811SOL    HW253062   0.544   0.946  27.872
13812SOL     OW53063   0.367   3.405  22.538
13812SOL    HW153064   0.336   3.496  22.535
13812SOL    HW253065   0.345   3.370  22.452
13813SOL     OW53066   2.758   4.693   0.183
13813SOL    HW153067   2.667   4.689   0.213
13813SOL    HW253068   2.752   4.710   0.089
13814SOL     OW53069   3.422   4.596  27.483
13814SOL    HW153070   3.333   4.619  27.510
13814SOL    HW253071   3.417   4.503  27.461
13815SOL     OW53072   1.503   3.074  22.465
13815SOL    HW153073   1.580   3.118  22.501
13815SOL    HW253074   1.459   3.035  22.541
13816SOL     OW53075   3.041   2.011   6.627
13816SOL    HW153076   3.080   2.091   6.661
13816SOL    HW253077   2.975   2.041   6.565
13817SOL     OW53078   2.570   1.571   2.285
13817SOL    HW153079   2.656   1.580   2.243
13817SOL    HW253080   2.565   1.645   2.345
13818SOL     OW53081   4.382   4.479   2.898
13818SOL    HW153082   4.437   4.490   2.976
13818SOL    HW253083   4.326   4.404   2.919
13819SOL     OW53084   2.987   4.246   9.815
13819SOL    HW153085   3.046   4.210   9.749
13819SOL    HW253086   3.015   4.337   9.826
13820SOL     OW53087   4.009   4.648  27.030
13820SOL    HW153088   3.914   4.633  27.030
13820SOL    HW253089   4.019   4.741  27.048
13821SOL     OW53090   4.316   2.616   2.089
13821SOL    HW153091   4.349   2.685   2.146
13821SOL    HW253092   4.329   2.535   2.139
13822SOL     OW53093   3.151   1.523  23.534
13822SOL    HW153094   3.192   1.589  23.590
13822SOL    HW253095   3.218   1.502  23.469
13823SOL     OW53096   1.688   3.333   5.548
13823SOL    HW153097   1.697   3.238   5.554
13823SOL    HW253098   1.674   3.350   5.455
13824SOL     OW53099   2.553   4.777   9.603
13824SOL    HW153100   2.458   4.771   9.609
13824SOL    HW253101   2.570   0.090   9.596
13825SOL     OW53102   2.387   1.870   2.880
13825SOL    HW153103   2.337   1.789   2.884
13825SOL    HW253104   2.362   1.918   2.959
13826SOL     OW53105   4.531   0.080  24.920
13826SOL    HW153106   4.575   0.009  24.873
13826SOL    HW253107   4.591   0.103  24.991
13827SOL     OW53108   2.157   1.562   4.629
13827SOL    HW153109   2.063   1.546   4.624
13827SOL    HW253110   2.195   1.476   4.645
13828SOL     OW53111   3.222   0.133  25.283
13828SOL    HW153112   3.186   0.222  25.286
13828SOL    HW253113   3.160   0.084  25.229
13829SOL     OW53114   3.638   0.575   6.811
13829SOL    HW153115   3.693   0.652   6.798
13829SOL    HW253116   3.549   0.607   6.798
13830SOL     OW53117   0.949   1.883  21.146
13830SOL    HW153118   0.988   1.920  21.067
13830SOL    HW253119   1.001   1.804  21.164
13831SOL     OW53120   0.843   3.446  24.396
13831SOL    HW153121   0.885   3.373  24.351
13831SOL    HW253122   0.873   3.439  24.487
13832SOL     OW53123   3.889   4.770  21.629
13832SOL    HW153124   3.942   4.702  21.671
13832SOL    HW253125   3.815   4.723  21.591
13833SOL     OW53126   2.800   3.158   9.028
13833SOL    HW153127   2.730   3.185   8.968
13833SOL    HW253128   2.757   3.150   9.113
13834SOL     OW53129   4.574   2.125  25.372
13834SOL    HW153130   4.589   2.038  25.335
13834SOL    HW253131   4.485   2.148  25.344
13835SOL     OW53132   2.984   4.477  10.759
13835SOL    HW153133   2.924   4.492  10.832
13835SOL    HW253134   3.008   4.385  10.766
13836SOL     OW53135   1.981   3.565   9.548
13836SOL    HW153136   2.028   3.630   9.495
13836SOL    HW253137   1.920   3.617   9.600
13837SOL     OW53138   0.952   1.375  22.324
13837SOL    HW153139   0.933   1.469  22.326
13837SOL    HW253140   0.945   1.347  22.415
13838SOL     OW53141   0.909   3.240   0.584
13838SOL    HW153142   0.858   3.319   0.564
13838SOL    HW253143   0.974   3.269   0.648
13839SOL     OW53144   4.170   4.371  22.900
13839SOL    HW153145   4.142   4.420  22.823
13839SOL    HW253146   4.194   4.438  22.964
13840SOL     OW53147   2.989   2.727  10.259
13840SOL    HW153148   3.083   2.738  10.244
13840SOL    HW253149   2.958   2.814  10.284
13841SOL     OW53150   2.165   1.244  22.435
13841SOL    HW153151   2.254   1.210  22.441
13841SOL    HW253152   2.148   1.281  22.521
13842SOL     OW53153   2.952   2.265   2.516
13842SOL    HW153154   2.941   2.173   2.541
13842SOL    HW253155   3.013   2.263   2.443
13843SOL     OW53156   1.011   0.969   1.448
13843SOL    HW153157   0.973   0.898   1.396
13843SOL    HW253158   1.022   0.931   1.535
13844SOL     OW53159   3.792   2.934   1.163
13844SOL    HW153160   3.770   2.949   1.255
13844SOL    HW253161   3.869   2.988   1.147
13845SOL     OW53162   0.838   3.594  10.721
13845SOL    HW153163   0.784   3.604  10.642
13845SOL    HW253164   0.798   3.521  10.768
13846SOL     OW53165   0.773   4.094  27.013
13846SOL    HW153166   0.804   4.007  26.987
13846SOL    HW253167   0.692   4.106  26.964
13847SOL     OW53168   3.211   2.504   9.581
13847SOL    HW153169   3.134   2.451   9.560
13847SOL    HW253170   3.262   2.450   9.641
13848SOL     OW53171   0.137   0.405  28.434
13848SOL    HW153172   0.161   0.335  28.495
13848SOL    HW253173   0.134   0.362  28.349
13849SOL     OW53174   0.290   0.382   4.791
13849SOL    HW153175   0.262   0.390   4.882
13849SOL    HW253176   0.372   0.431   4.786
13850SOL     OW53177   0.026   2.764  22.104
13850SOL    HW153178   0.021   2.678  22.145
13850SOL    HW253179   0.091   2.754  22.035
13851SOL     OW53180   3.511   0.974  23.581
13851SOL    HW153181   3.550   1.057  23.608
13851SOL    HW253182   3.418   0.993  23.572
13852SOL     OW53183   4.381   1.882  21.389
13852SOL    HW153184   4.332   1.938  21.448
13852SOL    HW253185   4.353   1.793  21.412
13853SOL     OW53186   1.095   3.922   0.263
13853SOL    HW153187   1.125   3.832   0.274
13853SOL    HW253188   1.092   3.935   0.168
13854SOL     OW53189   2.201   4.019  21.766
13854SOL    HW153190   2.279   4.065  21.735
13854SOL    HW253191   2.174   4.068  21.843
13855SOL     OW53192   1.339   3.039   1.971
13855SOL    HW153193   1.398   3.015   1.899
13855SOL    HW253194   1.347   2.966   2.033
13856SOL     OW53195   2.540   2.175   2.875
13856SOL    HW153196   2.464   2.230   2.857
13856SOL    HW253197   2.596   2.229   2.931
13857SOL     OW53198   1.265   1.262   7.270
13857SOL    HW153199   1.255   1.326   7.200
13857SOL    HW253200   1.180   1.260   7.314
13858SOL     OW53201   3.163   1.949   3.579
13858SOL    HW153202   3.084   1.962   3.527
13858SOL    HW253203   3.230   2.001   3.535
13859SOL     OW53204   1.667   0.186   1.434
13859SOL    HW153205   1.703   0.206   1.348
13859SOL    HW253206   1.600   0.120   1.418
13860SOL     OW53207   4.412   4.373  19.910
13860SOL    HW153208   4.391   4.431  19.837
13860SOL    HW253209   4.489   4.324  19.881
13861SOL     OW53210   2.434   1.348   1.945
13861SOL    HW153211   2.518   1.305   1.960
13861SOL    HW253212   2.415   1.331   1.853
13862SOL     OW53213   2.663   2.501  20.822
13862SOL    HW153214   2.697   2.568  20.881
13862SOL    HW253215   2.645   2.548  20.741
13863SOL     OW53216   2.572   1.374   1.294
13863SOL    HW153217   2.595   1.341   1.207
13863SOL    HW253218   2.621   1.456   1.302
13864SOL     OW53219   1.662   2.992  23.204
13864SOL    HW153220   1.665   3.051  23.129
13864SOL    HW253221   1.580   2.944  23.193
13865SOL     OW53222   0.523   2.876  22.737
13865SOL    HW153223   0.608   2.873  22.781
13865SOL    HW253224   0.473   2.942  22.785
13866SOL     OW53225   1.281   0.847  27.866
13866SOL    HW153226   1.280   0.940  27.842
13866SOL    HW253227   1.368   0.816  27.839
13867SOL     OW53228   4.542   4.640   0.335
13867SOL    HW153229   4.624   4.592   0.349
13867SOL    HW253230   4.492   4.585   0.274
13868SOL     OW53231   3.214   3.849   5.915
13868SOL    HW153232   3.280   3.801   5.966
13868SOL    HW253233   3.191   3.924   5.970
13869SOL     OW53234   3.875   1.003   1.280
13869SOL    HW153235   3.862   0.966   1.367
13869SOL    HW253236   3.935   1.076   1.294
13870SOL     OW53237   3.396   4.558  23.045
13870SOL    HW153238   3.455   4.503  23.097
13870SOL    HW253239   3.434   4.646  23.051
13871SOL     OW53240   0.732   3.682  21.380
13871SOL    HW153241   0.809   3.739  21.381
13871SOL    HW253242   0.666   3.733  21.333
13872SOL     OW53243   1.903   1.440  24.789
13872SOL    HW153244   1.920   1.387  24.711
13872SOL    HW253245   1.824   1.403  24.827
13873SOL     OW53246   1.148   2.901   9.162
13873SOL    HW153247   1.071   2.957   9.152
13873SOL    HW253248   1.215   2.958   9.199
13874SOL     OW53249   2.888   0.684   5.815
13874SOL    HW153250   2.855   0.603   5.777
13874SOL    HW253251   2.899   0.664   5.908
13875SOL     OW53252   2.707   2.071   2.423
13875SOL    HW153253   2.639   2.048   2.486
13875SOL    HW253254   2.709   2.167   2.423
13876SOL     OW53255   1.821   4.282   0.631
13876SOL    HW153256   1.764   4.205   0.631
13876SOL    HW253257   1.851   4.290   0.722
13877SOL     OW53258   0.337   1.572  24.303
13877SOL    HW153259   0.409   1.634  24.315
13877SOL    HW253260   0.307   1.587  24.213
13878SOL     OW53261   1.988   2.808   1.057
13878SOL    HW153262   1.942   2.866   1.117
13878SOL    HW253263   2.069   2.854   1.036
13879SOL     OW53264   0.786   1.627   5.206
13879SOL    HW153265   0.717   1.687   5.234
13879SOL    HW253266   0.867   1.666   5.238
13880SOL     OW53267   2.971   2.292   3.016
13880SOL    HW153268   2.919   2.213   3.034
13880SOL    HW253269   2.948   2.316   2.926
13881SOL     OW53270   4.217   2.062  22.376
13881SOL    HW153271   4.205   1.968  22.367
13881SOL    HW253272   4.211   2.096  22.287
13882SOL     OW53273   2.543   1.616  18.950
13882SOL    HW153274   2.541   1.711  18.937
13882SOL    HW253275   2.554   1.580  18.862
13883SOL     OW53276   1.592   1.649   1.953
13883SOL    HW153277   1.602   1.554   1.944
13883SOL    HW253278   1.643   1.685   1.880
13884SOL     OW53279   3.901   1.177  26.088
13884SOL    HW153280   3.979   1.204  26.137
13884SOL    HW253281   3.897   1.082  26.101
13885SOL     OW53282   4.706   4.075  25.345
13885SOL    HW153283   4.703   4.028  25.262
13885SOL    HW253284   4.763   4.022  25.401
13886SOL     OW53285   0.212   3.022   3.314
13886SOL    HW153286   0.297   3.066   3.310
13886SOL    HW253287   0.175   3.034   3.227
13887SOL     OW53288   0.897   2.210   3.125
13887SOL    HW153289   0.835   2.214   3.052
13887SOL    HW253290   0.908   2.301   3.152
13888SOL     OW53291   3.900   1.738   7.374
13888SOL    HW153292   3.960   1.743   7.449
13888SOL    HW253293   3.878   1.829   7.355
13889SOL     OW53294   4.131   3.569   3.113
13889SOL    HW153295   4.089   3.575   3.199
13889SOL    HW253296   4.156   3.659   3.092
13890SOL     OW53297   3.844   1.537   8.958
13890SOL    HW153298   3.920   1.565   8.908
13890SOL    HW253299   3.818   1.614   9.008
13891SOL     OW53300   4.174   0.455  26.162
13891SOL    HW153301   4.081   0.432  26.157
13891SOL    HW253302   4.193   0.455  26.256
13892SOL     OW53303   2.663   4.124  20.986
13892SOL    HW153304   2.573   4.157  20.985
13892SOL    HW253305   2.686   4.122  21.079
13893SOL     OW53306   3.816   2.203   9.231
13893SOL    HW153307   3.773   2.144   9.169
13893SOL    HW253308   3.773   2.287   9.218
13894SOL     OW53309   2.344   2.230  22.292
13894SOL    HW153310   2.412   2.175  22.255
13894SOL    HW253311   2.263   2.179  22.281
13895SOL     OW53312   4.286   0.586   1.502
13895SOL    HW153313   4.294   0.491   1.514
13895SOL    HW253314   4.224   0.614   1.569
13896SOL     OW53315   1.292   3.417  25.335
13896SOL    HW153316   1.315   3.418  25.242
13896SOL    HW253317   1.197   3.427  25.336
13897SOL     OW53318   0.324   2.658   8.052
13897SOL    HW153319   0.244   2.649   8.001
13897SOL    HW253320   0.338   2.572   8.091
13898SOL     OW53321   4.181   3.597   8.411
13898SOL    HW153322   4.261   3.565   8.453
13898SOL    HW253323   4.110   3.564   8.466
13899SOL     OW53324   0.683   0.682  22.011
13899SOL    HW153325   0.756   0.644  21.963
13899SOL    HW253326   0.616   0.698  21.945
13900SOL     OW53327   4.397   4.257   6.441
13900SOL    HW153328   4.406   4.214   6.526
13900SOL    HW253329   4.303   4.256   6.424
13901SOL     OW53330   0.043   1.206  22.581
13901SOL    HW153331   0.123   1.245  22.617
13901SOL    HW253332   0.074   1.147  22.512
13902SOL     OW53333   3.400   4.746   6.634
13902SOL    HW153334   3.427   0.055   6.653
13902SOL    HW253335   3.403   4.739   6.539
13903SOL     OW53336   3.292   3.175   6.829
13903SOL    HW153337   3.249   3.259   6.847
13903SOL    HW253338   3.285   3.127   6.912
13904SOL     OW53339   2.004   0.352   1.336
13904SOL    HW153340   2.022   0.334   1.244
13904SOL    HW253341   1.921   0.399   1.336
13905SOL     OW53342   1.685   0.570  27.635
13905SOL    HW153343   1.684   0.651  27.686
13905SOL    HW253344   1.722   0.505  27.695
13906SOL     OW53345   2.724   4.187  21.830
13906SOL    HW153346   2.806   4.209  21.874
13906SOL    HW253347   2.670   4.265  21.841
13907SOL     OW53348   4.586   1.674   6.632
13907SOL    HW153349   4.620   1.622   6.704
13907SOL    HW253350   4.662   1.692   6.577
13908SOL     OW53351   1.729   4.606   8.280
13908SOL    HW153352   1.763   4.677   8.334
13908SOL    HW253353   1.720   4.644   8.193
13909SOL     OW53354   4.021   0.746  20.594
13909SOL    HW153355   3.970   0.682  20.644
13909SOL    HW253356   4.013   0.718  20.503
13910SOL     OW53357   0.160   2.671  27.239
13910SOL    HW153358   0.098   2.639  27.174
13910SOL    HW253359   0.231   2.607  27.237
13911SOL     OW53360   0.259   0.721  25.292
13911SOL    HW153361   0.193   0.655  25.270
13911SOL    HW253362   0.332   0.670  25.327
13912SOL     OW53363   3.516   0.770  23.993
13912SOL    HW153364   3.434   0.754  24.039
13912SOL    HW253365   3.552   0.683  23.976
13913SOL     OW53366   1.330   2.151   1.601
13913SOL    HW153367   1.356   2.059   1.591
13913SOL    HW253368   1.294   2.175   1.516
13914SOL     OW53369   0.985   0.441  20.246
13914SOL    HW153370   0.998   0.383  20.171
13914SOL    HW253371   0.904   0.409  20.286
13915SOL     OW53372   3.200   1.436   6.069
13915SOL    HW153373   3.281   1.389   6.089
13915SOL    HW253374   3.181   1.485   6.149
13916SOL     OW53375   4.536   3.666  21.903
13916SOL    HW153376   4.483   3.592  21.875
13916SOL    HW253377   4.553   3.715  21.822
13917SOL     OW53378   3.406   3.807  22.965
13917SOL    HW153379   3.422   3.713  22.959
13917SOL    HW253380   3.311   3.815  22.959
13918SOL     OW53381   1.004   2.244  23.936
13918SOL    HW153382   1.099   2.251  23.938
13918SOL    HW253383   0.976   2.263  24.026
13919SOL     OW53384   3.196   2.891  28.011
13919SOL    HW153385   3.113   2.921  28.049
13919SOL    HW253386   3.183   2.797  27.998
13920SOL     OW53387   3.229   3.304  24.202
13920SOL    HW153388   3.232   3.347  24.288
13920SOL    HW253389   3.267   3.218  24.217
13921SOL     OW53390   2.544   2.226   6.603
13921SOL    HW153391   2.511   2.304   6.559
13921SOL    HW253392   2.477   2.159   6.587
13922SOL     OW53393   4.425   0.643  23.705
13922SOL    HW153394   4.330   0.635  23.710
13922SOL    HW253395   4.444   0.729  23.742
13923SOL     OW53396   3.551   3.024   5.194
13923SOL    HW153397   3.634   3.004   5.237
13923SOL    HW253398   3.485   2.981   5.249
13924SOL     OW53399   1.577   2.494   3.417
13924SOL    HW153400   1.655   2.530   3.375
13924SOL    HW253401   1.531   2.571   3.451
13925SOL     OW53402   1.666   1.654  10.173
13925SOL    HW153403   1.634   1.595  10.241
13925SOL    HW253404   1.709   1.725  10.221
13926SOL     OW53405   2.276   3.418   1.165
13926SOL    HW153406   2.281   3.435   1.071
13926SOL    HW253407   2.183   3.402   1.181
13927SOL     OW53408   0.097   1.548  25.305
13927SOL    HW153409   0.179   1.592  25.329
13927SOL    HW253410   0.033   1.619  25.298
13928SOL     OW53411   0.605   4.100   3.863
13928SOL    HW153412   0.644   4.041   3.798
13928SOL    HW253413   0.517   4.065   3.878
13929SOL     OW53414   4.695   1.693  22.104
13929SOL    HW153415   4.669   1.679  22.013
13929SOL    HW253416   4.685   1.787  22.117
13930SOL     OW53417   0.391   0.794   8.455
13930SOL    HW153418   0.321   0.857   8.439
13930SOL    HW253419   0.396   0.786   8.550
13931SOL     OW53420   4.184   0.898   9.200
13931SOL    HW153421   4.243   0.973   9.207
13931SOL    HW253422   4.230   0.827   9.244
13932SOL     OW53423   2.363   1.635  22.024
13932SOL    HW153424   2.301   1.577  22.069
13932SOL    HW253425   2.334   1.723  22.047
13933SOL     OW53426   1.002   3.538   4.598
13933SOL    HW153427   1.094   3.531   4.572
13933SOL    HW253428   1.000   3.612   4.658
13934SOL     OW53429   3.259   2.512   2.170
13934SOL    HW153430   3.301   2.466   2.243
13934SOL    HW253431   3.273   2.605   2.189
13935SOL     OW53432   0.455   4.123  11.893
13935SOL    HW153433   0.408   4.042  11.875
13935SOL    HW253434   0.409   4.161  11.968
13936SOL     OW53435   0.636   3.429  28.339
13936SOL    HW153436   0.652   3.336  28.325
13936SOL    HW253437   0.687   3.472  28.271
13937SOL     OW53438   0.295   0.085  22.467
13937SOL    HW153439   0.350   0.126  22.401
13937SOL    HW253440   0.293   0.148  22.539
13938SOL     OW53441   4.396   3.140  26.746
13938SOL    HW153442   4.460   3.156  26.816
13938SOL    HW253443   4.427   3.192  26.672
13939SOL     OW53444   1.131   0.386  22.304
13939SOL    HW153445   1.134   0.315  22.240
13939SOL    HW253446   1.044   0.425  22.292
13940SOL     OW53447   4.558   1.190   7.085
13940SOL    HW153448   4.531   1.206   6.995
13940SOL    HW253449   4.509   1.255   7.136
13941SOL     OW53450   0.187   2.884  20.246
13941SOL    HW153451   0.198   2.832  20.326
13941SOL    HW253452   0.276   2.905  20.218
13942SOL     OW53453   1.351   2.839   1.326
13942SOL    HW153454   1.293   2.913   1.311
13942SOL    HW253455   1.297   2.762   1.310
13943SOL     OW53456   1.556   0.116  22.275
13943SOL    HW153457   1.648   0.139  22.261
13943SOL    HW253458   1.507   0.182  22.225
13944SOL     OW53459   0.453   1.704   2.398
13944SOL    HW153460   0.505   1.709   2.318
13944SOL    HW253461   0.413   1.617   2.396
13945SOL     OW53462   1.489   0.598   3.390
13945SOL    HW153463   1.401   0.629   3.409
13945SOL    HW253464   1.477   0.530   3.323
13946SOL     OW53465   3.263   3.757   1.529
13946SOL    HW153466   3.333   3.702   1.564
13946SOL    HW253467   3.268   3.837   1.581
13947SOL     OW53468   2.920   3.810   8.830
13947SOL    HW153469   2.912   3.899   8.864
13947SOL    HW253470   3.014   3.798   8.815
13948SOL     OW53471   3.046   4.100   1.466
13948SOL    HW153472   3.122   4.105   1.408
13948SOL    HW253473   3.030   4.191   1.493
13949SOL     OW53474   3.480   1.697   5.615
13949SOL    HW153475   3.497   1.603   5.613
13949SOL    HW253476   3.386   1.704   5.598
13950SOL     OW53477   0.052   0.416  25.530
13950SOL    HW153478   0.003   0.359  25.590
13950SOL    HW253479   4.776   0.492  25.517
13951SOL     OW53480   0.005   2.287   3.503
13951SOL    HW153481   4.717   2.328   3.556
13951SOL    HW253482   0.086   2.304   3.551
13952SOL     OW53483   3.211   2.599  24.293
13952SOL    HW153484   3.271   2.531  24.263
13952SOL    HW253485   3.130   2.552  24.314
13953SOL     OW53486   0.386   4.573  26.273
13953SOL    HW153487   0.306   4.599  26.319
13953SOL    HW253488   0.452   4.565  26.342
13954SOL     OW53489   0.497   3.720   6.379
13954SOL    HW153490   0.458   3.684   6.459
13954SOL    HW253491   0.565   3.657   6.355
13955SOL     OW53492   0.515   3.034   3.309
13955SOL    HW153493   0.554   2.969   3.250
13955SOL    HW253494   0.574   3.109   3.304
13956SOL     OW53495   2.327   2.203  21.230
13956SOL    HW153496   2.347   2.246  21.313
13956SOL    HW253497   2.411   2.167  21.201
13957SOL     OW53498   1.818   1.345  21.275
13957SOL    HW153499   1.763   1.328  21.352
13957SOL    HW253500   1.760   1.390  21.213
13958SOL     OW53501   2.530   1.800   7.569
13958SOL    HW153502   2.513   1.843   7.653
13958SOL    HW253503   2.615   1.757   7.580
13959SOL     OW53504   0.556   3.359   3.017
13959SOL    HW153505   0.549   3.420   3.090
13959SOL    HW253506   0.609   3.405   2.952
13960SOL     OW53507   2.808   4.487   7.022
13960SOL    HW153508   2.842   4.512   7.108
13960SOL    HW253509   2.886   4.468   6.970
13961SOL     OW53510   1.718   1.209  22.808
13961SOL    HW153511   1.646   1.186  22.749
13961SOL    HW253512   1.676   1.257  22.879
13962SOL     OW53513   2.551   1.520  21.870
13962SOL    HW153514   2.463   1.549  21.893
13962SOL    HW253515   2.538   1.460  21.797
13963SOL     OW53516   2.491   4.284  25.156
13963SOL    HW153517   2.447   4.281  25.241
13963SOL    HW253518   2.467   4.202  25.114
13964SOL     OW53519   0.921   0.806   1.035
13964SOL    HW153520   0.997   0.864   1.033
13964SOL    HW253521   0.846   0.865   1.034
13965SOL     OW53522   1.339   0.157   5.633
13965SOL    HW153523   1.273   0.091   5.610
13965SOL    HW253524   1.422   0.109   5.632
13966SOL     OW53525   3.063   3.186  12.582
13966SOL    HW153526   3.155   3.161  12.589
13966SOL    HW253527   3.064   3.282  12.587
13967SOL     OW53528   3.744   0.006  20.903
13967SOL    HW153529   3.724   0.013  20.996
13967SOL    HW253530   3.662   4.758  20.863
13968SOL     OW53531   0.754   2.578   9.967
13968SOL    HW153532   0.769   2.518  10.040
13968SOL    HW253533   0.713   2.655  10.007
13969SOL     OW53534   1.898   0.617  21.702
13969SOL    HW153535   1.926   0.685  21.763
13969SOL    HW253536   1.859   0.665  21.629
13970SOL     OW53537   2.050   4.208   9.492
13970SOL    HW153538   2.055   4.137   9.556
13970SOL    HW253539   2.048   4.163   9.407
13971SOL     OW53540   4.228   4.257   2.930
13971SOL    HW153541   4.137   4.273   2.956
13971SOL    HW253542   4.242   4.164   2.947
13972SOL     OW53543   2.517   1.421  24.464
13972SOL    HW153544   2.454   1.439  24.534
13972SOL    HW253545   2.516   1.326  24.454
13973SOL     OW53546   0.404   1.629  25.077
13973SOL    HW153547   0.381   1.702  25.134
13973SOL    HW253548   0.320   1.591  25.050
13974SOL     OW53549   1.728   0.746  21.051
13974SOL    HW153550   1.745   0.839  21.064
13974SOL    HW253551   1.815   0.708  21.037
13975SOL     OW53552   3.800   0.081  17.221
13975SOL    HW153553   3.742   0.151  17.250
13975SOL    HW253554   3.888   0.114  17.239
13976SOL     OW53555   0.645   1.149   8.372
13976SOL    HW153556   0.650   1.054   8.359
13976SOL    HW253557   0.718   1.185   8.322
13977SOL     OW53558   0.334   0.596   8.279
13977SOL    HW153559   0.353   0.666   8.342
13977SOL    HW253560   0.247   0.565   8.303
13978SOL     OW53561   3.867   2.139   2.165
13978SOL    HW153562   3.939   2.162   2.223
13978SOL    HW253563   3.790   2.141   2.221
13979SOL     OW53564   0.213   2.744  25.354
13979SOL    HW153565   0.199   2.681  25.284
13979SOL    HW253566   0.143   2.726  25.417
13980SOL     OW53567   2.471   3.776   9.115
13980SOL    HW153568   2.440   3.727   9.191
13980SOL    HW253569   2.562   3.798   9.136
13981SOL     OW53570   4.395   3.951   0.600
13981SOL    HW153571   4.363   3.973   0.512
13981SOL    HW253572   4.317   3.919   0.646
13982SOL     OW53573   3.801   4.554   8.669
13982SOL    HW153574   3.878   4.597   8.632
13982SOL    HW253575   3.837   4.482   8.722
13983SOL     OW53576   1.477   1.583  20.982
13983SOL    HW153577   1.512   1.512  20.929
13983SOL    HW253578   1.427   1.637  20.920
13984SOL     OW53579   2.885   0.892  23.986
13984SOL    HW153580   2.924   0.963  24.036
13984SOL    HW253581   2.889   0.816  24.045
13985SOL     OW53582   3.430   2.214  24.465
13985SOL    HW153583   3.493   2.235  24.396
13985SOL    HW253584   3.380   2.295  24.477
13986SOL     OW53585   2.539   2.812  24.943
13986SOL    HW153586   2.514   2.722  24.965
13986SOL    HW253587   2.554   2.855  25.027
13987SOL     OW53588   0.119   2.984  27.499
13987SOL    HW153589   0.116   2.889  27.491
13987SOL    HW253590   0.030   3.009  27.523
13988SOL     OW53591   0.946   3.407   7.180
13988SOL    HW153592   0.972   3.349   7.251
13988SOL    HW253593   1.027   3.450   7.153
13989SOL     OW53594   3.272   3.287  20.010
13989SOL    HW153595   3.191   3.240  19.993
13989SOL    HW253596   3.253   3.378  19.986
13990SOL     OW53597   3.600   0.814   1.959
13990SOL    HW153598   3.648   0.737   1.990
13990SOL    HW253599   3.508   0.788   1.963
13991SOL     OW53600   4.466   3.536   3.478
13991SOL    HW153601   4.520   3.484   3.538
13991SOL    HW253602   4.441   3.475   3.409
13992SOL     OW53603   3.465   1.764  18.681
13992SOL    HW153604   3.517   1.840  18.656
13992SOL    HW253605   3.375   1.791  18.664
13993SOL     OW53606   0.807   1.806   3.720
13993SOL    HW153607   0.736   1.761   3.766
13993SOL    HW253608   0.806   1.895   3.757
13994SOL     OW53609   3.014   1.424   5.868
13994SOL    HW153610   3.073   1.427   5.793
13994SOL    HW253611   3.071   1.437   5.944
13995SOL     OW53612   2.923   2.643  25.821
13995SOL    HW153613   3.013   2.624  25.794
13995SOL    HW253614   2.904   2.578  25.888
13996SOL     OW53615   2.468   4.588  27.238
13996SOL    HW153616   2.470   4.660  27.301
13996SOL    HW253617   2.560   4.565  27.225
13997SOL     OW53618   0.591   2.007   9.271
13997SOL    HW153619   0.595   1.915   9.244
13997SOL    HW253620   0.555   2.053   9.195
13998SOL     OW53621   1.560   0.157  25.185
13998SOL    HW153622   1.508   0.229  25.222
13998SOL    HW253623   1.547   0.164  25.090
13999SOL     OW53624   0.348   2.436  19.555
13999SOL    HW153625   0.439   2.461  19.573
13999SOL    HW253626   0.309   2.513  19.514
14000SOL     OW53627   2.134   1.779  18.842
14000SOL    HW153628   2.186   1.734  18.908
14000SOL    HW253629   2.051   1.798  18.886
14001SOL     OW53630   2.107   4.078   4.131
14001SOL    HW153631   2.156   4.090   4.050
14001SOL    HW253632   2.100   3.983   4.141
14002SOL     OW53633   1.574   4.182  17.997
14002SOL    HW153634   1.613   4.248  17.940
14002SOL    HW253635   1.648   4.130  18.028
14003SOL     OW53636   2.072   1.560  24.174
14003SOL    HW153637   2.121   1.555  24.256
14003SOL    HW253638   2.003   1.494  24.183
14004SOL     OW53639   0.469   4.494  24.536
14004SOL    HW153640   0.380   4.491  24.571
14004SOL    HW253641   0.458   4.517  24.444
14005SOL     OW53642   3.906   2.154   7.939
14005SOL    HW153643   3.822   2.142   7.896
14005SOL    HW253644   3.962   2.086   7.902
14006SOL     OW53645   0.084   0.968   5.579
14006SOL    HW153646   0.142   1.026   5.530
14006SOL    HW253647   0.015   1.026   5.612
14007SOL     OW53648   4.283   1.591  21.178
14007SOL    HW153649   4.227   1.668  21.168
14007SOL    HW253650   4.303   1.587  21.272
14008SOL     OW53651   0.365   0.271   6.794
14008SOL    HW153652   0.444   0.282   6.846
14008SOL    HW253653   0.383   0.194   6.739
14009SOL     OW53654   4.545   0.571   1.889
14009SOL    HW153655   4.542   0.487   1.936
14009SOL    HW253656   4.466   0.571   1.835
14010SOL     OW53657   1.807   4.045  26.143
14010SOL    HW153658   1.765   4.115  26.094
14010SOL    HW253659   1.819   4.081  26.231
14011SOL     OW53660   1.513   0.794   8.023
14011SOL    HW153661   1.496   0.879   8.064
14011SOL    HW253662   1.582   0.812   7.959
14012SOL     OW53663   4.355   2.915  19.255
14012SOL    HW153664   4.442   2.943  19.284
14012SOL    HW253665   4.324   2.858  19.325
14013SOL     OW53666   1.098   3.706  10.520
14013SOL    HW153667   1.020   3.712  10.575
14013SOL    HW253668   1.166   3.751  10.570
14014SOL     OW53669   3.306   1.008   1.770
14014SOL    HW153670   3.388   1.029   1.725
14014SOL    HW253671   3.328   1.011   1.863
14015SOL     OW53672   0.004   0.030  20.316
14015SOL    HW153673   4.746   0.084  20.247
14015SOL    HW253674   0.002   4.722  20.281
14016SOL     OW53675   1.171   2.282  23.042
14016SOL    HW153676   1.126   2.203  23.012
14016SOL    HW253677   1.151   2.348  22.975
14017SOL     OW53678   1.135   0.960   1.074
14017SOL    HW153679   1.082   1.039   1.080
14017SOL    HW253680   1.206   0.983   1.014
14018SOL     OW53681   2.172   2.552  26.486
14018SOL    HW153682   2.149   2.625  26.544
14018SOL    HW253683   2.092   2.500  26.481
14019SOL     OW53684   1.969   3.541  21.451
14019SOL    HW153685   1.907   3.473  21.423
14019SOL    HW253686   1.969   3.604  21.379
14020SOL     OW53687   0.641   0.277  25.197
14020SOL    HW153688   0.552   0.287  25.163
14020SOL    HW253689   0.668   0.189  25.170
14021SOL     OW53690   2.301   4.012  18.448
14021SOL    HW153691   2.332   3.943  18.507
14021SOL    HW253692   2.216   3.981  18.417
14022SOL     OW53693   4.345   1.176   2.404
14022SOL    HW153694   4.385   1.242   2.348
14022SOL    HW253695   4.314   1.225   2.480
14023SOL     OW53696   1.384   0.202   6.475
14023SOL    HW153697   1.368   0.215   6.569
14023SOL    HW253698   1.370   0.288   6.436
14024SOL     OW53699   2.461   3.687   5.196
14024SOL    HW153700   2.529   3.727   5.250
14024SOL    HW253701   2.403   3.759   5.173
14025SOL     OW53702   1.695   3.143   0.872
14025SOL    HW153703   1.648   3.106   0.797
14025SOL    HW253704   1.752   3.210   0.834
14026SOL     OW53705   4.264   0.009   3.620
14026SOL    HW153706   4.184   4.744   3.645
14026SOL    HW253707   4.279   0.072   3.690
14027SOL     OW53708   0.324   0.045   1.297
14027SOL    HW153709   0.316   4.774   1.377
14027SOL    HW253710   0.267   0.002   1.234
14028SOL     OW53711   1.600   0.027   6.473
14028SOL    HW153712   1.536   0.098   6.479
14028SOL    HW253713   1.566   4.739   6.530
14029SOL     OW53714   0.798   0.915  23.200
14029SOL    HW153715   0.748   0.909  23.282
14029SOL    HW253716   0.834   1.004  23.200
14030SOL     OW53717   3.406   3.892  19.764
14030SOL    HW153718   3.450   3.916  19.845
14030SOL    HW253719   3.450   3.943  19.696
14031SOL     OW53720   1.957   3.836   6.974
14031SOL    HW153721   1.899   3.799   6.907
14031SOL    HW253722   2.018   3.892   6.925
14032SOL     OW53723   4.368   1.324   5.156
14032SOL    HW153724   4.377   1.285   5.243
14032SOL    HW253725   4.405   1.259   5.097
14033SOL     OW53726   2.350   4.293   4.184
14033SOL    HW153727   2.278   4.349   4.214
14033SOL    HW253728   2.311   4.240   4.115
14034SOL     OW53729   0.604   4.623   8.858
14034SOL    HW153730   0.558   4.616   8.942
14034SOL    HW253731   0.692   4.652   8.881
14035SOL     OW53732   3.000   1.032   9.253
14035SOL    HW153733   2.983   0.985   9.335
14035SOL    HW253734   2.920   1.022   9.202
14036SOL     OW53735   0.627   1.176   0.461
14036SOL    HW153736   0.620   1.092   0.416
14036SOL    HW253737   0.654   1.154   0.550
14037SOL     OW53738   3.904   1.739  20.566
14037SOL    HW153739   3.832   1.694  20.523
14037SOL    HW253740   3.946   1.672  20.620
14038SOL     OW53741   1.603   0.547   2.058
14038SOL    HW153742   1.564   0.499   2.131
14038SOL    HW253743   1.691   0.570   2.089
14039SOL     OW53744   0.359   3.956   5.760
14039SOL    HW153745   0.394   3.872   5.731
14039SOL    HW253746   0.264   3.943   5.763
14040SOL     OW53747   4.606   2.200   4.606
14040SOL    HW153748   4.547   2.142   4.559
14040SOL    HW253749   4.691   2.157   4.601
14041SOL     OW53750   0.249   1.514  26.477
14041SOL    HW153751   0.279   1.549  26.560
14041SOL    HW253752   0.314   1.543  26.413
14042SOL     OW53753   0.125   3.150  10.284
14042SOL    HW153754   0.189   3.080  10.273
14042SOL    HW253755   0.110   3.155  10.378
14043SOL     OW53756   3.664   4.338   0.371
14043SOL    HW153757   3.615   4.309   0.448
14043SOL    HW253758   3.692   4.257   0.328
14044SOL     OW53759   4.270   1.003  21.185
14044SOL    HW153760   4.353   1.050  21.194
14044SOL    HW253761   4.285   0.919  21.227
14045SOL     OW53762   1.519   4.648   0.481
14045SOL    HW153763   1.501   4.685   0.395
14045SOL    HW253764   1.611   4.621   0.476
14046SOL     OW53765   0.760   0.941  26.498
14046SOL    HW153766   0.720   1.002  26.436
14046SOL    HW253767   0.720   0.857  26.478
14047SOL     OW53768   4.341   3.092  27.416
14047SOL    HW153769   4.320   3.128  27.502
14047SOL    HW253770   4.436   3.082  27.416
14048SOL     OW53771   3.349   2.256  21.047
14048SOL    HW153772   3.262   2.287  21.021
14048SOL    HW253773   3.335   2.213  21.131
14049SOL     OW53774   1.620   4.723   8.936
14049SOL    HW153775   1.691   4.672   8.898
14049SOL    HW253776   1.649   4.742   9.025
14050SOL     OW53777   2.931   4.200  11.771
14050SOL    HW153778   2.950   4.269  11.707
14050SOL    HW253779   2.949   4.240  11.856
14051SOL     OW53780   3.418   4.377   4.404
14051SOL    HW153781   3.471   4.328   4.467
14051SOL    HW253782   3.473   4.384   4.326
14052SOL     OW53783   0.478   2.379  19.126
14052SOL    HW153784   0.389   2.410  19.144
14052SOL    HW253785   0.465   2.303  19.070
14053SOL     OW53786   1.644   4.664  23.855
14053SOL    HW153787   1.567   4.645  23.802
14053SOL    HW253788   1.714   4.677  23.791
14054SOL     OW53789   0.363   2.709   0.258
14054SOL    HW153790   0.315   2.652   0.317
14054SOL    HW253791   0.383   2.787   0.311
14055SOL     OW53792   1.295   3.175   9.612
14055SOL    HW153793   1.244   3.241   9.564
14055SOL    HW253794   1.240   3.152   9.687
14056SOL     OW53795   0.836   2.316   6.184
14056SOL    HW153796   0.919   2.281   6.151
14056SOL    HW253797   0.854   2.408   6.202
14057SOL     OW53798   3.282   4.773  27.693
14057SOL    HW153799   3.341   0.053  27.649
14057SOL    HW253800   3.339   4.724  27.753
14058SOL     OW53801   2.725   4.673   8.474
14058SOL    HW153802   2.749   4.729   8.548
14058SOL    HW253803   2.795   4.686   8.410
14059SOL     OW53804   2.390   4.150   1.067
14059SOL    HW153805   2.446   4.112   1.135
14059SOL    HW253806   2.310   4.097   1.070
14060SOL     OW53807   3.308   4.731   5.513
14060SOL    HW153808   3.299   0.035   5.557
14060SOL    HW253809   3.399   4.729   5.483
14061SOL     OW53810   4.516   4.110   3.001
14061SOL    HW153811   4.584   4.120   3.068
14061SOL    HW253812   4.490   4.200   2.980
14062SOL     OW53813   4.685   1.442  19.701
14062SOL    HW153814   4.606   1.442  19.646
14062SOL    HW253815   4.652   1.436  19.791
14063SOL     OW53816   3.583   4.609   5.485
14063SOL    HW153817   3.655   4.572   5.536
14063SOL    HW253818   3.522   4.536   5.473
14064SOL     OW53819   4.259   1.119   8.976
14064SOL    HW153820   4.316   1.195   8.968
14064SOL    HW253821   4.222   1.126   9.064
14065SOL     OW53822   0.415   4.704   3.997
14065SOL    HW153823   0.377   4.740   3.917
14065SOL    HW253824   0.418   4.778   4.057
14066SOL     OW53825   4.464   4.228   9.302
14066SOL    HW153826   4.436   4.235   9.211
14066SOL    HW253827   4.549   4.272   9.305
14067SOL     OW53828   4.324   2.730   3.799
14067SOL    HW153829   4.241   2.746   3.844
14067SOL    HW253830   4.370   2.668   3.855
14068SOL     OW53831   2.472   0.028  26.563
14068SOL    HW153832   2.527   4.734  26.539
14068SOL    HW253833   2.439   0.007  26.650
14069SOL     OW53834   2.628   0.690  22.068
14069SOL    HW153835   2.697   0.697  22.133
14069SOL    HW253836   2.618   0.779  22.033
14070SOL     OW53837   0.711   1.998   5.625
14070SOL    HW153838   0.694   2.028   5.714
14070SOL    HW253839   0.799   2.029   5.605
14071SOL     OW53840   1.881   3.808   4.801
14071SOL    HW153841   1.821   3.872   4.763
14071SOL    HW253842   1.947   3.794   4.733
14072SOL     OW53843   0.959   0.983   2.833
14072SOL    HW153844   0.941   1.075   2.813
14072SOL    HW253845   0.906   0.934   2.771
14073SOL     OW53846   1.896   2.105  10.614
14073SOL    HW153847   1.989   2.113  10.594
14073SOL    HW253848   1.893   2.065  10.701
14074SOL     OW53849   3.063   0.273   6.789
14074SOL    HW153850   3.028   0.362   6.798
14074SOL    HW253851   3.158   0.285   6.781
14075SOL     OW53852   1.013   1.233   7.658
14075SOL    HW153853   0.987   1.145   7.687
14075SOL    HW253854   1.108   1.233   7.665
14076SOL     OW53855   1.160   2.710  19.741
14076SOL    HW153856   1.074   2.670  19.731
14076SOL    HW253857   1.161   2.782  19.678
14077SOL     OW53858   2.370   3.013   5.898
14077SOL    HW153859   2.319   3.086   5.863
14077SOL    HW253860   2.372   3.027   5.993
14078SOL     OW53861   2.678   3.061  20.347
14078SOL    HW153862   2.641   3.114  20.418
14078SOL    HW253863   2.608   3.001  20.322
14079SOL     OW53864   4.424   0.292  27.047
14079SOL    HW153865   4.387   0.369  27.005
14079SOL    HW253866   4.503   0.324  27.091
14080SOL     OW53867   0.766   3.609  22.006
14080SOL    HW153868   0.814   3.663  22.069
14080SOL    HW253869   0.674   3.635  22.017
14081SOL     OW53870   4.432   4.770  25.734
14081SOL    HW153871   4.450   0.083  25.734
14081SOL    HW253872   4.340   4.764  25.709
14082SOL     OW53873   2.574   0.971  22.713
14082SOL    HW153874   2.575   1.060  22.747
14082SOL    HW253875   2.656   0.963  22.664
14083SOL     OW53876   2.282   3.348  24.071
14083SOL    HW153877   2.329   3.401  24.007
14083SOL    HW253878   2.346   3.283  24.100
14084SOL     OW53879   3.169   4.397  23.454
14084SOL    HW153880   3.254   4.431  23.481
14084SOL    HW253881   3.171   4.401  23.358
14085SOL     OW53882   3.577   4.517  21.247
14085SOL    HW153883   3.609   4.564  21.170
14085SOL    HW253884   3.653   4.512  21.305
14086SOL     OW53885   1.081   4.073  28.172
14086SOL    HW153886   0.996   4.086  28.213
14086SOL    HW253887   1.078   3.983  28.139
14087SOL     OW53888   1.066   1.501   1.791
14087SOL    HW153889   1.105   1.572   1.842
14087SOL    HW253890   1.140   1.447   1.764
14088SOL     OW53891   0.125   1.612  23.754
14088SOL    HW153892   0.045   1.593  23.706
14088SOL    HW253893   0.146   1.702  23.730
14089SOL     OW53894   0.347   1.976   4.056
14089SOL    HW153895   0.430   1.947   4.019
14089SOL    HW253896   0.353   1.956   4.149
14090SOL     OW53897   1.819   2.083  17.055
14090SOL    HW153898   1.902   2.111  17.018
14090SOL    HW253899   1.768   2.053  16.980
14091SOL     OW53900   1.801   1.960   1.780
14091SOL    HW153901   1.709   1.941   1.800
14091SOL    HW253902   1.823   1.901   1.708
14092SOL     OW53903   0.680   2.146   7.378
14092SOL    HW153904   0.688   2.097   7.460
14092SOL    HW253905   0.732   2.225   7.393
14093SOL     OW53906   2.243   2.965   1.237
14093SOL    HW153907   2.339   2.961   1.234
14093SOL    HW253908   2.222   2.951   1.329
14094SOL     OW53909   0.342   3.847  20.118
14094SOL    HW153910   0.364   3.827  20.209
14094SOL    HW253911   0.252   3.880  20.122
14095SOL     OW53912   3.573   3.941  20.785
14095SOL    HW153913   3.542   4.011  20.843
14095SOL    HW253914   3.521   3.864  20.811
14096SOL     OW53915   1.157   2.812  20.327
14096SOL    HW153916   1.113   2.779  20.249
14096SOL    HW253917   1.239   2.849  20.295
14097SOL     OW53918   4.523   2.267   5.966
14097SOL    HW153919   4.530   2.361   5.951
14097SOL    HW253920   4.447   2.257   6.023
14098SOL     OW53921   3.870   1.376   2.647
14098SOL    HW153922   3.821   1.457   2.661
14098SOL    HW253923   3.812   1.321   2.594
14099SOL     OW53924   0.533   3.364  20.983
14099SOL    HW153925   0.557   3.456  20.972
14099SOL    HW253926   0.450   3.355  20.936
14100SOL     OW53927   2.323   0.655   5.725
14100SOL    HW153928   2.385   0.597   5.769
14100SOL    HW253929   2.284   0.707   5.796
14101SOL     OW53930   0.022   1.951  27.429
14101SOL    HW153931   0.074   2.030  27.444
14101SOL    HW253932   0.038   1.896  27.506
14102SOL     OW53933   1.153   1.730  22.031
14102SOL    HW153934   1.069   1.684  22.030
14102SOL    HW253935   1.215   1.667  21.994
14103SOL     OW53936   2.512   4.562  25.746
14103SOL    HW153937   2.559   4.624  25.802
14103SOL    HW253938   2.428   4.604  25.729
14104SOL     OW53939   2.941   1.396   4.436
14104SOL    HW153940   2.989   1.391   4.519
14104SOL    HW253941   3.001   1.439   4.375
14105SOL     OW53942   2.624   1.810  20.427
14105SOL    HW153943   2.672   1.746  20.375
14105SOL    HW253944   2.539   1.769  20.443
14106SOL     OW53945   2.941   4.680  23.293
14106SOL    HW153946   2.951   4.604  23.236
14106SOL    HW253947   2.970   4.649  23.379
14107SOL     OW53948   3.109   0.034   3.742
14107SOL    HW153949   3.019   0.012   3.764
14107SOL    HW253950   3.161   4.775   3.812
14108SOL     OW53951   2.280   3.940   3.206
14108SOL    HW153952   2.370   3.940   3.240
14108SOL    HW253953   2.247   3.853   3.227
14109SOL     OW53954   2.668   2.706  21.710
14109SOL    HW153955   2.702   2.776  21.766
14109SOL    HW253956   2.574   2.725  21.704
14110SOL     OW53957   3.149   1.802   1.057
14110SOL    HW153958   3.210   1.838   0.993
14110SOL    HW253959   3.091   1.746   1.006
14111SOL     OW53960   2.234   4.134   2.772
14111SOL    HW153961   2.214   4.206   2.713
14111SOL    HW253962   2.326   4.115   2.755
14112SOL     OW53963   1.569   1.607   2.318
14112SOL    HW153964   1.633   1.549   2.359
14112SOL    HW253965   1.606   1.627   2.232
14113SOL     OW53966   0.180   0.598   4.164
14113SOL    HW153967   0.129   0.651   4.225
14113SOL    HW253968   0.262   0.647   4.152
14114SOL     OW53969   4.681   1.689  10.511
14114SOL    HW153970   4.697   1.638  10.590
14114SOL    HW253971   4.687   1.780  10.539
14115SOL     OW53972   1.046   1.111  26.872
14115SOL    HW153973   1.028   1.173  26.801
14115SOL    HW253974   1.138   1.089  26.861
14116SOL     OW53975   2.361   2.089   3.565
14116SOL    HW153976   2.441   2.138   3.548
14116SOL    HW253977   2.326   2.127   3.645
14117SOL     OW53978   0.470   3.830  23.423
14117SOL    HW153979   0.556   3.841  23.382
14117SOL    HW253980   0.457   3.735  23.428
14118SOL     OW53981   0.136   3.292  26.747
14118SOL    HW153982   0.120   3.373  26.795
14118SOL    HW253983   0.049   3.257  26.730
14119SOL     OW53984   1.512   3.947  23.994
14119SOL    HW153985   1.427   3.990  23.982
14119SOL    HW253986   1.522   3.941  24.089
14120SOL     OW53987   0.460   4.326  26.121
14120SOL    HW153988   0.544   4.335  26.076
14120SOL    HW253989   0.439   4.415  26.150
14121SOL     OW53990   2.024   3.007   7.382
14121SOL    HW153991   2.058   3.020   7.471
14121SOL    HW253992   2.100   2.978   7.331
14122SOL     OW53993   4.777   1.795   8.714
14122SOL    HW153994   0.066   1.856   8.688
14122SOL    HW253995   4.747   1.828   8.799
14123SOL     OW53996   3.793   0.906  27.933
14123SOL    HW153997   3.800   0.917  28.028
14123SOL    HW253998   3.874   0.862  27.908
14124SOL     OW53999   0.755   3.993   8.926
14124SOL    HW154000   0.692   4.064   8.937
14124SOL    HW254001   0.775   3.993   8.832
14125SOL     OW54002   4.271   3.711  22.507
14125SOL    HW154003   4.296   3.633  22.557
14125SOL    HW254004   4.195   3.684  22.456
14126SOL     OW54005   1.147   1.959   8.914
14126SOL    HW154006   1.059   1.950   8.878
14126SOL    HW254007   1.134   2.006   8.997
14127SOL     OW54008   4.030   1.113  23.205
14127SOL    HW154009   4.029   1.060  23.285
14127SOL    HW254010   3.947   1.093  23.162
14128SOL     OW54011   2.321   0.623  12.434
14128SOL    HW154012   2.339   0.709  12.397
14128SOL    HW254013   2.238   0.634  12.480
14129SOL     OW54014   2.846   2.849  23.019
14129SOL    HW154015   2.777   2.866  23.083
14129SOL    HW254016   2.839   2.755  23.002
14130SOL     OW54017   0.140   2.438  23.856
14130SOL    HW154018   0.179   2.467  23.773
14130SOL    HW254019   0.215   2.411  23.909
14131SOL     OW54020   0.216   2.173  10.881
14131SOL    HW154021   0.241   2.165  10.973
14131SOL    HW254022   0.222   2.084  10.846
14132SOL     OW54023   0.930   0.027   4.850
14132SOL    HW154024   0.951   0.112   4.888
14132SOL    HW254025   0.887   4.760   4.921
14133SOL     OW54026   4.657   1.064   4.285
14133SOL    HW154027   4.652   1.135   4.221
14133SOL    HW254028   4.602   0.995   4.249
14134SOL     OW54029   1.233   4.168  27.871
14134SOL    HW154030   1.243   4.078  27.839
14134SOL    HW254031   1.232   4.159  27.966
14135SOL     OW54032   2.125   0.899   4.828
14135SOL    HW154033   2.062   0.941   4.770
14135SOL    HW254034   2.131   0.958   4.903
14136SOL     OW54035   0.540   4.167   6.740
14136SOL    HW154036   0.505   4.174   6.651
14136SOL    HW254037   0.634   4.155   6.727
14137SOL     OW54038   0.103   4.502   6.225
14137SOL    HW154039   0.145   4.428   6.270
14137SOL    HW254040   0.011   4.476   6.217
14138SOL     OW54041   0.596   1.963  21.088
14138SOL    HW154042   0.609   2.023  21.162
14138SOL    HW254043   0.502   1.965  21.071
14139SOL     OW54044   2.030   4.237  10.203
14139SOL    HW154045   2.077   4.190  10.271
14139SOL    HW254046   1.948   4.189  10.193
14140SOL     OW54047   0.181   1.642   1.702
14140SOL    HW154048   0.160   1.583   1.630
14140SOL    HW254049   0.255   1.600   1.747
14141SOL     OW54050   1.751   1.127   0.378
14141SOL    HW154051   1.840   1.139   0.345
14141SOL    HW254052   1.758   1.056   0.441
14142SOL     OW54053   4.046   2.286  26.517
14142SOL    HW154054   4.020   2.199  26.488
14142SOL    HW254055   3.980   2.344  26.479
14143SOL     OW54056   1.734   1.701  22.890
14143SOL    HW154057   1.785   1.626  22.860
14143SOL    HW254058   1.716   1.751  22.810
14144SOL     OW54059   2.074   1.732   7.569
14144SOL    HW154060   2.026   1.795   7.623
14144SOL    HW254061   2.132   1.686   7.630
14145SOL     OW54062   0.543   4.497  27.780
14145SOL    HW154063   0.598   4.556  27.830
14145SOL    HW254064   0.513   4.432  27.844
14146SOL     OW54065   1.072   1.942   2.918
14146SOL    HW154066   0.980   1.943   2.892
14146SOL    HW254067   1.070   1.926   3.012
14147SOL     OW54068   4.400   1.229   0.580
14147SOL    HW154069   4.435   1.150   0.621
14147SOL    HW254070   4.313   1.203   0.549
14148SOL     OW54071   0.848   0.715  20.966
14148SOL    HW154072   0.762   0.675  20.951
14148SOL    HW254073   0.887   0.721  20.879
14149SOL     OW54074   3.909   4.498  22.955
14149SOL    HW154075   3.936   4.414  22.993
14149SOL    HW254076   3.869   4.475  22.871
14150SOL     OW54077   0.542   0.150   9.506
14150SOL    HW154078   0.612   0.090   9.481
14150SOL    HW254079   0.461   0.103   9.484
14151SOL     OW54080   3.973   1.505  25.701
14151SOL    HW154081   3.928   1.552  25.771
14151SOL    HW254082   3.905   1.487  25.636
14152SOL     OW54083   0.003   2.383   6.545
14152SOL    HW154084   4.727   2.457   6.566
14152SOL    HW254085   4.767   2.320   6.615
14153SOL     OW54086   1.135   4.019  21.979
14153SOL    HW154087   1.171   3.932  21.997
14153SOL    HW254088   1.210   4.071  21.950
14154SOL     OW54089   3.472   3.645  28.166
14154SOL    HW154090   3.393   3.593  28.153
14154SOL    HW254091   3.536   3.583  28.201
14155SOL     OW54092   1.914   3.147   3.905
14155SOL    HW154093   1.964   3.224   3.878
14155SOL    HW254094   1.868   3.175   3.984
14156SOL     OW54095   2.374   1.736   1.287
14156SOL    HW154096   2.392   1.830   1.291
14156SOL    HW254097   2.428   1.705   1.214
14157SOL     OW54098   2.842   4.330  22.865
14157SOL    HW154099   2.891   4.394  22.814
14157SOL    HW254100   2.766   4.308  22.811
14158SOL     OW54101   1.722   3.768  26.199
14158SOL    HW154102   1.631   3.739  26.197
14158SOL    HW254103   1.718   3.860  26.172
14159SOL     OW54104   1.600   4.780   5.691
14159SOL    HW154105   1.537   4.708   5.686
14159SOL    HW254106   1.620   0.008   5.784
14160SOL     OW54107   0.243   4.575  26.510
14160SOL    HW154108   0.315   4.513  26.498
14160SOL    HW254109   0.252   4.605  26.600
14161SOL     OW54110   0.713   0.586  27.131
14161SOL    HW154111   0.646   0.637  27.085
14161SOL    HW254112   0.691   0.495  27.112
14162SOL     OW54113   2.804   2.190  26.800
14162SOL    HW154114   2.862   2.122  26.765
14162SOL    HW254115   2.850   2.272  26.783
14163SOL     OW54116   2.638   1.693   7.902
14163SOL    HW154117   2.713   1.726   7.951
14163SOL    HW254118   2.673   1.619   7.852
14164SOL     OW54119   4.554   1.988   3.911
14164SOL    HW154120   4.497   2.064   3.896
14164SOL    HW254121   4.591   1.968   3.825
14165SOL     OW54122   0.006   1.183   5.039
14165SOL    HW154123   4.710   1.195   4.984
14165SOL    HW254124   0.075   1.157   4.978
14166SOL     OW54125   0.454   4.158   3.616
14166SOL    HW154126   0.396   4.228   3.586
14166SOL    HW254127   0.486   4.188   3.701
14167SOL     OW54128   1.042   1.220   8.384
14167SOL    HW154129   1.023   1.280   8.456
14167SOL    HW254130   0.994   1.256   8.309
14168SOL     OW54131   1.617   0.578   8.177
14168SOL    HW154132   1.541   0.555   8.230
14168SOL    HW254133   1.592   0.659   8.133
14169SOL     OW54134   4.363   2.263   7.572
14169SOL    HW154135   4.390   2.202   7.503
14169SOL    HW254136   4.343   2.344   7.526
14170SOL     OW54137   3.091   3.524  28.257
14170SOL    HW154138   3.105   3.580  28.334
14170SOL    HW254139   3.155   3.556  28.193
14171SOL     OW54140   1.688   0.284  10.572
14171SOL    HW154141   1.685   0.275  10.667
14171SOL    HW254142   1.772   0.327  10.555
14172SOL     OW54143   0.161   2.775   2.638
14172SOL    HW154144   0.157   2.869   2.618
14172SOL    HW254145   0.092   2.761   2.702
14173SOL     OW54146   0.271   0.458   3.448
14173SOL    HW154147   0.190   0.432   3.492
14173SOL    HW254148   0.244   0.524   3.385
14174SOL     OW54149   0.544   1.677   5.356
14174SOL    HW154150   0.514   1.686   5.265
14174SOL    HW254151   0.512   1.756   5.399
14175SOL     OW54152   1.763   2.559   8.566
14175SOL    HW154153   1.676   2.524   8.548
14175SOL    HW254154   1.747   2.643   8.608
14176SOL     OW54155   1.330   2.315   2.492
14176SOL    HW154156   1.262   2.379   2.514
14176SOL    HW254157   1.336   2.259   2.569
14177SOL     OW54158   4.084   1.231  21.720
14177SOL    HW154159   4.077   1.222  21.815
14177SOL    HW254160   4.118   1.320  21.707
14178SOL     OW54161   3.981   3.891   8.022
14178SOL    HW154162   4.041   3.883   7.948
14178SOL    HW254163   3.996   3.812   8.074
14179SOL     OW54164   1.744   0.544  20.251
14179SOL    HW154165   1.656   0.506  20.260
14179SOL    HW254166   1.790   0.484  20.193
14180SOL     OW54167   0.608   3.133   9.479
14180SOL    HW154168   0.667   3.111   9.407
14180SOL    HW254169   0.652   3.101   9.558
14181SOL     OW54170   1.351   4.182  20.966
14181SOL    HW154171   1.363   4.229  20.884
14181SOL    HW254172   1.402   4.232  21.030
14182SOL     OW54173   0.883   3.797  20.077
14182SOL    HW154174   0.919   3.824  20.162
14182SOL    HW254175   0.792   3.773  20.096
14183SOL     OW54176   4.758   2.749  18.040
14183SOL    HW154177   0.001   2.809  18.111
14183SOL    HW254178   4.696   2.798  17.986
14184SOL     OW54179   3.117   3.323   7.065
14184SOL    HW154180   3.151   3.234   7.062
14184SOL    HW254181   3.102   3.340   7.158
14185SOL     OW54182   1.179   1.737   3.105
14185SOL    HW154183   1.242   1.724   3.176
14185SOL    HW254184   1.094   1.736   3.148
14186SOL     OW54185   1.791   2.444  23.794
14186SOL    HW154186   1.878   2.466  23.827
14186SOL    HW254187   1.806   2.406  23.708
14187SOL     OW54188   1.790   2.078   8.485
14187SOL    HW154189   1.761   2.157   8.439
14187SOL    HW254190   1.770   2.095   8.577
14188SOL     OW54191   1.757   4.626   5.955
14188SOL    HW154192   1.824   4.691   5.935
14188SOL    HW254193   1.686   4.677   5.995
14189SOL     OW54194   4.373   2.677   5.158
14189SOL    HW154195   4.361   2.590   5.121
14189SOL    HW254196   4.415   2.661   5.243
14190SOL     OW54197   0.314   1.392   1.078
14190SOL    HW154198   0.304   1.465   1.139
14190SOL    HW254199   0.298   1.314   1.131
14191SOL     OW54200   4.520   1.921   9.165
14191SOL    HW154201   4.481   1.969   9.239
14191SOL    HW254202   4.537   1.833   9.199
14192SOL     OW54203   0.284   2.452   4.770
14192SOL    HW154204   0.328   2.369   4.754
14192SOL    HW254205   0.342   2.518   4.732
14193SOL     OW54206   3.522   1.390  20.673
14193SOL    HW154207   3.505   1.308  20.719
14193SOL    HW254208   3.605   1.375  20.627
14194SOL     OW54209   2.363   1.515  25.371
14194SOL    HW154210   2.299   1.465  25.422
14194SOL    HW254211   2.346   1.606  25.394
14195SOL     OW54212   3.807   2.593   6.465
14195SOL    HW154213   3.870   2.605   6.394
14195SOL    HW254214   3.729   2.641   6.436
14196SOL     OW54215   2.411   2.713  28.296
14196SOL    HW154216   2.443   2.694  28.208
14196SOL    HW254217   2.441   2.802  28.314
14197SOL     OW54218   0.565   1.276   4.677
14197SOL    HW154219   0.653   1.255   4.645
14197SOL    HW254220   0.548   1.210   4.744
14198SOL     OW54221   1.522   3.106  20.323
14198SOL    HW154222   1.547   3.144  20.407
14198SOL    HW254223   1.528   3.179  20.261
14199SOL     OW54224   0.316   1.474   5.078
14199SOL    HW154225   0.236   1.524   5.062
14199SOL    HW254226   0.373   1.497   5.005
14200SOL     OW54227   0.366   4.307  23.373
14200SOL    HW154228   0.298   4.322  23.438
14200SOL    HW254229   0.319   4.278  23.295
14201SOL     OW54230   4.079   0.576  20.957
14201SOL    HW154231   4.065   0.541  21.045
14201SOL    HW254232   4.119   0.504  20.908
14202SOL     OW54233   3.483   3.293  27.111
14202SOL    HW154234   3.556   3.233  27.096
14202SOL    HW254235   3.429   3.249  27.177
14203SOL     OW54236   2.158   0.612  22.066
14203SOL    HW154237   2.225   0.651  22.010
14203SOL    HW254238   2.124   0.685  22.117
14204SOL     OW54239   0.371   1.327  11.463
14204SOL    HW154240   0.291   1.370  11.432
14204SOL    HW254241   0.371   1.343  11.557
14205SOL     OW54242   3.180   1.646  23.987
14205SOL    HW154243   3.203   1.725  23.938
14205SOL    HW254244   3.090   1.626  23.961
14206SOL     OW54245   3.211   4.051   5.723
14206SOL    HW154246   3.211   4.008   5.637
14206SOL    HW254247   3.186   3.982   5.784
14207SOL     OW54248   4.444   1.366  22.352
14207SOL    HW154249   4.481   1.335  22.434
14207SOL    HW254250   4.516   1.361  22.290
14208SOL     OW54251   3.851   0.353  24.727
14208SOL    HW154252   3.852   0.433  24.780
14208SOL    HW254253   3.921   0.299  24.764
14209SOL     OW54254   3.280   4.617   7.967
14209SOL    HW154255   3.339   4.578   8.031
14209SOL    HW254256   3.194   4.582   7.989
14210SOL     OW54257   2.843   3.448   7.353
14210SOL    HW154258   2.874   3.539   7.349
14210SOL    HW254259   2.837   3.428   7.446
14211SOL     OW54260   0.259   3.404  20.561
14211SOL    HW154261   0.271   3.444  20.475
14211SOL    HW254262   0.293   3.315  20.550
14212SOL     OW54263   4.058   1.372   0.823
14212SOL    HW154264   4.147   1.359   0.855
14212SOL    HW254265   4.003   1.365   0.901
14213SOL     OW54266   2.675   4.512   2.427
14213SOL    HW154267   2.667   4.421   2.454
14213SOL    HW254268   2.651   4.511   2.334
14214SOL     OW54269   0.059   0.403   4.029
14214SOL    HW154270   0.104   0.471   4.079
14214SOL    HW254271   4.775   0.368   4.089
14215SOL     OW54272   2.173   1.186   7.206
14215SOL    HW154273   2.129   1.102   7.191
14215SOL    HW254274   2.266   1.163   7.215
14216SOL     OW54275   3.069   2.394  27.180
14216SOL    HW154276   3.154   2.368  27.215
14216SOL    HW254277   3.087   2.417  27.089
14217SOL     OW54278   3.900   3.058  23.161
14217SOL    HW154279   3.929   3.014  23.081
14217SOL    HW254280   3.977   3.059  23.217
14218SOL     OW54281   4.565   0.146  26.317
14218SOL    HW154282   4.535   0.182  26.234
14218SOL    HW254283   4.624   0.075  26.293
14219SOL     OW54284   4.405   4.011  23.348
14219SOL    HW154285   4.390   3.990  23.256
14219SOL    HW254286   4.326   3.981  23.392
14220SOL     OW54287   1.651   3.458   0.991
14220SOL    HW154288   1.648   3.440   0.897
14220SOL    HW254289   1.633   3.552   0.998
14221SOL     OW54290   3.100   2.084   0.215
14221SOL    HW154291   3.036   2.126   0.157
14221SOL    HW254292   3.083   1.990   0.206
14222SOL     OW54293   4.176   4.200   1.296
14222SOL    HW154294   4.224   4.239   1.223
14222SOL    HW254295   4.109   4.145   1.254
14223SOL     OW54296   0.986   1.413   9.119
14223SOL    HW154297   0.941   1.459   9.190
14223SOL    HW254298   0.917   1.394   9.055
14224SOL     OW54299   3.714   4.561   3.477
14224SOL    HW154300   3.654   4.568   3.403
14224SOL    HW254301   3.735   4.468   3.482
14225SOL     OW54302   1.644   1.247  20.943
14225SOL    HW154303   1.580   1.257  21.014
14225SOL    HW254304   1.601   1.283  20.866
14226SOL     OW54305   0.316   3.321  24.516
14226SOL    HW154306   0.390   3.376  24.491
14226SOL    HW254307   0.241   3.357  24.468
14227SOL     OW54308   4.162   1.366  20.387
14227SOL    HW154309   4.135   1.295  20.329
14227SOL    HW254310   4.097   1.435  20.372
14228SOL     OW54311   1.393   4.389  25.655
14228SOL    HW154312   1.348   4.427  25.580
14228SOL    HW254313   1.474   4.440  25.663
14229SOL     OW54314   4.351   1.974   6.994
14229SOL    HW154315   4.291   2.006   6.927
14229SOL    HW254316   4.430   1.950   6.946
14230SOL     OW54317   4.381   0.818  21.863
14230SOL    HW154318   4.388   0.813  21.768
14230SOL    HW254319   4.289   0.798  21.881
14231SOL     OW54320   0.914   2.423   0.163
14231SOL    HW154321   1.006   2.437   0.141
14231SOL    HW254322   0.890   2.343   0.116
14232SOL     OW54323   0.616   4.233   4.976
14232SOL    HW154324   0.703   4.266   5.000
14232SOL    HW254325   0.563   4.312   4.964
14233SOL     OW54326   0.113   2.053  10.322
14233SOL    HW154327   0.065   2.135  10.312
14233SOL    HW254328   0.123   2.020  10.233
14234SOL     OW54329   3.739   3.341  18.482
14234SOL    HW154330   3.755   3.370  18.572
14234SOL    HW254331   3.765   3.249  18.482
14235SOL     OW54332   2.586   1.222  20.808
14235SOL    HW154333   2.638   1.302  20.802
14235SOL    HW254334   2.547   1.212  20.721
14236SOL     OW54335   2.922   1.316   1.376
14236SOL    HW154336   2.916   1.409   1.398
14236SOL    HW254337   3.004   1.287   1.417
14237SOL     OW54338   2.978   2.745   5.702
14237SOL    HW154339   2.975   2.753   5.797
14237SOL    HW254340   2.992   2.652   5.686
14238SOL     OW54341   0.018   2.256   8.612
14238SOL    HW154342   4.724   2.316   8.604
14238SOL    HW254343   0.091   2.312   8.640
14239SOL     OW54344   3.362   1.512  23.324
14239SOL    HW154345   3.360   1.608  23.324
14239SOL    HW254346   3.346   1.487  23.233
14240SOL     OW54347   1.161   1.990  27.325
14240SOL    HW154348   1.179   2.054  27.394
14240SOL    HW254349   1.066   1.984  27.323
14241SOL     OW54350   2.596   4.775   2.782
14241SOL    HW154351   2.579   0.069   2.839
14241SOL    HW254352   2.522   4.716   2.796
14242SOL     OW54353   0.893   3.395  26.177
14242SOL    HW154354   0.804   3.419  26.204
14242SOL    HW254355   0.918   3.324  26.236
14243SOL     OW54356   4.604   3.586  25.772
14243SOL    HW154357   4.640   3.651  25.712
14243SOL    HW254358   4.651   3.600  25.854
14244SOL     OW54359   0.128   3.325  19.174
14244SOL    HW154360   0.171   3.262  19.116
14244SOL    HW254361   0.149   3.295  19.262
14245SOL     OW54362   2.291   0.810  11.065
14245SOL    HW154363   2.309   0.793  11.157
14245SOL    HW254364   2.196   0.813  11.059
14246SOL     OW54365   2.162   3.129  25.753
14246SOL    HW154366   2.256   3.113  25.756
14246SOL    HW254367   2.139   3.157  25.842
14247SOL     OW54368   4.534   3.356  20.171
14247SOL    HW154369   4.450   3.397  20.149
14247SOL    HW254370   4.511   3.268  20.200
14248SOL     OW54371   4.710   3.411  21.372
14248SOL    HW154372   4.751   3.325  21.367
14248SOL    HW254373   4.623   3.399  21.333
14249SOL     OW54374   0.287   0.957  27.342
14249SOL    HW154375   0.287   0.868  27.306
14249SOL    HW254376   0.364   0.959  27.399
14250SOL     OW54377   3.640   0.380   8.574
14250SOL    HW154378   3.632   0.375   8.479
14250SOL    HW254379   3.684   0.298   8.599
14251SOL     OW54380   0.358   1.921   7.603
14251SOL    HW154381   0.340   1.931   7.696
14251SOL    HW254382   0.417   1.846   7.598
14252SOL     OW54383   4.038   4.682  23.599
14252SOL    HW154384   4.043   4.757  23.539
14252SOL    HW254385   3.958   4.636  23.574
14253SOL     OW54386   0.304   2.501   1.899
14253SOL    HW154387   0.217   2.465   1.882
14253SOL    HW254388   0.307   2.511   1.994
14254SOL     OW54389   4.416   1.826   9.756
14254SOL    HW154390   4.430   1.814   9.662
14254SOL    HW254391   4.327   1.861   9.762
14255SOL     OW54392   1.216   3.431   0.412
14255SOL    HW154393   1.290   3.456   0.357
14255SOL    HW254394   1.170   3.364   0.362
14256SOL     OW54395   3.445   0.613   9.913
14256SOL    HW154396   3.428   0.677   9.982
14256SOL    HW254397   3.460   0.531   9.960
14257SOL     OW54398   2.950   3.924   3.758
14257SOL    HW154399   2.981   3.909   3.847
14257SOL    HW254400   2.979   4.013   3.738
14258SOL     OW54401   2.835   3.677  27.931
14258SOL    HW154402   2.743   3.654  27.941
14258SOL    HW254403   2.877   3.643  28.010
14259SOL     OW54404   2.338   0.942   6.095
14259SOL    HW154405   2.407   0.887   6.131
14259SOL    HW254406   2.351   1.027   6.137
14260SOL     OW54407   0.453   3.869   7.516
14260SOL    HW154408   0.429   3.960   7.497
14260SOL    HW254409   0.548   3.871   7.531
14261SOL     OW54410   2.621   0.475   7.010
14261SOL    HW154411   2.597   0.444   6.923
14261SOL    HW254412   2.694   0.535   6.995
14262SOL     OW54413   2.889   1.231  28.126
14262SOL    HW154414   2.847   1.162  28.075
14262SOL    HW254415   2.895   1.196  28.215
14263SOL     OW54416   3.372   4.276   6.948
14263SOL    HW154417   3.440   4.211   6.964
14263SOL    HW254418   3.290   4.229   6.964
14264SOL     OW54419   2.697   1.274  18.080
14264SOL    HW154420   2.686   1.263  18.174
14264SOL    HW254421   2.613   1.309  18.050
14265SOL     OW54422   1.967   3.304   6.528
14265SOL    HW154423   1.892   3.283   6.472
14265SOL    HW254424   1.980   3.398   6.515
14266SOL     OW54425   1.796   0.522  28.178
14266SOL    HW154426   1.754   0.445  28.140
14266SOL    HW254427   1.777   0.593  28.117
14267SOL     OW54428   4.508   3.078  24.621
14267SOL    HW154429   4.565   3.017  24.668
14267SOL    HW254430   4.527   3.062  24.528
14268SOL     OW54431   3.288   1.582   8.953
14268SOL    HW154432   3.368   1.553   8.997
14268SOL    HW254433   3.318   1.609   8.866
14269SOL     OW54434   1.416   1.096  25.528
14269SOL    HW154435   1.353   1.119  25.596
14269SOL    HW254436   1.414   1.000  25.525
14270SOL     OW54437   0.319   1.997   7.874
14270SOL    HW154438   0.273   1.987   7.957
14270SOL    HW254439   0.406   2.029   7.898
14271SOL     OW54440   2.901   1.160  28.413
14271SOL    HW154441   2.915   1.066  28.427
14271SOL    HW254442   2.987   1.199  28.425
14272SOL     OW54443   2.448   3.569  21.653
14272SOL    HW154444   2.491   3.499  21.604
14272SOL    HW254445   2.518   3.632  21.671
14273SOL     OW54446   2.761   2.450  21.653
14273SOL    HW154447   2.849   2.479  21.676
14273SOL    HW254448   2.707   2.528  21.664
14274SOL     OW54449   1.679   1.509  22.355
14274SOL    HW154450   1.626   1.521  22.434
14274SOL    HW254451   1.641   1.569  22.291
14275SOL     OW54452   0.368   4.145   8.424
14275SOL    HW154453   0.279   4.114   8.407
14275SOL    HW254454   0.357   4.229   8.468
14276SOL     OW54455   3.134   2.668   7.908
14276SOL    HW154456   3.095   2.741   7.860
14276SOL    HW254457   3.116   2.592   7.853
14277SOL     OW54458   2.765   2.632  27.928
14277SOL    HW154459   2.812   2.552  27.952
14277SOL    HW254460   2.788   2.647  27.836
14278SOL     OW54461   0.853   0.801   3.880
14278SOL    HW154462   0.807   0.885   3.874
14278SOL    HW254463   0.827   0.754   3.801
14279SOL     OW54464   0.301   1.886   9.267
14279SOL    HW154465   0.237   1.847   9.208
14279SOL    HW254466   0.358   1.938   9.210
14280SOL     OW54467   4.298   0.235  24.944
14280SOL    HW154468   4.274   0.150  24.908
14280SOL    HW254469   4.326   0.216  25.034
14281SOL     OW54470   0.062   3.873   5.092
14281SOL    HW154471   0.036   3.962   5.068
14281SOL    HW254472   0.005   3.816   5.039
14282SOL     OW54473   1.261   2.076   3.068
14282SOL    HW154474   1.202   2.045   2.999
14282SOL    HW254475   1.208   2.074   3.148
14283SOL     OW54476   3.117   4.512   7.011
14283SOL    HW154477   3.182   4.582   7.002
14283SOL    HW254478   3.092   4.514   7.103
14284SOL     OW54479   4.036   3.953  26.272
14284SOL    HW154480   3.945   3.931  26.292
14284SOL    HW254481   4.032   4.042  26.238
14285SOL     OW54482   2.320   2.452   7.961
14285SOL    HW154483   2.282   2.366   7.979
14285SOL    HW254484   2.245   2.509   7.947
14286SOL     OW54485   4.527   0.396  23.328
14286SOL    HW154486   4.512   0.487  23.355
14286SOL    HW254487   4.523   0.346  23.409
14287SOL     OW54488   1.186   1.694  18.983
14287SOL    HW154489   1.130   1.644  18.923
14287SOL    HW254490   1.272   1.693  18.942
14288SOL     OW54491   2.735   3.945  26.332
14288SOL    HW154492   2.829   3.930  26.336
14288SOL    HW254493   2.724   4.006  26.259
14289SOL     OW54494   1.532   3.396   2.308
14289SOL    HW154495   1.607   3.452   2.289
14289SOL    HW254496   1.551   3.360   2.395
14290SOL     OW54497   1.434   3.619   0.065
14290SOL    HW154498   1.365   3.661   0.014
14290SOL    HW254499   1.504   3.602   0.002
14291SOL     OW54500   0.502   3.249   9.048
14291SOL    HW154501   0.502   3.184   9.118
14291SOL    HW254502   0.455   3.324   9.084
14292SOL     OW54503   0.992   2.509  25.109
14292SOL    HW154504   1.058   2.507  25.178
14292SOL    HW254505   0.980   2.417  25.085
14293SOL     OW54506   3.242   3.447   1.998
14293SOL    HW154507   3.188   3.388   2.051
14293SOL    HW254508   3.302   3.389   1.951
14294SOL     OW54509   1.580   0.186  20.081
14294SOL    HW154510   1.565   0.268  20.129
14294SOL    HW254511   1.541   0.201  19.995
14295SOL     OW54512   0.806   3.759   1.282
14295SOL    HW154513   0.782   3.852   1.280
14295SOL    HW254514   0.723   3.713   1.297
14296SOL     OW54515   0.591   2.492  19.631
14296SOL    HW154516   0.650   2.417  19.631
14296SOL    HW254517   0.637   2.559  19.681
14297SOL     OW54518   0.071   3.189  19.908
14297SOL    HW154519   0.044   3.112  19.858
14297SOL    HW254520   0.033   3.176  19.995
14298SOL     OW54521   0.801   0.296   2.401
14298SOL    HW154522   0.893   0.311   2.378
14298SOL    HW254523   0.752   0.326   2.324
14299SOL     OW54524   2.958   2.593  18.232
14299SOL    HW154525   2.889   2.614  18.295
14299SOL    HW254526   2.994   2.678  18.207
14300SOL     OW54527   2.589   1.120   2.761
14300SOL    HW154528   2.576   1.104   2.668
14300SOL    HW254529   2.668   1.174   2.766
14301SOL     OW54530   1.405   1.281  25.017
14301SOL    HW154531   1.342   1.352  25.008
14301SOL    HW254532   1.355   1.202  24.997
14302SOL     OW54533   4.389   3.004   3.764
14302SOL    HW154534   4.456   3.038   3.824
14302SOL    HW254535   4.397   2.909   3.771
14303SOL     OW54536   0.059   4.297   1.635
14303SOL    HW154537   0.084   4.220   1.584
14303SOL    HW254538   0.069   4.270   1.726
14304SOL     OW54539   1.637   2.758  24.565
14304SOL    HW154540   1.678   2.777  24.649
14304SOL    HW254541   1.582   2.681  24.581
14305SOL     OW54542   1.681   0.236  11.491
14305SOL    HW154543   1.632   0.157  11.468
14305SOL    HW254544   1.672   0.242  11.586
14306SOL     OW54545   0.175   3.098   6.264
14306SOL    HW154546   0.261   3.139   6.276
14306SOL    HW254547   0.140   3.138   6.184
14307SOL     OW54548   4.634   3.442  19.138
14307SOL    HW154549   4.646   3.535  19.117
14307SOL    HW254550   4.723   3.407  19.145
14308SOL     OW54551   4.420   3.514  28.177
14308SOL    HW154552   4.429   3.522  28.082
14308SOL    HW254553   4.429   3.604  28.209
14309SOL     OW54554   0.821   0.248  24.119
14309SOL    HW154555   0.742   0.279  24.074
14309SOL    HW254556   0.861   0.187  24.058
14310SOL     OW54557   0.971   0.895  21.412
14310SOL    HW154558   0.970   0.981  21.371
14310SOL    HW254559   0.907   0.844  21.362
14311SOL     OW54560   2.502   3.704   6.492
14311SOL    HW154561   2.492   3.795   6.465
14311SOL    HW254562   2.571   3.706   6.559
14312SOL     OW54563   3.501   1.821  28.220
14312SOL    HW154564   3.573   1.760  28.235
14312SOL    HW254565   3.504   1.839  28.126
14313SOL     OW54566   0.972   4.368  25.793
14313SOL    HW154567   1.038   4.334  25.733
14313SOL    HW254568   1.016   4.371  25.878
14314SOL     OW54569   2.569   3.316   3.746
14314SOL    HW154570   2.632   3.258   3.704
14314SOL    HW254571   2.503   3.258   3.783
14315SOL     OW54572   3.286   1.499   0.050
14315SOL    HW154573   3.325   1.420   0.011
14315SOL    HW254574   3.272   1.558  28.498
14316SOL     OW54575   0.254   4.353   7.627
14316SOL    HW154576   0.222   4.412   7.559
14316SOL    HW254577   0.221   4.390   7.709
14317SOL     OW54578   3.179   4.311  25.645
14317SOL    HW154579   3.220   4.321  25.731
14317SOL    HW254580   3.220   4.233  25.607
14318SOL     OW54581   1.227   2.633   6.425
14318SOL    HW154582   1.182   2.699   6.477
14318SOL    HW254583   1.288   2.683   6.371
14319SOL     OW54584   2.295   1.694  19.045
14319SOL    HW154585   2.281   1.675  19.138
14319SOL    HW254586   2.389   1.681  19.031
14320SOL     OW54587   3.106   0.485  20.875
14320SOL    HW154588   3.120   0.401  20.919
14320SOL    HW254589   3.192   0.526  20.875
14321SOL     OW54590   3.981   2.304  23.634
14321SOL    HW154591   4.051   2.249  23.669
14321SOL    HW254592   3.921   2.243  23.592
14322SOL     OW54593   0.326   3.369  20.828
14322SOL    HW154594   0.272   3.363  20.749
14322SOL    HW254595   0.267   3.346  20.899
14323SOL     OW54596   3.887   1.400   1.020
14323SOL    HW154597   3.796   1.420   0.997
14323SOL    HW254598   3.913   1.470   1.080
14324SOL     OW54599   3.682   1.193   0.496
14324SOL    HW154600   3.702   1.224   0.584
14324SOL    HW254601   3.766   1.165   0.461
14325SOL     OW54602   2.927   0.339   3.928
14325SOL    HW154603   2.944   0.262   3.982
14325SOL    HW254604   2.867   0.392   3.981
14326SOL     OW54605   2.772   2.639  26.974
14326SOL    HW154606   2.805   2.559  26.934
14326SOL    HW254607   2.844   2.701  26.966
14327SOL     OW54608   0.709   3.465   7.052
14327SOL    HW154609   0.627   3.468   7.102
14327SOL    HW254610   0.769   3.416   7.108
14328SOL     OW54611   2.967   1.207   3.928
14328SOL    HW154612   2.955   1.183   3.836
14328SOL    HW254613   2.881   1.239   3.956
14329SOL     OW54614   4.534   3.784   3.665
14329SOL    HW154615   4.529   3.700   3.620
14329SOL    HW254616   4.628   3.802   3.671
14330SOL     OW54617   3.626   1.151  26.356
14330SOL    HW154618   3.577   1.104  26.289
14330SOL    HW254619   3.700   1.094  26.376
14331SOL     OW54620   4.763   0.393  26.198
14331SOL    HW154621   4.721   0.473  26.230
14331SOL    HW254622   4.699   0.324  26.215
14332SOL     OW54623   2.468   2.711   0.396
14332SOL    HW154624   2.507   2.778   0.453
14332SOL    HW254625   2.486   2.742   0.307
14333SOL     OW54626   4.725   3.265   4.532
14333SOL    HW154627   4.684   3.192   4.486
14333SOL    HW254628   4.735   3.333   4.465
14334SOL     OW54629   2.861   4.664  26.907
14334SOL    HW154630   2.784   4.721  26.901
14334SOL    HW254631   2.867   4.624  26.820
14335SOL     OW54632   2.376   0.663  24.736
14335SOL    HW154633   2.362   0.752  24.769
14335SOL    HW254634   2.291   0.636  24.701
14336SOL     OW54635   4.342   1.489  27.109
14336SOL    HW154636   4.254   1.495  27.146
14336SOL    HW254637   4.383   1.417  27.158
14337SOL     OW54638   2.547   3.167  27.916
14337SOL    HW154639   2.472   3.108  27.907
14337SOL    HW254640   2.619   3.120  27.873
14338SOL     OW54641   3.091   3.361   4.710
14338SOL    HW154642   3.104   3.454   4.731
14338SOL    HW254643   3.170   3.318   4.743
14339SOL     OW54644   1.311   1.287   8.434
14339SOL    HW154645   1.218   1.272   8.418
14339SOL    HW254646   1.339   1.210   8.483
14340SOL     OW54647   4.664   4.316   6.414
14340SOL    HW154648   4.696   4.270   6.491
14340SOL    HW254649   4.570   4.300   6.414
14341SOL     OW54650   1.728   4.256  24.881
14341SOL    HW154651   1.693   4.345  24.883
14341SOL    HW254652   1.674   4.207  24.943
14342SOL     OW54653   3.328   2.579  26.544
14342SOL    HW154654   3.327   2.501  26.488
14342SOL    HW254655   3.332   2.652  26.483
14343SOL     OW54656   4.582   4.014   7.054
14343SOL    HW154657   4.529   4.090   7.076
14343SOL    HW254658   4.526   3.961   6.997
14344SOL     OW54659   4.664   0.061   7.275
14344SOL    HW154660   4.680   0.155   7.281
14344SOL    HW254661   4.744   0.026   7.236
14345SOL     OW54662   1.303   2.588   3.484
14345SOL    HW154663   1.283   2.497   3.508
14345SOL    HW254664   1.225   2.617   3.436
14346SOL     OW54665   2.605   4.109   4.767
14346SOL    HW154666   2.663   4.180   4.740
14346SOL    HW254667   2.626   4.094   4.859
14347SOL     OW54668   3.275   1.991   8.497
14347SOL    HW154669   3.354   2.031   8.461
14347SOL    HW254670   3.245   2.054   8.563
14348SOL     OW54671   3.532   2.797  18.310
14348SOL    HW154672   3.517   2.770  18.401
14348SOL    HW254673   3.510   2.890  18.308
14349SOL     OW54674   4.613   2.819   5.752
14349SOL    HW154675   4.555   2.778   5.688
14349SOL    HW254676   4.683   2.755   5.765
14350SOL     OW54677   0.912   3.964  27.922
14350SOL    HW154678   0.882   3.892  27.867
14350SOL    HW254679   0.993   3.932  27.962
14351SOL     OW54680   3.514   3.192   7.514
14351SOL    HW154681   3.520   3.122   7.578
14351SOL    HW254682   3.584   3.253   7.538
14352SOL     OW54683   3.535   0.499   0.442
14352SOL    HW154684   3.523   0.448   0.362
14352SOL    HW254685   3.526   0.435   0.513
14353SOL     OW54686   0.267   0.388   1.982
14353SOL    HW154687   0.242   0.352   1.897
14353SOL    HW254688   0.220   0.471   1.988
14354SOL     OW54689   0.493   2.179   2.220
14354SOL    HW154690   0.580   2.219   2.229
14354SOL    HW254691   0.505   2.090   2.252
14355SOL     OW54692   2.657   4.719  25.888
14355SOL    HW154693   2.708   4.763  25.956
14355SOL    HW254694   2.703   4.739  25.807
14356SOL     OW54695   3.138   2.842   3.749
14356SOL    HW154696   3.046   2.817   3.738
14356SOL    HW254697   3.187   2.760   3.743
14357SOL     OW54698   3.162   2.326  19.784
14357SOL    HW154699   3.134   2.387  19.852
14357SOL    HW254700   3.219   2.378  19.727
14358SOL     OW54701   2.293   1.143  13.061
14358SOL    HW154702   2.263   1.052  13.067
14358SOL    HW254703   2.317   1.166  13.151
14359SOL     OW54704   2.944   0.894  28.426
14359SOL    HW154705   2.879   0.894  28.496
14359SOL    HW254706   2.971   0.802  28.419
14360SOL     OW54707   3.043   0.962   5.335
14360SOL    HW154708   2.971   0.963   5.272
14360SOL    HW254709   3.001   0.974   5.420
14361SOL     OW54710   2.110   0.827  24.621
14361SOL    HW154711   2.146   0.858  24.538
14361SOL    HW254712   2.017   0.814  24.603
14362SOL     OW54713   1.453   3.235  22.766
14362SOL    HW154714   1.409   3.307  22.812
14362SOL    HW254715   1.497   3.277  22.692
14363SOL     OW54716   1.859   4.374   5.667
14363SOL    HW154717   1.858   4.279   5.653
14363SOL    HW254718   1.858   4.411   5.579
14364SOL     OW54719   4.709   2.078  18.500
14364SOL    HW154720   4.768   2.015  18.460
14364SOL    HW254721   4.668   2.030  18.572
14365SOL     OW54722   2.268   4.353  22.968
14365SOL    HW154723   2.307   4.291  22.907
14365SOL    HW254724   2.309   4.437  22.947
14366SOL     OW54725   0.795   1.180  25.795
14366SOL    HW154726   0.744   1.185  25.876
14366SOL    HW254727   0.734   1.208  25.726
14367SOL     OW54728   3.591   1.398   1.209
14367SOL    HW154729   3.603   1.428   1.119
14367SOL    HW254730   3.527   1.458   1.246
14368SOL     OW54731   2.397   2.547  23.351
14368SOL    HW154732   2.369   2.476  23.294
14368SOL    HW254733   2.316   2.580  23.390
14369SOL     OW54734   1.230   1.601  25.677
14369SOL    HW154735   1.148   1.641  25.707
14369SOL    HW254736   1.206   1.511  25.654
14370SOL     OW54737   1.852   3.175  24.148
14370SOL    HW154738   1.823   3.264  24.127
14370SOL    HW254739   1.786   3.118  24.109
14371SOL     OW54740   2.512   3.077   0.930
14371SOL    HW154741   2.570   3.058   1.004
14371SOL    HW254742   2.545   3.159   0.894
14372SOL     OW54743   0.675   4.585  20.068
14372SOL    HW154744   0.692   4.639  20.145
14372SOL    HW254745   0.671   4.647  19.995
14373SOL     OW54746   2.805   4.617   0.710
14373SOL    HW154747   2.877   4.617   0.647
14373SOL    HW254748   2.826   4.687   0.771
14374SOL     OW54749   0.868   2.353   1.260
14374SOL    HW154750   0.895   2.291   1.193
14374SOL    HW254751   0.774   2.337   1.272
14375SOL     OW54752   1.825   1.845  26.618
14375SOL    HW154753   1.801   1.752  26.617
14375SOL    HW254754   1.914   1.848  26.583
14376SOL     OW54755   3.236   2.587  21.091
14376SOL    HW154756   3.178   2.535  21.036
14376SOL    HW254757   3.303   2.620  21.031
14377SOL     OW54758   0.971   4.047   7.655
14377SOL    HW154759   0.986   4.117   7.719
14377SOL    HW254760   0.923   4.090   7.584
14378SOL     OW54761   1.697   3.935  18.722
14378SOL    HW154762   1.776   3.986  18.739
14378SOL    HW254763   1.643   3.992  18.667
14379SOL     OW54764   3.782   3.249   2.310
14379SOL    HW154765   3.813   3.238   2.220
14379SOL    HW254766   3.689   3.228   2.306
14380SOL     OW54767   2.190   2.213  25.430
14380SOL    HW154768   2.175   2.151  25.501
14380SOL    HW254769   2.213   2.158  25.355
14381SOL     OW54770   4.240   4.337  25.928
14381SOL    HW154771   4.289   4.278  25.870
14381SOL    HW254772   4.306   4.371  25.989
14382SOL     OW54773   3.625   2.152  28.116
14382SOL    HW154774   3.594   2.144  28.206
14382SOL    HW254775   3.720   2.149  28.124
14383SOL     OW54776   3.699   0.738  26.852
14383SOL    HW154777   3.735   0.725  26.940
14383SOL    HW254778   3.648   0.659  26.834
14384SOL     OW54779   1.330   2.848   0.831
14384SOL    HW154780   1.284   2.894   0.902
14384SOL    HW254781   1.269   2.850   0.758
14385SOL     OW54782   1.628   3.278   2.777
14385SOL    HW154783   1.616   3.371   2.795
14385SOL    HW254784   1.635   3.237   2.863
14386SOL     OW54785   2.893   4.006  19.509
14386SOL    HW154786   2.828   3.938  19.490
14386SOL    HW254787   2.976   3.959  19.518
14387SOL     OW54788   3.281   0.149  26.389
14387SOL    HW154789   3.263   0.065  26.346
14387SOL    HW254790   3.227   0.147  26.468
14388SOL     OW54791   4.771   2.078  20.588
14388SOL    HW154792   0.004   2.004  20.647
14388SOL    HW254793   4.678   2.098  20.595
14389SOL     OW54794   2.696   0.010   3.557
14389SOL    HW154795   2.609   0.001   3.519
14389SOL    HW254796   2.748   0.053   3.489
14390SOL     OW54797   2.527   3.980  10.431
14390SOL    HW154798   2.525   4.009  10.340
14390SOL    HW254799   2.481   4.049  10.479
14391SOL     OW54800   2.388   3.707   8.252
14391SOL    HW154801   2.428   3.659   8.324
14391SOL    HW254802   2.462   3.747   8.206
14392SOL     OW54803   3.442   3.249  21.407
14392SOL    HW154804   3.511   3.312  21.385
14392SOL    HW254805   3.488   3.177  21.450
14393SOL     OW54806   0.656   0.838   1.668
14393SOL    HW154807   0.659   0.857   1.574
14393SOL    HW254808   0.639   0.922   1.710
14394SOL     OW54809   0.273   2.632   6.078
14394SOL    HW154810   0.223   2.688   6.138
14394SOL    HW254811   0.230   2.547   6.083
14395SOL     OW54812   2.675   2.443   5.595
14395SOL    HW154813   2.740   2.401   5.538
14395SOL    HW254814   2.592   2.402   5.571
14396SOL     OW54815   1.285   1.590   4.521
14396SOL    HW154816   1.354   1.583   4.455
14396SOL    HW254817   1.286   1.682   4.547
14397SOL     OW54818   2.603   3.212  22.367
14397SOL    HW154819   2.619   3.155  22.291
14397SOL    HW254820   2.657   3.174  22.437
14398SOL     OW54821   2.942   1.071   6.727
14398SOL    HW154822   2.907   0.990   6.690
14398SOL    HW254823   2.897   1.141   6.679
14399SOL     OW54824   4.314   2.451   7.979
14399SOL    HW154825   4.243   2.491   8.029
14399SOL    HW254826   4.363   2.400   8.043
14400SOL     OW54827   4.527   3.083  13.238
14400SOL    HW154828   4.462   3.066  13.306
14400SOL    HW254829   4.571   3.163  13.267
14401SOL     OW54830   1.791   1.484   1.218
14401SOL    HW154831   1.798   1.406   1.162
14401SOL    HW254832   1.802   1.451   1.307
14402SOL     OW54833   4.531   2.462   6.222
14402SOL    HW154834   4.520   2.548   6.263
14402SOL    HW254835   4.449   2.416   6.240
14403SOL     OW54836   3.417   3.835  21.606
14403SOL    HW154837   3.504   3.824  21.568
14403SOL    HW254838   3.370   3.755  21.581
14404SOL     OW54839   3.909   2.488   2.097
14404SOL    HW154840   3.951   2.573   2.087
14404SOL    HW254841   3.847   2.483   2.024
14405SOL     OW54842   0.716   3.892   7.511
14405SOL    HW154843   0.746   3.972   7.468
14405SOL    HW254844   0.779   3.878   7.582
14406SOL     OW54845   3.458   3.226  26.260
14406SOL    HW154846   3.522   3.295  26.280
14406SOL    HW254847   3.373   3.271  26.261
14407SOL     OW54848   3.353   2.780   1.888
14407SOL    HW154849   3.425   2.837   1.862
14407SOL    HW254850   3.388   2.691   1.882
14408SOL     OW54851   0.961   1.932  23.460
14408SOL    HW154852   0.952   1.966  23.371
14408SOL    HW254853   1.019   1.994  23.504
14409SOL     OW54854   2.121   3.564   9.920
14409SOL    HW154855   2.026   3.571   9.911
14409SOL    HW254856   2.146   3.493   9.861
14410SOL     OW54857   2.827   4.150   6.789
14410SOL    HW154858   2.756   4.139   6.852
14410SOL    HW254859   2.783   4.167   6.706
14411SOL     OW54860   1.587   1.525   7.477
14411SOL    HW154861   1.641   1.560   7.406
14411SOL    HW254862   1.650   1.488   7.539
14412SOL     OW54863   0.572   0.058  20.874
14412SOL    HW154864   0.636   4.781  20.915
14412SOL    HW254865   0.553   0.017  20.790
14413SOL     OW54866   2.141   1.990   8.288
14413SOL    HW154867   2.087   2.069   8.298
14413SOL    HW254868   2.088   1.931   8.235
14414SOL     OW54869   0.748   4.706  21.326
14414SOL    HW154870   0.822   4.759  21.356
14414SOL    HW254871   0.749   4.714  21.231
14415SOL     OW54872   1.375   4.733   8.008
14415SOL    HW154873   1.461   4.691   8.002
14415SOL    HW254874   1.313   4.662   7.996
14416SOL     OW54875   3.848   3.855   1.293
14416SOL    HW154876   3.760   3.884   1.319
14416SOL    HW254877   3.868   3.906   1.215
14417SOL     OW54878   0.550   4.721  26.492
14417SOL    HW154879   0.553   0.035  26.478
14417SOL    HW254880   0.505   4.711  26.576
14418SOL     OW54881   3.756   1.453  23.040
14418SOL    HW154882   3.833   1.397  23.029
14418SOL    HW254883   3.770   1.525  22.979
14419SOL     OW54884   3.090   1.144   3.405
14419SOL    HW154885   3.012   1.110   3.449
14419SOL    HW254886   3.058   1.215   3.350
14420SOL     OW54887   2.050   2.017  12.231
14420SOL    HW154888   1.964   2.058  12.218
14420SOL    HW254889   2.067   2.027  12.325
14421SOL     OW54890   2.008   2.330  21.366
14421SOL    HW154891   2.066   2.294  21.299
14421SOL    HW254892   2.062   2.335  21.445
14422SOL     OW54893   0.538   1.621  26.576
14422SOL    HW154894   0.587   1.575  26.508
14422SOL    HW254895   0.564   1.579  26.658
14423SOL     OW54896   2.029   2.042  10.264
14423SOL    HW154897   2.053   2.103  10.334
14423SOL    HW254898   2.011   2.098  10.189
14424SOL     OW54899   2.757   4.490   9.162
14424SOL    HW154900   2.741   4.460   9.251
14424SOL    HW254901   2.829   4.435   9.131
14425SOL     OW54902   3.163   1.358   8.473
14425SOL    HW154903   3.206   1.427   8.423
14425SOL    HW254904   3.211   1.278   8.451
14426SOL     OW54905   2.861   0.038   0.868
14426SOL    HW154906   2.778   0.072   0.901
14426SOL    HW254907   2.927   0.080   0.923
14427SOL     OW54908   2.576   2.417   4.744
14427SOL    HW154909   2.653   2.454   4.701
14427SOL    HW254910   2.592   2.323   4.745
14428SOL     OW54911   0.023   0.717   2.051
14428SOL    HW154912   4.757   0.634   2.058
14428SOL    HW254913   0.066   0.713   1.965
14429SOL     OW54914   2.100   1.469  24.475
14429SOL    HW154915   2.141   1.390  24.439
14429SOL    HW254916   2.168   1.507  24.531
14430SOL     OW54917   0.476   3.016   0.762
14430SOL    HW154918   0.495   2.946   0.699
14430SOL    HW254919   0.559   3.062   0.772
14431SOL     OW54920   3.244   0.439   7.940
14431SOL    HW154921   3.229   0.412   8.031
14431SOL    HW254922   3.159   0.470   7.910
14432SOL     OW54923   1.780   1.563  24.003
14432SOL    HW154924   1.831   1.641  23.983
14432SOL    HW254925   1.844   1.492  24.004
14433SOL     OW54926   0.956   0.936   8.168
14433SOL    HW154927   0.998   1.003   8.113
14433SOL    HW254928   0.863   0.943   8.148
14434SOL     OW54929   1.887   3.755  23.538
14434SOL    HW154930   1.848   3.695  23.474
14434SOL    HW254931   1.817   3.816  23.560
14435SOL     OW54932   4.150   2.657  25.649
14435SOL    HW154933   4.115   2.597  25.715
14435SOL    HW254934   4.075   2.711  25.624
14436SOL     OW54935   2.643   2.795   1.832
14436SOL    HW154936   2.625   2.731   1.901
14436SOL    HW254937   2.561   2.803   1.784
14437SOL     OW54938   0.094   1.799   6.517
14437SOL    HW154939   0.146   1.719   6.525
14437SOL    HW254940   0.045   1.788   6.435
14438SOL     OW54941   0.528   3.310   1.818
14438SOL    HW154942   0.573   3.371   1.759
14438SOL    HW254943   0.576   3.317   1.900
14439SOL     OW54944   2.022   0.015   1.658
14439SOL    HW154945   1.966   0.053   1.726
14439SOL    HW254946   1.986   4.709   1.643
14440SOL     OW54947   2.712   4.615  11.361
14440SOL    HW154948   2.761   4.667  11.424
14440SOL    HW254949   2.648   4.567  11.414
14441SOL     OW54950   4.564   0.962  20.301
14441SOL    HW154951   4.611   1.044  20.284
14441SOL    HW254952   4.599   0.931  20.384
14442SOL     OW54953   4.266   3.630   7.929
14442SOL    HW154954   4.264   3.717   7.888
14442SOL    HW254955   4.289   3.647   8.020
14443SOL     OW54956   0.752   3.799  21.058
14443SOL    HW154957   0.675   3.839  21.099
14443SOL    HW254958   0.723   3.711  21.033
14444SOL     OW54959   4.208   0.341   0.365
14444SOL    HW154960   4.209   0.277   0.436
14444SOL    HW254961   4.131   0.318   0.312
14445SOL     OW54962   1.204   4.569   3.610
14445SOL    HW154963   1.117   4.536   3.586
14445SOL    HW254964   1.201   4.662   3.590
14446SOL     OW54965   2.141   1.985  11.963
14446SOL    HW154966   2.153   2.018  12.052
14446SOL    HW254967   2.115   1.894  11.975
14447SOL     OW54968   0.909   2.204  21.346
14447SOL    HW154969   0.934   2.208  21.438
14447SOL    HW254970   0.989   2.227  21.298
14448SOL     OW54971   4.604   4.737   9.499
14448SOL    HW154972   4.617   0.008   9.420
14448SOL    HW254973   4.535   4.674   9.476
14449SOL     OW54974   1.556   2.895  28.405
14449SOL    HW154975   1.577   2.866  28.316
14449SOL    HW254976   1.639   2.928  28.439
14450SOL     OW54977   1.524   1.869  26.018
14450SOL    HW154978   1.570   1.915  25.948
14450SOL    HW254979   1.510   1.781  25.984
14451SOL     OW54980   3.854   0.516  20.729
14451SOL    HW154981   3.846   0.478  20.642
14451SOL    HW254982   3.946   0.505  20.752
14452SOL     OW54983   3.503   0.026  21.425
14452SOL    HW154984   3.416   0.001  21.456
14452SOL    HW254985   3.513   0.117  21.453
14453SOL     OW54986   0.912   1.189  23.974
14453SOL    HW154987   0.997   1.224  24.001
14453SOL    HW254988   0.864   1.176  24.056
14454SOL     OW54989   4.585   3.226  16.996
14454SOL    HW154990   4.522   3.299  16.998
14454SOL    HW254991   4.617   3.224  16.906
14455SOL     OW54992   1.688   1.512   4.095
14455SOL    HW154993   1.685   1.589   4.152
14455SOL    HW254994   1.608   1.463   4.116
14456SOL     OW54995   1.104   1.419   8.688
14456SOL    HW154996   1.178   1.462   8.644
14456SOL    HW254997   1.074   1.482   8.753
14457SOL     OW54998   1.728   3.654   3.184
14457SOL    HW154999   1.643   3.613   3.199
14457SOL    HW255000   1.786   3.613   3.249
14458SOL     OW55001   2.915   3.778  21.528
14458SOL    HW155002   2.889   3.854  21.579
14458SOL    HW255003   2.955   3.719  21.592
14459SOL     OW55004   0.452   2.171   4.976
14459SOL    HW155005   0.529   2.160   5.032
14459SOL    HW255006   0.395   2.098   5.000
14460SOL     OW55007   0.744   2.494   6.481
14460SOL    HW155008   0.660   2.518   6.442
14460SOL    HW255009   0.733   2.403   6.509
14461SOL     OW55010   3.444   3.444  12.599
14461SOL    HW155011   3.489   3.366  12.630
14461SOL    HW255012   3.385   3.468  12.671
14462SOL     OW55013   3.357   1.654   0.654
14462SOL    HW155014   3.395   1.662   0.566
14462SOL    HW255015   3.394   1.573   0.689
14463SOL     OW55016   1.753   0.271   1.132
14463SOL    HW155017   1.837   0.236   1.101
14463SOL    HW255018   1.762   0.366   1.122
14464SOL     OW55019   0.180   3.967   3.524
14464SOL    HW155020   0.215   3.983   3.436
14464SOL    HW255021   0.246   3.911   3.566
14465SOL     OW55022   0.241   4.180  23.174
14465SOL    HW155023   0.249   4.085  23.179
14465SOL    HW255024   0.159   4.194  23.126
14466SOL     OW55025   0.924   3.115  21.269
14466SOL    HW155026   0.923   3.123  21.364
14466SOL    HW255027   0.880   3.194  21.238
14467SOL     OW55028   3.840   2.787  25.340
14467SOL    HW155029   3.859   2.837  25.419
14467SOL    HW255030   3.911   2.723  25.334
14468SOL     OW55031   2.364   1.279   7.842
14468SOL    HW155032   2.458   1.260   7.847
14468SOL    HW255033   2.349   1.343   7.912
14469SOL     OW55034   4.655   0.132  26.600
14469SOL    HW155035   4.740   0.104  26.565
14469SOL    HW255036   4.605   0.160  26.523
14470SOL     OW55037   0.660   3.819   8.670
14470SOL    HW155038   0.619   3.879   8.607
14470SOL    HW255039   0.725   3.771   8.619
14471SOL     OW55040   1.462   2.124   4.813
14471SOL    HW155041   1.371   2.099   4.798
14471SOL    HW255042   1.458   2.218   4.829
14472SOL     OW55043   2.480   4.075   9.294
14472SOL    HW155044   2.554   4.066   9.235
14472SOL    HW255045   2.478   3.993   9.343
14473SOL     OW55046   0.455   3.488  28.022
14473SOL    HW155047   0.545   3.455  28.020
14473SOL    HW255048   0.418   3.452  28.102
14474SOL     OW55049   0.504   2.035  25.276
14474SOL    HW155050   0.501   2.067  25.366
14474SOL    HW255051   0.451   2.097  25.227
14475SOL     OW55052   0.482   1.652   2.668
14475SOL    HW155053   0.397   1.674   2.706
14475SOL    HW255054   0.473   1.673   2.575
14476SOL     OW55055   0.119   3.121   5.279
14476SOL    HW155056   0.087   3.183   5.213
14476SOL    HW255057   0.040   3.087   5.320
14477SOL     OW55058   3.302   3.175   8.543
14477SOL    HW155059   3.261   3.108   8.488
14477SOL    HW255060   3.266   3.160   8.630
14478SOL     OW55061   1.547   0.740   2.482
14478SOL    HW155062   1.494   0.662   2.465
14478SOL    HW255063   1.513   0.805   2.421
14479SOL     OW55064   1.921   0.054  12.951
14479SOL    HW155065   1.986   0.104  13.000
14479SOL    HW255066   1.972   0.008  12.884
14480SOL     OW55067   2.932   2.511  11.414
14480SOL    HW155068   2.900   2.440  11.358
14480SOL    HW255069   3.019   2.530  11.379
14481SOL     OW55070   2.539   2.917   7.618
14481SOL    HW155071   2.634   2.910   7.616
14481SOL    HW255072   2.523   3.007   7.645
14482SOL     OW55073   2.644   3.796  18.634
14482SOL    HW155074   2.725   3.808  18.683
14482SOL    HW255075   2.672   3.787  18.543
14483SOL     OW55076   4.650   2.569  20.246
14483SOL    HW155077   4.699   2.514  20.185
14483SOL    HW255078   4.568   2.522  20.260
14484SOL     OW55079   1.044   3.261   7.437
14484SOL    HW155080   1.048   3.301   7.524
14484SOL    HW255081   1.128   3.217   7.427
14485SOL     OW55082   1.319   2.888   2.739
14485SOL    HW155083   1.317   2.949   2.665
14485SOL    HW255084   1.355   2.939   2.812
14486SOL     OW55085   4.214   0.121  22.240
14486SOL    HW155086   4.205   0.181  22.166
14486SOL    HW255087   4.269   0.050  22.207
14487SOL     OW55088   2.920   2.861   2.761
14487SOL    HW155089   2.909   2.827   2.672
14487SOL    HW255090   3.011   2.890   2.765
14488SOL     OW55091   1.959   0.418  13.297
14488SOL    HW155092   2.018   0.493  13.306
14488SOL    HW255093   1.873   0.457  13.281
14489SOL     OW55094   3.320   1.658  10.244
14489SOL    HW155095   3.344   1.575  10.202
14489SOL    HW255096   3.400   1.686  10.289
14490SOL     OW55097   1.810   4.330  23.155
14490SOL    HW155098   1.887   4.273  23.156
14490SOL    HW255099   1.755   4.297  23.226
14491SOL     OW55100   3.526   2.327  11.869
14491SOL    HW155101   3.512   2.320  11.774
14491SOL    HW255102   3.482   2.250  11.905
14492SOL     OW55103   0.003   0.267  10.430
14492SOL    HW155104   4.769   0.208  10.356
14492SOL    HW255105   4.769   0.354  10.394
14493SOL     OW55106   0.432   1.000   0.068
14493SOL    HW155107   0.474   0.996  28.504
14493SOL    HW255108   0.486   1.061   0.118
14494SOL     OW55109   2.624   2.161  21.929
14494SOL    HW155110   2.705   2.208  21.946
14494SOL    HW255111   2.613   2.166  21.834
14495SOL     OW55112   0.416   3.090  19.091
14495SOL    HW155113   0.340   3.105  19.034
14495SOL    HW255114   0.457   3.176  19.099
14496SOL     OW55115   1.179   2.152  13.291
14496SOL    HW155116   1.208   2.200  13.369
14496SOL    HW255117   1.245   2.172  13.225
14497SOL     OW55118   1.995   0.141   7.578
14497SOL    HW155119   1.982   0.224   7.533
14497SOL    HW255120   1.951   0.151   7.662
14498SOL     OW55121   0.084   1.521  22.988
14498SOL    HW155122   0.166   1.535  22.941
14498SOL    HW255123   0.027   1.478  22.924
14499SOL     OW55124   0.899   2.409   2.536
14499SOL    HW155125   0.961   2.474   2.569
14499SOL    HW255126   0.954   2.345   2.490
14500SOL     OW55127   4.079   4.523  20.384
14500SOL    HW155128   4.118   4.457  20.441
14500SOL    HW255129   4.073   4.481  20.298
14501SOL     OW55130   1.997   3.027   8.054
14501SOL    HW155131   1.974   2.964   7.986
14501SOL    HW255132   2.068   2.984   8.103
14502SOL     OW55133   4.015   1.713   0.799
14502SOL    HW155134   4.110   1.714   0.810
14502SOL    HW255135   3.985   1.637   0.849
14503SOL     OW55136   3.894   4.072   9.575
14503SOL    HW155137   3.920   4.115   9.656
14503SOL    HW255138   3.972   4.025   9.547
14504SOL     OW55139   2.235   3.522  21.394
14504SOL    HW155140   2.284   3.574  21.458
14504SOL    HW255141   2.145   3.524  21.426
14505SOL     OW55142   2.437   2.869  11.667
14505SOL    HW155143   2.425   2.774  11.676
14505SOL    HW255144   2.519   2.878  11.619
14506SOL     OW55145   0.628   2.290   3.900
14506SOL    HW155146   0.706   2.345   3.894
14506SOL    HW255147   0.615   2.278   3.994
14507SOL     OW55148   2.314   0.329   7.102
14507SOL    HW155149   2.269   0.375   7.173
14507SOL    HW255150   2.403   0.364   7.103
14508SOL     OW55151   1.764   3.002   7.627
14508SOL    HW155152   1.746   3.082   7.577
14508SOL    HW255153   1.819   2.949   7.569
14509SOL     OW55154   4.736   3.808  25.649
14509SOL    HW155155   0.050   3.797  25.638
14509SOL    HW255156   4.726   3.899  25.677
14510SOL     OW55157   0.269   3.814  28.186
14510SOL    HW155158   0.316   3.736  28.157
14510SOL    HW255159   0.181   3.783  28.206
14511SOL     OW55160   0.978   1.276  26.097
14511SOL    HW155161   0.906   1.329  26.132
14511SOL    HW255162   1.030   1.338  26.045
14512SOL     OW55163   4.715   0.895  23.749
14512SOL    HW155164   0.026   0.870  23.760
14512SOL    HW255165   4.706   0.916  23.656
14513SOL     OW55166   1.985   3.753  21.239
14513SOL    HW155167   1.907   3.794  21.201
14513SOL    HW255168   2.012   3.813  21.308
14514SOL     OW55169   2.349   4.434  13.430
14514SOL    HW155170   2.339   4.410  13.338
14514SOL    HW255171   2.273   4.395  13.473
14515SOL     OW55172   4.539   1.736  20.520
14515SOL    HW155173   4.448   1.754  20.546
14515SOL    HW255174   4.585   1.724  20.603
14516SOL     OW55175   3.124   4.326   5.256
14516SOL    HW155176   3.181   4.283   5.320
14516SOL    HW255177   3.177   4.396   5.219
14517SOL     OW55178   1.082   2.411   5.073
14517SOL    HW155179   1.020   2.377   5.138
14517SOL    HW255180   1.075   2.506   5.081
14518SOL     OW55181   3.307   1.258   8.821
14518SOL    HW155182   3.367   1.245   8.747
14518SOL    HW255183   3.306   1.173   8.865
14519SOL     OW55184   0.296   4.076  21.522
14519SOL    HW155185   0.367   4.128  21.485
14519SOL    HW255186   0.328   3.986  21.520
14520SOL     OW55187   3.114   4.645   6.123
14520SOL    HW155188   3.048   4.588   6.083
14520SOL    HW255189   3.092   4.646   6.216
14521SOL     OW55190   3.100   3.747   1.966
14521SOL    HW155191   3.065   3.680   1.907
14521SOL    HW255192   3.075   3.830   1.926
14522SOL     OW55193   2.790   0.313   4.216
14522SOL    HW155194   2.848   0.242   4.189
14522SOL    HW255195   2.714   0.305   4.159
14523SOL     OW55196   1.078   2.276   2.834
14523SOL    HW155197   1.015   2.209   2.809
14523SOL    HW255198   1.163   2.239   2.810
14524SOL     OW55199   1.832   4.062   7.121
14524SOL    HW155200   1.776   4.045   7.197
14524SOL    HW255201   1.852   3.975   7.087
14525SOL     OW55202   2.282   1.344   3.723
14525SOL    HW155203   2.268   1.425   3.674
14525SOL    HW255204   2.196   1.302   3.724
14526SOL     OW55205   0.124   0.491  27.096
14526SOL    HW155206   0.149   0.400  27.113
14526SOL    HW255207   0.120   0.497  27.001
14527SOL     OW55208   0.260   1.747  23.114
14527SOL    HW155209   0.224   1.685  23.178
14527SOL    HW255210   0.351   1.760  23.141
14528SOL     OW55211   3.913   4.744  12.091
14528SOL    HW155212   3.853   4.780  12.156
14528SOL    HW255213   3.945   4.663  12.131
14529SOL     OW55214   4.184   0.601  11.995
14529SOL    HW155215   4.135   0.524  11.967
14529SOL    HW255216   4.248   0.568  12.057
14530SOL     OW55217   1.344   2.612   8.643
14530SOL    HW155218   1.431   2.575   8.627
14530SOL    HW255219   1.304   2.554   8.707
14531SOL     OW55220   3.770   2.696  26.611
14531SOL    HW155221   3.731   2.768  26.660
14531SOL    HW255222   3.832   2.656  26.672
14532SOL     OW55223   0.797   2.990   8.173
14532SOL    HW155224   0.845   3.043   8.237
14532SOL    HW255225   0.843   3.005   8.090
14533SOL     OW55226   2.298   0.791  11.341
14533SOL    HW155227   2.275   0.879  11.370
14533SOL    HW255228   2.305   0.741  11.422
14534SOL     OW55229   1.502   4.344  13.150
14534SOL    HW155230   1.445   4.279  13.110
14534SOL    HW255231   1.503   4.322  13.243
14535SOL     OW55232   0.790   4.223   2.115
14535SOL    HW155233   0.853   4.281   2.073
14535SOL    HW255234   0.729   4.198   2.045
14536SOL     OW55235   1.154   2.805  21.330
14536SOL    HW155236   1.145   2.731  21.390
14536SOL    HW255237   1.150   2.766  21.243
14537SOL     OW55238   1.944   2.663  11.187
14537SOL    HW155239   1.965   2.756  11.191
14537SOL    HW255240   1.936   2.637  11.279
14538SOL     OW55241   2.553   1.483  13.023
14538SOL    HW155242   2.646   1.502  13.030
14538SOL    HW255243   2.526   1.460  13.112
14539SOL     OW55244   1.722   4.099  12.718
14539SOL    HW155245   1.641   4.112  12.668
14539SOL    HW255246   1.692   4.085  12.808
14540SOL     OW55247   3.726   1.644   4.131
14540SOL    HW155248   3.695   1.554   4.137
14540SOL    HW255249   3.671   1.684   4.064
14541SOL     OW55250   1.878   1.674  12.154
14541SOL    HW155251   1.874   1.616  12.230
14541SOL    HW255252   1.789   1.674  12.119
14542SOL     OW55253   2.371   1.217  13.421
14542SOL    HW155254   2.336   1.131  13.445
14542SOL    HW255255   2.458   1.199  13.387
14543SOL     OW55256   2.551   1.144  27.770
14543SOL    HW155257   2.540   1.080  27.840
14543SOL    HW255258   2.644   1.165  27.771
14544SOL     OW55259   3.160   1.539  18.698
14544SOL    HW155260   3.252   1.536  18.726
14544SOL    HW255261   3.152   1.622  18.652
14545SOL     OW55262   1.897   4.032  12.527
14545SOL    HW155263   1.914   4.124  12.506
14545SOL    HW255264   1.824   4.035  12.588
14546SOL     OW55265   0.969   3.603  13.446
14546SOL    HW155266   0.971   3.696  13.470
14546SOL    HW255267   0.952   3.603  13.352
14547SOL     OW55268   4.513   1.240  12.719
14547SOL    HW155269   4.502   1.290  12.638
14547SOL    HW255270   4.539   1.305  12.784
14548SOL     OW55271   1.040   3.301  23.031
14548SOL    HW155272   0.945   3.294  23.021
14548SOL    HW255273   1.067   3.216  23.065
14549SOL     OW55274   0.692   4.679   8.497
14549SOL    HW155275   0.767   4.688   8.438
14549SOL    HW255276   0.637   4.613   8.455
14550SOL     OW55277   1.432   2.853  11.682
14550SOL    HW155278   1.439   2.807  11.766
14550SOL    HW255279   1.345   2.829  11.649
14551SOL     OW55280   1.805   3.809  12.416
14551SOL    HW155281   1.836   3.759  12.492
14551SOL    HW255282   1.839   3.897  12.430
14552SOL     OW55283   0.685   3.368  13.752
14552SOL    HW155284   0.633   3.387  13.830
14552SOL    HW255285   0.656   3.281  13.725
14553SOL     OW55286   4.522   1.110  12.149
14553SOL    HW155287   4.607   1.067  12.155
14553SOL    HW255288   4.477   1.084  12.230
14554SOL     OW55289   0.122   3.506  12.307
14554SOL    HW155290   0.152   3.488  12.396
14554SOL    HW255291   0.171   3.584  12.281
14555SOL     OW55292   2.215   0.809   5.919
14555SOL    HW155293   2.137   0.860   5.900
14555SOL    HW255294   2.267   0.865   5.977
14556SOL     OW55295   0.947   1.536  11.999
14556SOL    HW155296   0.944   1.544  12.094
14556SOL    HW255297   0.860   1.504  11.975
14557SOL     OW55298   0.844   2.492  22.201
14557SOL    HW155299   0.775   2.559  22.206
14557SOL    HW255300   0.894   2.515  22.122
14558SOL     OW55301   1.481   3.420  26.167
14558SOL    HW155302   1.427   3.397  26.092
14558SOL    HW255303   1.472   3.346  26.227
14559SOL     OW55304   2.258   0.531  12.859
14559SOL    HW155305   2.228   0.621  12.874
14559SOL    HW255306   2.343   0.527  12.902
14560SOL     OW55307   2.929   3.902  14.245
14560SOL    HW155308   3.008   3.851  14.264
14560SOL    HW255309   2.944   3.939  14.158
14561SOL     OW55310   0.775   1.160  12.078
14561SOL    HW155311   0.753   1.129  12.166
14561SOL    HW255312   0.860   1.120  12.059
14562SOL     OW55313   3.441   3.108  12.824
14562SOL    HW155314   3.401   3.027  12.791
14562SOL    HW255315   3.498   3.138  12.753
14563SOL     OW55316   0.750   4.134  11.021
14563SOL    HW155317   0.719   4.044  11.030
14563SOL    HW255318   0.671   4.186  11.006
14564SOL     OW55319   3.889   0.872  22.513
14564SOL    HW155320   3.945   0.826  22.575
14564SOL    HW255321   3.839   0.933  22.567
14565SOL     OW55322   1.732   4.219  14.553
14565SOL    HW155323   1.769   4.234  14.640
14565SOL    HW255324   1.799   4.252  14.493
14566SOL     OW55325   0.046   1.482  15.510
14566SOL    HW155326   4.761   1.492  15.441
14566SOL    HW255327   0.125   1.454  15.464
14567SOL     OW55328   1.108   3.724  14.626
14567SOL    HW155329   1.100   3.735  14.531
14567SOL    HW255330   1.035   3.667  14.649
14568SOL     OW55331   0.875   4.379  13.541
14568SOL    HW155332   0.856   4.384  13.447
14568SOL    HW255333   0.946   4.442  13.554
14569SOL     OW55334   1.738   0.130  14.647
14569SOL    HW155335   1.726   0.053  14.703
14569SOL    HW255336   1.760   0.094  14.561
14570SOL     OW55337   0.957   3.881  13.504
14570SOL    HW155338   1.009   3.930  13.567
14570SOL    HW255339   0.900   3.946  13.464
14571SOL     OW55340   0.932   3.925  13.171
14571SOL    HW155341   0.892   3.957  13.090
14571SOL    HW255342   0.870   3.950  13.240
14572SOL     OW55343   2.697   4.017  13.976
14572SOL    HW155344   2.709   4.051  13.887
14572SOL    HW255345   2.783   3.982  13.999
14573SOL     OW55346   2.181   3.133  15.275
14573SOL    HW155347   2.267   3.141  15.234
14573SOL    HW255348   2.182   3.046  15.316
14574SOL     OW55349   2.194   3.973  13.871
14574SOL    HW155350   2.118   4.009  13.918
14574SOL    HW255351   2.223   3.900  13.925
14575SOL     OW55352   1.890   4.297  14.350
14575SOL    HW155353   1.981   4.322  14.365
14575SOL    HW255354   1.869   4.333  14.264
14576SOL     OW55355   1.054   0.646  13.538
14576SOL    HW155356   1.105   0.725  13.519
14576SOL    HW255357   1.119   0.581  13.565
14577SOL     OW55358   0.178   4.029  12.855
14577SOL    HW155359   0.194   4.113  12.813
14577SOL    HW255360   0.194   3.964  12.786
14578SOL     OW55361   1.094   2.735  12.939
14578SOL    HW155362   1.174   2.683  12.943
14578SOL    HW255363   1.031   2.688  12.994
14579SOL     OW55364   1.770   3.434  14.691
14579SOL    HW155365   1.802   3.494  14.758
14579SOL    HW255366   1.679   3.460  14.677
14580SOL     OW55367   1.565   0.427  14.694
14580SOL    HW155368   1.652   0.392  14.673
14580SOL    HW255369   1.507   0.351  14.688
14581SOL     OW55370   1.394   4.435  13.525
14581SOL    HW155371   1.427   4.519  13.492
14581SOL    HW255372   1.431   4.370  13.465
14582SOL     OW55373   1.382   4.485  13.811
14582SOL    HW155374   1.330   4.560  13.840
14582SOL    HW255375   1.380   4.489  13.715
14583SOL     OW55376   1.288   2.515  12.935
14583SOL    HW155377   1.224   2.448  12.958
14583SOL    HW255378   1.368   2.490  12.982
14584SOL     OW55379   1.166   0.897  13.474
14584SOL    HW155380   1.196   0.986  13.491
14584SOL    HW255381   1.232   0.861  13.414
14585SOL     OW55382   1.669   4.125  12.982
14585SOL    HW155383   1.715   4.099  13.062
14585SOL    HW255384   1.577   4.130  13.007
14586SOL     OW55385   1.289   3.499  14.508
14586SOL    HW155386   1.275   3.489  14.414
14586SOL    HW255387   1.283   3.593  14.524
14587SOL     OW55388   0.884   3.134  13.017
14587SOL    HW155389   0.894   3.206  13.079
14587SOL    HW255390   0.971   3.123  12.978
14588SOL     OW55391   2.808   2.679  15.420
14588SOL    HW155392   2.793   2.610  15.484
14588SOL    HW255393   2.724   2.723  15.413
14589SOL     OW55394   2.267   3.678  12.587
14589SOL    HW155395   2.271   3.710  12.677
14589SOL    HW255396   2.175   3.686  12.562
14590SOL     OW55397   0.815   2.470  13.714
14590SOL    HW155398   0.780   2.432  13.794
14590SOL    HW255399   0.885   2.411  13.687
14591SOL     OW55400   1.387   0.599  14.573
14591SOL    HW155401   1.370   0.671  14.634
14591SOL    HW255402   1.451   0.544  14.618
14592SOL     OW55403   2.417   3.635  14.513
14592SOL    HW155404   2.330   3.652  14.548
14592SOL    HW255405   2.417   3.674  14.426
14593SOL     OW55406   1.519   4.230  13.405
14593SOL    HW155407   1.444   4.179  13.437
14593SOL    HW255408   1.577   4.165  13.366
14594SOL     OW55409   0.923   4.199  13.738
14594SOL    HW155410   0.841   4.165  13.773
14594SOL    HW255411   0.896   4.254  13.664
14595SOL     OW55412   1.058   4.284  14.371
14595SOL    HW155413   0.988   4.331  14.416
14595SOL    HW255414   1.138   4.314  14.414
14596SOL     OW55415   1.124   4.499  13.567
14596SOL    HW155416   1.129   4.573  13.628
14596SOL    HW255417   1.214   4.467  13.562
14597SOL     OW55418   1.090   3.747  14.344
14597SOL    HW155419   1.049   3.833  14.353
14597SOL    HW255420   1.157   3.758  14.276
14598SOL     OW55421   2.063   2.851  11.477
14598SOL    HW155422   2.079   2.771  11.527
14598SOL    HW255423   2.130   2.851  11.409
14599SOL     OW55424   0.974   3.179  13.618
14599SOL    HW155425   1.001   3.270  13.605
14599SOL    HW255426   0.951   3.174  13.711
14600SOL     OW55427   1.824   3.442  13.918
14600SOL    HW155428   1.867   3.527  13.929
14600SOL    HW255429   1.877   3.397  13.852
14601SOL     OW55430   2.321   2.487  11.864
14601SOL    HW155431   2.260   2.541  11.914
14601SOL    HW255432   2.402   2.488  11.915
14602SOL     OW55433   1.358   4.570  13.206
14602SOL    HW155434   1.411   4.498  13.173
14602SOL    HW255435   1.402   4.649  13.176
14603SOL     OW55436   1.940   0.622  13.590
14603SOL    HW155437   1.881   0.687  13.627
14603SOL    HW255438   1.882   0.553  13.557
14604SOL     OW55439   0.809   3.881  15.898
14604SOL    HW155440   0.833   3.970  15.925
14604SOL    HW255441   0.745   3.894  15.828
14605SOL     OW55442   3.889   0.002  14.490
14605SOL    HW155443   3.798   0.014  14.517
14605SOL    HW255444   3.891   0.027  14.398
14606SOL     OW55445   1.950   4.508  15.140
14606SOL    HW155446   1.980   4.436  15.195
14606SOL    HW255447   2.000   4.499  15.059
14607SOL     OW55448   0.803   3.999  15.368
14607SOL    HW155449   0.728   3.940  15.363
14607SOL    HW255450   0.805   4.043  15.283
14608SOL     OW55451   0.197   0.268  15.463
14608SOL    HW155452   0.204   0.333  15.393
14608SOL    HW255453   0.139   0.201  15.428
14609SOL     OW55454   1.834   3.887  16.030
14609SOL    HW155455   1.838   3.888  15.934
14609SOL    HW255456   1.756   3.835  16.050
14610SOL     OW55457   1.301   0.167  16.294
14610SOL    HW155458   1.220   0.139  16.338
14610SOL    HW255459   1.311   0.259  16.319
14611SOL     OW55460   0.402   0.635  15.657
14611SOL    HW155461   0.347   0.557  15.668
14611SOL    HW255462   0.344   0.699  15.615
14612SOL     OW55463   3.513   0.850  16.328
14612SOL    HW155464   3.512   0.892  16.242
14612SOL    HW255465   3.470   0.913  16.386
14613SOL     OW55466   1.065   0.050  15.271
14613SOL    HW155467   0.996   0.108  15.240
14613SOL    HW255468   1.072   4.763  15.204
14614SOL     OW55469   0.249   1.108  15.596
14614SOL    HW155470   0.171   1.127  15.543
14614SOL    HW255471   0.261   1.013  15.588
14615SOL     OW55472   4.287   3.879  17.497
14615SOL    HW155473   4.314   3.900  17.586
14615SOL    HW255474   4.352   3.922  17.441
14616SOL     OW55475   1.497   4.296  17.035
14616SOL    HW155476   1.408   4.332  17.035
14616SOL    HW255477   1.501   4.241  16.957
14617SOL     OW55478   1.828   3.813  15.522
14617SOL    HW155479   1.828   3.726  15.481
14617SOL    HW255480   1.919   3.841  15.518
14618SOL     OW55481   3.281   4.523  16.806
14618SOL    HW155482   3.289   4.542  16.712
14618SOL    HW255483   3.213   4.583  16.836
14619SOL     OW55484   1.471   3.545  15.622
14619SOL    HW155485   1.420   3.529  15.701
14619SOL    HW255486   1.557   3.508  15.641
14620SOL     OW55487   2.182   3.704  15.171
14620SOL    HW155488   2.195   3.796  15.147
14620SOL    HW255489   2.255   3.658  15.129
14621SOL     OW55490   1.109   1.672  15.408
14621SOL    HW155491   1.021   1.645  15.382
14621SOL    HW255492   1.119   1.759  15.370
14622SOL     OW55493   0.953   3.940  15.590
14622SOL    HW155494   0.909   3.988  15.520
14622SOL    HW255495   1.038   3.983  15.598
14623SOL     OW55496   2.527   2.745  15.441
14623SOL    HW155497   2.443   2.705  15.465
14623SOL    HW255498   2.506   2.798  15.364
14624SOL     OW55499   0.197   0.939  16.242
14624SOL    HW155500   0.265   0.972  16.184
14624SOL    HW255501   0.124   1.000  16.231
14625SOL     OW55502   0.451   0.027  15.454
14625SOL    HW155503   0.422   0.005  15.366
14625SOL    HW255504   0.378   0.075  15.492
14626SOL     OW55505   0.240   4.091  15.666
14626SOL    HW155506   0.212   4.096  15.575
14626SOL    HW255507   0.267   4.000  15.677
14627SOL     OW55508   1.532   3.723  15.419
14627SOL    HW155509   1.597   3.671  15.372
14627SOL    HW255510   1.520   3.676  15.502
14628SOL     OW55511   2.094   1.465  16.826
14628SOL    HW155512   2.131   1.388  16.870
14628SOL    HW255513   2.074   1.434  16.737
14629SOL     OW55514   0.893   0.607  15.974
14629SOL    HW155515   0.966   0.658  15.939
14629SOL    HW255516   0.889   0.529  15.918
14630SOL     OW55517   0.949   0.121  15.929
14630SOL    HW155518   0.908   0.125  15.842
14630SOL    HW255519   1.041   0.142  15.913
14631SOL     OW55520   1.149   4.376  15.020
14631SOL    HW155521   1.244   4.371  15.027
14631SOL    HW255522   1.126   4.303  14.963
14632SOL     OW55523   1.736   3.982  16.758
14632SOL    HW155524   1.721   4.035  16.680
14632SOL    HW255525   1.660   3.924  16.763
14633SOL     OW55526   2.327   0.237  17.253
14633SOL    HW155527   2.410   0.258  17.210
14633SOL    HW255528   2.294   0.161  17.205
14634SOL     OW55529   0.643   4.073  17.444
14634SOL    HW155530   0.640   4.145  17.507
14634SOL    HW255531   0.575   4.094  17.380
14635SOL     OW55532   1.048   4.404  15.974
14635SOL    HW155533   0.965   4.447  15.995
14635SOL    HW255534   1.053   4.406  15.878
14636SOL     OW55535   2.196   3.981  15.163
14636SOL    HW155536   2.254   4.006  15.235
14636SOL    HW255537   2.124   4.044  15.168
14637SOL     OW55538   0.840   0.529  16.242
14637SOL    HW155539   0.822   0.542  16.149
14637SOL    HW255540   0.878   0.441  16.247
14638SOL     OW55541   0.130   0.054  15.031
14638SOL    HW155542   0.134   4.741  15.050
14638SOL    HW255543   0.037   0.075  15.034
14639SOL     OW55544   1.405   3.909  16.510
14639SOL    HW155545   1.501   3.909  16.505
14639SOL    HW255546   1.376   3.946  16.426
14640SOL     OW55547   1.529   4.532  14.757
14640SOL    HW155548   1.608   4.585  14.771
14640SOL    HW255549   1.495   4.562  14.673
14641SOL     OW55550   1.543   0.065  15.713
14641SOL    HW155551   1.455   0.044  15.743
14641SOL    HW255552   1.600   0.008  15.765
14642SOL     OW55553   4.316   4.095  23.744
14642SOL    HW155554   4.397   4.047  23.726
14642SOL    HW255555   4.287   4.126  23.658
14643SOL     OW55556   3.216   1.498   2.814
14643SOL    HW155557   3.202   1.574   2.758
14643SOL    HW255558   3.268   1.531   2.887
14644SOL     OW55559   2.102   4.677  17.907
14644SOL    HW155560   2.073   4.586  17.914
14644SOL    HW255561   2.168   4.676  17.838
14645SOL     OW55562   2.357   4.720  16.794
14645SOL    HW155563   2.391   0.016  16.839
14645SOL    HW255564   2.422   4.652  16.810
14646SOL     OW55565   0.218   0.298  17.860
14646SOL    HW155566   0.179   0.302  17.773
14646SOL    HW255567   0.300   0.251  17.847
14647SOL     OW55568   1.243   3.996  17.046
14647SOL    HW155569   1.210   3.965  17.131
14647SOL    HW255570   1.164   4.012  16.994
14648SOL     OW55571   4.205   3.640  17.375
14648SOL    HW155572   4.247   3.709  17.426
14648SOL    HW255573   4.113   3.666  17.372
14649SOL     OW55574   1.630   3.749  16.188
14649SOL    HW155575   1.540   3.717  16.197
14649SOL    HW255576   1.679   3.701  16.255
14650SOL     OW55577   1.232   2.705  17.799
14650SOL    HW155578   1.163   2.640  17.787
14650SOL    HW255579   1.186   2.789  17.803
14651SOL     OW55580   1.950   4.109  16.892
14651SOL    HW155581   1.870   4.097  16.840
14651SOL    HW255582   2.019   4.068  16.840
14652SOL     OW55583   2.191   3.600  17.235
14652SOL    HW155584   2.280   3.614  17.268
14652SOL    HW255585   2.198   3.615  17.141
14653SOL     OW55586   1.146   0.193  18.359
14653SOL    HW155587   1.234   0.221  18.334
14653SOL    HW255588   1.088   0.260  18.323
14654SOL     OW55589   0.890   2.824  17.137
14654SOL    HW155590   0.802   2.861  17.131
14654SOL    HW255591   0.909   2.793  17.048
14655SOL     OW55592   0.900   4.602  18.528
14655SOL    HW155593   0.846   4.591  18.606
14655SOL    HW255594   0.954   4.679  18.547
14656SOL     OW55595   0.802   4.458  17.149
14656SOL    HW155596   0.738   4.527  17.131
14656SOL    HW255597   0.865   4.499  17.209
14657SOL     OW55598   4.736   3.530  17.877
14657SOL    HW155599   0.045   3.561  17.867
14657SOL    HW255600   4.684   3.589  17.823
14658SOL     OW55601   0.389   3.597  17.648
14658SOL    HW155602   0.330   3.593  17.573
14658SOL    HW255603   0.459   3.657  17.621
14659SOL     OW55604   4.050   3.307  24.622
14659SOL    HW155605   4.123   3.250  24.596
14659SOL    HW255606   3.982   3.291  24.557
14660SOL     OW55607   0.947   4.211  22.972
14660SOL    HW155608   0.879   4.210  23.039
14660SOL    HW255609   0.928   4.134  22.918
14661SOL     OW55610   1.325   0.921  17.937
14661SOL    HW155611   1.246   0.883  17.898
14661SOL    HW255612   1.397   0.875  17.895
14662SOL     OW55613   0.608   2.595  18.984
14662SOL    HW155614   0.582   2.534  19.053
14662SOL    HW255615   0.687   2.556  18.946
14663SOL     OW55616   0.272   1.013  16.683
14663SOL    HW155617   0.295   1.025  16.775
14663SOL    HW255618   0.233   1.097  16.657
14664SOL     OW55619   2.773   2.959  18.506
14664SOL    HW155620   2.697   3.008  18.536
14664SOL    HW255621   2.823   3.022  18.454
14665SOL     OW55622   1.589   2.679  20.531
14665SOL    HW155623   1.676   2.676  20.491
14665SOL    HW255624   1.536   2.619  20.478
14666SOL     OW55625   1.606   4.351  17.293
14666SOL    HW155626   1.558   4.342  17.211
14666SOL    HW255627   1.698   4.337  17.269
14667SOL     OW55628   1.403   2.218  18.286
14667SOL    HW155629   1.363   2.214  18.199
14667SOL    HW255630   1.409   2.312  18.305
14668SOL     OW55631   3.122   3.201   5.094
14668SOL    HW155632   3.137   3.289   5.130
14668SOL    HW255633   3.209   3.171   5.067
14669SOL     OW55634   3.724   4.218  16.794
14669SOL    HW155635   3.771   4.138  16.819
14669SOL    HW255636   3.642   4.214  16.844
14670SOL     OW55637   4.651   4.440   9.353
14670SOL    HW155638   4.563   4.470   9.375
14670SOL    HW255639   4.678   4.498   9.282
14671SOL     OW55640   1.612   3.547  16.648
14671SOL    HW155641   1.673   3.528  16.577
14671SOL    HW255642   1.540   3.485  16.635
14672SOL     OW55643   0.043   0.737   5.749
14672SOL    HW155644   4.737   0.732   5.708
14672SOL    HW255645   0.074   0.825   5.730
14673SOL     OW55646   2.429   4.242  18.448
14673SOL    HW155647   2.498   4.220  18.386
14673SOL    HW255648   2.392   4.157  18.473
14674SOL     OW55649   0.703   0.290  17.283
14674SOL    HW155650   0.636   0.240  17.236
14674SOL    HW255651   0.654   0.343  17.345
14675SOL     OW55652   2.481   3.627  17.297
14675SOL    HW155653   2.560   3.586  17.333
14675SOL    HW255654   2.512   3.680  17.223
14676SOL     OW55655   3.337   4.055  17.760
14676SOL    HW155656   3.301   4.039  17.673
14676SOL    HW255657   3.338   3.969  17.802
14677SOL     OW55658   0.729   0.316  16.943
14677SOL    HW155659   0.823   0.323  16.961
14677SOL    HW255660   0.694   0.403  16.963
14678SOL     OW55661   4.632   0.468  17.111
14678SOL    HW155662   4.634   0.514  17.027
14678SOL    HW255663   4.681   0.387  17.095
14679SOL     OW55664   2.864   1.891  25.945
14679SOL    HW155665   2.940   1.948  25.943
14679SOL    HW255666   2.835   1.892  26.036
14680SOL     OW55667   2.254   4.137   6.387
14680SOL    HW155668   2.184   4.200   6.369
14680SOL    HW255669   2.268   4.091   6.304
14681SOL     OW55670   4.532   2.724  26.529
14681SOL    HW155671   4.560   2.798  26.583
14681SOL    HW255672   4.530   2.649  26.589
14682SOL     OW55673   1.731   3.432  16.133
14682SOL    HW155674   1.734   3.495  16.061
14682SOL    HW255675   1.687   3.479  16.204
14683SOL     OW55676   2.931   0.889  16.932
14683SOL    HW155677   2.932   0.853  16.843
14683SOL    HW255678   2.842   0.923  16.943
14684SOL     OW55679   2.939   1.641   2.561
14684SOL    HW155680   2.915   1.548   2.566
14684SOL    HW255681   2.867   1.686   2.605
14685SOL     OW55682   1.312   4.007  16.279
14685SOL    HW155683   1.229   3.991  16.234
14685SOL    HW255684   1.339   4.094  16.248
14686SOL     OW55685   1.565   0.541  17.668
14686SOL    HW155686   1.514   0.464  17.643
14686SOL    HW255687   1.656   0.514  17.655
14687SOL     OW55688   3.991   4.530   1.138
14687SOL    HW155689   3.954   4.504   1.053
14687SOL    HW255690   4.077   4.488   1.140
14688SOL     OW55691   1.074   1.778  24.071
14688SOL    HW155692   1.088   1.872  24.063
14688SOL    HW255693   1.103   1.757  24.160
14689SOL     OW55694   3.833   0.045  24.277
14689SOL    HW155695   3.781   4.773  24.216
14689SOL    HW255696   3.851   0.126  24.229
14690SOL     OW55697   3.028   4.633  10.249
14690SOL    HW155698   2.974   4.557  10.272
14690SOL    HW255699   3.042   4.624  10.155
14691SOL     OW55700   0.326   3.995   2.925
14691SOL    HW155701   0.387   3.959   2.989
14691SOL    HW255702   0.368   4.075   2.894
14692SOL     OW55703   2.078   0.088   1.403
14692SOL    HW155704   2.061   0.067   1.495
14692SOL    HW255705   2.071   0.183   1.398
14693SOL     OW55706   1.083   3.981   1.188
14693SOL    HW155707   1.002   3.963   1.141
14693SOL    HW255708   1.150   3.933   1.140
14694SOL     OW55709   2.489   4.100  11.374
14694SOL    HW155710   2.585   4.098  11.377
14694SOL    HW255711   2.468   4.192  11.357
14695SOL     OW55712   1.061   3.663  15.654
14695SOL    HW155713   1.127   3.671  15.585
14695SOL    HW255714   1.011   3.744  15.648
14696SOL     OW55715   0.602   1.412  28.013
14696SOL    HW155716   0.636   1.405  27.924
14696SOL    HW255717   0.680   1.414  28.068
14697SOL     OW55718   2.272   1.398  19.156
14697SOL    HW155719   2.229   1.452  19.222
14697SOL    HW255720   2.364   1.424  19.161
14698SOL     OW55721   2.373   3.209   1.542
14698SOL    HW155722   2.428   3.275   1.584
14698SOL    HW255723   2.301   3.259   1.504
14699SOL     OW55724   1.477   3.531  19.201
14699SOL    HW155725   1.492   3.491  19.116
14699SOL    HW255726   1.395   3.492  19.232
14700SOL     OW55727   0.761   2.776   7.429
14700SOL    HW155728   0.791   2.860   7.393
14700SOL    HW255729   0.741   2.795   7.521
14701SOL     OW55730   1.902   1.032  24.764
14701SOL    HW155731   1.916   1.104  24.703
14701SOL    HW255732   1.952   1.057  24.842
14702SOL     OW55733   2.253   2.292   5.367
14702SOL    HW155734   2.213   2.264   5.449
14702SOL    HW255735   2.256   2.388   5.373
14703SOL     OW55736   0.698   0.019  28.165
14703SOL    HW155737   0.646   0.080  28.218
14703SOL    HW255738   0.786   0.022  28.203
14704SOL     OW55739   4.038   0.893  25.909
14704SOL    HW155740   3.959   0.928  25.951
14704SOL    HW255741   4.080   0.840  25.977
14705SOL     OW55742   4.464   4.191  27.716
14705SOL    HW155743   4.433   4.103  27.696
14705SOL    HW255744   4.552   4.194  27.678
14706SOL     OW55745   3.609   3.832  21.153
14706SOL    HW155746   3.531   3.888  21.154
14706SOL    HW255747   3.616   3.800  21.243
14707SOL     OW55748   2.414   3.647   0.145
14707SOL    HW155749   2.482   3.658   0.212
14707SOL    HW255750   2.374   3.562   0.166
14708SOL     OW55751   2.352   4.132  17.095
14708SOL    HW155752   2.274   4.175  17.061
14708SOL    HW255753   2.345   4.042  17.064
14709SOL     OW55754   3.436   3.632  24.549
14709SOL    HW155755   3.465   3.639  24.640
14709SOL    HW255756   3.517   3.625  24.499
14710SOL     OW55757   4.408   2.135   1.092
14710SOL    HW155758   4.396   2.069   1.024
14710SOL    HW255759   4.472   2.196   1.055
14711SOL     OW55760   4.532   3.791  27.656
14711SOL    HW155761   4.458   3.734  27.634
14711SOL    HW255762   4.604   3.731  27.677
14712SOL     OW55763   4.339   0.795  17.949
14712SOL    HW155764   4.379   0.877  17.919
14712SOL    HW255765   4.314   0.750  17.868
14713SOL     OW55766   4.369   2.680  25.975
14713SOL    HW155767   4.284   2.718  25.953
14713SOL    HW255768   4.356   2.640  26.061
14714SOL     OW55769   0.726   2.387   8.972
14714SOL    HW155770   0.796   2.452   8.981
14714SOL    HW255771   0.677   2.393   9.054
14715SOL     OW55772   0.260   2.402  25.750
14715SOL    HW155773   0.244   2.493  25.773
14715SOL    HW255774   0.261   2.356  25.834
14716SOL     OW55775   3.979   0.774   7.002
14716SOL    HW155776   3.999   0.684   7.029
14716SOL    HW255777   4.043   0.792   6.933
14717SOL     OW55778   0.871   4.777  16.148
14717SOL    HW155779   0.899   0.031  16.063
14717SOL    HW255780   0.860   4.683  16.133
14718SOL     OW55781   4.022   4.737   8.126
14718SOL    HW155782   3.999   0.022   8.061
14718SOL    HW255783   4.107   4.765   8.160
14719SOL     OW55784   2.517   0.316  22.241
14719SOL    HW155785   2.433   0.297  22.282
14719SOL    HW255786   2.545   0.233  22.203
14720SOL     OW55787   4.094   1.365   7.802
14720SOL    HW155788   4.080   1.272   7.785
14720SOL    HW255789   4.011   1.406   7.778
14721SOL     OW55790   0.255   3.448   8.788
14721SOL    HW155791   0.305   3.471   8.709
14721SOL    HW255792   0.301   3.492   8.859
14722SOL     OW55793   4.281   1.899  20.312
14722SOL    HW155794   4.361   1.906  20.261
14722SOL    HW255795   4.238   1.984  20.301
14723SOL     OW55796   3.521   3.875  16.839
14723SOL    HW155797   3.511   3.781  16.856
14723SOL    HW255798   3.597   3.881  16.781
14724SOL     OW55799   2.333   0.157  20.985
14724SOL    HW155800   2.403   0.221  20.970
14724SOL    HW255801   2.378   0.082  21.023
14725SOL     OW55802   0.340   2.372   8.977
14725SOL    HW155803   0.319   2.376   9.070
14725SOL    HW255804   0.258   2.395   8.933
14726SOL     OW55805   2.254   0.200  17.505
14726SOL    HW155806   2.276   0.233  17.418
14726SOL    HW255807   2.179   0.142  17.490
14727SOL     OW55808   0.677   3.287   6.658
14727SOL    HW155809   0.587   3.312   6.639
14727SOL    HW255810   0.684   3.197   6.625
14728SOL     OW55811   2.795   0.698   8.449
14728SOL    HW155812   2.880   0.697   8.493
14728SOL    HW255813   2.753   0.778   8.481
14729SOL     OW55814   0.127   0.478   0.889
14729SOL    HW155815   0.206   0.512   0.847
14729SOL    HW255816   0.070   0.555   0.899
14730SOL     OW55817   3.588   2.072  19.240
14730SOL    HW155818   3.497   2.101  19.242
14730SOL    HW255819   3.611   2.061  19.332
14731SOL     OW55820   2.285   3.274  21.722
14731SOL    HW155821   2.204   3.324  21.731
14731SOL    HW255822   2.351   3.339  21.699
14732SOL     OW55823   1.439   3.570   1.926
14732SOL    HW155824   1.522   3.607   1.896
14732SOL    HW255825   1.443   3.578   2.021
14733SOL     OW55826   3.480   0.594  26.791
14733SOL    HW155827   3.430   0.513  26.800
14733SOL    HW255828   3.454   0.629  26.706
14734SOL     OW55829   2.045   3.282  22.581
14734SOL    HW155830   2.062   3.312  22.670
14734SOL    HW255831   2.015   3.192  22.591
14735SOL     OW55832   0.361   4.632  19.870
14735SOL    HW155833   0.284   4.645  19.815
14735SOL    HW255834   0.327   4.624  19.959
14736SOL     OW55835   0.410   0.960  25.268
14736SOL    HW155836   0.365   0.898  25.326
14736SOL    HW255837   0.363   0.953  25.185
14737SOL     OW55838   0.912   1.236  26.628
14737SOL    HW155839   0.937   1.227  26.536
14737SOL    HW255840   0.956   1.316  26.657
14738SOL     OW55841   1.453   3.151   0.288
14738SOL    HW155842   1.373   3.171   0.239
14738SOL    HW255843   1.436   3.186   0.376
14739SOL     OW55844   2.019   3.318   8.742
14739SOL    HW155845   2.115   3.316   8.737
14739SOL    HW255846   1.990   3.253   8.677
14740SOL     OW55847   3.755   0.860   3.910
14740SOL    HW155848   3.750   0.766   3.896
14740SOL    HW255849   3.768   0.897   3.823
14741SOL     OW55850   3.738   1.106  23.707
14741SOL    HW155851   3.748   1.201  23.701
14741SOL    HW255852   3.788   1.082  23.785
14742SOL     OW55853   2.273   0.421   3.758
14742SOL    HW155854   2.195   0.434   3.812
14742SOL    HW255855   2.328   0.497   3.777
14743SOL     OW55856   2.982   3.251  22.596
14743SOL    HW155857   2.932   3.285  22.670
14743SOL    HW255858   3.060   3.212  22.635
14744SOL     OW55859   2.375   3.459   4.499
14744SOL    HW155860   2.401   3.369   4.481
14744SOL    HW255861   2.299   3.474   4.443
14745SOL     OW55862   4.682   1.586   3.297
14745SOL    HW155863   4.622   1.628   3.235
14745SOL    HW255864   4.659   1.623   3.382
14746SOL     OW55865   2.941   3.069   5.334
14746SOL    HW155866   3.016   3.119   5.366
14746SOL    HW255867   2.930   2.998   5.398
14747SOL     OW55868   4.615   1.144  24.904
14747SOL    HW155869   4.529   1.182  24.921
14747SOL    HW255870   4.601   1.049  24.907
14748SOL     OW55871   1.611   3.292  26.574
14748SOL    HW155872   1.618   3.220  26.512
14748SOL    HW255873   1.677   3.273  26.641
14749SOL     OW55874   2.734   0.499  21.912
14749SOL    HW155875   2.671   0.560  21.952
14749SOL    HW255876   2.780   0.460  21.986
14750SOL     OW55877   0.952   2.235   7.898
14750SOL    HW155878   1.044   2.249   7.921
14750SOL    HW255879   0.937   2.290   7.821
14751SOL     OW55880   3.519   1.430   3.198
14751SOL    HW155881   3.595   1.382   3.166
14751SOL    HW255882   3.454   1.362   3.217
14752SOL     OW55883   1.252   1.109   1.338
14752SOL    HW155884   1.242   1.148   1.251
14752SOL    HW255885   1.163   1.088   1.366
14753SOL     OW55886   1.044   3.126   3.668
14753SOL    HW155887   1.093   3.206   3.648
14753SOL    HW255888   1.052   3.117   3.763
14754SOL     OW55889   4.140   2.468   9.252
14754SOL    HW155890   4.119   2.375   9.241
14754SOL    HW255891   4.061   2.506   9.290
14755SOL     OW55892   2.642   0.050   0.506
14755SOL    HW155893   2.683   4.755   0.548
14755SOL    HW255894   2.697   0.068   0.430
14756SOL     OW55895   3.413   4.053  24.392
14756SOL    HW155896   3.370   4.019  24.471
14756SOL    HW255897   3.356   4.025  24.320
14757SOL     OW55898   1.201   0.787   8.744
14757SOL    HW155899   1.115   0.829   8.736
14757SOL    HW255900   1.186   0.696   8.717
14758SOL     OW55901   4.371   2.637  21.955
14758SOL    HW155902   4.420   2.572  21.904
14758SOL    HW255903   4.358   2.710  21.894
14759SOL     OW55904   4.298   2.120   3.245
14759SOL    HW155905   4.318   2.211   3.221
14759SOL    HW255906   4.263   2.126   3.334
14760SOL     OW55907   1.581   3.167  25.927
14760SOL    HW155908   1.646   3.191  25.861
14760SOL    HW255909   1.626   3.179  26.011
14761SOL     OW55910   3.001   2.434  24.296
14761SOL    HW155911   2.915   2.442  24.337
14761SOL    HW255912   3.053   2.384  24.359
14762SOL     OW55913   2.167   2.806  27.934
14762SOL    HW155914   2.072   2.806  27.946
14762SOL    HW255915   2.181   2.852  27.851
14763SOL     OW55916   1.781   3.999   9.634
14763SOL    HW155917   1.718   3.994   9.563
14763SOL    HW255918   1.803   4.092   9.641
14764SOL     OW55919   1.528   0.850  22.199
14764SOL    HW155920   1.475   0.925  22.172
14764SOL    HW255921   1.517   0.845  22.294
14765SOL     OW55922   1.576   2.023   1.111
14765SOL    HW155923   1.521   2.098   1.089
14765SOL    HW255924   1.559   2.006   1.204
14766SOL     OW55925   4.205   4.470  21.293
14766SOL    HW155926   4.143   4.542  21.304
14766SOL    HW255927   4.186   4.411  21.366
14767SOL     OW55928   3.488   2.647  21.580
14767SOL    HW155929   3.524   2.606  21.501
14767SOL    HW255930   3.498   2.581  21.649
14768SOL     OW55931   0.216   1.969   7.003
14768SOL    HW155932   0.247   2.044   7.054
14768SOL    HW255933   0.279   1.900   7.023
14769SOL     OW55934   2.469   4.538   0.240
14769SOL    HW155935   2.526   4.470   0.203
14769SOL    HW255936   2.454   4.510   0.330
14770SOL     OW55937   4.438   0.714  26.232
14770SOL    HW155938   4.515   0.697  26.178
14770SOL    HW255939   4.365   0.680  26.180
14771SOL     OW55940   0.282   1.231   0.173
14771SOL    HW155941   0.276   1.199   0.263
14771SOL    HW255942   0.376   1.238   0.157
14772SOL     OW55943   2.217   4.448   9.955
14772SOL    HW155944   2.194   4.494  10.036
14772SOL    HW255945   2.137   4.450   9.903
14773SOL     OW55946   3.942   1.854   1.561
14773SOL    HW155947   4.015   1.915   1.571
14773SOL    HW255948   3.984   1.768   1.555
14774SOL     OW55949   4.742   4.405   5.812
14774SOL    HW155950   0.003   4.435   5.731
14774SOL    HW255951   4.728   4.485   5.863
14775SOL     OW55952   4.408   1.153  25.329
14775SOL    HW155953   4.355   1.191  25.259
14775SOL    HW255954   4.382   1.061  25.331
14776SOL     OW55955   4.433   1.072  26.024
14776SOL    HW155956   4.395   1.010  25.961
14776SOL    HW255957   4.381   1.151  26.014
14777SOL     OW55958   0.567   0.739   5.088
14777SOL    HW155959   0.659   0.765   5.089
14777SOL    HW255960   0.552   0.709   4.998
14778SOL     OW55961   3.325   2.272   0.557
14778SOL    HW155962   3.283   2.187   0.566
14778SOL    HW255963   3.312   2.315   0.642
14779SOL     OW55964   2.386   1.697   4.703
14779SOL    HW155965   2.401   1.640   4.779
14779SOL    HW255966   2.295   1.682   4.679
14780SOL     OW55967   1.853   3.729   9.701
14780SOL    HW155968   1.877   3.709   9.791
14780SOL    HW255969   1.845   3.824   9.699
14781SOL     OW55970   0.356   0.419   2.694
14781SOL    HW155971   0.416   0.347   2.674
14781SOL    HW255972   0.403   0.473   2.757
14782SOL     OW55973   1.835   4.763  17.945
14782SOL    HW155974   1.930   4.760  17.936
14782SOL    HW255975   1.820   0.018  18.032
14783SOL     OW55976   3.078   2.185   3.387
14783SOL    HW155977   3.130   2.111   3.355
14783SOL    HW255978   2.988   2.165   3.360
14784SOL     OW55979   3.913   3.378   8.301
14784SOL    HW155980   3.984   3.333   8.255
14784SOL    HW255981   3.862   3.307   8.341
14785SOL     OW55982   1.353   1.691  27.508
14785SOL    HW155983   1.436   1.655  27.476
14785SOL    HW255984   1.375   1.732  27.591
14786SOL     OW55985   4.074   1.445   3.232
14786SOL    HW155986   4.001   1.393   3.200
14786SOL    HW255987   4.049   1.536   3.213
14787SOL     OW55988   0.387   1.253  27.205
14787SOL    HW155989   0.441   1.332  27.205
14787SOL    HW255990   0.313   1.274  27.148
14788SOL     OW55991   1.308   1.244  19.510
14788SOL    HW155992   1.378   1.190  19.472
14788SOL    HW255993   1.347   1.331  19.519
14789SOL     OW55994   3.336   3.997   6.280
14789SOL    HW155995   3.276   4.024   6.349
14789SOL    HW255996   3.312   4.050   6.204
14790SOL     OW55997   4.225   0.014  20.841
14790SOL    HW155998   4.284   4.727  20.808
14790SOL    HW255999   4.143   4.780  20.793
14791SOL     OW56000   4.272   2.751  17.561
14791SOL    HW156001   4.193   2.742  17.507
14791SOL    HW256002   4.246   2.717  17.647
14792SOL     OW56003   0.172   1.377  27.429
14792SOL    HW156004   0.241   1.401  27.367
14792SOL    HW256005   0.133   1.298  27.393
14793SOL     OW56006   1.816   3.648   8.562
14793SOL    HW156007   1.849   3.686   8.480
14793SOL    HW256008   1.852   3.704   8.630
14794SOL     OW56009   0.574   4.513  24.047
14794SOL    HW156010   0.600   4.421  24.043
14794SOL    HW256011   0.574   4.542  23.956
14795SOL     OW56012   2.536   3.051  23.453
14795SOL    HW156013   2.469   3.069  23.388
14795SOL    HW256014   2.537   2.956  23.461
14796SOL     OW56015   3.043   0.786  21.142
14796SOL    HW156016   3.090   0.842  21.203
14796SOL    HW256017   2.951   0.809  21.154
14797SOL     OW56018   2.914   3.513  22.110
14797SOL    HW156019   2.935   3.421  22.096
14797SOL    HW256020   2.854   3.513  22.184
14798SOL     OW56021   3.054   1.034  27.129
14798SOL    HW156022   3.060   1.121  27.168
14798SOL    HW256023   3.016   1.049  27.043
14799SOL     OW56024   4.327   1.073   0.235
14799SOL    HW156025   4.282   1.097   0.316
14799SOL    HW256026   4.335   1.155   0.186
14800SOL     OW56027   4.686   3.463  22.279
14800SOL    HW156028   4.648   3.384  22.241
14800SOL    HW256029   4.649   3.535  22.227
14801SOL     OW56030   3.822   1.847   5.822
14801SOL    HW156031   3.905   1.837   5.775
14801SOL    HW256032   3.802   1.759   5.854
14802SOL     OW56033   3.737   4.435   2.680
14802SOL    HW156034   3.727   4.394   2.594
14802SOL    HW256035   3.649   4.437   2.717
14803SOL     OW56036   1.702   1.268   7.837
14803SOL    HW156037   1.778   1.212   7.854
14803SOL    HW256038   1.730   1.325   7.765
14804SOL     OW56039   1.951   3.108  26.795
14804SOL    HW156040   1.886   3.049  26.833
14804SOL    HW256041   1.914   3.195  26.807
14805SOL     OW56042   3.383   1.369   7.707
14805SOL    HW156043   3.425   1.290   7.673
14805SOL    HW256044   3.339   1.408   7.631
14806SOL     OW56045   0.332   1.535   2.080
14806SOL    HW156046   0.278   1.504   2.153
14806SOL    HW256047   0.418   1.496   2.095
14807SOL     OW56048   3.598   3.094   2.667
14807SOL    HW156049   3.573   3.019   2.722
14807SOL    HW256050   3.689   3.111   2.690
14808SOL     OW56051   4.314   1.564  11.126
14808SOL    HW156052   4.374   1.574  11.052
14808SOL    HW256053   4.365   1.592  11.202
14809SOL     OW56054   2.589   3.005  20.803
14809SOL    HW156055   2.514   2.990  20.746
14809SOL    HW256056   2.575   2.947  20.878
14810SOL     OW56057   2.878   0.979  23.019
14810SOL    HW156058   2.906   1.032  22.944
14810SOL    HW256059   2.828   0.907  22.980
14811SOL     OW56060   3.900   1.264   5.112
14811SOL    HW156061   3.870   1.241   5.200
14811SOL    HW256062   3.854   1.204   5.054
14812SOL     OW56063   4.234   2.757  27.349
14812SOL    HW156064   4.293   2.755  27.425
14812SOL    HW256065   4.242   2.846  27.314
14813SOL     OW56066   0.556   4.379   5.332
14813SOL    HW156067   0.622   4.380   5.401
14813SOL    HW256068   0.497   4.308   5.356
14814SOL     OW56069   1.772   2.835   9.337
14814SOL    HW156070   1.718   2.762   9.368
14814SOL    HW256071   1.828   2.857   9.411
14815SOL     OW56072   3.449   0.704   5.776
14815SOL    HW156073   3.473   0.614   5.752
14815SOL    HW256074   3.356   0.699   5.798
14816SOL     OW56075   3.213   0.146  21.300
14816SOL    HW156076   3.210   0.234  21.338
14816SOL    HW256077   3.200   0.087  21.374
14817SOL     OW56078   3.657   3.448  24.222
14817SOL    HW156079   3.654   3.522  24.283
14817SOL    HW256080   3.720   3.475  24.155
14818SOL     OW56081   1.984   2.105   3.689
14818SOL    HW156082   1.925   2.040   3.726
14818SOL    HW256083   1.992   2.080   3.597
14819SOL     OW56084   1.635   0.258   5.592
14819SOL    HW156085   1.627   0.179   5.645
14819SOL    HW256086   1.620   0.229   5.502
14820SOL     OW56087   4.421   0.461   8.760
14820SOL    HW156088   4.408   0.530   8.825
14820SOL    HW256089   4.515   0.441   8.765
14821SOL     OW56090   3.938   0.058  27.803
14821SOL    HW156091   3.873   0.027  27.866
14821SOL    HW256092   4.019   0.066  27.854
14822SOL     OW56093   2.068   0.455  20.797
14822SOL    HW156094   1.982   0.414  20.795
14822SOL    HW256095   2.050   0.549  20.793
14823SOL     OW56096   3.764   2.201   8.887
14823SOL    HW156097   3.858   2.218   8.891
14823SOL    HW256098   3.742   2.214   8.795
14824SOL     OW56099   0.736   3.752   9.077
14824SOL    HW156100   0.740   3.831   9.024
14824SOL    HW256101   0.820   3.749   9.123
14825SOL     OW56102   3.182   1.846  24.949
14825SOL    HW156103   3.263   1.896  24.959
14825SOL    HW256104   3.179   1.789  25.026
14826SOL     OW56105   2.112   4.688   4.592
14826SOL    HW156106   2.199   4.668   4.627
14826SOL    HW256107   2.128   4.750   4.521
14827SOL     OW56108   4.107   2.299   2.072
14827SOL    HW156109   4.175   2.337   2.127
14827SOL    HW256110   4.036   2.363   2.074
14828SOL     OW56111   3.130   1.214  18.636
14828SOL    HW156112   3.117   1.220  18.731
14828SOL    HW256113   3.206   1.269  18.618
14829SOL     OW56114   3.923   4.544  22.201
14829SOL    HW156115   3.845   4.492  22.184
14829SOL    HW256116   3.993   4.500  22.152
14830SOL     OW56117   1.779   3.668   7.978
14830SOL    HW156118   1.750   3.715   7.900
14830SOL    HW256119   1.836   3.730   8.023
14831SOL     OW56120   2.873   0.945  19.325
14831SOL    HW156121   2.796   0.894  19.350
14831SOL    HW256122   2.938   0.926  19.393
14832SOL     OW56123   4.031   2.881   0.565
14832SOL    HW156124   4.095   2.819   0.531
14832SOL    HW256125   4.060   2.899   0.655
14833SOL     OW56126   2.005   1.799  20.073
14833SOL    HW156127   1.998   1.893  20.057
14833SOL    HW256128   2.070   1.791  20.143
14834SOL     OW56129   0.507   4.441   7.708
14834SOL    HW156130   0.435   4.389   7.672
14834SOL    HW256131   0.529   4.503   7.638
14835SOL     OW56132   4.150   2.690  19.314
14835SOL    HW156133   4.126   2.612  19.264
14835SOL    HW256134   4.109   2.762  19.267
14836SOL     OW56135   2.787   1.683   0.811
14836SOL    HW156136   2.728   1.668   0.737
14836SOL    HW256137   2.733   1.729   0.876
14837SOL     OW56138   4.647   4.444   5.031
14837SOL    HW156139   4.696   4.401   4.960
14837SOL    HW256140   4.696   4.524   5.049
14838SOL     OW56141   0.346   0.363  19.847
14838SOL    HW156142   0.361   0.321  19.762
14838SOL    HW256143   0.433   0.382  19.881
14839SOL     OW56144   4.124   2.405  25.377
14839SOL    HW156145   4.216   2.387  25.397
14839SOL    HW256146   4.076   2.332  25.416
14840SOL     OW56147   1.284   1.897  23.363
14840SOL    HW156148   1.260   1.985  23.333
14840SOL    HW256149   1.296   1.906  23.457
14841SOL     OW56150   1.224   2.951   6.283
14841SOL    HW156151   1.263   2.986   6.363
14841SOL    HW256152   1.159   2.887   6.313
14842SOL     OW56153   4.601   3.023   3.160
14842SOL    HW156154   4.602   2.931   3.185
14842SOL    HW256155   4.693   3.044   3.143
14843SOL     OW56156   2.260   3.356   6.288
14843SOL    HW156157   2.211   3.294   6.234
14843SOL    HW256158   2.260   3.316   6.375
14844SOL     OW56159   2.844   0.057   5.707
14844SOL    HW156160   2.833   0.010   5.790
14844SOL    HW256161   2.930   0.098   5.715
14845SOL     OW56162   0.967   4.669   0.651
14845SOL    HW156163   0.878   4.700   0.670
14845SOL    HW256164   1.024   4.729   0.699
14846SOL     OW56165   1.457   4.662  28.077
14846SOL    HW156166   1.435   4.608  28.153
14846SOL    HW256167   1.481   4.747  28.114
14847SOL     OW56168   4.133   0.532   6.148
14847SOL    HW156169   4.202   0.468   6.165
14847SOL    HW256170   4.053   0.480   6.143
14848SOL     OW56171   0.393   1.072   6.621
14848SOL    HW156172   0.390   0.980   6.648
14848SOL    HW256173   0.486   1.091   6.613
14849SOL     OW56174   2.958   3.115  21.729
14849SOL    HW156175   2.947   3.054  21.656
14849SOL    HW256176   2.987   3.061  21.802
14850SOL     OW56177   0.738   3.152   4.863
14850SOL    HW156178   0.687   3.233   4.867
14850SOL    HW256179   0.730   3.122   4.772
14851SOL     OW56180   2.522   1.791   3.305
14851SOL    HW156181   2.433   1.759   3.317
14851SOL    HW256182   2.561   1.787   3.392
14852SOL     OW56183   2.378   1.274   0.512
14852SOL    HW156184   2.427   1.330   0.451
14852SOL    HW256185   2.444   1.214   0.548
14853SOL     OW56186   1.283   2.833   3.779
14853SOL    HW156187   1.356   2.786   3.819
14853SOL    HW256188   1.324   2.893   3.717
14854SOL     OW56189   0.529   4.312  22.114
14854SOL    HW156190   0.494   4.295  22.201
14854SOL    HW256191   0.562   4.402  22.119
14855SOL     OW56192   0.016   2.695  23.894
14855SOL    HW156193   0.001   2.648  23.976
14855SOL    HW256194   0.049   2.628  23.834
14856SOL     OW56195   0.589   4.001  24.860
14856SOL    HW156196   0.602   3.934  24.793
14856SOL    HW256197   0.495   4.000  24.877
14857SOL     OW56198   4.160   2.692   6.737
14857SOL    HW156199   4.244   2.654   6.711
14857SOL    HW256200   4.101   2.617   6.744
14858SOL     OW56201   2.605   3.230  21.230
14858SOL    HW156202   2.618   3.210  21.323
14858SOL    HW256203   2.683   3.196  21.187
14859SOL     OW56204   1.936   1.090   2.367
14859SOL    HW156205   1.938   1.032   2.443
14859SOL    HW256206   2.002   1.157   2.387
14860SOL     OW56207   3.628   1.785   0.108
14860SOL    HW156208   3.630   1.777   0.013
14860SOL    HW256209   3.693   1.723   0.139
14861SOL     OW56210   0.068   1.444   8.927
14861SOL    HW156211   0.123   1.485   8.994
14861SOL    HW256212   0.059   1.353   8.955
14862SOL     OW56213   2.714   3.093  22.137
14862SOL    HW156214   2.781   3.117  22.201
14862SOL    HW256215   2.763   3.075  22.057
14863SOL     OW56216   4.430   4.033  10.658
14863SOL    HW156217   4.515   3.990  10.654
14863SOL    HW256218   4.369   3.969  10.622
14864SOL     OW56219   3.802   0.737  25.136
14864SOL    HW156220   3.817   0.651  25.175
14864SOL    HW256221   3.855   0.797  25.188
14865SOL     OW56222   1.793   3.738  25.940
14865SOL    HW156223   1.856   3.809  25.925
14865SOL    HW256224   1.826   3.694  26.018
14866SOL     OW56225   0.583   2.667  21.144
14866SOL    HW156226   0.587   2.744  21.088
14866SOL    HW256227   0.673   2.633  21.144
14867SOL     OW56228   3.712   2.494  20.716
14867SOL    HW156229   3.693   2.402  20.734
14867SOL    HW256230   3.713   2.500  20.620
14868SOL     OW56231   0.526   4.662   1.943
14868SOL    HW156232   0.573   4.723   1.886
14868SOL    HW256233   0.594   4.624   1.999
14869SOL     OW56234   0.873   1.942  22.578
14869SOL    HW156235   0.815   1.961  22.504
14869SOL    HW256236   0.815   1.944  22.655
14870SOL     OW56237   0.451   1.336  27.615
14870SOL    HW156238   0.369   1.384  27.614
14870SOL    HW256239   0.483   1.341  27.525
14871SOL     OW56240   2.963   3.445  27.400
14871SOL    HW156241   2.938   3.418  27.312
14871SOL    HW256242   3.059   3.444  27.399
14872SOL     OW56243   1.797   3.276   8.316
14872SOL    HW156244   1.753   3.212   8.260
14872SOL    HW256245   1.743   3.355   8.310
14873SOL     OW56246   2.266   0.440  25.613
14873SOL    HW156247   2.313   0.405  25.537
14873SOL    HW256248   2.175   0.416  25.597
14874SOL     OW56249   0.461   4.187   5.800
14874SOL    HW156250   0.401   4.113   5.807
14874SOL    HW256251   0.548   4.147   5.794
14875SOL     OW56252   2.336   4.754   8.865
14875SOL    HW156253   2.338   0.066   8.842
14875SOL    HW256254   2.395   4.712   8.803
14876SOL     OW56255   4.276   4.464  25.532
14876SOL    HW156256   4.229   4.492  25.453
14876SOL    HW256257   4.363   4.439  25.501
14877SOL     OW56258   3.383   1.230  16.885
14877SOL    HW156259   3.315   1.165  16.905
14877SOL    HW256260   3.416   1.205  16.799
14878SOL     OW56261   4.124   2.889  19.116
14878SOL    HW156262   4.211   2.883  19.156
14878SOL    HW256263   4.132   2.957  19.050
14879SOL     OW56264   0.243   0.028  23.618
14879SOL    HW156265   0.200   0.021  23.703
14879SOL    HW256266   0.334   0.002  23.635
14880SOL     OW56267   1.556   4.275  21.131
14880SOL    HW156268   1.637   4.263  21.082
14880SOL    HW256269   1.566   4.219  21.208
14881SOL     OW56270   4.171   1.841   1.792
14881SOL    HW156271   4.169   1.927   1.834
14881SOL    HW256272   4.258   1.806   1.812
14882SOL     OW56273   3.721   3.463  19.925
14882SOL    HW156274   3.716   3.373  19.958
14882SOL    HW256275   3.809   3.492  19.948
14883SOL     OW56276   1.122   2.470   8.866
14883SOL    HW156277   1.049   2.508   8.818
14883SOL    HW256278   1.148   2.538   8.929
14884SOL     OW56279   3.146   0.365  19.858
14884SOL    HW156280   3.125   0.401  19.772
14884SOL    HW256281   3.069   0.313  19.882
14885SOL     OW56282   2.818   0.444  20.608
14885SOL    HW156283   2.750   0.461  20.543
14885SOL    HW256284   2.843   0.353  20.593
14886SOL     OW56285   3.031   0.870  28.150
14886SOL    HW156286   2.994   0.891  28.236
14886SOL    HW256287   3.090   0.943  28.131
14887SOL     OW56288   3.611   0.690   8.192
14887SOL    HW156289   3.686   0.726   8.144
14887SOL    HW256290   3.650   0.646   8.267
14888SOL     OW56291   1.884   0.436   5.136
14888SOL    HW156292   1.925   0.408   5.218
14888SOL    HW256293   1.845   0.521   5.156
14889SOL     OW56294   2.956   4.083   8.565
14889SOL    HW156295   3.038   4.100   8.519
14889SOL    HW256296   2.925   3.999   8.531
14890SOL     OW56297   4.627   2.487   5.522
14890SOL    HW156298   4.649   2.566   5.472
14890SOL    HW256299   4.657   2.505   5.611
14891SOL     OW56300   3.705   0.369  22.567
14891SOL    HW156301   3.723   0.455  22.605
14891SOL    HW256302   3.692   0.311  22.642
14892SOL     OW56303   4.482   2.602   4.015
14892SOL    HW156304   4.419   2.584   4.085
14892SOL    HW256305   4.554   2.541   4.032
14893SOL     OW56306   1.223   2.037   7.727
14893SOL    HW156307   1.244   1.956   7.680
14893SOL    HW256308   1.181   2.008   7.808
14894SOL     OW56309   2.754   1.367  22.452
14894SOL    HW156310   2.688   1.418  22.405
14894SOL    HW256311   2.736   1.276  22.427
14895SOL     OW56312   3.248   0.099   7.965
14895SOL    HW156313   3.177   0.119   7.905
14895SOL    HW256314   3.269   0.007   7.948
14896SOL     OW56315   3.841   3.295   4.689
14896SOL    HW156316   3.902   3.222   4.687
14896SOL    HW256317   3.755   3.254   4.695
14897SOL     OW56318   0.294   4.608  26.018
14897SOL    HW156319   0.377   4.608  25.970
14897SOL    HW256320   0.319   4.586  26.108
14898SOL     OW56321   1.347   1.546  19.567
14898SOL    HW156322   1.286   1.551  19.493
14898SOL    HW256323   1.362   1.637  19.592
14899SOL     OW56324   4.046   2.782   7.831
14899SOL    HW156325   4.019   2.690   7.838
14899SOL    HW256326   4.096   2.786   7.750
14900SOL     OW56327   4.755   0.200  28.280
14900SOL    HW156328   4.677   0.146  28.265
14900SOL    HW256329   0.030   0.146  28.335
14901SOL     OW56330   1.310   1.132  18.505
14901SOL    HW156331   1.301   1.174  18.420
14901SOL    HW256332   1.382   1.070  18.494
14902SOL     OW56333   3.894   4.112   1.420
14902SOL    HW156334   3.935   4.195   1.446
14902SOL    HW256335   3.965   4.061   1.382
14903SOL     OW56336   0.600   1.688   1.759
14903SOL    HW156337   0.524   1.631   1.765
14903SOL    HW256338   0.567   1.775   1.783
14904SOL     OW56339   2.356   3.799  18.621
14904SOL    HW156340   2.447   3.775  18.603
14904SOL    HW256341   2.305   3.727  18.585
14905SOL     OW56342   1.933   3.526  22.470
14905SOL    HW156343   2.014   3.576  22.462
14905SOL    HW256344   1.959   3.448  22.519
14906SOL     OW56345   0.439   3.075  22.176
14906SOL    HW156346   0.363   3.019  22.160
14906SOL    HW256347   0.468   3.052  22.264
14907SOL     OW56348   2.088   3.097  24.301
14907SOL    HW156349   2.121   3.174  24.347
14907SOL    HW256350   2.003   3.125  24.266
14908SOL     OW56351   4.315   2.830  27.659
14908SOL    HW156352   4.316   2.767  27.731
14908SOL    HW256353   4.333   2.914  27.700
14909SOL     OW56354   0.818   2.310   4.167
14909SOL    HW156355   0.866   2.253   4.107
14909SOL    HW256356   0.729   2.276   4.166
14910SOL     OW56357   1.659   0.327   3.988
14910SOL    HW156358   1.603   0.398   3.957
14910SOL    HW256359   1.638   0.318   4.081
14911SOL     OW56360   1.580   0.526  25.532
14911SOL    HW156361   1.529   0.452  25.566
14911SOL    HW256362   1.669   0.492  25.521
14912SOL     OW56363   0.537   4.434   5.930
14912SOL    HW156364   0.536   4.346   5.893
14912SOL    HW256365   0.464   4.435   5.992
14913SOL     OW56366   1.434   1.929  20.526
14913SOL    HW156367   1.454   1.957  20.615
14913SOL    HW256368   1.345   1.895  20.531
14914SOL     OW56369   0.284   1.774   9.684
14914SOL    HW156370   0.360   1.777   9.625
14914SOL    HW256371   0.320   1.745   9.768
14915SOL     OW56372   0.329   3.089   4.723
14915SOL    HW156373   0.337   2.994   4.726
14915SOL    HW256374   0.273   3.106   4.648
14916SOL     OW56375   1.540   3.552  22.299
14916SOL    HW156376   1.472   3.604  22.256
14916SOL    HW256377   1.508   3.540  22.388
14917SOL     OW56378   3.895   3.494  17.157
14917SOL    HW156379   3.802   3.471  17.156
14917SOL    HW256380   3.928   3.463  17.073
14918SOL     OW56381   2.564   3.480   0.550
14918SOL    HW156382   2.595   3.391   0.568
14918SOL    HW256383   2.622   3.512   0.481
14919SOL     OW56384   0.042   4.337  21.932
14919SOL    HW156385   0.045   4.361  22.025
14919SOL    HW256386   0.132   4.313  21.910
14920SOL     OW56387   1.384   3.958  23.669
14920SOL    HW156388   1.439   4.009  23.729
14920SOL    HW256389   1.407   3.867  23.688
14921SOL     OW56390   3.727   2.465   7.751
14921SOL    HW156391   3.659   2.398   7.747
14921SOL    HW256392   3.763   2.467   7.662
14922SOL     OW56393   4.207   0.175  27.277
14922SOL    HW156394   4.185   0.171  27.370
14922SOL    HW256395   4.303   0.175  27.275
14923SOL     OW56396   0.977   1.587  28.377
14923SOL    HW156397   1.010   1.500  28.400
14923SOL    HW256398   0.897   1.570  28.328
14924SOL     OW56399   4.465   0.368  27.362
14924SOL    HW156400   4.544   0.379  27.415
14924SOL    HW256401   4.447   0.455  27.327
14925SOL     OW56402   0.182   0.721   5.421
14925SOL    HW156403   0.204   0.660   5.491
14925SOL    HW256404   0.147   0.798   5.467
14926SOL     OW56405   4.114   1.323   6.800
14926SOL    HW156406   4.118   1.352   6.709
14926SOL    HW256407   4.116   1.404   6.851
14927SOL     OW56408   4.235   3.969  26.649
14927SOL    HW156409   4.322   4.009  26.652
14927SOL    HW256410   4.175   4.041  26.668
14928SOL     OW56411   3.731   3.679   5.139
14928SOL    HW156412   3.701   3.610   5.080
14928SOL    HW256413   3.815   3.707   5.102
14929SOL     OW56414   2.751   0.012  26.646
14929SOL    HW156415   2.786   0.076  26.708
14929SOL    HW256416   2.687   4.743  26.697
14930SOL     OW56417   3.989   1.524  20.713
14930SOL    HW156418   4.066   1.535  20.769
14930SOL    HW256419   3.985   1.430  20.695
14931SOL     OW56420   3.339   3.451  23.441
14931SOL    HW156421   3.252   3.492  23.446
14931SOL    HW256422   3.325   3.371  23.391
14932SOL     OW56423   3.042   0.658  21.993
14932SOL    HW156424   3.029   0.739  22.043
14932SOL    HW256425   2.984   0.667  21.918
14933SOL     OW56426   1.879   2.728  21.599
14933SOL    HW156427   1.861   2.687  21.514
14933SOL    HW256428   1.795   2.727  21.644
14934SOL     OW56429   3.634   3.742   6.823
14934SOL    HW156430   3.565   3.806   6.841
14934SOL    HW256431   3.686   3.781   6.753
14935SOL     OW56432   1.369   0.941   4.368
14935SOL    HW156433   1.392   0.869   4.309
14935SOL    HW256434   1.320   1.002   4.313
14936SOL     OW56435   1.339   1.658  26.433
14936SOL    HW156436   1.403   1.728  26.443
14936SOL    HW256437   1.366   1.591  26.496
14937SOL     OW56438   0.884   1.634  22.340
14937SOL    HW156439   0.937   1.711  22.358
14937SOL    HW256440   0.852   1.606  22.426
14938SOL     OW56441   0.680   3.352   8.173
14938SOL    HW156442   0.661   3.351   8.267
14938SOL    HW256443   0.775   3.345   8.167
14939SOL     OW56444   0.645   1.243  18.144
14939SOL    HW156445   0.666   1.187  18.219
14939SOL    HW256446   0.718   1.230  18.084
14940SOL     OW56447   3.603   4.368  28.113
14940SOL    HW156448   3.639   4.348  28.027
14940SOL    HW256449   3.654   4.314  28.174
14941SOL     OW56450   4.474   2.170   5.076
14941SOL    HW156451   4.541   2.237   5.063
14941SOL    HW256452   4.500   2.125   5.156
14942SOL     OW56453   2.735   0.845   0.079
14942SOL    HW156454   2.642   0.852   0.098
14942SOL    HW256455   2.764   0.768   0.129
14943SOL     OW56456   3.272   2.235   2.985
14943SOL    HW156457   3.280   2.320   3.029
14943SOL    HW256458   3.178   2.223   2.972
14944SOL     OW56459   1.812   4.497  18.388
14944SOL    HW156460   1.825   4.449  18.306
14944SOL    HW256461   1.865   4.576  18.379
14945SOL     OW56462   4.206   1.955   4.344
14945SOL    HW156463   4.149   2.026   4.313
14945SOL    HW256464   4.172   1.934   4.431
14946SOL     OW56465   2.211   3.247  19.593
14946SOL    HW156466   2.168   3.178  19.644
14946SOL    HW256467   2.305   3.230  19.604
14947SOL     OW56468   2.549   0.112  20.643
14947SOL    HW156469   2.534   0.025  20.679
14947SOL    HW256470   2.464   0.155  20.647
14948SOL     OW56471   0.947   2.872  20.064
14948SOL    HW156472   0.922   2.911  20.148
14948SOL    HW256473   0.939   2.943  20.001
14949SOL     OW56474   1.624   0.191  27.311
14949SOL    HW156475   1.551   0.135  27.284
14949SOL    HW256476   1.583   0.275  27.333
14950SOL     OW56477   3.119   1.414   4.959
14950SOL    HW156478   3.069   1.414   5.040
14950SOL    HW256479   3.146   1.505   4.947
14951SOL     OW56480   1.728   0.780  21.551
14951SOL    HW156481   1.782   0.770  21.473
14951SOL    HW256482   1.750   0.867  21.585
14952SOL     OW56483   2.783   1.369  20.129
14952SOL    HW156484   2.876   1.359  20.149
14952SOL    HW256485   2.741   1.383  20.214
14953SOL     OW56486   4.481   0.335  21.042
14953SOL    HW156487   4.513   0.253  21.005
14953SOL    HW256488   4.405   0.357  20.988
14954SOL     OW56489   1.524   3.458  10.254
14954SOL    HW156490   1.605   3.425  10.215
14954SOL    HW256491   1.545   3.547  10.283
14955SOL     OW56492   2.947   1.970   7.256
14955SOL    HW156493   2.946   1.898   7.192
14955SOL    HW256494   2.885   1.943   7.323
14956SOL     OW56495   0.972   3.416  26.857
14956SOL    HW156496   1.053   3.445  26.815
14956SOL    HW256497   0.996   3.335  26.903
14957SOL     OW56498   0.870   2.246  21.646
14957SOL    HW156499   0.787   2.199  21.652
14957SOL    HW256500   0.937   2.178  21.655
14958SOL     OW56501   0.203   4.318   0.396
14958SOL    HW156502   0.256   4.397   0.385
14958SOL    HW256503   0.234   4.259   0.327
14959SOL     OW56504   0.218   1.889   8.387
14959SOL    HW156505   0.299   1.839   8.393
14959SOL    HW256506   0.207   1.927   8.474
14960SOL     OW56507   1.007   0.277  26.000
14960SOL    HW156508   0.992   0.187  25.972
14960SOL    HW256509   0.937   0.293  26.064
14961SOL     OW56510   2.096   0.730  19.124
14961SOL    HW156511   2.174   0.674  19.126
14961SOL    HW256512   2.076   0.747  19.216
14962SOL     OW56513   2.011   4.392   8.044
14962SOL    HW156514   1.974   4.363   8.127
14962SOL    HW256515   1.980   4.482   8.034
14963SOL     OW56516   3.254   1.361   7.150
14963SOL    HW156517   3.236   1.455   7.150
14963SOL    HW256518   3.182   1.323   7.100
14964SOL     OW56519   2.683   0.372  18.870
14964SOL    HW156520   2.729   0.387  18.787
14964SOL    HW256521   2.669   0.460  18.905
14965SOL     OW56522   0.607   4.350   7.425
14965SOL    HW156523   0.562   4.407   7.363
14965SOL    HW256524   0.661   4.410   7.477
14966SOL     OW56525   1.174   0.549   9.011
14966SOL    HW156526   1.182   0.526   8.918
14966SOL    HW256527   1.086   0.521   9.035
14967SOL     OW56528   1.337   3.073   2.554
14967SOL    HW156529   1.309   3.042   2.468
14967SOL    HW256530   1.412   3.129   2.536
14968SOL     OW56531   0.338   1.922   5.689
14968SOL    HW156532   0.335   2.010   5.727
14968SOL    HW256533   0.250   1.886   5.703
14969SOL     OW56534   1.565   2.182   3.938
14969SOL    HW156535   1.501   2.253   3.948
14969SOL    HW256536   1.644   2.215   3.981
14970SOL     OW56537   3.514   4.710  22.595
14970SOL    HW156538   3.540   4.680  22.508
14970SOL    HW256539   3.578   4.778  22.618
14971SOL     OW56540   4.093   2.573   0.902
14971SOL    HW156541   3.999   2.581   0.883
14971SOL    HW256542   4.102   2.604   0.992
14972SOL     OW56543   0.914   1.775  26.907
14972SOL    HW156544   0.820   1.778  26.887
14972SOL    HW256545   0.936   1.682  26.904
14973SOL     OW56546   1.019   1.148  23.664
14973SOL    HW156547   0.960   1.169  23.737
14973SOL    HW256548   1.017   1.052  23.659
14974SOL     OW56549   3.747   4.567  23.549
14974SOL    HW156550   3.687   4.529  23.485
14974SOL    HW256551   3.744   4.507  23.623
14975SOL     OW56552   2.795   0.487   5.609
14975SOL    HW156553   2.878   0.455   5.645
14975SOL    HW256554   2.736   0.412   5.614
14976SOL     OW56555   1.019   0.625  25.217
14976SOL    HW156556   0.975   0.625  25.132
14976SOL    HW256557   1.050   0.535  25.228
14977SOL     OW56558   2.358   0.986   6.776
14977SOL    HW156559   2.432   1.035   6.812
14977SOL    HW256560   2.372   0.897   6.808
14978SOL     OW56561   3.721   2.656  28.413
14978SOL    HW156562   3.626   2.659  28.398
14978SOL    HW256563   3.754   2.736  28.372
14979SOL     OW56564   0.372   1.034  26.233
14979SOL    HW156565   0.284   1.003  26.253
14979SOL    HW256566   0.381   1.115  26.283
14980SOL     OW56567   1.420   2.945  26.324
14980SOL    HW156568   1.365   2.897  26.262
14980SOL    HW256569   1.383   2.925  26.410
14981SOL     OW56570   1.002   1.639   4.505
14981SOL    HW156571   1.013   1.730   4.532
14981SOL    HW256572   1.078   1.594   4.542
14982SOL     OW56573   0.051   0.094   4.615
14982SOL    HW156574   0.093   0.051   4.690
14982SOL    HW256575   0.044   0.186   4.642
14983SOL     OW56576   0.871   4.415  11.780
14983SOL    HW156577   0.902   4.424  11.870
14983SOL    HW256578   0.805   4.346  11.784
14984SOL     OW56579   0.414   2.418   3.186
14984SOL    HW156580   0.418   2.370   3.103
14984SOL    HW256581   0.483   2.379   3.240
14985SOL     OW56582   0.712   4.029   1.284
14985SOL    HW156583   0.688   4.052   1.194
14985SOL    HW256584   0.766   4.102   1.314
14986SOL     OW56585   3.445   4.624   7.312
14986SOL    HW156586   3.398   4.706   7.300
14986SOL    HW256587   3.460   4.591   7.223
14987SOL     OW56588   0.791   3.394  21.333
14987SOL    HW156589   0.707   3.352  21.316
14987SOL    HW256590   0.775   3.487  21.314
14988SOL     OW56591   2.980   4.679  19.529
14988SOL    HW156592   2.992   4.767  19.566
14988SOL    HW256593   2.925   4.693  19.452
14989SOL     OW56594   0.226   4.161  26.828
14989SOL    HW156595   0.279   4.204  26.895
14989SOL    HW256596   0.289   4.114  26.774
14990SOL     OW56597   3.282   4.711   8.453
14990SOL    HW156598   3.235   0.002   8.496
14990SOL    HW256599   3.321   4.751   8.375
14991SOL     OW56600   4.532   0.322   0.726
14991SOL    HW156601   4.504   0.252   0.784
14991SOL    HW256602   4.626   0.308   0.716
14992SOL     OW56603   4.329   0.130  26.641
14992SOL    HW156604   4.372   0.049  26.613
14992SOL    HW256605   4.283   0.106  26.721
14993SOL     OW56606   1.193   1.109  19.817
14993SOL    HW156607   1.281   1.147  19.813
14993SOL    HW256608   1.135   1.184  19.831
14994SOL     OW56609   0.778   1.777  23.198
14994SOL    HW156610   0.835   1.733  23.261
14994SOL    HW256611   0.791   1.728  23.117
14995SOL     OW56612   4.209   0.480   3.445
14995SOL    HW156613   4.143   0.410   3.446
14995SOL    HW256614   4.212   0.512   3.535
14996SOL     OW56615   4.076   0.268   9.216
14996SOL    HW156616   4.082   0.262   9.121
14996SOL    HW256617   4.163   0.298   9.244
14997SOL     OW56618   2.084   2.742  26.157
14997SOL    HW156619   2.064   2.669  26.216
14997SOL    HW256620   2.076   2.820  26.212
14998SOL     OW56621   3.734   2.523   3.754
14998SOL    HW156622   3.820   2.480   3.756
14998SOL    HW256623   3.743   2.592   3.688
14999SOL     OW56624   1.884   0.747   8.322
14999SOL    HW156625   1.809   0.751   8.382
14999SOL    HW256626   1.859   0.803   8.249
15000SOL     OW56627   3.265   1.503   0.888
15000SOL    HW156628   3.309   1.455   0.818
15000SOL    HW256629   3.217   1.572   0.843
15001SOL     OW56630   4.432   0.854  25.099
15001SOL    HW156631   4.492   0.779  25.096
15001SOL    HW256632   4.380   0.847  25.019
15002SOL     OW56633   2.257   0.012  23.833
15002SOL    HW156634   2.180   4.741  23.808
15002SOL    HW256635   2.250   0.021  23.928
15003SOL     OW56636   0.080   2.617   2.249
15003SOL    HW156637   0.028   2.575   2.181
15003SOL    HW256638   0.026   2.690   2.279
15004SOL     OW56639   1.316   1.273  26.452
15004SOL    HW156640   1.312   1.180  26.432
15004SOL    HW256641   1.372   1.279  26.530
15005SOL     OW56642   4.082   1.636  25.453
15005SOL    HW156643   4.072   1.561  25.512
15005SOL    HW256644   4.013   1.696  25.479
15006SOL     OW56645   4.757   0.600   0.058
15006SOL    HW156646   0.051   0.563   0.010
15006SOL    HW256647   4.688   0.608  28.514
15007SOL     OW56648   3.422   1.555   3.785
15007SOL    HW156649   3.363   1.553   3.860
15007SOL    HW256650   3.476   1.633   3.799
15008SOL     OW56651   1.864   3.198   1.846
15008SOL    HW156652   1.925   3.213   1.774
15008SOL    HW256653   1.902   3.247   1.919
15009SOL     OW56654   3.009   1.753   7.634
15009SOL    HW156655   2.973   1.837   7.663
15009SOL    HW256656   3.073   1.777   7.567
15010SOL     OW56657   3.118   1.957   9.401
15010SOL    HW156658   3.165   1.985   9.322
15010SOL    HW256659   3.152   1.869   9.420
15011SOL     OW56660   3.950   2.121  19.402
15011SOL    HW156661   4.030   2.097  19.448
15011SOL    HW256662   3.966   2.094  19.311
15012SOL     OW56663   3.594   1.277   9.022
15012SOL    HW156664   3.548   1.201   8.988
15012SOL    HW256665   3.555   1.293   9.108
15013SOL     OW56666   4.022   1.995  18.794
15013SOL    HW156667   3.997   1.925  18.855
15013SOL    HW256668   4.118   1.990  18.790
15014SOL     OW56669   1.372   1.652  21.685
15014SOL    HW156670   1.453   1.603  21.702
15014SOL    HW256671   1.318   1.636  21.763
15015SOL     OW56672   4.619   0.832  24.821
15015SOL    HW156673   4.524   0.820  24.819
15015SOL    HW256674   4.654   0.743  24.827
15016SOL     OW56675   3.444   1.343   2.803
15016SOL    HW156676   3.365   1.390   2.778
15016SOL    HW256677   3.420   1.297   2.883
15017SOL     OW56678   4.243   0.142   5.961
15017SOL    HW156679   4.324   0.177   5.999
15017SOL    HW256680   4.253   0.155   5.867
15018SOL     OW56681   1.973   2.543  25.107
15018SOL    HW156682   2.058   2.586  25.110
15018SOL    HW256683   1.960   2.509  25.196
15019SOL     OW56684   2.650   0.609  10.124
15019SOL    HW156685   2.676   0.558  10.047
15019SOL    HW256686   2.657   0.547  10.197
15020SOL     OW56687   1.640   3.370  27.945
15020SOL    HW156688   1.728   3.394  27.973
15020SOL    HW256689   1.637   3.275  27.955
15021SOL     OW56690   0.653   3.913   5.911
15021SOL    HW156691   0.645   3.818   5.909
15021SOL    HW256692   0.578   3.943   5.962
15022SOL     OW56693   1.522   3.534  21.347
15022SOL    HW156694   1.500   3.496  21.262
15022SOL    HW256695   1.446   3.515  21.402
15023SOL     OW56696   0.247   2.921   7.763
15023SOL    HW156697   0.324   2.965   7.799
15023SOL    HW256698   0.188   2.992   7.738
15024SOL     OW56699   3.015   0.342   1.446
15024SOL    HW156700   3.106   0.312   1.452
15024SOL    HW256701   2.963   0.262   1.441
15025SOL     OW56702   0.499   3.127   2.878
15025SOL    HW156703   0.516   3.188   2.950
15025SOL    HW256704   0.421   3.079   2.905
15026SOL     OW56705   0.486   1.705  20.844
15026SOL    HW156706   0.581   1.713  20.837
15026SOL    HW256707   0.455   1.795  20.841
15027SOL     OW56708   0.880   2.621  28.440
15027SOL    HW156709   0.964   2.639  28.482
15027SOL    HW256710   0.825   2.696  28.463
15028SOL     OW56711   3.117   2.216   5.125
15028SOL    HW156712   3.090   2.205   5.216
15028SOL    HW256713   3.082   2.139   5.080
15029SOL     OW56714   0.571   2.078  18.166
15029SOL    HW156715   0.595   2.170  18.152
15029SOL    HW256716   0.549   2.073  18.259
15030SOL     OW56717   1.734   2.977   8.661
15030SOL    HW156718   1.715   3.042   8.729
15030SOL    HW256719   1.735   2.893   8.708
15031SOL     OW56720   2.516   0.132  28.511
15031SOL    HW156721   2.448   0.082  28.466
15031SOL    HW256722   2.471   0.172   0.063
15032SOL     OW56723   0.809   0.831   5.108
15032SOL    HW156724   0.774   0.917   5.085
15032SOL    HW256725   0.886   0.820   5.052
15033SOL     OW56726   3.878   1.047   7.038
15033SOL    HW156727   3.915   0.965   7.006
15033SOL    HW256728   3.848   1.092   6.959
15034SOL     OW56729   4.299   4.504   9.079
15034SOL    HW156730   4.368   4.554   9.036
15034SOL    HW256731   4.304   4.417   9.040
15035SOL     OW56732   1.151   4.205   9.019
15035SOL    HW156733   1.161   4.300   9.023
15035SOL    HW256734   1.237   4.173   8.991
15036SOL     OW56735   2.766   1.200  24.258
15036SOL    HW156736   2.719   1.270  24.212
15036SOL    HW256737   2.845   1.186  24.206
15037SOL     OW56738   1.804   2.388   8.345
15037SOL    HW156739   1.788   2.420   8.434
15037SOL    HW256740   1.855   2.457   8.303
15038SOL     OW56741   3.978   4.544   2.813
15038SOL    HW156742   3.906   4.496   2.772
15038SOL    HW256743   3.977   4.630   2.771
15039SOL     OW56744   3.738   4.060   3.229
15039SOL    HW156745   3.734   4.154   3.210
15039SOL    HW256746   3.671   4.046   3.295
15040SOL     OW56747   2.248   2.631  21.848
15040SOL    HW156748   2.162   2.666  21.872
15040SOL    HW256749   2.240   2.610  21.755
15041SOL     OW56750   2.666   4.139  26.168
15041SOL    HW156751   2.680   4.230  26.195
15041SOL    HW256752   2.621   4.145  26.084
15042SOL     OW56753   1.308   0.641   0.659
15042SOL    HW156754   1.388   0.630   0.608
15042SOL    HW256755   1.335   0.691   0.736
15043SOL     OW56756   3.990   0.601   1.282
15043SOL    HW156757   4.061   0.665   1.287
15043SOL    HW256758   3.970   0.594   1.189
15044SOL     OW56759   2.415   3.311  22.784
15044SOL    HW156760   2.366   3.321  22.866
15044SOL    HW256761   2.379   3.379  22.727
15045SOL     OW56762   1.045   3.208  24.894
15045SOL    HW156763   1.018   3.262  24.968
15045SOL    HW256764   1.083   3.130  24.934
15046SOL     OW56765   1.690   0.132  26.581
15046SOL    HW156766   1.688   0.128  26.485
15046SOL    HW256767   1.602   0.161  26.606
15047SOL     OW56768   3.172   1.256   9.253
15047SOL    HW156769   3.105   1.188   9.264
15047SOL    HW256770   3.166   1.281   9.161
15048SOL     OW56771   2.142   2.447   3.592
15048SOL    HW156772   2.186   2.363   3.605
15048SOL    HW256773   2.169   2.501   3.667
15049SOL     OW56774   4.059   4.565   4.677
15049SOL    HW156775   4.007   4.644   4.691
15049SOL    HW256776   4.031   4.532   4.592
15050SOL     OW56777   2.725   4.012   9.166
15050SOL    HW156778   2.747   3.919   9.169
15050SOL    HW256779   2.788   4.054   9.224
15051SOL     OW56780   4.591   2.022   5.302
15051SOL    HW156781   4.669   2.072   5.277
15051SOL    HW256782   4.615   1.980   5.385
15052SOL     OW56783   2.006   4.610   6.443
15052SOL    HW156784   1.930   4.615   6.386
15052SOL    HW256785   1.983   4.665   6.518
15053SOL     OW56786   3.952   1.742   4.256
15053SOL    HW156787   3.989   1.794   4.185
15053SOL    HW256788   3.877   1.698   4.216
15054SOL     OW56789   2.949   4.156   5.493
15054SOL    HW156790   3.024   4.215   5.500
15054SOL    HW256791   2.929   4.131   5.583
15055SOL     OW56792   3.271   4.280   5.510
15055SOL    HW156793   3.341   4.219   5.534
15055SOL    HW256794   3.269   4.343   5.582
15056SOL     OW56795   1.919   3.848  19.241
15056SOL    HW156796   1.968   3.778  19.284
15056SOL    HW256797   1.828   3.830  19.264
15057SOL     OW56798   0.715   0.602  10.050
15057SOL    HW156799   0.762   0.605   9.966
15057SOL    HW256800   0.698   0.509  10.064
15058SOL     OW56801   0.378   2.559  22.093
15058SOL    HW156802   0.457   2.509  22.075
15058SOL    HW256803   0.390   2.641  22.045
15059SOL     OW56804   1.015   3.681  20.781
15059SOL    HW156805   0.986   3.729  20.858
15059SOL    HW256806   0.935   3.644  20.744
15060SOL     OW56807   3.717   3.760   1.973
15060SOL    HW156808   3.657   3.822   2.014
15060SOL    HW256809   3.802   3.804   1.974
15061SOL     OW56810   1.828   2.172   7.265
15061SOL    HW156811   1.772   2.246   7.287
15061SOL    HW256812   1.866   2.145   7.348
15062SOL     OW56813   1.965   4.296   8.985
15062SOL    HW156814   1.973   4.239   8.909
15062SOL    HW256815   1.872   4.292   9.009
15063SOL     OW56816   0.934   3.555   5.870
15063SOL    HW156817   0.859   3.516   5.915
15063SOL    HW256818   0.947   3.639   5.914
15064SOL     OW56819   0.946   1.510  18.064
15064SOL    HW156820   0.853   1.532  18.058
15064SOL    HW256821   0.959   1.442  17.997
15065SOL     OW56822   2.015   1.748  22.342
15065SOL    HW156823   1.989   1.801  22.267
15065SOL    HW256824   1.957   1.672  22.340
15066SOL     OW56825   2.457   0.275   2.737
15066SOL    HW156826   2.532   0.305   2.788
15066SOL    HW256827   2.381   0.305   2.786
15067SOL     OW56828   4.359   3.762  24.215
15067SOL    HW156829   4.340   3.820  24.289
15067SOL    HW256830   4.405   3.817  24.152
15068SOL     OW56831   4.494   1.406  17.368
15068SOL    HW156832   4.502   1.498  17.343
15068SOL    HW256833   4.521   1.357  17.290
15069SOL     OW56834   3.615   2.039   4.948
15069SOL    HW156835   3.634   1.946   4.957
15069SOL    HW256836   3.608   2.054   4.854
15070SOL     OW56837   0.681   4.779  25.157
15070SOL    HW156838   0.653   4.762  25.067
15070SOL    HW256839   0.631   4.717  25.210
15071SOL     OW56840   1.177   2.768   2.006
15071SOL    HW156841   1.085   2.768   2.032
15071SOL    HW256842   1.195   2.678   1.979
15072SOL     OW56843   4.469   0.720   7.515
15072SOL    HW156844   4.405   0.725   7.586
15072SOL    HW256845   4.550   0.755   7.553
15073SOL     OW56846   0.584   1.464   9.278
15073SOL    HW156847   0.501   1.443   9.236
15073SOL    HW256848   0.604   1.387   9.332
15074SOL     OW56849   0.123   2.253   9.873
15074SOL    HW156850   0.168   2.179   9.831
15074SOL    HW256851   0.185   2.285   9.938
15075SOL     OW56852   4.171   3.261   6.740
15075SOL    HW156853   4.108   3.209   6.690
15075SOL    HW256854   4.218   3.197   6.793
15076SOL     OW56855   4.698   2.249  17.178
15076SOL    HW156856   4.764   2.228  17.112
15076SOL    HW256857   4.730   2.329  17.219
15077SOL     OW56858   3.639   3.139   5.792
15077SOL    HW156859   3.646   3.213   5.731
15077SOL    HW256860   3.678   3.065   5.745
15078SOL     OW56861   2.373   4.057   0.240
15078SOL    HW156862   2.460   4.033   0.272
15078SOL    HW256863   2.349   3.987   0.179
15079SOL     OW56864   2.679   4.085  27.028
15079SOL    HW156865   2.656   4.094  27.121
15079SOL    HW256866   2.597   4.059  26.986
15080SOL     OW56867   1.095   3.098  25.681
15080SOL    HW156868   1.154   3.091  25.756
15080SOL    HW256869   1.050   3.013  25.678
15081SOL     OW56870   3.404   2.832   4.487
15081SOL    HW156871   3.412   2.924   4.460
15081SOL    HW256872   3.472   2.821   4.554
15082SOL     OW56873   3.359   0.626  20.868
15082SOL    HW156874   3.334   0.715  20.893
15082SOL    HW256875   3.437   0.638  20.814
15083SOL     OW56876   1.632   0.271  28.271
15083SOL    HW156877   1.540   0.250  28.289
15083SOL    HW256878   1.641   0.261  28.176
15084SOL     OW56879   0.232   2.383   2.870
15084SOL    HW156880   0.167   2.436   2.916
15084SOL    HW256881   0.270   2.442   2.805
15085SOL     OW56882   3.236   0.237   4.121
15085SOL    HW156883   3.160   0.187   4.091
15085SOL    HW256884   3.278   0.180   4.186
15086SOL     OW56885   3.018   3.955   1.173
15086SOL    HW156886   3.096   3.901   1.165
15086SOL    HW256887   3.027   3.999   1.258
15087SOL     OW56888   1.017   0.962   7.705
15087SOL    HW156889   0.963   0.915   7.769
15087SOL    HW256890   1.091   0.904   7.688
15088SOL     OW56891   1.185   1.899   2.659
15088SOL    HW156892   1.126   1.915   2.732
15088SOL    HW256893   1.132   1.914   2.581
15089SOL     OW56894   0.501   3.321  25.671
15089SOL    HW156895   0.575   3.379  25.687
15089SOL    HW256896   0.528   3.268  25.596
15090SOL     OW56897   2.466   0.965   3.685
15090SOL    HW156898   2.383   0.918   3.677
15090SOL    HW256899   2.526   0.901   3.723
15091SOL     OW56900   1.301   3.931  22.915
15091SOL    HW156901   1.242   3.860  22.942
15091SOL    HW256902   1.243   3.997  22.876
15092SOL     OW56903   3.454   3.626   1.889
15092SOL    HW156904   3.373   3.608   1.937
15092SOL    HW256905   3.524   3.606   1.951
15093SOL     OW56906   0.746   3.916   6.595
15093SOL    HW156907   0.800   3.929   6.673
15093SOL    HW256908   0.669   3.868   6.627
15094SOL     OW56909   1.089   4.602  25.064
15094SOL    HW156910   1.116   4.654  24.989
15094SOL    HW256911   1.043   4.664  25.121
15095SOL     OW56912   2.103   2.076  27.735
15095SOL    HW156913   2.124   1.983  27.738
15095SOL    HW256914   2.047   2.091  27.811
15096SOL     OW56915   3.947   1.823  27.642
15096SOL    HW156916   3.970   1.864  27.725
15096SOL    HW256917   3.929   1.732  27.665
15097SOL     OW56918   0.685   0.618   6.838
15097SOL    HW156919   0.601   0.588   6.804
15097SOL    HW256920   0.679   0.714   6.835
15098SOL     OW56921   2.205   2.729   6.062
15098SOL    HW156922   2.199   2.792   5.990
15098SOL    HW256923   2.248   2.652   6.024
15099SOL     OW56924   3.154   3.667  28.465
15099SOL    HW156925   3.210   3.612  28.520
15099SOL    HW256926   3.192   3.754  28.471
15100SOL     OW56927   3.912   4.342   8.818
15100SOL    HW156928   3.960   4.290   8.883
15100SOL    HW256929   3.860   4.278   8.770
15101SOL     OW56930   0.234   0.708   3.349
15101SOL    HW156931   0.234   0.772   3.278
15101SOL    HW256932   0.291   0.746   3.416
15102SOL     OW56933   1.419   2.523   6.619
15102SOL    HW156934   1.360   2.565   6.557
15102SOL    HW256935   1.480   2.592   6.646
15103SOL     OW56936   1.595   2.647   9.467
15103SOL    HW156937   1.519   2.661   9.411
15103SOL    HW256938   1.562   2.659   9.556
15104SOL     OW56939   2.355   3.302  22.016
15104SOL    HW156940   2.323   3.290  21.927
15104SOL    HW256941   2.285   3.351  22.060
15105SOL     OW56942   1.319   1.407  26.773
15105SOL    HW156943   1.381   1.440  26.838
15105SOL    HW256944   1.373   1.355  26.713
15106SOL     OW56945   1.247   3.387  25.037
15106SOL    HW156946   1.152   3.377  25.035
15106SOL    HW256947   1.273   3.383  24.945
15107SOL     OW56948   0.256   3.644  22.591
15107SOL    HW156949   0.200   3.703  22.641
15107SOL    HW256950   0.315   3.702  22.543
15108SOL     OW56951   3.026   1.963  24.435
15108SOL    HW156952   2.988   1.958  24.523
15108SOL    HW256953   3.074   2.046  24.434
15109SOL     OW56954   2.159   1.496  18.801
15109SOL    HW156955   2.147   1.589  18.780
15109SOL    HW256956   2.216   1.497  18.878
15110SOL     OW56957   0.293   2.001  19.611
15110SOL    HW156958   0.284   1.923  19.556
15110SOL    HW256959   0.274   2.074  19.552
15111SOL     OW56960   3.954   3.481   4.510
15111SOL    HW156961   4.036   3.443   4.478
15111SOL    HW256962   3.937   3.436   4.593
15112SOL     OW56963   0.048   1.190  20.935
15112SOL    HW156964   0.012   1.115  20.888
15112SOL    HW256965   0.009   1.266  20.893
15113SOL     OW56966   0.111   2.638   8.888
15113SOL    HW156967   0.088   2.702   8.820
15113SOL    HW256968   0.203   2.657   8.908
15114SOL     OW56969   1.495   2.383  10.302
15114SOL    HW156970   1.580   2.347  10.278
15114SOL    HW256971   1.454   2.315  10.355
15115SOL     OW56972   2.327   3.817  10.291
15115SOL    HW156973   2.326   3.846  10.382
15115SOL    HW256974   2.277   3.735  10.292
15116SOL     OW56975   3.729   0.691  16.363
15116SOL    HW156976   3.806   0.745  16.342
15116SOL    HW256977   3.655   0.750  16.351
15117SOL     OW56978   3.642   2.741   6.287
15117SOL    HW156979   3.616   2.665   6.235
15117SOL    HW256980   3.643   2.813   6.224
15118SOL     OW56981   2.887   2.374   7.065
15118SOL    HW156982   2.927   2.351   7.149
15118SOL    HW256983   2.869   2.290   7.023
15119SOL     OW56984   1.327   3.434  11.125
15119SOL    HW156985   1.308   3.522  11.159
15119SOL    HW256986   1.251   3.382  11.149
15120SOL     OW56987   3.988   2.900  27.569
15120SOL    HW156988   4.074   2.888  27.529
15120SOL    HW256989   3.932   2.837  27.523
15121SOL     OW56990   1.661   4.345   9.958
15121SOL    HW156991   1.606   4.410   9.914
15121SOL    HW256992   1.603   4.304  10.022
15122SOL     OW56993   1.325   1.658   5.507
15122SOL    HW156994   1.381   1.650   5.430
15122SOL    HW256995   1.236   1.659   5.472
15123SOL     OW56996   2.851   3.213  21.075
15123SOL    HW156997   2.836   3.215  20.980
15123SOL    HW256998   2.933   3.261  21.088
15124SOL     OW56999   1.921   3.145  23.773
15124SOL    HW157000   1.977   3.068  23.762
15124SOL    HW257001   1.941   3.176  23.861
15125SOL     OW57002   1.089   2.398  26.054
15125SOL    HW157003   1.126   2.376  25.969
15125SOL    HW257004   1.163   2.431  26.105
15126SOL     OW57005   0.419   2.125   0.748
15126SOL    HW157006   0.433   2.030   0.749
15126SOL    HW257007   0.448   2.153   0.661
15127SOL     OW57008   0.621   3.499   3.943
15127SOL    HW157009   0.611   3.591   3.918
15127SOL    HW257010   0.673   3.461   3.872
15128SOL     OW57011   0.158   3.915   9.530
15128SOL    HW157012   0.099   3.840   9.542
15128SOL    HW257013   0.168   3.923   9.435
15129SOL     OW57014   3.915   4.542   6.118
15129SOL    HW157015   3.983   4.609   6.116
15129SOL    HW257016   3.833   4.591   6.108
15130SOL     OW57017   1.936   0.154   1.883
15130SOL    HW157018   1.883   0.218   1.836
15130SOL    HW257019   1.967   0.200   1.961
15131SOL     OW57020   0.716   1.855   8.980
15131SOL    HW157021   0.652   1.836   9.049
15131SOL    HW257022   0.714   1.950   8.971
15132SOL     OW57023   0.470   0.868   5.559
15132SOL    HW157024   0.432   0.925   5.626
15132SOL    HW257025   0.432   0.782   5.575
15133SOL     OW57026   4.737   2.101   3.002
15133SOL    HW157027   4.744   2.041   2.928
15133SOL    HW257028   4.698   2.049   3.072
15134SOL     OW57029   4.476   3.294  19.317
15134SOL    HW157030   4.525   3.368  19.280
15134SOL    HW257031   4.392   3.332  19.343
15135SOL     OW57032   0.385   1.457   8.887
15135SOL    HW157033   0.353   1.377   8.928
15135SOL    HW257034   0.349   1.455   8.798
15136SOL     OW57035   2.836   0.805   0.479
15136SOL    HW157036   2.897   0.875   0.456
15136SOL    HW257037   2.819   0.817   0.572
15137SOL     OW57038   0.001   0.935  10.577
15137SOL    HW157039   0.001   0.957  10.484
15137SOL    HW257040   4.727   1.003  10.617
15138SOL     OW57041   2.763   3.172   9.437
15138SOL    HW157042   2.715   3.151   9.357
15138SOL    HW257043   2.751   3.266   9.448
15139SOL     OW57044   3.171   2.609  24.834
15139SOL    HW157045   3.193   2.529  24.882
15139SOL    HW257046   3.144   2.671  24.902
15140SOL     OW57047   2.402   4.759   9.302
15140SOL    HW157048   2.488   0.015   9.282
15140SOL    HW257049   2.348   0.054   9.325
15141SOL     OW57050   4.412   1.431   1.622
15141SOL    HW157051   4.484   1.485   1.589
15141SOL    HW257052   4.430   1.421   1.715
15142SOL     OW57053   2.397   4.292   4.457
15142SOL    HW157054   2.325   4.236   4.486
15142SOL    HW257055   2.392   4.291   4.361
15143SOL     OW57056   1.531   4.639   5.219
15143SOL    HW157057   1.584   4.568   5.182
15143SOL    HW257058   1.516   4.613   5.310
15144SOL     OW57059   0.271   1.105   5.424
15144SOL    HW157060   0.280   1.178   5.363
15144SOL    HW257061   0.281   1.027   5.369
15145SOL     OW57062   1.738   3.990   2.151
15145SOL    HW157063   1.665   3.957   2.204
15145SOL    HW257064   1.794   4.036   2.214
15146SOL     OW57065   4.569   1.162   3.038
15146SOL    HW157066   4.593   1.242   2.992
15146SOL    HW257067   4.487   1.134   2.997
15147SOL     OW57068   4.505   2.805  16.965
15147SOL    HW157069   4.508   2.885  16.913
15147SOL    HW257070   4.471   2.739  16.905
15148SOL     OW57071   0.822   1.413  21.600
15148SOL    HW157072   0.898   1.408  21.658
15148SOL    HW257073   0.858   1.404  21.512
15149SOL     OW57074   4.692   1.372  21.805
15149SOL    HW157075   4.697   1.299  21.743
15149SOL    HW257076   4.639   1.339  21.877
15150SOL     OW57077   3.224   1.729  25.512
15150SOL    HW157078   3.261   1.659  25.458
15150SOL    HW257079   3.158   1.685  25.566
15151SOL     OW57080   4.453   1.995  20.107
15151SOL    HW157081   4.436   2.070  20.050
15151SOL    HW257082   4.542   2.009  20.140
15152SOL     OW57083   3.591   3.214   1.937
15152SOL    HW157084   3.617   3.300   1.969
15152SOL    HW257085   3.495   3.215   1.942
15153SOL     OW57086   0.586   1.175   0.177
15153SOL    HW157087   0.673   1.188   0.139
15153SOL    HW257088   0.594   1.205   0.267
15154SOL     OW57089   4.495   4.411  27.950
15154SOL    HW157090   4.564   4.352  27.919
15154SOL    HW257091   4.484   4.389  28.042
15155SOL     OW57092   4.404   3.295  23.932
15155SOL    HW157093   4.329   3.335  23.977
15155SOL    HW257094   4.480   3.319  23.985
15156SOL     OW57095   1.176   4.305   4.238
15156SOL    HW157096   1.087   4.337   4.222
15156SOL    HW257097   1.177   4.282   4.331
15157SOL     OW57098   1.424   4.101  18.875
15157SOL    HW157099   1.391   4.159  18.944
15157SOL    HW257100   1.513   4.131  18.859
15158SOL     OW57101   0.018   3.612  20.739
15158SOL    HW157102   4.717   3.562  20.745
15158SOL    HW257103   0.064   3.575  20.664
15159SOL     OW57104   4.584   1.638   2.069
15159SOL    HW157105   4.657   1.656   2.010
15159SOL    HW257106   4.582   1.713   2.128
15160SOL     OW57107   2.399   4.005  25.349
15160SOL    HW157108   2.397   3.947  25.273
15160SOL    HW257109   2.491   4.030  25.358
15161SOL     OW57110   2.780   2.782  20.811
15161SOL    HW157111   2.784   2.862  20.759
15161SOL    HW257112   2.705   2.795  20.870
15162SOL     OW57113   3.005   0.787  22.494
15162SOL    HW157114   3.033   0.810  22.405
15162SOL    HW257115   2.978   0.695  22.488
15163SOL     OW57116   2.855   3.256   6.727
15163SOL    HW157117   2.945   3.270   6.699
15163SOL    HW257118   2.862   3.237   6.821
15164SOL     OW57119   2.870   3.333  18.594
15164SOL    HW157120   2.931   3.286  18.650
15164SOL    HW257121   2.906   3.422  18.588
15165SOL     OW57122   2.903   0.964   7.122
15165SOL    HW157123   2.934   0.941   7.209
15165SOL    HW257124   2.808   0.962   7.129
15166SOL     OW57125   2.667   1.885   0.471
15166SOL    HW157126   2.750   1.838   0.483
15166SOL    HW257127   2.600   1.817   0.477
15167SOL     OW57128   4.174   0.922   3.330
15167SOL    HW157129   4.099   0.863   3.327
15167SOL    HW257130   4.135   1.009   3.342
15168SOL     OW57131   3.226   3.781   0.624
15168SOL    HW157132   3.220   3.859   0.679
15168SOL    HW257133   3.312   3.744   0.643
15169SOL     OW57134   1.459   4.254  16.670
15169SOL    HW157135   1.446   4.202  16.749
15169SOL    HW257136   1.510   4.198  16.612
15170SOL     OW57137   2.725   3.381   0.046
15170SOL    HW157138   2.688   3.457   0.000
15170SOL    HW257139   2.800   3.356  28.515
15171SOL     OW57140   1.853   3.837   6.706
15171SOL    HW157141   1.763   3.870   6.707
15171SOL    HW257142   1.906   3.914   6.685
15172SOL     OW57143   0.337   3.654  26.323
15172SOL    HW157144   0.332   3.594  26.249
15172SOL    HW257145   0.261   3.632  26.377
15173SOL     OW57146   2.272   3.398  22.976
15173SOL    HW157147   2.287   3.416  23.069
15173SOL    HW257148   2.226   3.314  22.975
15174SOL     OW57149   0.930   0.707   9.529
15174SOL    HW157150   0.940   0.723   9.623
15174SOL    HW257151   0.968   0.785   9.488
15175SOL     OW57152   3.323   2.844  21.659
15175SOL    HW157153   3.311   2.808  21.747
15175SOL    HW257154   3.390   2.789  21.619
15176SOL     OW57155   1.933   3.851  24.832
15176SOL    HW157156   1.913   3.766  24.794
15176SOL    HW257157   1.923   3.913  24.760
15177SOL     OW57158   4.257   0.148   2.668
15177SOL    HW157159   4.217   0.122   2.751
15177SOL    HW257160   4.350   0.128   2.679
15178SOL     OW57161   1.230   1.365   8.086
15178SOL    HW157162   1.175   1.412   8.149
15178SOL    HW257163   1.255   1.432   8.022
15179SOL     OW57164   4.195   1.891  24.022
15179SOL    HW157165   4.151   1.808  24.005
15179SOL    HW257166   4.241   1.911  23.940
15180SOL     OW57167   4.641   3.393  26.984
15180SOL    HW157168   4.608   3.401  27.073
15180SOL    HW257169   4.657   3.483  26.956
15181SOL     OW57170   3.890   3.054  25.769
15181SOL    HW157171   3.933   3.137  25.790
15181SOL    HW257172   3.797   3.074  25.770
15182SOL     OW57173   2.899   3.980   8.013
15182SOL    HW157174   2.898   3.995   7.918
15182SOL    HW257175   2.991   3.986   8.037
15183SOL     OW57176   0.597   1.365  21.750
15183SOL    HW157177   0.560   1.447  21.716
15183SOL    HW257178   0.683   1.359  21.708
15184SOL     OW57179   1.225   0.163  25.253
15184SOL    HW157180   1.144   0.115  25.269
15184SOL    HW257181   1.256   0.131  25.168
15185SOL     OW57182   3.111   0.367   9.011
15185SOL    HW157183   3.032   0.390   9.060
15185SOL    HW257184   3.132   0.446   8.961
15186SOL     OW57185   3.373   0.161  23.873
15186SOL    HW157186   3.460   0.174  23.911
15186SOL    HW257187   3.332   0.248  23.875
15187SOL     OW57188   3.964   2.048  24.824
15187SOL    HW157189   3.942   2.133  24.861
15187SOL    HW257190   3.972   2.064  24.730
15188SOL     OW57191   3.997   0.926  24.825
15188SOL    HW157192   3.982   0.833  24.809
15188SOL    HW257193   4.015   0.962  24.738
15189SOL     OW57194   1.210   3.545   7.007
15189SOL    HW157195   1.243   3.505   6.926
15189SOL    HW257196   1.289   3.564   7.058
15190SOL     OW57197   1.949   1.219  24.578
15190SOL    HW157198   1.884   1.162  24.537
15190SOL    HW257199   1.995   1.260  24.505
15191SOL     OW57200   3.433   1.605  17.198
15191SOL    HW157201   3.505   1.558  17.157
15191SOL    HW257202   3.355   1.573  17.154
15192SOL     OW57203   2.594   0.124   2.474
15192SOL    HW157204   2.655   0.164   2.535
15192SOL    HW257205   2.591   0.032   2.500
15193SOL     OW57206   3.283   3.086   7.088
15193SOL    HW157207   3.355   3.043   7.134
15193SOL    HW257208   3.236   3.015   7.045
15194SOL     OW57209   4.133   2.854  26.050
15194SOL    HW157210   4.132   2.857  26.146
15194SOL    HW257211   4.154   2.943  26.023
15195SOL     OW57212   2.512   1.156  28.223
15195SOL    HW157213   2.548   1.227  28.276
15195SOL    HW257214   2.521   1.078  28.278
15196SOL     OW57215   0.268   4.603  27.742
15196SOL    HW157216   0.198   4.558  27.695
15196SOL    HW257217   0.344   4.545  27.735
15197SOL     OW57218   4.010   1.071  21.067
15197SOL    HW157219   3.938   1.057  21.129
15197SOL    HW257220   4.089   1.051  21.118
15198SOL     OW57221   4.180   3.584  18.127
15198SOL    HW157222   4.240   3.634  18.072
15198SOL    HW257223   4.138   3.649  18.183
15199SOL     OW57224   1.856   0.094  22.992
15199SOL    HW157225   1.917   0.157  23.030
15199SOL    HW257226   1.898   0.009  23.004
15200SOL     OW57227   0.686   1.054  22.158
15200SOL    HW157228   0.739   0.974  22.155
15200SOL    HW257229   0.669   1.076  22.066
15201SOL     OW57230   1.954   0.386   2.702
15201SOL    HW157231   1.862   0.364   2.718
15201SOL    HW257232   1.986   0.315   2.647
15202SOL     OW57233   1.445   3.105   8.973
15202SOL    HW157234   1.420   3.022   8.933
15202SOL    HW257235   1.541   3.107   8.969
15203SOL     OW57236   1.369   2.779   5.925
15203SOL    HW157237   1.447   2.741   5.965
15203SOL    HW257238   1.403   2.848   5.868
15204SOL     OW57239   0.543   1.877   0.763
15204SOL    HW157240   0.535   1.810   0.831
15204SOL    HW257241   0.529   1.830   0.681
15205SOL     OW57242   1.707   4.582   4.828
15205SOL    HW157243   1.698   4.496   4.788
15205SOL    HW257244   1.738   4.638   4.757
15206SOL     OW57245   3.465   2.851  20.113
15206SOL    HW157246   3.438   2.907  20.041
15206SOL    HW257247   3.559   2.837  20.099
15207SOL     OW57248   1.185   1.958  17.248
15207SOL    HW157249   1.270   1.916  17.237
15207SOL    HW257250   1.195   2.011  17.327
15208SOL     OW57251   3.543   2.465  26.684
15208SOL    HW157252   3.591   2.442  26.605
15208SOL    HW257253   3.466   2.513  26.652
15209SOL     OW57254   2.214   0.040   0.587
15209SOL    HW157255   2.252   4.759   0.525
15209SOL    HW257256   2.289   0.089   0.621
15210SOL     OW57257   1.187   0.368  21.914
15210SOL    HW157258   1.242   0.429  21.866
15210SOL    HW257259   1.238   0.287  21.917
15211SOL     OW57260   2.895   3.258  25.272
15211SOL    HW157261   2.964   3.254  25.206
15211SOL    HW257262   2.846   3.338  25.251
15212SOL     OW57263   1.168   1.061  28.412
15212SOL    HW157264   1.175   0.977  28.367
15212SOL    HW257265   1.256   1.079  28.445
15213SOL     OW57266   0.765   3.954   5.173
15213SOL    HW157267   0.829   3.933   5.105
15213SOL    HW257268   0.699   4.006   5.128
15214SOL     OW57269   2.305   2.243  18.662
15214SOL    HW157270   2.287   2.151  18.644
15214SOL    HW257271   2.257   2.290  18.594
15215SOL     OW57272   4.245   0.610  25.510
15215SOL    HW157273   4.305   0.634  25.440
15215SOL    HW257274   4.278   0.656  25.587
15216SOL     OW57275   1.781   2.514  25.336
15216SOL    HW157276   1.697   2.528  25.379
15216SOL    HW257277   1.837   2.585  25.368
15217SOL     OW57278   1.086   0.789   3.610
15217SOL    HW157279   0.999   0.811   3.575
15217SOL    HW257280   1.083   0.817   3.701
15218SOL     OW57281   4.671   0.742  21.455
15218SOL    HW157282   4.731   0.742  21.530
15218SOL    HW257283   4.698   0.667  21.403
15219SOL     OW57284   1.434   1.195   0.308
15219SOL    HW157285   1.399   1.145   0.382
15219SOL    HW257286   1.528   1.200   0.324
15220SOL     OW57287   0.420   3.159  27.066
15220SOL    HW157288   0.462   3.107  26.997
15220SOL    HW257289   0.328   3.164  27.039
15221SOL     OW57290   2.424   1.153  22.424
15221SOL    HW157291   2.509   1.145  22.381
15221SOL    HW257292   2.404   1.065  22.455
15222SOL     OW57293   4.038   2.959  26.675
15222SOL    HW157294   4.130   2.982  26.663
15222SOL    HW257295   4.022   2.892  26.609
15223SOL     OW57296   1.405   1.652  22.889
15223SOL    HW157297   1.490   1.644  22.932
15223SOL    HW257298   1.385   1.746  22.893
15224SOL     OW57299   3.294   0.270  10.371
15224SOL    HW157300   3.247   0.208  10.315
15224SOL    HW257301   3.324   0.218  10.445
15225SOL     OW57302   4.048   3.376  23.042
15225SOL    HW157303   4.142   3.383  23.025
15225SOL    HW257304   4.012   3.459  23.012
15226SOL     OW57305   2.129   2.315  11.634
15226SOL    HW157306   2.147   2.230  11.594
15226SOL    HW257307   2.050   2.300  11.687
15227SOL     OW57308   4.194   2.806  23.922
15227SOL    HW157309   4.211   2.897  23.899
15227SOL    HW257310   4.280   2.765  23.921
15228SOL     OW57311   0.909   2.179  21.034
15228SOL    HW157312   0.862   2.136  20.962
15228SOL    HW257313   0.878   2.135  21.113
15229SOL     OW57314   4.035   3.374  18.015
15229SOL    HW157315   4.082   3.417  18.087
15229SOL    HW257316   3.998   3.295  18.055
15230SOL     OW57317   3.484   0.521  22.569
15230SOL    HW157318   3.539   0.444  22.556
15230SOL    HW257319   3.395   0.487  22.563
15231SOL     OW57320   4.558   3.376  10.498
15231SOL    HW157321   4.643   3.381  10.455
15231SOL    HW257322   4.535   3.467  10.517
15232SOL     OW57323   1.404   3.768   3.574
15232SOL    HW157324   1.470   3.812   3.627
15232SOL    HW257325   1.409   3.811   3.489
15233SOL     OW57326   3.134   1.952   4.279
15233SOL    HW157327   3.129   1.857   4.286
15233SOL    HW257328   3.053   1.977   4.235
15234SOL     OW57329   2.508   3.504  20.079
15234SOL    HW157330   2.587   3.454  20.099
15234SOL    HW257331   2.519   3.531  19.988
15235SOL     OW57332   2.829   1.928   8.340
15235SOL    HW157333   2.911   1.976   8.351
15235SOL    HW257334   2.815   1.884   8.424
15236SOL     OW57335   0.936   4.424  27.745
15236SOL    HW157336   0.991   4.466  27.811
15236SOL    HW257337   0.989   4.423  27.665
15237SOL     OW57338   4.251   1.122  21.982
15237SOL    HW157339   4.206   1.064  21.921
15237SOL    HW257340   4.190   1.194  21.997
15238SOL     OW57341   0.995   4.780   0.122
15238SOL    HW157342   1.013   0.015   0.215
15238SOL    HW257343   1.047   4.702   0.101
15239SOL     OW57344   4.048   0.583   0.377
15239SOL    HW157345   4.071   0.663   0.329
15239SOL    HW257346   4.123   0.525   0.363
15240SOL     OW57347   0.480   1.753  19.295
15240SOL    HW157348   0.446   1.704  19.221
15240SOL    HW257349   0.566   1.715  19.312
15241SOL     OW57350   4.283   0.008  22.892
15241SOL    HW157351   4.258   0.099  22.907
15241SOL    HW257352   4.340   0.011  22.815
15242SOL     OW57353   0.194   2.194   2.664
15242SOL    HW157354   0.182   2.256   2.736
15242SOL    HW257355   0.259   2.132   2.697
15243SOL     OW57356   2.130   2.570  27.667
15243SOL    HW157357   2.195   2.633  27.638
15243SOL    HW257358   2.181   2.497  27.702
15244SOL     OW57359   3.955   2.556   3.192
15244SOL    HW157360   3.946   2.629   3.253
15244SOL    HW257361   3.983   2.596   3.110
15245SOL     OW57362   3.501   0.945  28.261
15245SOL    HW157363   3.489   1.037  28.282
15245SOL    HW257364   3.476   0.898  28.341
15246SOL     OW57365   1.057   0.695  10.394
15246SOL    HW157366   1.000   0.639  10.447
15246SOL    HW257367   1.116   0.735  10.458
15247SOL     OW57368   1.419   1.570  24.705
15247SOL    HW157369   1.449   1.648  24.659
15247SOL    HW257370   1.335   1.549  24.664
15248SOL     OW57371   3.274   3.911  24.137
15248SOL    HW157372   3.310   3.876  24.055
15248SOL    HW257373   3.259   3.834  24.191
15249SOL     OW57374   4.772   0.598  25.225
15249SOL    HW157375   4.724   0.630  25.301
15249SOL    HW257376   4.756   0.664  25.158
15250SOL     OW57377   0.832   2.621   5.696
15250SOL    HW157378   0.904   2.590   5.750
15250SOL    HW257379   0.755   2.577   5.732
15251SOL     OW57380   4.527   2.636  17.191
15251SOL    HW157381   4.572   2.587  17.123
15251SOL    HW257382   4.502   2.570  17.256
15252SOL     OW57383   0.554   2.067  22.860
15252SOL    HW157384   0.526   2.129  22.793
15252SOL    HW257385   0.526   2.107  22.943
15253SOL     OW57386   3.032   1.955  16.879
15253SOL    HW157387   2.950   1.906  16.869
15253SOL    HW257388   3.059   1.975  16.789
15254SOL     OW57389   1.909   2.184   1.605
15254SOL    HW157390   1.823   2.161   1.569
15254SOL    HW257391   1.893   2.200   1.698
15255SOL     OW57392   3.239   3.947  25.098
15255SOL    HW157393   3.220   4.031  25.139
15255SOL    HW257394   3.218   3.882  25.165
15256SOL     OW57395   4.291   3.542  24.912
15256SOL    HW157396   4.364   3.491  24.948
15256SOL    HW257397   4.306   3.540  24.817
15257SOL     OW57398   3.245   4.316  17.813
15257SOL    HW157399   3.295   4.362  17.745
15257SOL    HW257400   3.279   4.227  17.812
15258SOL     OW57401   3.229   4.726   4.000
15258SOL    HW157402   3.221   4.631   3.997
15258SOL    HW257403   3.221   4.747   4.093
15259SOL     OW57404   1.795   3.718   1.991
15259SOL    HW157405   1.734   3.712   2.065
15259SOL    HW257406   1.776   3.803   1.952
15260SOL     OW57407   0.173   2.627  23.621
15260SOL    HW157408   0.112   2.557  23.596
15260SOL    HW257409   0.181   2.682  23.543
15261SOL     OW57410   4.309   0.542   4.497
15261SOL    HW157411   4.275   0.617   4.448
15261SOL    HW257412   4.261   0.543   4.580
15262SOL     OW57413   3.560   2.597  25.251
15262SOL    HW157414   3.591   2.533  25.186
15262SOL    HW257415   3.638   2.619  25.302
15263SOL     OW57416   4.754   3.667  10.327
15263SOL    HW157417   0.014   3.583  10.347
15263SOL    HW257418   4.661   3.647  10.320
15264SOL     OW57419   4.142   2.559  20.480
15264SOL    HW157420   4.158   2.503  20.556
15264SOL    HW257421   4.145   2.499  20.405
15265SOL     OW57422   2.717   1.938  23.727
15265SOL    HW157423   2.720   1.844  23.745
15265SOL    HW257424   2.747   1.947  23.637
15266SOL     OW57425   1.902   3.084   6.214
15266SOL    HW157426   1.860   3.110   6.132
15266SOL    HW257427   1.886   3.157   6.274
15267SOL     OW57428   2.528   0.342   1.301
15267SOL    HW157429   2.468   0.313   1.369
15267SOL    HW257430   2.499   0.431   1.279
15268SOL     OW57431   0.297   3.548  24.130
15268SOL    HW157432   0.214   3.588  24.157
15268SOL    HW257433   0.281   3.454  24.134
15269SOL     OW57434   3.499   1.734   6.294
15269SOL    HW157435   3.472   1.788   6.368
15269SOL    HW257436   3.544   1.659   6.333
15270SOL     OW57437   0.215   2.187   5.892
15270SOL    HW157438   0.210   2.252   5.822
15270SOL    HW257439   0.142   2.128   5.874
15271SOL     OW57440   4.064   1.963  11.609
15271SOL    HW157441   4.096   2.052  11.594
15271SOL    HW257442   4.125   1.907  11.561
15272SOL     OW57443   2.415   4.249   1.927
15272SOL    HW157444   2.347   4.249   1.995
15272SOL    HW257445   2.388   4.180   1.867
15273SOL     OW57446   0.687   2.983  25.861
15273SOL    HW157447   0.753   2.948  25.921
15273SOL    HW257448   0.626   3.030  25.918
15274SOL     OW57449   1.409   4.550  21.527
15274SOL    HW157450   1.400   4.634  21.482
15274SOL    HW257451   1.374   4.485  21.466
15275SOL     OW57452   1.451   3.356   5.387
15275SOL    HW157453   1.403   3.290   5.438
15275SOL    HW257454   1.403   3.437   5.403
15276SOL     OW57455   0.615   2.354   8.007
15276SOL    HW157456   0.544   2.394   8.058
15276SOL    HW257457   0.631   2.415   7.935
15277SOL     OW57458   4.398   0.820  25.689
15277SOL    HW157459   4.434   0.760  25.754
15277SOL    HW257460   4.474   0.867  25.654
15278SOL     OW57461   4.123   2.085   2.724
15278SOL    HW157462   4.196   2.105   2.782
15278SOL    HW257463   4.124   1.990   2.717
15279SOL     OW57464   0.364   3.120   0.181
15279SOL    HW157465   0.279   3.144   0.218
15279SOL    HW257466   0.378   3.184   0.111
15280SOL     OW57467   0.982   2.182  25.062
15280SOL    HW157468   1.016   2.163  25.149
15280SOL    HW257469   0.912   2.118  25.048
15281SOL     OW57470   2.235   0.231  22.310
15281SOL    HW157471   2.230   0.326  22.319
15281SOL    HW257472   2.187   0.213  22.229
15282SOL     OW57473   0.207   1.454  21.567
15282SOL    HW157474   0.145   1.512  21.523
15282SOL    HW257475   0.272   1.513  21.604
15283SOL     OW57476   1.749   3.415  22.772
15283SOL    HW157477   1.834   3.455  22.756
15283SOL    HW257478   1.733   3.429  22.865
15284SOL     OW57479   0.355   3.661   4.539
15284SOL    HW157480   0.434   3.684   4.490
15284SOL    HW257481   0.302   3.741   4.539
15285SOL     OW57482   0.124   3.910   1.617
15285SOL    HW157483   0.125   3.912   1.713
15285SOL    HW257484   0.161   3.825   1.594
15286SOL     OW57485   2.354   0.243  24.320
15286SOL    HW157486   2.422   0.289  24.369
15286SOL    HW257487   2.272   0.264  24.365
15287SOL     OW57488   3.481   2.458  20.406
15287SOL    HW157489   3.519   2.370  20.407
15287SOL    HW257490   3.440   2.467  20.492
15288SOL     OW57491   4.594   4.639  20.883
15288SOL    HW157492   4.572   4.596  20.966
15288SOL    HW257493   4.680   4.604  20.860
15289SOL     OW57494   1.777   3.922  26.731
15289SOL    HW157495   1.850   3.865  26.755
15289SOL    HW257496   1.712   3.863  26.692
15290SOL     OW57497   1.966   0.845  17.465
15290SOL    HW157498   1.957   0.760  17.421
15290SOL    HW257499   1.985   0.906  17.394
15291SOL     OW57500   0.443   2.577  20.891
15291SOL    HW157501   0.405   2.636  20.956
15291SOL    HW257502   0.501   2.633  20.839
15292SOL     OW57503   4.291   0.912   6.307
15292SOL    HW157504   4.243   0.974   6.253
15292SOL    HW257505   4.273   0.939   6.397
15293SOL     OW57506   3.463   0.489  27.199
15293SOL    HW157507   3.415   0.406  27.194
15293SOL    HW257508   3.429   0.540  27.126
15294SOL     OW57509   1.624   2.339  27.727
15294SOL    HW157510   1.697   2.289  27.690
15294SOL    HW257511   1.665   2.399  27.789
15295SOL     OW57512   2.131   2.065   1.459
15295SOL    HW157513   2.098   2.087   1.372
15295SOL    HW257514   2.052   2.052   1.512
15296SOL     OW57515   1.951   1.617  27.084
15296SOL    HW157516   1.968   1.698  27.036
15296SOL    HW257517   1.972   1.547  27.022
15297SOL     OW57518   3.258   2.951  10.907
15297SOL    HW157519   3.307   2.988  10.981
15297SOL    HW257520   3.273   2.857  10.914
15298SOL     OW57521   1.223   0.470  22.745
15298SOL    HW157522   1.165   0.408  22.700
15298SOL    HW257523   1.293   0.416  22.780
15299SOL     OW57524   3.631   3.182   1.305
15299SOL    HW157525   3.707   3.229   1.270
15299SOL    HW257526   3.565   3.190   1.236
15300SOL     OW57527   3.470   4.389   2.752
15300SOL    HW157528   3.449   4.460   2.691
15300SOL    HW257529   3.405   4.321   2.733
15301SOL     OW57530   3.755   2.687   0.165
15301SOL    HW157531   3.800   2.767   0.137
15301SOL    HW257532   3.739   2.639   0.084
15302SOL     OW57533   1.073   3.123  22.196
15302SOL    HW157534   1.093   3.035  22.227
15302SOL    HW257535   0.981   3.119  22.171
15303SOL     OW57536   2.152   1.133   5.908
15303SOL    HW157537   2.230   1.116   5.960
15303SOL    HW257538   2.180   1.196   5.842
15304SOL     OW57539   1.049   1.196  24.462
15304SOL    HW157540   0.958   1.214  24.486
15304SOL    HW257541   1.063   1.247  24.382
15305SOL     OW57542   3.478   3.716  23.600
15305SOL    HW157543   3.486   3.646  23.535
15305SOL    HW257544   3.464   3.795  23.548
15306SOL     OW57545   2.795   3.588   1.078
15306SOL    HW157546   2.706   3.623   1.073
15306SOL    HW257547   2.834   3.608   0.993
15307SOL     OW57548   3.070   1.110   2.971
15307SOL    HW157549   2.998   1.109   3.034
15307SOL    HW257550   3.058   1.191   2.922
15308SOL     OW57551   3.588   4.663   3.702
15308SOL    HW157552   3.657   4.663   3.636
15308SOL    HW257553   3.507   4.655   3.652
15309SOL     OW57554   4.542   3.294  25.801
15309SOL    HW157555   4.555   3.388  25.814
15309SOL    HW257556   4.614   3.267  25.744
15310SOL     OW57557   3.753   0.776  23.070
15310SOL    HW157558   3.708   0.696  23.096
15310SOL    HW257559   3.759   0.828  23.150
15311SOL     OW57560   0.501   4.308   4.035
15311SOL    HW157561   0.461   4.227   4.066
15311SOL    HW257562   0.584   4.280   3.995
15312SOL     OW57563   0.078   3.288   2.618
15312SOL    HW157564   0.082   3.368   2.670
15312SOL    HW257565   0.027   3.227   2.672
15313SOL     OW57566   1.279   3.957  27.053
15313SOL    HW157567   1.294   3.868  27.085
15313SOL    HW257568   1.337   4.011  27.106
15314SOL     OW57569   0.235   1.950  26.902
15314SOL    HW157570   0.292   1.950  26.979
15314SOL    HW257571   0.147   1.957  26.938
15315SOL     OW57572   4.314   3.710  26.023
15315SOL    HW157573   4.384   3.675  26.078
15315SOL    HW257574   4.343   3.799  26.001
15316SOL     OW57575   3.102   1.369  24.992
15316SOL    HW157576   3.063   1.328  24.915
15316SOL    HW257577   3.080   1.310  25.064
15317SOL     OW57578   1.071   1.402  21.723
15317SOL    HW157579   1.119   1.430  21.801
15317SOL    HW257580   1.075   1.306  21.725
15318SOL     OW57581   4.020   1.037   4.773
15318SOL    HW157582   4.092   1.100   4.771
15318SOL    HW257583   3.945   1.085   4.737
15319SOL     OW57584   1.379   0.008  21.391
15319SOL    HW157585   1.388   0.039  21.301
15319SOL    HW257586   1.400   0.084  21.445
15320SOL     OW57587   2.297   0.717  27.272
15320SOL    HW157588   2.389   0.696  27.255
15320SOL    HW257589   2.272   0.776  27.201
15321SOL     OW57590   1.209   3.975   4.442
15321SOL    HW157591   1.178   4.065   4.436
15321SOL    HW257592   1.133   3.922   4.417
15322SOL     OW57593   2.776   2.574  24.091
15322SOL    HW157594   2.826   2.545  24.167
15322SOL    HW257595   2.730   2.652  24.121
15323SOL     OW57596   1.431   2.843  23.203
15323SOL    HW157597   1.463   2.795  23.279
15323SOL    HW257598   1.360   2.898  23.237
15324SOL     OW57599   2.143   1.909  22.885
15324SOL    HW157600   2.116   1.906  22.793
15324SOL    HW257601   2.171   2.000  22.898
15325SOL     OW57602   2.370   0.638   6.085
15325SOL    HW157603   2.304   0.582   6.127
15325SOL    HW257604   2.325   0.675   6.009
15326SOL     OW57605   3.698   3.111  22.342
15326SOL    HW157606   3.608   3.143  22.349
15326SOL    HW257607   3.705   3.044  22.410
15327SOL     OW57608   3.473   1.645  25.129
15327SOL    HW157609   3.504   1.563  25.167
15327SOL    HW257610   3.505   1.642  25.039
15328SOL     OW57611   1.190   4.331  11.921
15328SOL    HW157612   1.119   4.382  11.960
15328SOL    HW257613   1.169   4.240  11.943
15329SOL     OW57614   2.263   0.499   1.706
15329SOL    HW157615   2.271   0.506   1.801
15329SOL    HW257616   2.173   0.526   1.688
15330SOL     OW57617   3.674   1.175   4.813
15330SOL    HW157618   3.656   1.184   4.907
15330SOL    HW257619   3.655   1.083   4.793
15331SOL     OW57620   1.792   3.054   2.263
15331SOL    HW157621   1.763   2.985   2.204
15331SOL    HW257622   1.718   3.114   2.269
15332SOL     OW57623   1.144   0.540   8.669
15332SOL    HW157624   1.084   0.540   8.595
15332SOL    HW257625   1.116   0.465   8.722
15333SOL     OW57626   4.776   3.735  28.188
15333SOL    HW157627   0.006   3.650  28.231
15333SOL    HW257628   4.710   3.780  28.241
15334SOL     OW57629   3.219   2.058  18.641
15334SOL    HW157630   3.241   2.143  18.602
15334SOL    HW257631   3.296   2.036  18.694
15335SOL     OW57632   4.326   0.383   6.808
15335SOL    HW157633   4.236   0.354   6.792
15335SOL    HW257634   4.322   0.427   6.893
15336SOL     OW57635   2.340   3.060  27.569
15336SOL    HW157636   2.391   3.052  27.489
15336SOL    HW257637   2.351   3.151  27.596
15337SOL     OW57638   2.989   1.802  23.820
15337SOL    HW157639   2.954   1.782  23.733
15337SOL    HW257640   2.986   1.897  23.826
15338SOL     OW57641   2.629   2.421   7.598
15338SOL    HW157642   2.544   2.379   7.587
15338SOL    HW257643   2.628   2.495   7.537
15339SOL     OW57644   2.642   3.606  25.022
15339SOL    HW157645   2.657   3.595  24.928
15339SOL    HW257646   2.595   3.527  25.048
15340SOL     OW57647   2.560   4.465  21.551
15340SOL    HW157648   2.489   4.433  21.606
15340SOL    HW257649   2.525   4.545  21.511
15341SOL     OW57650   2.408   2.877   8.873
15341SOL    HW157651   2.426   2.866   8.967
15341SOL    HW257652   2.424   2.790   8.836
15342SOL     OW57653   1.889   0.996   7.558
15342SOL    HW157654   1.808   1.028   7.519
15342SOL    HW257655   1.956   1.057   7.528
15343SOL     OW57656   3.275   4.666  23.940
15343SOL    HW157657   3.321   4.749  23.952
15343SOL    HW257658   3.312   4.608  24.007
15344SOL     OW57659   1.589   3.549  18.632
15344SOL    HW157660   1.666   3.605  18.642
15344SOL    HW257661   1.520   3.608  18.602
15345SOL     OW57662   4.147   3.920  11.452
15345SOL    HW157663   4.103   3.835  11.445
15345SOL    HW257664   4.163   3.931  11.546
15346SOL     OW57665   2.846   0.015  22.735
15346SOL    HW157666   2.908   4.774  22.805
15346SOL    HW257667   2.898   0.011  22.655
15347SOL     OW57668   2.996   0.507   7.858
15347SOL    HW157669   2.994   0.602   7.850
15347SOL    HW257670   2.986   0.476   7.768
15348SOL     OW57671   3.331   3.179   0.752
15348SOL    HW157672   3.254   3.190   0.696
15348SOL    HW257673   3.405   3.191   0.693
15349SOL     OW57674   1.546   4.139  25.779
15349SOL    HW157675   1.457   4.103  25.782
15349SOL    HW257676   1.547   4.194  25.700
15350SOL     OW57677   0.137   1.864  11.251
15350SOL    HW157678   0.075   1.911  11.306
15350SOL    HW257679   0.139   1.775  11.287
15351SOL     OW57680   0.556   4.529  23.366
15351SOL    HW157681   0.483   4.589  23.351
15351SOL    HW257682   0.515   4.443  23.372
15352SOL     OW57683   2.271   1.912   7.410
15352SOL    HW157684   2.218   1.832   7.406
15352SOL    HW257685   2.348   1.886   7.460
15353SOL     OW57686   0.184   2.705  11.226
15353SOL    HW157687   0.264   2.658  11.204
15353SOL    HW257688   0.179   2.700  11.322
15354SOL     OW57689   3.024   3.643  26.124
15354SOL    HW157690   3.108   3.622  26.165
15354SOL    HW257691   3.014   3.737  26.138
15355SOL     OW57692   0.064   1.682   2.007
15355SOL    HW157693   0.101   1.759   1.964
15355SOL    HW257694   0.133   1.616   2.001
15356SOL     OW57695   3.796   0.104   7.288
15356SOL    HW157696   3.757   0.178   7.334
15356SOL    HW257697   3.744   0.095   7.208
15357SOL     OW57698   2.920   1.128   2.125
15357SOL    HW157699   2.990   1.122   2.060
15357SOL    HW257700   2.841   1.104   2.077
15358SOL     OW57701   0.079   3.139  10.585
15358SOL    HW157702   0.083   3.232  10.607
15358SOL    HW257703   0.018   3.102  10.649
15359SOL     OW57704   2.575   1.365   5.832
15359SOL    HW157705   2.489   1.378   5.873
15359SOL    HW257706   2.631   1.431   5.873
15360SOL     OW57707   0.610   0.039   6.233
15360SOL    HW157708   0.589   4.731   6.261
15360SOL    HW257709   0.533   0.067   6.183
15361SOL     OW57710   1.220   0.333  26.135
15361SOL    HW157711   1.223   0.421  26.098
15361SOL    HW257712   1.150   0.289  26.086
15362SOL     OW57713   3.748   0.913  19.143
15362SOL    HW157714   3.732   0.997  19.099
15362SOL    HW257715   3.722   0.847  19.079
15363SOL     OW57716   0.368   0.068   1.772
15363SOL    HW157717   0.440   0.089   1.712
15363SOL    HW257718   0.391   4.763   1.808
15364SOL     OW57719   0.351   1.710  22.822
15364SOL    HW157720   0.327   1.736  22.911
15364SOL    HW257721   0.273   1.727  22.770
15365SOL     OW57722   1.734   4.589  27.577
15365SOL    HW157723   1.687   4.615  27.656
15365SOL    HW257724   1.670   4.601  27.507
15366SOL     OW57725   2.450   2.715   8.033
15366SOL    HW157726   2.441   2.652   7.962
15366SOL    HW257727   2.457   2.661   8.112
15367SOL     OW57728   0.271   1.169  20.038
15367SOL    HW157729   0.268   1.145  19.945
15367SOL    HW257730   0.290   1.087  20.083
15368SOL     OW57731   4.461   0.676   6.423
15368SOL    HW157732   4.541   0.692   6.372
15368SOL    HW257733   4.404   0.750   6.402
15369SOL     OW57734   0.844   1.547   9.304
15369SOL    HW157735   0.761   1.501   9.316
15369SOL    HW257736   0.854   1.600   9.383
15370SOL     OW57737   4.641   2.178  24.444
15370SOL    HW157738   4.580   2.136  24.504
15370SOL    HW257739   4.701   2.226  24.501
15371SOL     OW57740   4.084   1.111  20.288
15371SOL    HW157741   4.109   1.134  20.199
15371SOL    HW257742   4.120   1.024  20.302
15372SOL     OW57743   2.154   0.443  23.221
15372SOL    HW157744   2.248   0.457  23.230
15372SOL    HW257745   2.133   0.380  23.289
15373SOL     OW57746   4.079   3.344  21.822
15373SOL    HW157747   4.136   3.286  21.872
15373SOL    HW257748   4.001   3.291  21.805
15374SOL     OW57749   2.331   0.948  27.083
15374SOL    HW157750   2.258   1.002  27.113
15374SOL    HW257751   2.394   0.951  27.155
15375SOL     OW57752   1.952   2.614   5.813
15375SOL    HW157753   1.993   2.698   5.832
15375SOL    HW257754   1.864   2.636   5.782
15376SOL     OW57755   1.858   1.484   9.862
15376SOL    HW157756   1.765   1.471   9.843
15376SOL    HW257757   1.889   1.539   9.790
15377SOL     OW57758   2.914   2.543  28.184
15377SOL    HW157759   2.840   2.483  28.188
15377SOL    HW257760   2.966   2.522  28.262
15378SOL     OW57761   4.127   1.532   1.931
15378SOL    HW157762   4.185   1.588   1.982
15378SOL    HW257763   4.060   1.591   1.897
15379SOL     OW57764   1.664   1.245  21.460
15379SOL    HW157765   1.627   1.313  21.517
15379SOL    HW257766   1.590   1.215  21.408
15380SOL     OW57767   3.194   3.984   9.048
15380SOL    HW157768   3.244   3.928   8.988
15380SOL    HW257769   3.250   3.994   9.125
15381SOL     OW57770   4.596   4.509  24.989
15381SOL    HW157771   4.574   4.548  25.074
15381SOL    HW257772   4.659   4.440  25.009
15382SOL     OW57773   1.275   4.454  24.316
15382SOL    HW157774   1.191   4.472  24.273
15382SOL    HW257775   1.260   4.373  24.365
15383SOL     OW57776   0.924   0.590   6.676
15383SOL    HW157777   0.897   0.678   6.703
15383SOL    HW257778   0.922   0.592   6.580
15384SOL     OW57779   0.636   1.239   2.981
15384SOL    HW157780   0.552   1.256   2.938
15384SOL    HW257781   0.638   1.300   3.055
15385SOL     OW57782   2.145   4.024  25.505
15385SOL    HW157783   2.154   3.945  25.558
15385SOL    HW257784   2.226   4.028  25.455
15386SOL     OW57785   2.227   0.866   7.100
15386SOL    HW157786   2.153   0.832   7.149
15386SOL    HW257787   2.241   0.802   7.030
15387SOL     OW57788   0.361   0.623  23.872
15387SOL    HW157789   0.441   0.572  23.884
15387SOL    HW257790   0.292   0.557  23.861
15388SOL     OW57791   4.170   3.812  22.121
15388SOL    HW157792   4.213   3.727  22.121
15388SOL    HW257793   4.241   3.875  22.112
15389SOL     OW57794   2.959   1.389  21.696
15389SOL    HW157795   2.972   1.376  21.790
15389SOL    HW257796   3.044   1.420  21.664
15390SOL     OW57797   3.093   0.849  22.228
15390SOL    HW157798   3.174   0.850  22.177
15390SOL    HW257799   3.030   0.896  22.174
15391SOL     OW57800   4.102   1.884   9.713
15391SOL    HW157801   4.072   1.802   9.752
15391SOL    HW257802   4.025   1.942   9.716
15392SOL     OW57803   2.250   0.985   8.379
15392SOL    HW157804   2.300   0.949   8.306
15392SOL    HW257805   2.264   1.080   8.373
15393SOL     OW57806   4.556   1.309  20.495
15393SOL    HW157807   4.527   1.353  20.415
15393SOL    HW257808   4.475   1.285  20.540
15394SOL     OW57809   1.973   2.645   5.362
15394SOL    HW157810   1.995   2.697   5.439
15394SOL    HW257811   1.943   2.561   5.397
15395SOL     OW57812   2.730   1.440  20.721
15395SOL    HW157813   2.815   1.464  20.757
15395SOL    HW257814   2.671   1.509  20.751
15396SOL     OW57815   0.309   2.998   8.635
15396SOL    HW157816   0.236   3.036   8.586
15396SOL    HW257817   0.308   3.044   8.719
15397SOL     OW57818   4.054   2.426  10.810
15397SOL    HW157819   4.104   2.474  10.744
15397SOL    HW257820   3.974   2.478  10.822
15398SOL     OW57821   1.311   3.956  18.649
15398SOL    HW157822   1.367   4.003  18.710
15398SOL    HW257823   1.345   3.979  18.562
15399SOL     OW57824   2.936   3.016  27.632
15399SOL    HW157825   2.925   2.940  27.689
15399SOL    HW257826   2.856   3.067  27.644
15400SOL     OW57827   1.642   4.470  20.834
15400SOL    HW157828   1.584   4.411  20.785
15400SOL    HW257829   1.621   4.557  20.801
15401SOL     OW57830   0.658   1.241  20.836
15401SOL    HW157831   0.586   1.191  20.874
15401SOL    HW257832   0.722   1.175  20.810
15402SOL     OW57833   4.322   4.248   6.727
15402SOL    HW157834   4.307   4.175   6.786
15402SOL    HW257835   4.237   4.290   6.718
15403SOL     OW57836   3.325   2.277  27.577
15403SOL    HW157837   3.298   2.265  27.486
15403SOL    HW257838   3.408   2.324  27.572
15404SOL     OW57839   3.969   3.689  21.522
15404SOL    HW157840   3.916   3.609  21.524
15404SOL    HW257841   4.016   3.689  21.606
15405SOL     OW57842   3.078   4.168   3.994
15405SOL    HW157843   3.078   4.073   4.001
15405SOL    HW257844   3.170   4.192   4.005
15406SOL     OW57845   2.697   0.059  23.898
15406SOL    HW157846   2.739   0.038  23.815
15406SOL    HW257847   2.634   0.127  23.876
15407SOL     OW57848   4.773   3.432   7.917
15407SOL    HW157849   4.705   3.445   7.983
15407SOL    HW257850   4.729   3.450   7.834
15408SOL     OW57851   4.731   3.099   1.317
15408SOL    HW157852   4.654   3.152   1.295
15408SOL    HW257853   4.717   3.073   1.408
15409SOL     OW57854   1.716   3.266  19.963
15409SOL    HW157855   1.711   3.315  19.881
15409SOL    HW257856   1.709   3.174  19.937
15410SOL     OW57857   0.695   2.796   0.004
15410SOL    HW157858   0.734   2.776   0.089
15410SOL    HW257859   0.602   2.807   0.022
15411SOL     OW57860   1.021   1.500  27.047
15411SOL    HW157861   1.078   1.455  27.110
15411SOL    HW257862   1.042   1.593  27.059
15412SOL     OW57863   2.833   0.156   3.384
15412SOL    HW157864   2.914   0.206   3.373
15412SOL    HW257865   2.768   0.221   3.411
15413SOL     OW57866   2.908   2.879   4.202
15413SOL    HW157867   2.895   2.815   4.272
15413SOL    HW257868   2.889   2.964   4.242
15414SOL     OW57869   4.589   2.259   1.909
15414SOL    HW157870   4.662   2.217   1.864
15414SOL    HW257871   4.568   2.199   1.981
15415SOL     OW57872   1.627   1.727  18.790
15415SOL    HW157873   1.626   1.820  18.767
15415SOL    HW257874   1.717   1.711  18.819
15416SOL     OW57875   3.243   3.585   1.107
15416SOL    HW157876   3.265   3.512   1.165
15416SOL    HW257877   3.291   3.566   1.026
15417SOL     OW57878   1.373   4.220  20.284
15417SOL    HW157879   1.403   4.171  20.208
15417SOL    HW257880   1.412   4.307  20.273
15418SOL     OW57881   2.582   1.477   8.190
15418SOL    HW157882   2.659   1.534   8.193
15418SOL    HW257883   2.530   1.504   8.266
15419SOL     OW57884   0.750   2.194  28.296
15419SOL    HW157885   0.801   2.258  28.246
15419SOL    HW257886   0.671   2.241  28.321
15420SOL     OW57887   4.433   3.376   8.610
15420SOL    HW157888   4.431   3.470   8.590
15420SOL    HW257889   4.403   3.334   8.529
15421SOL     OW57890   3.755   2.915  26.021
15421SOL    HW157891   3.829   2.976  26.027
15421SOL    HW257892   3.697   2.939  26.093
15422SOL     OW57893   1.108   0.594  23.137
15422SOL    HW157894   1.099   0.664  23.073
15422SOL    HW257895   1.191   0.552  23.115
15423SOL     OW57896   2.746   4.200   7.579
15423SOL    HW157897   2.806   4.258   7.533
15423SOL    HW257898   2.671   4.190   7.520
15424SOL     OW57899   0.977   1.990   7.448
15424SOL    HW157900   0.968   1.978   7.542
15424SOL    HW257901   0.933   1.914   7.409
15425SOL     OW57902   1.569   4.616  26.380
15425SOL    HW157903   1.594   4.585  26.467
15425SOL    HW257904   1.550   4.709  26.393
15426SOL     OW57905   2.284   3.119   0.723
15426SOL    HW157906   2.379   3.113   0.733
15426SOL    HW257907   2.250   3.102   0.811
15427SOL     OW57908   1.795   3.623  27.540
15427SOL    HW157909   1.792   3.691  27.473
15427SOL    HW257910   1.871   3.570  27.516
15428SOL     OW57911   0.796   0.136   1.344
15428SOL    HW157912   0.891   0.149   1.348
15428SOL    HW257913   0.773   0.156   1.253
15429SOL     OW57914   0.160   0.698  20.444
15429SOL    HW157915   0.098   0.665  20.509
15429SOL    HW257916   0.105   0.740  20.378
15430SOL     OW57917   1.403   4.061   5.270
15430SOL    HW157918   1.348   4.037   5.195
15430SOL    HW257919   1.436   4.148   5.248
15431SOL     OW57920   3.572   1.747  27.416
15431SOL    HW157921   3.521   1.699  27.481
15431SOL    HW257922   3.530   1.833  27.410
15432SOL     OW57923   3.624   1.795  26.515
15432SOL    HW157924   3.680   1.865  26.548
15432SOL    HW257925   3.671   1.715  26.537
15433SOL     OW57926   3.213   2.403   7.449
15433SOL    HW157927   3.298   2.446   7.442
15433SOL    HW257928   3.181   2.426   7.536
15434SOL     OW57929   2.303   0.276   6.826
15434SOL    HW157930   2.314   0.357   6.776
15434SOL    HW257931   2.268   0.305   6.910
15435SOL     OW57932   4.492   0.700   3.002
15435SOL    HW157933   4.402   0.701   2.969
15435SOL    HW257934   4.486   0.740   3.089
15436SOL     OW57935   1.129   1.045   9.831
15436SOL    HW157936   1.131   1.114   9.765
15436SOL    HW257937   1.074   1.080   9.901
15437SOL     OW57938   0.034   3.506  21.076
15437SOL    HW157939   0.008   3.548  21.158
15437SOL    HW257940   4.732   3.489  21.031
15438SOL     OW57941   3.790   4.642  18.307
15438SOL    HW157942   3.776   4.554  18.273
15438SOL    HW257943   3.715   4.692  18.275
15439SOL     OW57944   1.100   0.169  25.621
15439SOL    HW157945   1.052   0.144  25.700
15439SOL    HW257946   1.178   0.214  25.654
15440SOL     OW57947   0.856   0.151  25.451
15440SOL    HW157948   0.901   0.154  25.535
15440SOL    HW257949   0.779   0.096  25.466
15441SOL     OW57950   3.137   4.211  21.235
15441SOL    HW157951   3.087   4.200  21.316
15441SOL    HW257952   3.227   4.225  21.265
15442SOL     OW57953   1.519   1.743   3.815
15442SOL    HW157954   1.471   1.771   3.893
15442SOL    HW257955   1.565   1.822   3.786
15443SOL     OW57956   2.847   3.270   4.778
15443SOL    HW157957   2.935   3.304   4.764
15443SOL    HW257958   2.839   3.197   4.716
15444SOL     OW57959   1.093   1.302   2.016
15444SOL    HW157960   1.187   1.310   2.031
15444SOL    HW257961   1.077   1.357   1.939
15445SOL     OW57962   1.909   0.883   1.612
15445SOL    HW157963   1.990   0.933   1.600
15445SOL    HW257964   1.882   0.860   1.523
15446SOL     OW57965   2.875   0.846   3.403
15446SOL    HW157966   2.942   0.780   3.387
15446SOL    HW257967   2.881   0.905   3.328
15447SOL     OW57968   1.001   3.481   6.378
15447SOL    HW157969   1.023   3.540   6.450
15447SOL    HW257970   1.053   3.402   6.395
15448SOL     OW57971   3.753   2.232  26.722
15448SOL    HW157972   3.757   2.259  26.814
15448SOL    HW257973   3.756   2.314  26.672
15449SOL     OW57974   0.656   2.826   7.663
15449SOL    HW157975   0.610   2.904   7.632
15449SOL    HW257976   0.586   2.768   7.693
15450SOL     OW57977   4.551   1.981   1.924
15450SOL    HW157978   4.514   1.992   1.836
15450SOL    HW257979   4.625   1.922   1.912
15451SOL     OW57980   3.691   0.615  27.569
15451SOL    HW157981   3.636   0.637  27.644
15451SOL    HW257982   3.715   0.700  27.532
15452SOL     OW57983   2.587   4.776   1.225
15452SOL    HW157984   2.495   0.011   1.248
15452SOL    HW257985   2.587   4.689   1.185
15453SOL     OW57986   1.451   4.459  18.852
15453SOL    HW157987   1.536   4.493  18.824
15453SOL    HW257988   1.413   4.420  18.773
15454SOL     OW57989   0.094   2.228   8.329
15454SOL    HW157990   0.189   2.220   8.331
15454SOL    HW257991   0.066   2.202   8.417
15455SOL     OW57992   0.937   2.597  19.603
15455SOL    HW157993   0.854   2.628  19.639
15455SOL    HW257994   0.944   2.506  19.633
15456SOL     OW57995   1.507   2.768  20.012
15456SOL    HW157996   1.468   2.723  19.937
15456SOL    HW257997   1.433   2.805  20.059
15457SOL     OW57998   0.693   4.030   9.770
15457SOL    HW157999   0.740   3.959   9.726
15457SOL    HW258000   0.606   4.029   9.730
15458SOL     OW58001   3.120   2.199   9.147
15458SOL    HW158002   3.137   2.106   9.134
15458SOL    HW258003   3.121   2.236   9.059
15459SOL     OW58004   2.513   2.829   9.113
15459SOL    HW158005   2.510   2.798   9.203
15459SOL    HW258006   2.567   2.764   9.067
15460SOL     OW58007   2.513   1.038  23.965
15460SOL    HW158008   2.587   1.033  23.904
15460SOL    HW258009   2.463   1.114  23.935
15461SOL     OW58010   1.970   0.851   3.846
15461SOL    HW158011   1.919   0.872   3.768
15461SOL    HW258012   1.927   0.775   3.884
15462SOL     OW58013   2.897   2.746   0.189
15462SOL    HW158014   2.987   2.716   0.198
15462SOL    HW258015   2.858   2.685   0.126
15463SOL     OW58016   1.489   3.380  23.648
15463SOL    HW158017   1.467   3.289  23.668
15463SOL    HW258018   1.527   3.377  23.560
15464SOL     OW58019   2.873   0.946  26.255
15464SOL    HW158020   2.853   0.891  26.180
15464SOL    HW258021   2.788   0.978  26.285
15465SOL     OW58022   4.286   1.571   4.640
15465SOL    HW158023   4.310   1.646   4.694
15465SOL    HW258024   4.199   1.592   4.606
15466SOL     OW58025   1.939   0.372  10.597
15466SOL    HW158026   1.977   0.297  10.642
15466SOL    HW258027   1.960   0.447  10.653
15467SOL     OW58028   3.628   0.201  23.240
15467SOL    HW158029   3.631   0.294  23.262
15467SOL    HW258030   3.710   0.185  23.193
15468SOL     OW58031   0.497   1.575   4.706
15468SOL    HW158032   0.557   1.647   4.686
15468SOL    HW258033   0.541   1.497   4.674
15469SOL     OW58034   0.672   2.595   8.745
15469SOL    HW158035   0.765   2.616   8.751
15469SOL    HW258036   0.640   2.603   8.835
15470SOL     OW58037   4.193   2.775   5.421
15470SOL    HW158038   4.109   2.734   5.400
15470SOL    HW258039   4.241   2.775   5.338
15471SOL     OW58040   4.094   4.006  23.918
15471SOL    HW158041   4.167   4.015  23.857
15471SOL    HW258042   4.025   4.061  23.882
15472SOL     OW58043   4.537   0.786   6.792
15472SOL    HW158044   4.532   0.702   6.747
15472SOL    HW258045   4.469   0.781   6.860
15473SOL     OW58046   3.621   2.360  22.119
15473SOL    HW158047   3.700   2.314  22.090
15473SOL    HW258048   3.643   2.394  22.206
15474SOL     OW58049   2.348   2.754  21.179
15474SOL    HW158050   2.277   2.817  21.191
15474SOL    HW258051   2.392   2.751  21.264
15475SOL     OW58052   3.901   4.592   0.004
15475SOL    HW158053   3.878   4.579  28.434
15475SOL    HW258054   3.978   4.649   0.002
15476SOL     OW58055   0.637   4.779   0.284
15476SOL    HW158056   0.576   4.775   0.358
15476SOL    HW258057   0.654   4.687   0.262
15477SOL     OW58058   1.179   0.317   5.364
15477SOL    HW158059   1.159   0.265   5.286
15477SOL    HW258060   1.164   0.257   5.437
15478SOL     OW58061   0.573   1.940   6.950
15478SOL    HW158062   0.509   1.900   7.008
15478SOL    HW258063   0.592   1.873   6.885
15479SOL     OW58064   0.936   3.003   7.949
15479SOL    HW158065   0.908   3.003   7.857
15479SOL    HW258066   1.029   2.980   7.945
15480SOL     OW58067   0.142   2.682   0.987
15480SOL    HW158068   0.094   2.757   0.951
15480SOL    HW258069   0.143   2.698   1.081
15481SOL     OW58070   3.869   3.231  10.682
15481SOL    HW158071   3.901   3.187  10.760
15481SOL    HW258072   3.877   3.166  10.613
15482SOL     OW58073   1.236   0.310   3.471
15482SOL    HW158074   1.316   0.293   3.421
15482SOL    HW258075   1.217   0.403   3.455
15483SOL     OW58076   0.061   3.116   0.626
15483SOL    HW158077   0.072   3.196   0.574
15483SOL    HW258078   0.040   3.048   0.562
15484SOL     OW58079   2.649   0.970   0.684
15484SOL    HW158080   2.616   0.969   0.774
15484SOL    HW258081   2.737   1.008   0.691
15485SOL     OW58082   0.219   1.921  27.220
15485SOL    HW158083   0.241   2.014  27.229
15485SOL    HW258084   0.142   1.909  27.275
15486SOL     OW58085   3.572   0.038   5.315
15486SOL    HW158086   3.571   4.735   5.361
15486SOL    HW258087   3.656   0.077   5.337
15487SOL     OW58088   1.519   3.377   6.165
15487SOL    HW158089   1.445   3.421   6.206
15487SOL    HW258090   1.487   3.352   6.078
15488SOL     OW58091   3.788   0.827   5.410
15488SOL    HW158092   3.766   0.806   5.319
15488SOL    HW258093   3.883   0.838   5.410
15489SOL     OW58094   1.850   0.799   4.438
15489SOL    HW158095   1.891   0.746   4.506
15489SOL    HW258096   1.785   0.851   4.485
15490SOL     OW58097   1.101   0.070   0.819
15490SOL    HW158098   1.038   0.137   0.792
15490SOL    HW258099   1.186   0.106   0.794
15491SOL     OW58100   3.084   0.801   3.203
15491SOL    HW158101   3.134   0.811   3.284
15491SOL    HW258102   3.145   0.759   3.142
15492SOL     OW58103   2.999   0.589  18.024
15492SOL    HW158104   3.066   0.556  17.964
15492SOL    HW258105   3.022   0.681  18.038
15493SOL     OW58106   3.434   4.702  19.175
15493SOL    HW158107   3.499   4.761  19.136
15493SOL    HW258108   3.454   4.704  19.269
15494SOL     OW58109   2.959   4.745   3.043
15494SOL    HW158110   3.030   4.684   3.025
15494SOL    HW258111   2.924   4.767   2.957
15495SOL     OW58112   3.725   1.642  28.223
15495SOL    HW158113   3.761   1.601  28.145
15495SOL    HW258114   3.801   1.676  28.270
15496SOL     OW58115   2.691   0.792   3.764
15496SOL    HW158116   2.700   0.829   3.852
15496SOL    HW258117   2.670   0.700   3.778
15497SOL     OW58118   2.518   4.165   7.154
15497SOL    HW158119   2.517   4.261   7.160
15497SOL    HW258120   2.426   4.141   7.141
15498SOL     OW58121   3.584   2.037   8.054
15498SOL    HW158122   3.663   2.007   8.100
15498SOL    HW258123   3.598   2.131   8.040
15499SOL     OW58124   2.714   1.614   5.141
15499SOL    HW158125   2.672   1.587   5.223
15499SOL    HW258126   2.729   1.532   5.094
15500SOL     OW58127   1.075   0.809   7.331
15500SOL    HW158128   1.138   0.842   7.395
15500SOL    HW258129   1.078   0.872   7.259
15501SOL     OW58130   4.175   2.577   8.189
15501SOL    HW158131   4.158   2.492   8.229
15501SOL    HW258132   4.183   2.637   8.263
15502SOL     OW58133   4.144   3.071   8.311
15502SOL    HW158134   4.133   2.993   8.256
15502SOL    HW258135   4.148   3.037   8.400
15503SOL     OW58136   4.659   4.096   3.983
15503SOL    HW158137   4.659   4.137   3.896
15503SOL    HW258138   4.615   4.160   4.039
15504SOL     OW58139   2.008   3.791   7.588
15504SOL    HW158140   2.056   3.782   7.671
15504SOL    HW258141   1.926   3.744   7.602
15505SOL     OW58142   4.555   1.336  21.087
15505SOL    HW158143   4.504   1.285  21.150
15505SOL    HW258144   4.508   1.326  21.005
15506SOL     OW58145   1.069   1.886   9.371
15506SOL    HW158146   0.988   1.864   9.417
15506SOL    HW258147   1.050   1.867   9.279
15507SOL     OW58148   2.655   1.377   5.021
15507SOL    HW158149   2.667   1.288   5.055
15507SOL    HW258150   2.681   1.371   4.929
15508SOL     OW58151   4.011   0.353  20.253
15508SOL    HW158152   4.012   0.324  20.162
15508SOL    HW258153   4.067   0.290  20.299
15509SOL     OW58154   1.552   1.170  25.290
15509SOL    HW158155   1.497   1.189  25.214
15509SOL    HW258156   1.501   1.108  25.342
15510SOL     OW58157   0.940   4.659  26.868
15510SOL    HW158158   0.928   4.672  26.774
15510SOL    HW258159   0.955   4.565  26.877
15511SOL     OW58160   0.413   0.624   2.436
15511SOL    HW158161   0.342   0.632   2.373
15511SOL    HW258162   0.378   0.567   2.505
15512SOL     OW58163   3.853   1.777  25.350
15512SOL    HW158164   3.774   1.831  25.357
15512SOL    HW258165   3.884   1.792  25.261
15513SOL     OW58166   1.352   4.249   6.860
15513SOL    HW158167   1.440   4.262   6.896
15513SOL    HW258168   1.362   4.175   6.800
15514SOL     OW58169   0.224   2.600  18.102
15514SOL    HW158170   0.147   2.617  18.047
15514SOL    HW258171   0.191   2.602  18.192
15515SOL     OW58172   0.022   4.236   3.554
15515SOL    HW158173   4.763   4.254   3.469
15515SOL    HW258174   4.780   4.312   3.607
15516SOL     OW58175   0.987   0.023  20.546
15516SOL    HW158176   1.078   0.024  20.576
15516SOL    HW258177   0.966   0.115  20.532
15517SOL     OW58178   4.095   2.088  25.275
15517SOL    HW158179   4.049   2.079  25.358
15517SOL    HW258180   4.034   2.052  25.210
15518SOL     OW58181   3.555   2.437  26.227
15518SOL    HW158182   3.484   2.424  26.290
15518SOL    HW258183   3.588   2.349  26.209
15519SOL     OW58184   2.526   3.131  26.307
15519SOL    HW158185   2.563   3.088  26.230
15519SOL    HW258186   2.522   3.063  26.374
15520SOL     OW58187   0.881   1.189  18.019
15520SOL    HW158188   0.947   1.139  18.068
15520SOL    HW258189   0.931   1.233  17.950
15521SOL     OW58190   3.433   3.371   1.120
15521SOL    HW158191   3.508   3.396   1.067
15521SOL    HW258192   3.398   3.293   1.078
15522SOL     OW58193   0.530   4.618  25.322
15522SOL    HW158194   0.509   4.551  25.257
15522SOL    HW258195   0.445   4.651  25.350
15523SOL     OW58196   3.125   4.182   7.028
15523SOL    HW158197   3.056   4.116   7.021
15523SOL    HW258198   3.130   4.201   7.122
15524SOL     OW58199   0.413   0.861  24.288
15524SOL    HW158200   0.375   0.779  24.319
15524SOL    HW258201   0.358   0.886  24.214
15525SOL     OW58202   4.289   2.567  26.215
15525SOL    HW158203   4.329   2.491  26.258
15525SOL    HW258204   4.196   2.546  26.210
15526SOL     OW58205   3.751   0.066  22.981
15526SOL    HW158206   3.840   0.040  23.006
15526SOL    HW258207   3.756   0.161  22.969
15527SOL     OW58208   3.502   0.554  18.828
15527SOL    HW158209   3.411   0.541  18.853
15527SOL    HW258210   3.511   0.506  18.746
15528SOL     OW58211   3.229   1.967   6.902
15528SOL    HW158212   3.310   1.920   6.885
15528SOL    HW258213   3.160   1.903   6.884
15529SOL     OW58214   1.333   2.820  28.074
15529SOL    HW158215   1.274   2.800  28.147
15529SOL    HW258216   1.333   2.740  28.021
15530SOL     OW58217   2.352   0.340  21.946
15530SOL    HW158218   2.354   0.435  21.955
15530SOL    HW258219   2.413   0.308  22.012
15531SOL     OW58220   3.890   0.090   6.300
15531SOL    HW158221   3.889   0.118   6.208
15531SOL    HW258222   3.983   0.084   6.322
15532SOL     OW58223   1.250   2.125  19.807
15532SOL    HW158224   1.266   2.044  19.856
15532SOL    HW258225   1.183   2.170  19.858
15533SOL     OW58226   1.787   1.573   3.401
15533SOL    HW158227   1.710   1.619   3.367
15533SOL    HW258228   1.772   1.481   3.379
15534SOL     OW58229   1.633   0.144  10.810
15534SOL    HW158230   1.652   0.181  10.896
15534SOL    HW258231   1.543   0.112  10.817
15535SOL     OW58232   1.795   4.391  18.129
15535SOL    HW158233   1.757   4.443  18.058
15535SOL    HW258234   1.813   4.306  18.090
15536SOL     OW58235   2.809   2.602  24.400
15536SOL    HW158236   2.850   2.657  24.467
15536SOL    HW258237   2.729   2.570  24.441
15537SOL     OW58238   4.367   1.513  18.884
15537SOL    HW158239   4.435   1.535  18.948
15537SOL    HW258240   4.334   1.597  18.853
15538SOL     OW58241   1.389   3.771   8.112
15538SOL    HW158242   1.314   3.809   8.158
15538SOL    HW258243   1.460   3.772   8.176
15539SOL     OW58244   4.147   1.956   5.480
15539SOL    HW158245   4.181   1.931   5.394
15539SOL    HW258246   4.220   2.001   5.523
15540SOL     OW58247   3.785   3.717  28.428
15540SOL    HW158248   3.706   3.740  28.378
15540SOL    HW258249   3.814   3.634  28.390
15541SOL     OW58250   4.072   1.187   2.092
15541SOL    HW158251   4.079   1.200   1.997
15541SOL    HW258252   3.979   1.168   2.106
15542SOL     OW58253   2.634   4.290   1.010
15542SOL    HW158254   2.546   4.271   0.978
15542SOL    HW258255   2.625   4.374   1.055
15543SOL     OW58256   2.002   4.350  27.895
15543SOL    HW158257   1.978   4.388  27.810
15543SOL    HW258258   1.921   4.353  27.946
15544SOL     OW58259   3.719   4.588  10.369
15544SOL    HW158260   3.688   4.677  10.386
15544SOL    HW258261   3.759   4.560  10.451
15545SOL     OW58262   2.232   2.631   5.094
15545SOL    HW158263   2.288   2.667   5.025
15545SOL    HW258264   2.264   2.541   5.106
15546SOL     OW58265   1.965   2.427   8.010
15546SOL    HW158266   1.994   2.518   8.007
15546SOL    HW258267   1.870   2.432   8.019
15547SOL     OW58268   2.453   2.456   0.408
15547SOL    HW158269   2.458   2.545   0.443
15547SOL    HW258270   2.431   2.467   0.316
15548SOL     OW58271   0.993   3.594  19.875
15548SOL    HW158272   1.045   3.640  19.809
15548SOL    HW258273   0.965   3.662  19.936
15549SOL     OW58274   1.275   3.898  10.612
15549SOL    HW158275   1.205   3.908  10.677
15549SOL    HW258276   1.348   3.861  10.661
15550SOL     OW58277   2.794   4.747  21.723
15550SOL    HW158278   2.792   4.778  21.632
15550SOL    HW258279   2.712   4.779  21.761
15551SOL     OW58280   3.540   0.153  25.089
15551SOL    HW158281   3.445   0.151  25.077
15551SOL    HW258282   3.568   0.230  25.039
15552SOL     OW58283   2.131   3.215   1.352
15552SOL    HW158284   2.114   3.138   1.297
15552SOL    HW258285   2.183   3.273   1.296
15553SOL     OW58286   0.607   3.401  18.896
15553SOL    HW158287   0.643   3.360  18.975
15553SOL    HW258288   0.649   3.355  18.824
15554SOL     OW58289   1.543   1.017   3.292
15554SOL    HW158290   1.458   1.019   3.247
15554SOL    HW258291   1.607   1.001   3.222
15555SOL     OW58292   2.406   3.972   6.737
15555SOL    HW158293   2.423   4.046   6.678
15555SOL    HW258294   2.462   3.901   6.704
15556SOL     OW58295   1.440   1.923  24.314
15556SOL    HW158296   1.461   1.836  24.281
15556SOL    HW258297   1.511   1.978  24.282
15557SOL     OW58298   3.827   3.728  16.943
15557SOL    HW158299   3.751   3.722  17.000
15557SOL    HW258300   3.801   3.683  16.863
15558SOL     OW58301   1.516   3.595   9.314
15558SOL    HW158302   1.449   3.660   9.291
15558SOL    HW258303   1.503   3.524   9.251
15559SOL     OW58304   3.133   0.088  27.321
15559SOL    HW158305   3.066   0.131  27.374
15559SOL    HW258306   3.084   0.042  27.253
15560SOL     OW58307   0.099   4.668   9.360
15560SOL    HW158308   0.044   4.641   9.287
15560SOL    HW258309   0.053   4.635   9.438
15561SOL     OW58310   0.014   3.412  20.192
15561SOL    HW158311   4.704   3.386  20.207
15561SOL    HW258312   0.063   3.330  20.195
15562SOL     OW58313   0.775   0.720  22.715
15562SOL    HW158314   0.705   0.748  22.774
15562SOL    HW258315   0.840   0.679  22.772
15563SOL     OW58316   1.262   3.560  17.098
15563SOL    HW158317   1.316   3.508  17.158
15563SOL    HW258318   1.188   3.503  17.076
15564SOL     OW58319   1.232   3.262  27.647
15564SOL    HW158320   1.209   3.297  27.733
15564SOL    HW258321   1.328   3.261  27.646
15565SOL     OW58322   2.190   0.615   9.364
15565SOL    HW158323   2.223   0.694   9.406
15565SOL    HW258324   2.102   0.603   9.399
15566SOL     OW58325   1.604   3.064   1.775
15566SOL    HW158326   1.686   3.112   1.789
15566SOL    HW258327   1.624   3.002   1.705
15567SOL     OW58328   1.304   3.662  22.234
15567SOL    HW158329   1.327   3.750  22.264
15567SOL    HW258330   1.256   3.676  22.153
15568SOL     OW58331   0.104   3.105  18.054
15568SOL    HW158332   0.052   3.185  18.055
15568SOL    HW258333   0.180   3.126  18.000
15569SOL     OW58334   0.371   0.162  27.311
15569SOL    HW158335   0.282   0.182  27.341
15569SOL    HW258336   0.402   0.094  27.371
15570SOL     OW58337   0.486   3.294   0.430
15570SOL    HW158338   0.478   3.360   0.499
15570SOL    HW258339   0.568   3.315   0.386
15571SOL     OW58340   0.367   1.922   1.855
15571SOL    HW158341   0.460   1.945   1.862
15571SOL    HW258342   0.332   1.933   1.943
15572SOL     OW58343   1.807   4.441  22.549
15572SOL    HW158344   1.855   4.523  22.555
15572SOL    HW258345   1.747   4.443  22.623
15573SOL     OW58346   0.830   1.277   7.878
15573SOL    HW158347   0.753   1.319   7.839
15573SOL    HW258348   0.880   1.245   7.803
15574SOL     OW58349   3.689   2.445   2.339
15574SOL    HW158350   3.772   2.478   2.305
15574SOL    HW258351   3.713   2.374   2.398
15575SOL     OW58352   2.368   1.308   7.531
15575SOL    HW158353   2.433   1.239   7.515
15575SOL    HW258354   2.369   1.320   7.626
15576SOL     OW58355   2.388   0.709   2.689
15576SOL    HW158356   2.406   0.616   2.676
15576SOL    HW258357   2.343   0.737   2.609
15577SOL     OW58358   3.356   0.669  27.031
15577SOL    HW158359   3.322   0.756  27.052
15577SOL    HW258360   3.408   0.683  26.952
15578SOL     OW58361   0.425   4.389   0.221
15578SOL    HW158362   0.440   4.295   0.220
15578SOL    HW258363   0.481   4.423   0.152
15579SOL     OW58364   2.105   3.167   8.950
15579SOL    HW158365   2.074   3.187   9.038
15579SOL    HW258366   2.052   3.222   8.892
15580SOL     OW58367   0.246   4.032  23.828
15580SOL    HW158368   0.235   3.989  23.743
15580SOL    HW258369   0.318   4.093  23.815
15581SOL     OW58370   2.193   0.562   1.065
15581SOL    HW158371   2.289   0.566   1.063
15581SOL    HW258372   2.166   0.567   0.973
15582SOL     OW58373   1.427   4.114  27.423
15582SOL    HW158374   1.372   4.123  27.501
15582SOL    HW258375   1.436   4.019  27.411
15583SOL     OW58376   3.652   4.377   3.843
15583SOL    HW158377   3.629   4.329   3.764
15583SOL    HW258378   3.586   4.446   3.849
15584SOL     OW58379   3.587   1.874  22.734
15584SOL    HW158380   3.667   1.823  22.725
15584SOL    HW258381   3.589   1.935  22.661
15585SOL     OW58382   3.702   3.614   8.002
15585SOL    HW158383   3.634   3.557   7.965
15585SOL    HW258384   3.754   3.641   7.927
15586SOL     OW58385   1.581   2.821   7.404
15586SOL    HW158386   1.612   2.770   7.479
15586SOL    HW258387   1.659   2.833   7.350
15587SOL     OW58388   2.537   1.992  24.623
15587SOL    HW158389   2.493   1.952  24.548
15587SOL    HW258390   2.469   1.998  24.690
15588SOL     OW58391   4.663   2.066  26.596
15588SOL    HW158392   4.592   2.026  26.646
15588SOL    HW258393   4.656   2.027  26.509
15589SOL     OW58394   3.338   0.925  27.406
15589SOL    HW158395   3.424   0.965  27.396
15589SOL    HW258396   3.355   0.831  27.415
15590SOL     OW58397   2.550   2.220   8.032
15590SOL    HW158398   2.526   2.312   8.019
15590SOL    HW258399   2.480   2.184   8.087
15591SOL     OW58400   3.244   3.386   1.685
15591SOL    HW158401   3.268   3.418   1.598
15591SOL    HW258402   3.188   3.455   1.721
15592SOL     OW58403   2.337   0.517  13.398
15592SOL    HW158404   2.306   0.541  13.485
15592SOL    HW258405   2.432   0.527  13.403
15593SOL     OW58406   0.241   3.782  22.357
15593SOL    HW158407   0.160   3.825  22.386
15593SOL    HW258408   0.216   3.690  22.345
15594SOL     OW58409   2.802   3.091   6.083
15594SOL    HW158410   2.873   3.121   6.027
15594SOL    HW258411   2.737   3.055   6.022
15595SOL     OW58412   3.563   2.098  11.159
15595SOL    HW158413   3.517   2.172  11.120
15595SOL    HW258414   3.494   2.047  11.203
15596SOL     OW58415   2.119   0.169  17.999
15596SOL    HW158416   2.106   0.080  17.966
15596SOL    HW258417   2.142   0.220  17.921
15597SOL     OW58418   2.028   3.473  22.830
15597SOL    HW158419   2.024   3.569  22.827
15597SOL    HW258420   2.117   3.454  22.859
15598SOL     OW58421   3.487   1.091  10.682
15598SOL    HW158422   3.525   1.011  10.718
15598SOL    HW258423   3.552   1.121  10.618
15599SOL     OW58424   0.359   1.522  21.203
15599SOL    HW158425   0.450   1.520  21.234
15599SOL    HW258426   0.336   1.615  21.203
15600SOL     OW58427   3.858   2.467  21.384
15600SOL    HW158428   3.770   2.501  21.369
15600SOL    HW258429   3.894   2.523  21.453
15601SOL     OW58430   0.752   1.903   6.069
15601SOL    HW158431   0.811   1.843   6.024
15601SOL    HW258432   0.758   1.985   6.020
15602SOL     OW58433   0.847   3.838  27.690
15602SOL    HW158434   0.813   3.752  27.664
15602SOL    HW258435   0.810   3.899  27.626
15603SOL     OW58436   3.933   0.661  28.222
15603SOL    HW158437   3.916   0.597  28.153
15603SOL    HW258438   4.005   0.623  28.272
15604SOL     OW58439   2.354   1.420  27.269
15604SOL    HW158440   2.404   1.500  27.284
15604SOL    HW258441   2.420   1.352  27.255
15605SOL     OW58442   0.304   1.381   8.133
15605SOL    HW158443   0.304   1.285   8.137
15605SOL    HW258444   0.229   1.403   8.078
15606SOL     OW58445   1.172   2.882  22.324
15606SOL    HW158446   1.202   2.829  22.250
15606SOL    HW258447   1.218   2.845  22.399
15607SOL     OW58448   0.539   3.592   0.336
15607SOL    HW158449   0.559   3.673   0.289
15607SOL    HW258450   0.600   3.527   0.300
15608SOL     OW58451   2.068   2.560   4.421
15608SOL    HW158452   2.087   2.480   4.470
15608SOL    HW258453   2.020   2.531   4.344
15609SOL     OW58454   1.225   1.925   0.365
15609SOL    HW158455   1.313   1.904   0.397
15609SOL    HW258456   1.207   2.013   0.399
15610SOL     OW58457   3.371   2.971   0.449
15610SOL    HW158458   3.361   3.061   0.481
15610SOL    HW258459   3.450   2.939   0.492
15611SOL     OW58460   1.853   0.008   8.436
15611SOL    HW158461   1.911   0.055   8.376
15611SOL    HW258462   1.841   0.067   8.510
15612SOL     OW58463   1.680   3.783   0.293
15612SOL    HW158464   1.624   3.726   0.345
15612SOL    HW258465   1.677   3.745   0.205
15613SOL     OW58466   2.093   4.202   3.362
15613SOL    HW158467   2.139   4.129   3.321
15613SOL    HW258468   2.021   4.222   3.302
15614SOL     OW58469   0.719   4.152   0.531
15614SOL    HW158470   0.650   4.110   0.582
15614SOL    HW258471   0.798   4.101   0.551
15615SOL     OW58472   2.142   0.242  21.359
15615SOL    HW158473   2.182   0.251  21.446
15615SOL    HW258474   2.216   0.229  21.300
15616SOL     OW58475   3.838   2.073   4.531
15616SOL    HW158476   3.758   2.108   4.570
15616SOL    HW258477   3.905   2.138   4.552
15617SOL     OW58478   1.930   1.865   6.549
15617SOL    HW158479   1.988   1.915   6.491
15617SOL    HW258480   1.988   1.828   6.615
15618SOL     OW58481   4.577   1.994  27.255
15618SOL    HW158482   4.607   2.074  27.212
15618SOL    HW258483   4.651   1.966  27.309
15619SOL     OW58484   1.443   0.435   7.891
15619SOL    HW158485   1.382   0.457   7.962
15619SOL    HW258486   1.413   0.487   7.817
15620SOL     OW58487   4.012   1.587  17.602
15620SOL    HW158488   3.943   1.524  17.582
15620SOL    HW258489   4.070   1.585  17.526
15621SOL     OW58490   4.008   3.734  23.847
15621SOL    HW158491   3.946   3.740  23.774
15621SOL    HW258492   4.005   3.820  23.889
15622SOL     OW58493   0.790   3.136  17.505
15622SOL    HW158494   0.712   3.082  17.518
15622SOL    HW258495   0.853   3.078  17.461
15623SOL     OW58496   2.459   4.316  20.115
15623SOL    HW158497   2.498   4.233  20.141
15623SOL    HW258498   2.507   4.342  20.037
15624SOL     OW58499   0.573   2.762  20.755
15624SOL    HW158500   0.549   2.831  20.817
15624SOL    HW258501   0.548   2.797  20.669
15625SOL     OW58502   2.946   3.568  20.354
15625SOL    HW158503   2.980   3.499  20.298
15625SOL    HW258504   2.996   3.561  20.435
15626SOL     OW58505   0.266   4.269   9.557
15626SOL    HW158506   0.194   4.309   9.605
15626SOL    HW258507   0.226   4.239   9.475
15627SOL     OW58508   3.304   1.017  25.123
15627SOL    HW158509   3.326   0.932  25.084
15627SOL    HW258510   3.371   1.076  25.089
15628SOL     OW58511   2.062   2.983  26.310
15628SOL    HW158512   2.047   2.973  26.404
15628SOL    HW258513   2.145   3.030  26.304
15629SOL     OW58514   4.345   1.889  27.402
15629SOL    HW158515   4.388   1.948  27.341
15629SOL    HW258516   4.386   1.907  27.487
15630SOL     OW58517   1.273   1.286  20.581
15630SOL    HW158518   1.292   1.232  20.658
15630SOL    HW258519   1.177   1.287  20.576
15631SOL     OW58520   3.368   1.650  20.678
15631SOL    HW158521   3.401   1.564  20.651
15631SOL    HW258522   3.447   1.703  20.690
15632SOL     OW58523   3.926   3.310   0.600
15632SOL    HW158524   4.015   3.315   0.634
15632SOL    HW258525   3.872   3.346   0.670
15633SOL     OW58526   2.248   1.648   2.841
15633SOL    HW158527   2.163   1.656   2.797
15633SOL    HW258528   2.309   1.627   2.771
15634SOL     OW58529   4.290   0.232  18.471
15634SOL    HW158530   4.269   0.312  18.422
15634SOL    HW258531   4.293   0.163  18.405
15635SOL     OW58532   1.755   1.209  20.457
15635SOL    HW158533   1.717   1.178  20.539
15635SOL    HW258534   1.697   1.279  20.428
15636SOL     OW58535   3.020   2.986   5.916
15636SOL    HW158536   3.057   2.906   5.879
15636SOL    HW258537   3.016   3.047   5.842
15637SOL     OW58538   1.747   3.962  23.869
15637SOL    HW158539   1.658   3.977  23.900
15637SOL    HW258540   1.801   4.021  23.922
15638SOL     OW58541   1.195   0.970   2.166
15638SOL    HW158542   1.262   1.007   2.109
15638SOL    HW258543   1.203   0.875   2.153
15639SOL     OW58544   1.506   2.332   5.507
15639SOL    HW158545   1.422   2.303   5.543
15639SOL    HW258546   1.493   2.330   5.412
15640SOL     OW58547   4.604   2.319  26.525
15640SOL    HW158548   4.637   2.235  26.558
15640SOL    HW258549   4.511   2.304  26.510
15641SOL     OW58550   0.678   2.683  24.943
15641SOL    HW158551   0.647   2.698  24.854
15641SOL    HW258552   0.631   2.604  24.971
15642SOL     OW58553   4.078   3.354  22.558
15642SOL    HW158554   3.991   3.375  22.593
15642SOL    HW258555   4.088   3.413  22.483
15643SOL     OW58556   3.356   2.524  11.576
15643SOL    HW158557   3.371   2.432  11.597
15643SOL    HW258558   3.435   2.551  11.529
15644SOL     OW58559   1.463   2.470  20.109
15644SOL    HW158560   1.471   2.426  20.024
15644SOL    HW258561   1.543   2.522  20.117
15645SOL     OW58562   2.833   2.247  11.346
15645SOL    HW158563   2.841   2.216  11.436
15645SOL    HW258564   2.917   2.223  11.306
15646SOL     OW58565   1.107   2.911  10.300
15646SOL    HW158566   1.089   2.817  10.294
15646SOL    HW258567   1.032   2.947  10.347
15647SOL     OW58568   2.298   0.333  25.352
15647SOL    HW158569   2.248   0.253  25.339
15647SOL    HW258570   2.388   0.303  25.366
15648SOL     OW58571   0.024   1.485  27.746
15648SOL    HW158572   0.045   1.499  27.654
15648SOL    HW258573   0.084   1.416  27.774
15649SOL     OW58574   0.475   2.303  26.005
15649SOL    HW158575   0.380   2.302  26.011
15649SOL    HW258576   0.493   2.284  25.913
15650SOL     OW58577   1.966   0.286  24.712
15650SOL    HW158578   1.872   0.306  24.709
15650SOL    HW258579   2.009   0.371  24.709
15651SOL     OW58580   3.964   0.642  19.288
15651SOL    HW158581   3.990   0.661  19.198
15651SOL    HW258582   3.982   0.723  19.336
15652SOL     OW58583   2.072   0.041  28.486
15652SOL    HW158584   2.156   4.780  28.504
15652SOL    HW258585   2.026   0.038   0.047
15653SOL     OW58586   2.859   0.194  27.117
15653SOL    HW158587   2.798   0.137  27.163
15653SOL    HW258588   2.868   0.271  27.174
15654SOL     OW58589   0.013   1.079  15.456
15654SOL    HW158590   4.728   1.019  15.492
15654SOL    HW258591   4.774   1.084  15.363
15655SOL     OW58592   3.221   3.419   7.685
15655SOL    HW158593   3.275   3.431   7.607
15655SOL    HW258594   3.276   3.370   7.746
15656SOL     OW58595   1.507   2.539  22.580
15656SOL    HW158596   1.452   2.478  22.630
15656SOL    HW258597   1.446   2.607  22.550
15657SOL     OW58598   2.326   3.553  24.775
15657SOL    HW158599   2.265   3.603  24.829
15657SOL    HW258600   2.328   3.466  24.815
15658SOL     OW58601   2.284   0.224   9.345
15658SOL    HW158602   2.353   0.282   9.376
15658SOL    HW258603   2.204   0.257   9.386
15659SOL     OW58604   0.695   2.555   0.999
15659SOL    HW158605   0.600   2.556   1.009
15659SOL    HW258606   0.711   2.489   0.931
15660SOL     OW58607   2.704   3.422   6.016
15660SOL    HW158608   2.670   3.398   6.102
15660SOL    HW258609   2.632   3.403   5.956
15661SOL     OW58610   4.717   2.316  27.561
15661SOL    HW158611   4.677   2.307  27.648
15661SOL    HW258612   0.030   2.305  27.576
15662SOL     OW58613   4.157   3.448   9.793
15662SOL    HW158614   4.233   3.506   9.789
15662SOL    HW258615   4.152   3.409   9.706
15663SOL     OW58616   4.082   2.202   6.670
15663SOL    HW158617   4.027   2.241   6.602
15663SOL    HW258618   4.172   2.224   6.644
15664SOL     OW58619   2.289   0.474   6.291
15664SOL    HW158620   2.322   0.439   6.374
15664SOL    HW258621   2.215   0.417   6.269
15665SOL     OW58622   2.036   4.292  27.466
15665SOL    HW158623   2.053   4.352  27.393
15665SOL    HW258624   1.984   4.222  27.428
15666SOL     OW58625   0.873   0.389  22.423
15666SOL    HW158626   0.801   0.328  22.407
15666SOL    HW258627   0.830   0.474  22.437
15667SOL     OW58628   4.553   4.697   6.551
15667SOL    HW158629   4.595   4.682   6.635
15667SOL    HW258630   4.615   4.750   6.502
15668SOL     OW58631   0.729   3.850  25.675
15668SOL    HW158632   0.642   3.890  25.685
15668SOL    HW258633   0.736   3.829  25.582
15669SOL     OW58634   4.177   3.491  19.681
15669SOL    HW158635   4.102   3.434  19.662
15669SOL    HW258636   4.226   3.444  19.749
15670SOL     OW58637   2.741   1.082   1.417
15670SOL    HW158638   2.750   1.052   1.327
15670SOL    HW258639   2.763   1.175   1.413
15671SOL     OW58640   4.345   3.976   7.542
15671SOL    HW158641   4.305   4.062   7.527
15671SOL    HW258642   4.347   3.935   7.456
15672SOL     OW58643   2.951   2.490  25.236
15672SOL    HW158644   3.008   2.545  25.182
15672SOL    HW258645   3.011   2.433  25.284
15673SOL     OW58646   1.533   2.295   6.529
15673SOL    HW158647   1.465   2.271   6.466
15673SOL    HW258648   1.501   2.376   6.568
15674SOL     OW58649   0.979   3.596   0.324
15674SOL    HW158650   1.043   3.550   0.379
15674SOL    HW258651   0.924   3.644   0.386
15675SOL     OW58652   3.571   2.469  19.922
15675SOL    HW158653   3.502   2.493  19.860
15675SOL    HW258654   3.610   2.553  19.947
15676SOL     OW58655   3.783   1.522  17.458
15676SOL    HW158656   3.708   1.480  17.416
15676SOL    HW258657   3.849   1.529  17.389
15677SOL     OW58658   1.363   3.273  21.165
15677SOL    HW158659   1.322   3.359  21.175
15677SOL    HW258660   1.291   3.214  21.141
15678SOL     OW58661   0.732   0.014   7.431
15678SOL    HW158662   0.747   0.011   7.336
15678SOL    HW258663   0.730   0.107   7.452
15679SOL     OW58664   2.457   2.317  20.568
15679SOL    HW158665   2.478   2.229  20.598
15679SOL    HW258666   2.476   2.315  20.474
15680SOL     OW58667   4.225   0.845  26.763
15680SOL    HW158668   4.137   0.863  26.795
15680SOL    HW258669   4.279   0.842  26.842
15681SOL     OW58670   4.773   3.187  22.889
15681SOL    HW158671   0.033   3.271  22.907
15681SOL    HW258672   0.032   3.157  22.807
15682SOL     OW58673   2.792   1.611  26.360
15682SOL    HW158674   2.731   1.538  26.370
15682SOL    HW258675   2.866   1.575  26.311
15683SOL     OW58676   1.129   2.924   8.253
15683SOL    HW158677   1.204   2.884   8.297
15683SOL    HW258678   1.053   2.878   8.288
15684SOL     OW58679   0.227   1.078   9.823
15684SOL    HW158680   0.148   1.130   9.834
15684SOL    HW258681   0.298   1.142   9.817
15685SOL     OW58682   3.116   4.053  21.643
15685SOL    HW158683   3.049   3.985  21.648
15685SOL    HW258684   3.091   4.107  21.568
15686SOL     OW58685   3.884   1.555  27.651
15686SOL    HW158686   3.975   1.538  27.625
15686SOL    HW258687   3.832   1.507  27.587
15687SOL     OW58688   4.296   1.427  19.756
15687SOL    HW158689   4.369   1.400  19.700
15687SOL    HW258690   4.218   1.413  19.702
15688SOL     OW58691   1.217   3.936  11.195
15688SOL    HW158692   1.249   3.998  11.260
15688SOL    HW258693   1.220   3.985  11.112
15689SOL     OW58694   3.623   1.112  18.285
15689SOL    HW158695   3.577   1.042  18.239
15689SOL    HW258696   3.647   1.174  18.216
15690SOL     OW58697   4.366   3.096  25.571
15690SOL    HW158698   4.317   3.157  25.626
15690SOL    HW258699   4.370   3.015  25.623
15691SOL     OW58700   0.520   0.006  24.940
15691SOL    HW158701   0.453   4.750  24.998
15691SOL    HW258702   0.475   0.018  24.856
15692SOL     OW58703   0.712   1.206   3.738
15692SOL    HW158704   0.689   1.289   3.779
15692SOL    HW258705   0.628   1.164   3.720
15693SOL     OW58706   1.867   2.027  10.886
15693SOL    HW158707   1.897   1.937  10.897
15693SOL    HW258708   1.928   2.079  10.939
15694SOL     OW58709   4.561   1.897   1.260
15694SOL    HW158710   4.537   1.984   1.229
15694SOL    HW258711   4.478   1.849   1.262
15695SOL     OW58712   2.178   2.153   5.596
15695SOL    HW158713   2.261   2.121   5.630
15695SOL    HW258714   2.111   2.109   5.649
15696SOL     OW58715   2.993   0.530   9.365
15696SOL    HW158716   2.980   0.436   9.381
15696SOL    HW258717   3.088   0.542   9.370
15697SOL     OW58718   0.399   1.566   5.714
15697SOL    HW158719   0.376   1.479   5.682
15697SOL    HW258720   0.365   1.626   5.647
15698SOL     OW58721   1.989   1.630   6.766
15698SOL    HW158722   1.896   1.609   6.769
15698SOL    HW258723   2.032   1.547   6.745
15699SOL     OW58724   1.972   2.071  24.282
15699SOL    HW158725   1.967   1.982  24.317
15699SOL    HW258726   2.048   2.110  24.325
15700SOL     OW58727   3.371   0.756  20.104
15700SOL    HW158728   3.300   0.784  20.162
15700SOL    HW258729   3.328   0.704  20.036
15701SOL     OW58730   0.285   4.595  22.207
15701SOL    HW158731   0.333   4.605  22.125
15701SOL    HW258732   0.292   4.680  22.250
15702SOL     OW58733   3.224   1.630  19.163
15702SOL    HW158734   3.240   1.558  19.224
15702SOL    HW258735   3.150   1.600  19.110
15703SOL     OW58736   1.197   0.887   6.084
15703SOL    HW158737   1.211   0.818   6.019
15703SOL    HW258738   1.271   0.879   6.144
15704SOL     OW58739   0.462   0.341   6.463
15704SOL    HW158740   0.418   0.386   6.390
15704SOL    HW258741   0.397   0.279   6.496
15705SOL     OW58742   2.862   2.599   3.702
15705SOL    HW158743   2.888   2.553   3.782
15705SOL    HW258744   2.836   2.686   3.732
15706SOL     OW58745   4.105   4.188   8.931
15706SOL    HW158746   4.097   4.151   8.843
15706SOL    HW258747   4.190   4.157   8.962
15707SOL     OW58748   4.037   4.455   3.336
15707SOL    HW158749   4.003   4.467   3.247
15707SOL    HW258750   3.992   4.521   3.388
15708SOL     OW58751   2.533   1.337   6.357
15708SOL    HW158752   2.486   1.374   6.432
15708SOL    HW258753   2.558   1.413   6.305
15709SOL     OW58754   0.482   2.488  24.995
15709SOL    HW158755   0.459   2.482  25.088
15709SOL    HW258756   0.402   2.519  24.952
15710SOL     OW58757   4.122   1.126  20.794
15710SOL    HW158758   4.127   1.038  20.757
15710SOL    HW258759   4.139   1.114  20.887
15711SOL     OW58760   4.367   4.032   9.472
15711SOL    HW158761   4.438   4.015   9.533
15711SOL    HW258762   4.399   4.103   9.417
15712SOL     OW58763   2.268   2.981  20.949
15712SOL    HW158764   2.215   3.058  20.926
15712SOL    HW258765   2.321   3.010  21.023
15713SOL     OW58766   4.202   1.070  26.277
15713SOL    HW158767   4.169   1.075  26.367
15713SOL    HW258768   4.249   0.987  26.274
15714SOL     OW58769   0.712   1.491   2.369
15714SOL    HW158770   0.768   1.565   2.393
15714SOL    HW258771   0.697   1.444   2.451
15715SOL     OW58772   4.626   1.891   7.895
15715SOL    HW158773   4.554   1.926   7.842
15715SOL    HW258774   4.670   1.969   7.929
15716SOL     OW58775   1.151   2.407  20.153
15716SOL    HW158776   1.243   2.427  20.170
15716SOL    HW258777   1.126   2.345  20.221
15717SOL     OW58778   3.289   2.894  19.612
15717SOL    HW158779   3.297   2.885  19.517
15717SOL    HW258780   3.326   2.813  19.647
15718SOL     OW58781   3.599   2.912   4.844
15718SOL    HW158782   3.536   2.935   4.912
15718SOL    HW258783   3.685   2.927   4.884
15719SOL     OW58784   1.953   1.343  25.314
15719SOL    HW158785   1.963   1.309  25.403
15719SOL    HW258786   1.864   1.317  25.288
15720SOL     OW58787   4.702   2.338   2.839
15720SOL    HW158788   4.730   2.265   2.894
15720SOL    HW258789   4.689   2.299   2.752
15721SOL     OW58790   3.354   0.037  23.602
15721SOL    HW158791   3.441   0.048  23.563
15721SOL    HW258792   3.359   0.084  23.685
15722SOL     OW58793   2.891   1.887  25.318
15722SOL    HW158794   2.928   1.799  25.311
15722SOL    HW258795   2.961   1.945  25.287
15723SOL     OW58796   2.275   4.487  26.766
15723SOL    HW158797   2.285   4.494  26.671
15723SOL    HW258798   2.214   4.557  26.788
15724SOL     OW58799   2.006   2.940  25.569
15724SOL    HW158800   2.096   2.941  25.537
15724SOL    HW258801   2.014   2.919  25.662
15725SOL     OW58802   4.155   2.618  24.816
15725SOL    HW158803   4.076   2.613  24.870
15725SOL    HW258804   4.213   2.551  24.853
15726SOL     OW58805   0.719   3.826  24.041
15726SOL    HW158806   0.774   3.808  23.964
15726SOL    HW258807   0.711   3.741  24.085
15727SOL     OW58808   2.904   0.616   5.189
15727SOL    HW158809   2.888   0.680   5.120
15727SOL    HW258810   2.819   0.575   5.205
15728SOL     OW58811   3.690   2.568  21.942
15728SOL    HW158812   3.701   2.650  21.990
15728SOL    HW258813   3.638   2.513  22.001
15729SOL     OW58814   0.421   1.598   8.570
15729SOL    HW158815   0.347   1.560   8.617
15729SOL    HW258816   0.391   1.606   8.480
15730SOL     OW58817   4.350   0.353   9.241
15730SOL    HW158818   4.445   0.356   9.233
15730SOL    HW258819   4.319   0.347   9.151
15731SOL     OW58820   0.722   1.407  26.147
15731SOL    HW158821   0.707   1.472  26.215
15731SOL    HW258822   0.654   1.423  26.082
15732SOL     OW58823   2.849   2.983  25.168
15732SOL    HW158824   2.761   2.948  25.184
15732SOL    HW258825   2.844   3.075  25.195
15733SOL     OW58826   0.955   0.361   3.849
15733SOL    HW158827   0.888   0.299   3.878
15733SOL    HW258828   0.929   0.385   3.760
15734SOL     OW58829   0.477   0.847  23.667
15734SOL    HW158830   0.405   0.906  23.688
15734SOL    HW258831   0.487   0.792  23.745
15735SOL     OW58832   1.460   1.797   2.806
15735SOL    HW158833   1.496   1.760   2.886
15735SOL    HW258834   1.371   1.764   2.801
15736SOL     OW58835   4.697   3.939  10.159
15736SOL    HW158836   4.644   3.988  10.222
15736SOL    HW258837   4.712   3.854  10.201
15737SOL     OW58838   0.397   2.225   3.780
15737SOL    HW158839   0.420   2.228   3.687
15737SOL    HW258840   0.475   2.256   3.825
15738SOL     OW58841   4.025   4.162  27.038
15738SOL    HW158842   4.039   4.092  27.102
15738SOL    HW258843   4.046   4.242  27.086
15739SOL     OW58844   4.576   0.257  21.304
15739SOL    HW158845   4.596   0.173  21.264
15739SOL    HW258846   4.503   0.292  21.253
15740SOL     OW58847   3.495   0.871   3.843
15740SOL    HW158848   3.590   0.871   3.849
15740SOL    HW258849   3.465   0.865   3.934
15741SOL     OW58850   1.362   3.766   3.127
15741SOL    HW158851   1.377   3.673   3.111
15741SOL    HW258852   1.403   3.783   3.212
15742SOL     OW58853   4.424   0.540  22.515
15742SOL    HW158854   4.413   0.445  22.507
15742SOL    HW258855   4.464   0.567  22.432
15743SOL     OW58856   4.067   0.804   3.003
15743SOL    HW158857   3.980   0.807   2.962
15743SOL    HW258858   4.049   0.788   3.096
15744SOL     OW58859   2.081   1.228   9.288
15744SOL    HW158860   2.109   1.158   9.229
15744SOL    HW258861   1.996   1.199   9.321
15745SOL     OW58862   0.561   0.105  23.371
15745SOL    HW158863   0.579   0.162  23.296
15745SOL    HW258864   0.586   0.018  23.342
15746SOL     OW58865   1.677   0.965   0.021
15746SOL    HW158866   1.743   1.027   0.051
15746SOL    HW258867   1.628   0.942   0.100
15747SOL     OW58868   0.695   3.279  21.767
15747SOL    HW158869   0.742   3.351  21.725
15747SOL    HW258870   0.669   3.313  21.852
15748SOL     OW58871   2.336   2.831   7.803
15748SOL    HW158872   2.400   2.854   7.870
15748SOL    HW258873   2.366   2.877   7.725
15749SOL     OW58874   2.079   1.383  20.854
15749SOL    HW158875   2.109   1.359  20.942
15749SOL    HW258876   2.131   1.329  20.795
15750SOL     OW58877   1.909   3.605  24.679
15750SOL    HW158878   1.824   3.604  24.635
15750SOL    HW258879   1.931   3.512  24.690
15751SOL     OW58880   3.071   4.379   1.272
15751SOL    HW158881   2.984   4.361   1.308
15751SOL    HW258882   3.067   4.471   1.245
15752SOL     OW58883   3.281   4.637   8.859
15752SOL    HW158884   3.210   4.602   8.806
15752SOL    HW258885   3.358   4.632   8.802
15753SOL     OW58886   1.346   2.699  27.311
15753SOL    HW158887   1.271   2.655  27.272
15753SOL    HW258888   1.328   2.792  27.300
15754SOL     OW58889   0.662   0.138  23.124
15754SOL    HW158890   0.678   0.084  23.047
15754SOL    HW258891   0.610   0.211  23.092
15755SOL     OW58892   2.944   2.997  28.057
15755SOL    HW158893   2.923   3.071  28.000
15755SOL    HW258894   2.875   2.933  28.039
15756SOL     OW58895   2.617   4.403   4.998
15756SOL    HW158896   2.648   4.315   4.979
15756SOL    HW258897   2.672   4.433   5.070
15757SOL     OW58898   1.567   1.893   6.783
15757SOL    HW158899   1.474   1.872   6.778
15757SOL    HW258900   1.585   1.899   6.877
15758SOL     OW58901   4.686   0.115   7.703
15758SOL    HW158902   4.752   0.146   7.642
15758SOL    HW258903   4.608   0.166   7.681
15759SOL     OW58904   1.669   4.323   2.703
15759SOL    HW158905   1.576   4.301   2.713
15759SOL    HW258906   1.698   4.272   2.627
15760SOL     OW58907   3.724   1.826   4.402
15760SOL    HW158908   3.755   1.912   4.430
15760SOL    HW258909   3.792   1.793   4.343
15761SOL     OW58910   1.691   1.586   7.170
15761SOL    HW158911   1.639   1.543   7.102
15761SOL    HW258912   1.781   1.581   7.138
15762SOL     OW58913   2.774   2.784   4.952
15762SOL    HW158914   2.782   2.744   4.866
15762SOL    HW258915   2.842   2.851   4.954
15763SOL     OW58916   0.010   0.368   4.740
15763SOL    HW158917   0.095   0.410   4.751
15763SOL    HW258918   4.728   0.434   4.769
15764SOL     OW58919   1.803   2.399   6.506
15764SOL    HW158920   1.766   2.487   6.508
15764SOL    HW258921   1.731   2.342   6.532
15765SOL     OW58922   1.625   2.803  21.705
15765SOL    HW158923   1.687   2.808  21.778
15765SOL    HW258924   1.540   2.793  21.747
15766SOL     OW58925   1.054   3.043   5.452
15766SOL    HW158926   0.962   3.016   5.451
15766SOL    HW258927   1.059   3.113   5.387
15767SOL     OW58928   0.836   3.077   9.244
15767SOL    HW158929   0.865   3.118   9.325
15767SOL    HW258930   0.856   3.141   9.176
15768SOL     OW58931   2.851   3.975  28.436
15768SOL    HW158932   2.914   4.039  28.470
15768SOL    HW258933   2.869   3.895  28.485
15769SOL     OW58934   3.291   0.550  25.814
15769SOL    HW158935   3.327   0.575  25.729
15769SOL    HW258936   3.223   0.486  25.794
15770SOL     OW58937   4.508   1.102   6.033
15770SOL    HW158938   4.530   1.040   6.102
15770SOL    HW258939   4.511   1.188   6.075
15771SOL     OW58940   1.928   2.848  27.092
15771SOL    HW158941   1.840   2.851  27.129
15771SOL    HW258942   1.934   2.927  27.038
15772SOL     OW58943   2.455   2.369   3.636
15772SOL    HW158944   2.456   2.460   3.667
15772SOL    HW258945   2.485   2.374   3.545
15773SOL     OW58946   1.329   2.715   0.085
15773SOL    HW158947   1.379   2.781   0.134
15773SOL    HW258948   1.384   2.637   0.087
15774SOL     OW58949   3.659   2.893  19.012
15774SOL    HW158950   3.584   2.834  19.004
15774SOL    HW258951   3.671   2.904  19.106
15775SOL     OW58952   0.783   0.475   9.707
15775SOL    HW158953   0.739   0.530   9.642
15775SOL    HW258954   0.730   0.395   9.711
15776SOL     OW58955   2.510   0.351   3.428
15776SOL    HW158956   2.459   0.276   3.397
15776SOL    HW258957   2.472   0.426   3.382
15777SOL     OW58958   1.859   2.365  18.467
15777SOL    HW158959   1.954   2.364  18.460
15777SOL    HW258960   1.841   2.330  18.554
15778SOL     OW58961   3.797   4.585  10.641
15778SOL    HW158962   3.884   4.584  10.681
15778SOL    HW258963   3.769   4.676  10.647
15779SOL     OW58964   2.780   1.644  23.679
15779SOL    HW158965   2.806   1.624  23.589
15779SOL    HW258966   2.698   1.596  23.691
15780SOL     OW58967   0.457   4.197  23.745
15780SOL    HW158968   0.535   4.221  23.795
15780SOL    HW258969   0.473   4.233  23.658
15781SOL     OW58970   2.460   2.479  27.806
15781SOL    HW158971   2.422   2.545  27.748
15781SOL    HW258972   2.511   2.423  27.748
15782SOL     OW58973   4.379   1.617  10.830
15782SOL    HW158974   4.361   1.583  10.742
15782SOL    HW258975   4.295   1.654  10.859
15783SOL     OW58976   2.237   2.962   4.970
15783SOL    HW158977   2.150   2.980   4.935
15783SOL    HW258978   2.294   3.024   4.925
15784SOL     OW58979   4.226   3.613   5.705
15784SOL    HW158980   4.236   3.666   5.626
15784SOL    HW258981   4.300   3.553   5.703
15785SOL     OW58982   2.987   1.184  27.502
15785SOL    HW158983   3.063   1.199  27.446
15785SOL    HW258984   2.993   1.092  27.527
15786SOL     OW58985   0.694   3.535   0.087
15786SOL    HW158986   0.746   3.455   0.081
15786SOL    HW258987   0.687   3.566  28.519
15787SOL     OW58988   4.275   4.755   8.250
15787SOL    HW158989   4.299   4.694   8.320
15787SOL    HW258990   4.249   0.054   8.296
15788SOL     OW58991   0.204   1.443   9.853
15788SOL    HW158992   0.190   1.474   9.763
15788SOL    HW258993   0.121   1.460   9.897
15789SOL     OW58994   1.376   3.820  19.673
15789SOL    HW158995   1.351   3.897  19.723
15789SOL    HW258996   1.458   3.845  19.630
15790SOL     OW58997   0.237   1.058  26.561
15790SOL    HW158998   0.204   1.006  26.488
15790SOL    HW258999   0.324   1.023  26.579
15791SOL     OW59000   2.922   3.546  18.415
15791SOL    HW159001   2.953   3.634  18.436
15791SOL    HW259002   2.834   3.560  18.379
15792SOL     OW59003   1.503   1.828   0.425
15792SOL    HW159004   1.496   1.897   0.491
15792SOL    HW259005   1.589   1.842   0.385
15793SOL     OW59006   2.012   4.057  24.643
15793SOL    HW159007   2.050   4.127  24.590
15793SOL    HW259008   1.918   4.077  24.645
15794SOL     OW59009   1.438   2.640   6.932
15794SOL    HW159010   1.527   2.641   6.968
15794SOL    HW259011   1.442   2.580   6.858
15795SOL     OW59012   2.769   4.218  23.707
15795SOL    HW159013   2.778   4.148  23.642
15795SOL    HW259014   2.756   4.297  23.655
15796SOL     OW59015   3.806   0.088  26.384
15796SOL    HW159016   3.900   0.102  26.371
15796SOL    HW259017   3.786   0.009  26.334
15797SOL     OW59018   1.645   4.438  24.503
15797SOL    HW159019   1.722   4.455  24.448
15797SOL    HW259020   1.579   4.404  24.443
15798SOL     OW59021   1.308   0.585  22.230
15798SOL    HW159022   1.238   0.521  22.247
15798SOL    HW259023   1.323   0.627  22.315
15799SOL     OW59024   4.217   3.038  20.930
15799SOL    HW159025   4.206   2.945  20.912
15799SOL    HW259026   4.191   3.081  20.849
15800SOL     OW59027   1.826   0.980  27.891
15800SOL    HW159028   1.892   1.005  27.956
15800SOL    HW259029   1.828   1.051  27.827
15801SOL     OW59030   2.900   1.544   5.653
15801SOL    HW159031   2.895   1.464   5.600
15801SOL    HW259032   2.907   1.513   5.743
15802SOL     OW59033   0.872   4.382  25.033
15802SOL    HW159034   0.933   4.324  24.989
15802SOL    HW259035   0.917   4.467  25.035
15803SOL     OW59036   1.707   2.260   7.781
15803SOL    HW159037   1.623   2.217   7.764
15803SOL    HW259038   1.693   2.308   7.863
15804SOL     OW59039   2.490   0.736   9.914
15804SOL    HW159040   2.418   0.689   9.955
15804SOL    HW259041   2.556   0.744   9.983
15805SOL     OW59042   4.552   4.571  21.486
15805SOL    HW159043   4.510   4.654  21.464
15805SOL    HW259044   4.479   4.511  21.501
15806SOL     OW59045   0.883   1.125   9.953
15806SOL    HW159046   0.908   1.197  10.011
15806SOL    HW259047   0.851   1.168   9.874
15807SOL     OW59048   3.862   3.248   3.623
15807SOL    HW159049   3.775   3.281   3.600
15807SOL    HW259050   3.871   3.266   3.717
15808SOL     OW59051   0.679   2.910  21.021
15808SOL    HW159052   0.759   2.861  21.037
15808SOL    HW259053   0.707   3.001  21.019
15809SOL     OW59054   1.306   0.126   8.261
15809SOL    HW159055   1.355   0.055   8.220
15809SOL    HW259056   1.264   0.172   8.188
15810SOL     OW59057   2.097   1.465   9.678
15810SOL    HW159058   2.157   1.494   9.747
15810SOL    HW259059   2.061   1.546   9.642
15811SOL     OW59060   3.706   0.211  10.876
15811SOL    HW159061   3.684   0.191  10.967
15811SOL    HW259062   3.734   0.302  10.877
15812SOL     OW59063   1.163   4.567  11.529
15812SOL    HW159064   1.074   4.567  11.564
15812SOL    HW259065   1.214   4.616  11.594
15813SOL     OW59066   4.604   0.964  24.291
15813SOL    HW159067   4.574   1.041  24.242
15813SOL    HW259068   4.694   0.951  24.262
15814SOL     OW59069   1.598   1.420  19.576
15814SOL    HW159070   1.593   1.352  19.508
15814SOL    HW259071   1.514   1.465  19.571
15815SOL     OW59072   4.603   3.811  24.845
15815SOL    HW159073   4.612   3.741  24.909
15815SOL    HW259074   4.509   3.820  24.831
15816SOL     OW59075   0.410   3.654   5.142
15816SOL    HW159076   0.478   3.699   5.192
15816SOL    HW259077   0.457   3.588   5.092
15817SOL     OW59078   2.264   2.516  11.373
15817SOL    HW159079   2.189   2.525  11.432
15817SOL    HW259080   2.247   2.434  11.326
15818SOL     OW59081   0.388   3.382   2.770
15818SOL    HW159082   0.460   3.320   2.786
15818SOL    HW259083   0.351   3.399   2.857
15819SOL     OW59084   4.255   1.621   5.272
15819SOL    HW159085   4.341   1.661   5.261
15819SOL    HW259086   4.257   1.544   5.215
15820SOL     OW59087   2.249   3.366  27.918
15820SOL    HW159088   2.186   3.298  27.894
15820SOL    HW259089   2.315   3.320  27.970
15821SOL     OW59090   4.126   2.677   5.675
15821SOL    HW159091   4.186   2.616   5.718
15821SOL    HW259092   4.177   2.715   5.603
15822SOL     OW59093   0.759   2.602   2.981
15822SOL    HW159094   0.832   2.634   2.928
15822SOL    HW259095   0.690   2.667   2.968
15823SOL     OW59096   0.022   2.883   2.360
15823SOL    HW159097   0.088   2.946   2.331
15823SOL    HW259098   4.741   2.878   2.287
15824SOL     OW59099   2.626   3.865  22.084
15824SOL    HW159100   2.625   3.961  22.086
15824SOL    HW259101   2.563   3.842  22.016
15825SOL     OW59102   3.294   1.484  27.692
15825SOL    HW159103   3.370   1.479  27.750
15825SOL    HW259104   3.235   1.416  27.724
15826SOL     OW59105   2.324   3.609   1.369
15826SOL    HW159106   2.289   3.562   1.293
15826SOL    HW259107   2.369   3.685   1.332
15827SOL     OW59108   3.622   4.172   2.623
15827SOL    HW159109   3.605   4.250   2.675
15827SOL    HW259110   3.656   4.108   2.686
15828SOL     OW59111   2.159   2.485   8.801
15828SOL    HW159112   2.100   2.413   8.824
15828SOL    HW259113   2.121   2.523   8.722
15829SOL     OW59114   4.039   0.687  23.585
15829SOL    HW159115   3.953   0.726  23.600
15829SOL    HW259116   4.096   0.761  23.566
15830SOL     OW59117   3.116   2.056   0.484
15830SOL    HW159118   3.115   1.960   0.481
15830SOL    HW259119   3.110   2.083   0.392
15831SOL     OW59120   0.120   0.941  26.276
15831SOL    HW159121   0.058   0.885  26.323
15831SOL    HW259122   0.067   1.014  26.244
15832SOL     OW59123   1.877   3.717  25.665
15832SOL    HW159124   1.822   3.693  25.739
15832SOL    HW259125   1.833   3.792  25.626
15833SOL     OW59126   3.476   0.796  22.608
15833SOL    HW159127   3.561   0.804  22.652
15833SOL    HW259128   3.464   0.702  22.596
15834SOL     OW59129   2.195   4.133   0.655
15834SOL    HW159130   2.115   4.163   0.612
15834SOL    HW259131   2.202   4.189   0.733
15835SOL     OW59132   4.135   2.409  20.729
15835SOL    HW159133   4.061   2.359  20.763
15835SOL    HW259134   4.208   2.386  20.786
15836SOL     OW59135   0.607   3.812  20.088
15836SOL    HW159136   0.513   3.806  20.073
15836SOL    HW259137   0.626   3.906  20.085
15837SOL     OW59138   4.676   2.467   4.609
15837SOL    HW159139   4.639   2.383   4.635
15837SOL    HW259140   4.747   2.444   4.549
15838SOL     OW59141   0.258   3.513   0.323
15838SOL    HW159142   0.350   3.536   0.335
15838SOL    HW259143   0.226   3.576   0.258
15839SOL     OW59144   1.039   3.404   6.666
15839SOL    HW159145   0.954   3.407   6.711
15839SOL    HW259146   1.032   3.329   6.607
15840SOL     OW59147   2.931   2.573  17.350
15840SOL    HW159148   2.870   2.580  17.277
15840SOL    HW259149   2.992   2.645  17.337
15841SOL     OW59150   3.413   2.335   1.561
15841SOL    HW159151   3.485   2.347   1.623
15841SOL    HW259152   3.347   2.399   1.588
15842SOL     OW59153   1.605   3.262  21.988
15842SOL    HW159154   1.570   3.346  21.959
15842SOL    HW259155   1.639   3.279  22.076
15843SOL     OW59156   4.597   2.817  19.915
15843SOL    HW159157   4.546   2.761  19.857
15843SOL    HW259158   4.641   2.879  19.857
15844SOL     OW59159   4.265   4.518  24.455
15844SOL    HW159160   4.313   4.494  24.376
15844SOL    HW259161   4.187   4.563  24.423
15845SOL     OW59162   4.685   4.277   4.208
15845SOL    HW159163   4.633   4.238   4.278
15845SOL    HW259164   4.776   4.265   4.236
15846SOL     OW59165   4.366   0.566  22.782
15846SOL    HW159166   4.452   0.567  22.825
15846SOL    HW259167   4.384   0.536  22.693
15847SOL     OW59168   0.696   3.518   1.944
15847SOL    HW159169   0.791   3.509   1.944
15847SOL    HW259170   0.672   3.522   1.851
15848SOL     OW59171   2.080   2.182   7.125
15848SOL    HW159172   2.137   2.194   7.201
15848SOL    HW259173   1.994   2.162   7.163
15849SOL     OW59174   4.461   1.029   5.773
15849SOL    HW159175   4.493   1.045   5.862
15849SOL    HW259176   4.366   1.021   5.783
15850SOL     OW59177   3.401   3.843   6.918
15850SOL    HW159178   3.350   3.900   6.976
15850SOL    HW259179   3.431   3.772   6.974
15851SOL     OW59180   3.458   2.585   4.039
15851SOL    HW159181   3.440   2.596   4.132
15851SOL    HW259182   3.388   2.527   4.007
15852SOL     OW59183   1.951   3.054  23.060
15852SOL    HW159184   1.864   3.078  23.029
15852SOL    HW259185   1.964   2.965  23.028
15853SOL     OW59186   3.471   4.185   1.089
15853SOL    HW159187   3.517   4.254   1.137
15853SOL    HW259188   3.404   4.154   1.150
15854SOL     OW59189   0.257   0.211  22.727
15854SOL    HW159190   0.208   0.198  22.808
15854SOL    HW259191   0.240   0.302  22.702
15855SOL     OW59192   3.684   0.860   5.863
15855SOL    HW159193   3.599   0.831   5.831
15855SOL    HW259194   3.707   0.796   5.931
15856SOL     OW59195   4.665   1.713  18.329
15856SOL    HW159196   4.596   1.740  18.268
15856SOL    HW259197   4.623   1.714  18.415
15857SOL     OW59198   0.198   1.268   5.216
15857SOL    HW159199   0.235   1.352   5.187
15857SOL    HW259200   0.132   1.247   5.150
15858SOL     OW59201   0.590   1.962  22.038
15858SOL    HW159202   0.664   2.016  22.011
15858SOL    HW259203   0.523   2.025  22.065
15859SOL     OW59204   3.038   3.047   8.532
15859SOL    HW159205   3.052   2.969   8.478
15859SOL    HW259206   3.070   3.022   8.619
15860SOL     OW59207   4.058   0.419   5.578
15860SOL    HW159208   4.153   0.423   5.587
15860SOL    HW259209   4.043   0.397   5.486
15861SOL     OW59210   3.277   0.804   6.570
15861SOL    HW159211   3.254   0.869   6.503
15861SOL    HW259212   3.212   0.817   6.639
15862SOL     OW59213   2.027   2.312   9.488
15862SOL    HW159214   2.031   2.218   9.470
15862SOL    HW259215   1.972   2.347   9.418
15863SOL     OW59216   2.716   0.407  23.798
15863SOL    HW159217   2.682   0.493  23.773
15863SOL    HW259218   2.791   0.393  23.740
15864SOL     OW59219   2.848   3.478  28.130
15864SOL    HW159220   2.780   3.476  28.198
15864SOL    HW259221   2.930   3.485  28.179
15865SOL     OW59222   1.156   1.998   6.917
15865SOL    HW159223   1.235   2.044   6.888
15865SOL    HW259224   1.097   2.067   6.946
15866SOL     OW59225   0.648   3.534   3.223
15866SOL    HW159226   0.736   3.556   3.194
15866SOL    HW259227   0.629   3.597   3.292
15867SOL     OW59228   1.795   2.668   9.854
15867SOL    HW159229   1.712   2.692   9.813
15867SOL    HW259230   1.856   2.658   9.781
15868SOL     OW59231   3.846   0.798   0.655
15868SOL    HW159232   3.875   0.888   0.670
15868SOL    HW259233   3.773   0.786   0.716
15869SOL     OW59234   3.737   3.190  25.258
15869SOL    HW159235   3.799   3.137  25.308
15869SOL    HW259236   3.790   3.230  25.189
15870SOL     OW59237   0.546   3.252  27.625
15870SOL    HW159238   0.510   3.164  27.639
15870SOL    HW259239   0.469   3.308  27.614
15871SOL     OW59240   2.357   1.019   1.182
15871SOL    HW159241   2.274   1.060   1.207
15871SOL    HW259242   2.385   0.972   1.261
15872SOL     OW59243   0.325   4.658   5.002
15872SOL    HW159244   0.322   4.723   5.072
15872SOL    HW259245   0.245   4.674   4.951
15873SOL     OW59246   4.780   0.801  20.238
15873SOL    HW159247   4.740   0.715  20.222
15873SOL    HW259248   4.708   0.863  20.228
15874SOL     OW59249   1.670   4.529   9.487
15874SOL    HW159250   1.760   4.510   9.462
15874SOL    HW259251   1.663   4.624   9.480
15875SOL     OW59252   4.058   1.480   8.568
15875SOL    HW159253   4.153   1.469   8.560
15875SOL    HW259254   4.022   1.405   8.521
15876SOL     OW59255   1.418   4.292   2.743
15876SOL    HW159256   1.377   4.212   2.709
15876SOL    HW259257   1.345   4.352   2.759
15877SOL     OW59258   3.622   3.228  24.827
15877SOL    HW159259   3.540   3.256  24.869
15877SOL    HW259260   3.637   3.139  24.859
15878SOL     OW59261   3.275   1.102   5.228
15878SOL    HW159262   3.192   1.059   5.249
15878SOL    HW259263   3.291   1.080   5.136
15879SOL     OW59264   2.262   2.701  24.420
15879SOL    HW159265   2.203   2.730  24.489
15879SOL    HW259266   2.339   2.668  24.466
15880SOL     OW59267   3.744   4.119   6.868
15880SOL    HW159268   3.663   4.117   6.919
15880SOL    HW259269   3.754   4.211   6.843
15881SOL     OW59270   4.241   1.823  25.156
15881SOL    HW159271   4.208   1.869  25.079
15881SOL    HW259272   4.183   1.747  25.166
15882SOL     OW59273   2.907   1.439  19.223
15882SOL    HW159274   2.978   1.390  19.182
15882SOL    HW259275   2.889   1.511  19.163
15883SOL     OW59276   1.760   3.224  26.179
15883SOL    HW159277   1.768   3.318  26.197
15883SOL    HW259278   1.775   3.182  26.264
15884SOL     OW59279   0.032   3.497  28.308
15884SOL    HW159280   4.753   3.451  28.366
15884SOL    HW259281   0.106   3.438  28.298
15885SOL     OW59282   0.123   1.093  22.830
15885SOL    HW159283   0.051   1.088  22.767
15885SOL    HW259284   0.099   1.030  22.898
15886SOL     OW59285   1.606   2.255   3.560
15886SOL    HW159286   1.688   2.277   3.604
15886SOL    HW259287   1.588   2.331   3.505
15887SOL     OW59288   1.387   0.012  10.286
15887SOL    HW159289   1.331   0.034  10.212
15887SOL    HW259290   1.437   0.092  10.303
15888SOL     OW59291   2.655   0.327  21.702
15888SOL    HW159292   2.727   0.287  21.654
15888SOL    HW259293   2.697   0.377  21.772
15889SOL     OW59294   1.172   2.075   6.487
15889SOL    HW159295   1.216   2.070   6.572
15889SOL    HW259296   1.142   2.166   6.481
15890SOL     OW59297   3.382   0.010   8.194
15890SOL    HW159298   3.452   4.734   8.161
15890SOL    HW259299   3.329   0.030   8.117
15891SOL     OW59300   0.757   3.045   2.799
15891SOL    HW159301   0.741   3.015   2.709
15891SOL    HW259302   0.671   3.075   2.829
15892SOL     OW59303   4.046   3.401  27.933
15892SOL    HW159304   4.011   3.486  27.959
15892SOL    HW259305   3.971   3.342  27.937
15893SOL     OW59306   0.981   3.259   4.214
15893SOL    HW159307   0.928   3.216   4.146
15893SOL    HW259308   0.955   3.216   4.295
15894SOL     OW59309   0.942   3.351   8.086
15894SOL    HW159310   0.971   3.285   8.150
15894SOL    HW259311   1.023   3.387   8.050
15895SOL     OW59312   0.515   1.988   3.684
15895SOL    HW159313   0.458   1.912   3.670
15895SOL    HW259314   0.466   2.044   3.744
15896SOL     OW59315   0.657   3.624   4.658
15896SOL    HW159316   0.684   3.628   4.566
15896SOL    HW259317   0.651   3.715   4.686
15897SOL     OW59318   1.083   3.440  23.636
15897SOL    HW159319   1.126   3.521  23.607
15897SOL    HW259320   1.002   3.469  23.677
15898SOL     OW59321   4.236   3.574  23.793
15898SOL    HW159322   4.236   3.539  23.882
15898SOL    HW259323   4.173   3.646  23.795
15899SOL     OW59324   1.679   0.604  21.958
15899SOL    HW159325   1.659   0.570  22.045
15899SOL    HW259326   1.670   0.528  21.900
15900SOL     OW59327   1.227   3.405  19.251
15900SOL    HW159328   1.170   3.431  19.179
15900SOL    HW259329   1.223   3.309  19.251
15901SOL     OW59330   2.837   2.949   9.901
15901SOL    HW159331   2.855   3.004   9.977
15901SOL    HW259332   2.866   2.862   9.927
15902SOL     OW59333   0.529   4.449  22.501
15902SOL    HW159334   0.461   4.512  22.524
15902SOL    HW259335   0.586   4.446  22.578
15903SOL     OW59336   4.675   3.377   1.972
15903SOL    HW159337   4.733   3.324   1.917
15903SOL    HW259338   4.650   3.319   2.044
15904SOL     OW59339   0.196   1.673   5.957
15904SOL    HW159340   0.282   1.649   5.923
15904SOL    HW259341   0.189   1.624   6.039
15905SOL     OW59342   0.470   1.094  22.811
15905SOL    HW159343   0.406   1.024  22.799
15905SOL    HW259344   0.493   1.121  22.722
15906SOL     OW59345   0.803   1.360   5.836
15906SOL    HW159346   0.780   1.372   5.744
15906SOL    HW259347   0.775   1.441   5.878
15907SOL     OW59348   1.220   2.197  28.106
15907SOL    HW159349   1.202   2.120  28.052
15907SOL    HW259350   1.161   2.264  28.072
15908SOL     OW59351   2.277   1.960  19.704
15908SOL    HW159352   2.250   2.047  19.733
15908SOL    HW259353   2.361   1.975  19.660
15909SOL     OW59354   0.562   1.998  24.726
15909SOL    HW159355   0.573   2.092  24.713
15909SOL    HW259356   0.471   1.988  24.755
15910SOL     OW59357   2.162   0.050   6.374
15910SOL    HW159358   2.208   0.058   6.458
15910SOL    HW259359   2.119   4.746   6.378
15911SOL     OW59360   1.185   3.687  23.895
15911SOL    HW159361   1.243   3.709  23.968
15911SOL    HW259362   1.243   3.650  23.828
15912SOL     OW59363   3.788   2.364  27.293
15912SOL    HW159364   3.871   2.395  27.257
15912SOL    HW259365   3.764   2.290  27.237
15913SOL     OW59366   0.039   1.936   6.793
15913SOL    HW159367   0.106   1.938   6.862
15913SOL    HW259368   0.079   1.887   6.722
15914SOL     OW59369   3.669   3.005  26.553
15914SOL    HW159370   3.673   3.086  26.603
15914SOL    HW259371   3.596   2.957  26.591
15915SOL     OW59372   1.033   2.819   0.091
15915SOL    HW159373   1.127   2.804   0.094
15915SOL    HW259374   1.008   2.837   0.182
15916SOL     OW59375   1.004   0.566  21.329
15916SOL    HW159376   0.988   0.561  21.423
15916SOL    HW259377   0.963   0.648  21.302
15917SOL     OW59378   1.510   4.112  28.053
15917SOL    HW159379   1.600   4.084  28.038
15917SOL    HW259380   1.513   4.158  28.137
15918SOL     OW59381   1.756   3.651   0.001
15918SOL    HW159382   1.809   3.698  28.458
15918SOL    HW259383   1.749   3.562  28.489
15919SOL     OW59384   1.937   2.143   2.787
15919SOL    HW159385   1.882   2.180   2.718
15919SOL    HW259386   1.945   2.050   2.765
15920SOL     OW59387   4.491   2.436  24.530
15920SOL    HW159388   4.530   2.365  24.479
15920SOL    HW259389   4.566   2.485  24.564
15921SOL     OW59390   3.432   0.474   7.203
15921SOL    HW159391   3.397   0.563   7.199
15921SOL    HW259392   3.515   0.479   7.156
15922SOL     OW59393   1.200   3.404   6.038
15922SOL    HW159394   1.230   3.441   6.121
15922SOL    HW259395   1.221   3.311   6.044
15923SOL     OW59396   3.621   4.112   9.527
15923SOL    HW159397   3.581   4.168   9.594
15923SOL    HW259398   3.715   4.122   9.540
15924SOL     OW59399   1.360   0.257  27.516
15924SOL    HW159400   1.404   0.173  27.505
15924SOL    HW259401   1.309   0.268  27.436
15925SOL     OW59402   0.557   2.052   5.247
15925SOL    HW159403   0.551   2.142   5.278
15925SOL    HW259404   0.504   2.002   5.309
15926SOL     OW59405   0.151   2.563  21.059
15926SOL    HW159406   0.091   2.637  21.052
15926SOL    HW259407   0.225   2.597  21.109
15927SOL     OW59408   0.149   4.256  24.306
15927SOL    HW159409   0.228   4.203  24.316
15927SOL    HW259410   0.144   4.308  24.386
15928SOL     OW59411   0.077   2.148   8.852
15928SOL    HW159412   0.046   2.172   8.765
15928SOL    HW259413   0.086   2.231   8.898
15929SOL     OW59414   0.702   0.794  11.120
15929SOL    HW159415   0.742   0.880  11.128
15929SOL    HW259416   0.691   0.764  11.210
15930SOL     OW59417   4.734   2.219  10.864
15930SOL    HW159418   4.736   2.123  10.861
15930SOL    HW259419   0.045   2.244  10.872
15931SOL     OW59420   4.007   1.003  19.134
15931SOL    HW159421   4.049   0.928  19.092
15931SOL    HW259422   3.920   0.971  19.157
15932SOL     OW59423   2.536   3.297  23.105
15932SOL    HW159424   2.531   3.238  23.030
15932SOL    HW259425   2.591   3.369  23.076
15933SOL     OW59426   2.158   0.492  22.292
15933SOL    HW159427   2.066   0.502  22.316
15933SOL    HW259428   2.162   0.517  22.200
15934SOL     OW59429   0.625   1.202  23.479
15934SOL    HW159430   0.679   1.279  23.498
15934SOL    HW259431   0.535   1.235  23.480
15935SOL     OW59432   2.238   2.402   2.374
15935SOL    HW159433   2.167   2.361   2.325
15935SOL    HW259434   2.254   2.343   2.448
15936SOL     OW59435   1.066   4.374  27.407
15936SOL    HW159436   1.085   4.285  27.435
15936SOL    HW259437   0.970   4.378  27.403
15937SOL     OW59438   0.607   2.377   3.374
15937SOL    HW159439   0.527   2.363   3.425
15937SOL    HW259440   0.662   2.431   3.431
15938SOL     OW59441   2.721   1.178  24.870
15938SOL    HW159442   2.709   1.244  24.938
15938SOL    HW259443   2.777   1.221  24.805
15939SOL     OW59444   2.645   4.677   8.980
15939SOL    HW159445   2.676   4.622   9.052
15939SOL    HW259446   2.628   4.615   8.909
15940SOL     OW59447   2.403   2.715  20.170
15940SOL    HW159448   2.337   2.706  20.101
15940SOL    HW259449   2.415   2.626  20.203
15941SOL     OW59450   3.218   2.260  11.423
15941SOL    HW159451   3.166   2.232  11.499
15941SOL    HW259452   3.299   2.210  11.429
15942SOL     OW59453   4.250   1.840   8.654
15942SOL    HW159454   4.316   1.781   8.618
15942SOL    HW259455   4.195   1.864   8.579
15943SOL     OW59456   0.337   3.120   4.007
15943SOL    HW159457   0.404   3.069   3.961
15943SOL    HW259458   0.380   3.204   4.025
15944SOL     OW59459   1.230   2.263   7.104
15944SOL    HW159460   1.311   2.235   7.061
15944SOL    HW259461   1.217   2.199   7.174
15945SOL     OW59462   2.106   2.241  27.156
15945SOL    HW159463   2.018   2.258  27.190
15945SOL    HW259464   2.161   2.237  27.234
15946SOL     OW59465   4.136   0.789   7.319
15946SOL    HW159466   4.200   0.856   7.344
15946SOL    HW259467   4.058   0.839   7.294
15947SOL     OW59468   4.098   2.555  10.319
15947SOL    HW159469   4.131   2.644  10.332
15947SOL    HW259470   4.003   2.565  10.320
15948SOL     OW59471   1.928   2.876   9.124
15948SOL    HW159472   1.879   2.897   9.203
15948SOL    HW259473   2.020   2.889   9.148
15949SOL     OW59474   0.212   1.978   8.656
15949SOL    HW159475   0.195   2.050   8.716
15949SOL    HW259476   0.289   1.934   8.692
15950SOL     OW59477   0.906   4.575   4.073
15950SOL    HW159478   0.811   4.589   4.074
15950SOL    HW259479   0.924   4.525   4.152
15951SOL     OW59480   1.627   1.374  10.776
15951SOL    HW159481   1.684   1.356  10.851
15951SOL    HW259482   1.538   1.372  10.812
15952SOL     OW59483   1.427   3.155   8.050
15952SOL    HW159484   1.504   3.172   8.104
15952SOL    HW259485   1.462   3.124   7.967
15953SOL     OW59486   2.160   2.563  12.586
15953SOL    HW159487   2.102   2.618  12.639
15953SOL    HW259488   2.155   2.477  12.627
15954SOL     OW59489   1.388   1.110   7.469
15954SOL    HW159490   1.342   1.147   7.545
15954SOL    HW259491   1.356   1.162   7.395
15955SOL     OW59492   4.078   0.308   4.210
15955SOL    HW159493   4.098   0.329   4.119
15955SOL    HW259494   4.022   0.230   4.205
15956SOL     OW59495   4.308   1.759  22.630
15956SOL    HW159496   4.391   1.722  22.600
15956SOL    HW259497   4.328   1.798  22.715
15957SOL     OW59498   3.142   2.616  28.003
15957SOL    HW159499   3.071   2.611  28.067
15957SOL    HW259500   3.145   2.529  27.964
15958SOL     OW59501   0.605   4.452   8.343
15958SOL    HW159502   0.637   4.395   8.413
15958SOL    HW259503   0.545   4.397   8.293
15959SOL     OW59504   1.062   0.834   0.015
15959SOL    HW159505   1.049   0.783   0.095
15959SOL    HW259506   0.982   0.820  28.486
15960SOL     OW59507   1.456   1.508   6.271
15960SOL    HW159508   1.525   1.512   6.205
15960SOL    HW259509   1.433   1.600   6.287
15961SOL     OW59510   4.343   4.433  27.075
15961SOL    HW159511   4.303   4.493  27.012
15961SOL    HW259512   4.276   4.419  27.142
15962SOL     OW59513   1.689   1.889   6.330
15962SOL    HW159514   1.683   1.984   6.317
15962SOL    HW259515   1.736   1.879   6.413
15963SOL     OW59516   0.396   0.482   1.261
15963SOL    HW159517   0.428   0.392   1.269
15963SOL    HW259518   0.301   0.475   1.268
15964SOL     OW59519   4.323   0.877   5.465
15964SOL    HW159520   4.309   0.787   5.437
15964SOL    HW259521   4.385   0.871   5.538
15965SOL     OW59522   1.958   4.108   6.618
15965SOL    HW159523   1.979   4.199   6.640
15965SOL    HW259524   1.866   4.110   6.591
15966SOL     OW59525   0.451   4.717   3.182
15966SOL    HW159526   0.429   0.013   3.129
15966SOL    HW259527   0.427   4.642   3.127
15967SOL     OW59528   2.216   3.852  23.333
15967SOL    HW159529   2.196   3.848  23.426
15967SOL    HW259530   2.297   3.903  23.329
15968SOL     OW59531   1.152   1.364  12.604
15968SOL    HW159532   1.119   1.397  12.688
15968SOL    HW259533   1.160   1.442  12.549
15969SOL     OW59534   3.254   3.412  27.433
15969SOL    HW159535   3.308   3.374  27.503
15969SOL    HW259536   3.280   3.504  27.430
15970SOL     OW59537   1.305   4.738  11.682
15970SOL    HW159538   1.259   0.012  11.746
15970SOL    HW259539   1.341   4.665  11.733
15971SOL     OW59540   4.195   2.328  17.158
15971SOL    HW159541   4.281   2.287  17.168
15971SOL    HW259542   4.173   2.315  17.066
15972SOL     OW59543   1.954   4.185  18.344
15972SOL    HW159544   1.882   4.246  18.362
15972SOL    HW259545   2.026   4.241  18.315
15973SOL     OW59546   4.367   2.281   9.259
15973SOL    HW159547   4.308   2.233   9.201
15973SOL    HW259548   4.330   2.369   9.263
15974SOL     OW59549   0.443   3.662  23.953
15974SOL    HW159550   0.392   3.631  24.028
15974SOL    HW259551   0.533   3.640  23.976
15975SOL     OW59552   2.223   2.373   6.177
15975SOL    HW159553   2.185   2.407   6.258
15975SOL    HW259554   2.160   2.396   6.109
15976SOL     OW59555   3.018   3.789  27.283
15976SOL    HW159556   2.946   3.727  27.291
15976SOL    HW259557   3.051   3.776  27.194
15977SOL     OW59558   1.436   0.887   0.189
15977SOL    HW159559   1.448   0.980   0.210
15977SOL    HW259560   1.413   0.886   0.096
15978SOL     OW59561   3.569   4.528   8.398
15978SOL    HW159562   3.644   4.468   8.400
15978SOL    HW259563   3.609   4.615   8.393
15979SOL     OW59564   0.063   2.828   7.989
15979SOL    HW159565   0.127   2.842   7.920
15979SOL    HW259566   0.023   2.744   7.968
15980SOL     OW59567   0.497   1.089   9.229
15980SOL    HW159568   0.590   1.085   9.207
15980SOL    HW259569   0.494   1.067   9.322
15981SOL     OW59570   1.517   0.363  24.524
15981SOL    HW159571   1.574   0.375  24.600
15981SOL    HW259572   1.454   0.435  24.529
15982SOL     OW59573   1.313   1.369   1.768
15982SOL    HW159574   1.353   1.349   1.683
15982SOL    HW259575   1.385   1.360   1.831
15983SOL     OW59576   1.247   4.721   1.353
15983SOL    HW159577   1.170   4.664   1.354
15983SOL    HW259578   1.212   0.028   1.369
15984SOL     OW59579   1.684   1.366  11.262
15984SOL    HW159580   1.716   1.297  11.321
15984SOL    HW259581   1.622   1.416  11.315
15985SOL     OW59582   1.052   4.127  22.590
15985SOL    HW159583   0.960   4.102  22.599
15985SOL    HW259584   1.098   4.044  22.577
15986SOL     OW59585   0.128   0.328  28.080
15986SOL    HW159586   0.082   0.410  28.096
15986SOL    HW259587   0.079   0.263  28.131
15987SOL     OW59588   2.723   1.610  21.614
15987SOL    HW159589   2.659   1.681  21.623
15987SOL    HW259590   2.703   1.550  21.686
15988SOL     OW59591   1.200   0.697  12.135
15988SOL    HW159592   1.129   0.706  12.199
15988SOL    HW259593   1.167   0.634  12.071
15989SOL     OW59594   4.079   3.270   1.450
15989SOL    HW159595   3.996   3.306   1.480
15989SOL    HW259596   4.145   3.331   1.483
15990SOL     OW59597   1.128   3.051  13.962
15990SOL    HW159598   1.046   3.002  13.953
15990SOL    HW259599   1.101   3.143  13.963
15991SOL     OW59600   1.125   4.417  20.029
15991SOL    HW159601   1.073   4.491  19.998
15991SOL    HW259602   1.089   4.397  20.115
15992SOL     OW59603   0.200   3.849   2.671
15992SOL    HW159604   0.244   3.790   2.732
15992SOL    HW259605   0.132   3.892   2.723
15993SOL     OW59606   0.790   2.654  23.309
15993SOL    HW159607   0.866   2.649  23.250
15993SOL    HW259608   0.784   2.747  23.332
15994SOL     OW59609   3.432   3.597  10.787
15994SOL    HW159610   3.452   3.646  10.867
15994SOL    HW259611   3.514   3.600  10.737
15995SOL     OW59612   3.576   3.914   5.200
15995SOL    HW159613   3.640   3.985   5.192
15995SOL    HW259614   3.613   3.842   5.149
15996SOL     OW59615   1.582   4.530   8.005
15996SOL    HW159616   1.673   4.558   7.995
15996SOL    HW259617   1.575   4.452   7.950
15997SOL     OW59618   3.526   0.878  11.512
15997SOL    HW159619   3.610   0.906  11.476
15997SOL    HW259620   3.492   0.816  11.447
15998SOL     OW59621   4.138   0.927  22.829
15998SOL    HW159622   4.087   1.007  22.817
15998SOL    HW259623   4.223   0.958  22.859
15999SOL     OW59624   1.973   4.530   3.212
15999SOL    HW159625   2.065   4.529   3.238
15999SOL    HW259626   1.951   4.623   3.206
16000SOL     OW59627   1.063   1.611   4.892
16000SOL    HW159628   1.005   1.685   4.874
16000SOL    HW259629   1.069   1.608   4.987
16001SOL     OW59630   3.824   4.703   7.493
16001SOL    HW159631   3.820   4.624   7.439
16001SOL    HW259632   3.763   4.764   7.452
16002SOL     OW59633   2.595   4.223   8.360
16002SOL    HW159634   2.543   4.202   8.282
16002SOL    HW259635   2.684   4.199   8.336
16003SOL     OW59636   1.751   1.629  10.488
16003SOL    HW159637   1.745   1.634  10.583
16003SOL    HW259638   1.682   1.568  10.464
16004SOL     OW59639   3.997   1.633  23.605
16004SOL    HW159640   3.913   1.588  23.615
16004SOL    HW259641   3.985   1.717  23.650
16005SOL     OW59642   4.529   1.005  26.535
16005SOL    HW159643   4.609   1.021  26.485
16005SOL    HW259644   4.498   1.092  26.560
16006SOL     OW59645   3.036   2.541  19.283
16006SOL    HW159646   3.007   2.475  19.220
16006SOL    HW259647   3.056   2.491  19.362
16007SOL     OW59648   2.043   2.380   5.944
16007SOL    HW159649   2.028   2.459   5.893
16007SOL    HW259650   1.963   2.328   5.933
16008SOL     OW59651   0.199   3.692  25.976
16008SOL    HW159652   0.105   3.700  25.989
16008SOL    HW259653   0.225   3.617  26.029
16009SOL     OW59654   0.187   4.103   1.464
16009SOL    HW159655   0.269   4.069   1.427
16009SOL    HW259656   0.157   4.035   1.524
16010SOL     OW59657   2.470   4.210  24.706
16010SOL    HW159658   2.409   4.137  24.710
16010SOL    HW259659   2.540   4.180  24.647
16011SOL     OW59660   2.733   0.740   8.126
16011SOL    HW159661   2.663   0.805   8.130
16011SOL    HW259662   2.767   0.736   8.215
16012SOL     OW59663   3.552   2.055  18.592
16012SOL    HW159664   3.646   2.063  18.605
16012SOL    HW259665   3.534   2.106  18.513
16013SOL     OW59666   4.530   0.638  23.446
16013SOL    HW159667   4.505   0.623  23.537
16013SOL    HW259668   4.497   0.725  23.426
16014SOL     OW59669   2.192   0.508  20.344
16014SOL    HW159670   2.182   0.573  20.275
16014SOL    HW259671   2.287   0.499  20.354
16015SOL     OW59672   2.746   2.137   4.480
16015SOL    HW159673   2.677   2.080   4.515
16015SOL    HW259674   2.730   2.138   4.386
16016SOL     OW59675   3.594   2.751   1.698
16016SOL    HW159676   3.569   2.796   1.617
16016SOL    HW259677   3.683   2.720   1.681
16017SOL     OW59678   1.277   3.691  11.257
16017SOL    HW159679   1.256   3.779  11.227
16017SOL    HW259680   1.254   3.692  11.350
16018SOL     OW59681   4.013   3.323  26.180
16018SOL    HW159682   3.984   3.414  26.183
16018SOL    HW259683   3.955   3.281  26.117
16019SOL     OW59684   3.633   3.788  21.423
16019SOL    HW159685   3.685   3.868  21.433
16019SOL    HW259686   3.674   3.725  21.482
16020SOL     OW59687   0.838   4.466  21.457
16020SOL    HW159688   0.770   4.437  21.518
16020SOL    HW259689   0.801   4.543  21.414
16021SOL     OW59690   0.910   1.149  12.487
16021SOL    HW159691   0.952   1.158  12.573
16021SOL    HW259692   0.974   1.100  12.435
16022SOL     OW59693   0.338   1.318  12.215
16022SOL    HW159694   0.389   1.239  12.195
16022SOL    HW259695   0.254   1.285  12.247
16023SOL     OW59696   1.603   1.710  11.448
16023SOL    HW159697   1.583   1.803  11.434
16023SOL    HW259698   1.685   1.710  11.497
16024SOL     OW59699   0.999   1.023  12.140
16024SOL    HW159700   1.025   1.034  12.231
16024SOL    HW259701   0.985   0.929  12.130
16025SOL     OW59702   4.523   0.376  12.976
16025SOL    HW159703   4.500   0.302  12.920
16025SOL    HW259704   4.568   0.337  13.051
16026SOL     OW59705   0.057   0.665  12.495
16026SOL    HW159706   0.118   0.703  12.558
16026SOL    HW259707   4.766   0.630  12.548
16027SOL     OW59708   0.862   3.395  13.130
16027SOL    HW159709   0.767   3.382  13.137
16027SOL    HW259710   0.879   3.473  13.182
16028SOL     OW59711   1.920   1.886  13.055
16028SOL    HW159712   2.003   1.872  13.009
16028SOL    HW259713   1.913   1.981  13.062
16029SOL     OW59714   4.286   0.526  12.677
16029SOL    HW159715   4.313   0.551  12.765
16029SOL    HW259716   4.190   0.526  12.681
16030SOL     OW59717   1.180   3.089  11.841
16030SOL    HW159718   1.271   3.105  11.866
16030SOL    HW259719   1.172   3.128  11.754
16031SOL     OW59720   4.712   0.210  13.033
16031SOL    HW159721   4.736   0.204  13.126
16031SOL    HW259722   4.781   0.264  12.994
16032SOL     OW59723   2.206   1.018  11.457
16032SOL    HW159724   2.158   0.987  11.534
16032SOL    HW259725   2.267   1.083  11.492
16033SOL     OW59726   3.174   4.260  14.387
16033SOL    HW159727   3.091   4.254  14.434
16033SOL    HW259728   3.208   4.171  14.388
16034SOL     OW59729   1.987   1.326   2.742
16034SOL    HW159730   1.959   1.343   2.832
16034SOL    HW259731   2.025   1.409   2.713
16035SOL     OW59732   2.994   4.375  12.966
16035SOL    HW159733   3.027   4.409  13.049
16035SOL    HW259734   2.998   4.450  12.906
16036SOL     OW59735   1.144   1.908  13.702
16036SOL    HW159736   1.089   1.976  13.741
16036SOL    HW259737   1.233   1.930  13.732
16037SOL     OW59738   2.440   2.107  11.386
16037SOL    HW159739   2.369   2.076  11.330
16037SOL    HW259740   2.429   2.059  11.468
16038SOL     OW59741   0.973   0.737  12.283
16038SOL    HW159742   0.963   0.735  12.378
16038SOL    HW259743   0.884   0.731  12.250
16039SOL     OW59744   1.395   0.221  12.509
16039SOL    HW159745   1.335   0.152  12.536
16039SOL    HW259746   1.426   0.259  12.591
16040SOL     OW59747   0.929   2.537  12.260
16040SOL    HW159748   0.891   2.542  12.348
16040SOL    HW259749   0.909   2.622  12.220
16041SOL     OW59750   1.135   1.333  11.823
16041SOL    HW159751   1.086   1.398  11.873
16041SOL    HW259752   1.131   1.254  11.876
16042SOL     OW59753   1.068   2.514  13.930
16042SOL    HW159754   1.067   2.533  13.836
16042SOL    HW259755   1.043   2.422  13.936
16043SOL     OW59756   2.601   0.807  12.357
16043SOL    HW159757   2.511   0.801  12.324
16043SOL    HW259758   2.593   0.789  12.451
16044SOL     OW59759   2.548   0.819  10.993
16044SOL    HW159760   2.588   0.889  11.044
16044SOL    HW259761   2.456   0.820  11.019
16045SOL     OW59762   1.042   1.709  13.524
16045SOL    HW159763   1.087   1.736  13.444
16045SOL    HW259764   1.068   1.773  13.590
16046SOL     OW59765   1.551   2.496  12.088
16046SOL    HW159766   1.562   2.545  12.169
16046SOL    HW259767   1.529   2.407  12.116
16047SOL     OW59768   1.212   1.844  12.696
16047SOL    HW159769   1.118   1.835  12.681
16047SOL    HW259770   1.219   1.912  12.764
16048SOL     OW59771   0.228   2.988  13.102
16048SOL    HW159772   0.296   3.016  13.163
16048SOL    HW259773   0.154   2.965  13.158
16049SOL     OW59774   1.866   1.477  12.338
16049SOL    HW159775   1.788   1.432  12.372
16049SOL    HW259776   1.931   1.466  12.407
16050SOL     OW59777   2.762   1.944  10.572
16050SOL    HW159778   2.695   1.877  10.580
16050SOL    HW259779   2.792   1.959  10.662
16051SOL     OW59780   0.327   1.773  12.952
16051SOL    HW159781   0.369   1.707  12.897
16051SOL    HW259782   0.268   1.723  13.009
16052SOL     OW59783   2.678   1.996  11.711
16052SOL    HW159784   2.676   1.942  11.790
16052SOL    HW259785   2.599   1.971  11.663
16053SOL     OW59786   0.075   0.165  13.279
16053SOL    HW159787   4.771   0.132  13.307
16053SOL    HW259788   0.138   0.122  13.336
16054SOL     OW59789   0.648   1.477  12.248
16054SOL    HW159790   0.732   1.483  12.293
16054SOL    HW259791   0.670   1.441  12.162
16055SOL     OW59792   1.387   1.876   6.046
16055SOL    HW159793   1.298   1.871   6.011
16055SOL    HW259794   1.392   1.961   6.089
16056SOL     OW59795   1.145   2.589  12.560
16056SOL    HW159796   1.065   2.623  12.600
16056SOL    HW259797   1.161   2.506  12.604
16057SOL     OW59798   3.075   0.837   9.625
16057SOL    HW159799   2.986   0.807   9.605
16057SOL    HW259800   3.065   0.931   9.643
16058SOL     OW59801   1.426   3.064  11.950
16058SOL    HW159802   1.418   2.995  12.016
16058SOL    HW259803   1.504   3.040  11.900
16059SOL     OW59804   1.731   0.842  10.984
16059SOL    HW159805   1.689   0.778  10.926
16059SOL    HW259806   1.694   0.823  11.070
16060SOL     OW59807   0.856   0.821  13.455
16060SOL    HW159808   0.848   0.849  13.546
16060SOL    HW259809   0.936   0.769  13.453
16061SOL     OW59810   0.735   2.218  14.340
16061SOL    HW159811   0.713   2.164  14.264
16061SOL    HW259812   0.809   2.271  14.312
16062SOL     OW59813   0.878   1.182  13.085
16062SOL    HW159814   0.857   1.243  13.155
16062SOL    HW259815   0.898   1.100  13.130
16063SOL     OW59816   0.940   0.456  14.642
16063SOL    HW159817   1.005   0.396  14.678
16063SOL    HW259818   0.924   0.519  14.713
16064SOL     OW59819   0.806   0.774  14.073
16064SOL    HW159820   0.861   0.845  14.041
16064SOL    HW259821   0.856   0.736  14.145
16065SOL     OW59822   0.785   1.604  13.462
16065SOL    HW159823   0.826   1.517  13.457
16065SOL    HW259824   0.855   1.661  13.494
16066SOL     OW59825   2.354   2.952  11.986
16066SOL    HW159826   2.284   2.919  11.930
16066SOL    HW259827   2.308   3.001  12.055
16067SOL     OW59828   0.966   0.662  14.262
16067SOL    HW159829   0.950   0.568  14.267
16067SOL    HW259830   1.045   0.675  14.315
16068SOL     OW59831   0.482   1.148  11.905
16068SOL    HW159832   0.462   1.103  11.987
16068SOL    HW259833   0.516   1.079  11.848
16069SOL     OW59834   1.729   0.780  13.379
16069SOL    HW159835   1.675   0.839  13.431
16069SOL    HW259836   1.671   0.707  13.357
16070SOL     OW59837   1.453   0.928  13.733
16070SOL    HW159838   1.410   0.850  13.699
16070SOL    HW259839   1.517   0.895  13.796
16071SOL     OW59840   1.909   0.214  12.270
16071SOL    HW159841   1.843   0.177  12.328
16071SOL    HW259842   1.987   0.224  12.325
16072SOL     OW59843   2.036   1.903  12.711
16072SOL    HW159844   1.960   1.848  12.693
16072SOL    HW259845   2.096   1.845  12.758
16073SOL     OW59846   4.356   1.815  13.505
16073SOL    HW159847   4.392   1.744  13.557
16073SOL    HW259848   4.318   1.875  13.569
16074SOL     OW59849   0.951   1.407  14.371
16074SOL    HW159850   0.877   1.402  14.432
16074SOL    HW259851   1.007   1.475  14.408
16075SOL     OW59852   4.490   1.967  13.290
16075SOL    HW159853   4.456   1.914  13.362
16075SOL    HW259854   4.520   2.048  13.332
16076SOL     OW59855   1.145   0.361  14.818
16076SOL    HW159856   1.204   0.297  14.778
16076SOL    HW259857   1.203   0.427  14.856
16077SOL     OW59858   3.517   0.988  15.047
16077SOL    HW159859   3.574   1.063  15.064
16077SOL    HW259860   3.469   0.976  15.129
16078SOL     OW59861   1.157   4.671  13.339
16078SOL    HW159862   1.225   4.633  13.283
16078SOL    HW259863   1.137   4.602  13.402
16079SOL     OW59864   2.564   0.442  14.418
16079SOL    HW159865   2.614   0.517  14.385
16079SOL    HW259866   2.590   0.370  14.361
16080SOL     OW59867   0.533   0.825  13.986
16080SOL    HW159868   0.620   0.785  13.990
16080SOL    HW259869   0.551   0.919  13.983
16081SOL     OW59870   4.504   2.105  13.614
16081SOL    HW159871   4.455   2.044  13.670
16081SOL    HW259872   4.441   2.133  13.548
16082SOL     OW59873   0.799   1.681  13.944
16082SOL    HW159874   0.813   1.766  13.986
16082SOL    HW259875   0.873   1.672  13.883
16083SOL     OW59876   2.995   1.538  12.893
16083SOL    HW159877   3.079   1.502  12.922
16083SOL    HW259878   2.960   1.472  12.833
16084SOL     OW59879   4.726   1.448  15.221
16084SOL    HW159880   4.690   1.430  15.134
16084SOL    HW259881   0.038   1.424  15.214
16085SOL     OW59882   3.243   0.272  14.155
16085SOL    HW159883   3.297   0.350  14.165
16085SOL    HW259884   3.188   0.291  14.079
16086SOL     OW59885   2.297   1.575  12.960
16086SOL    HW159886   2.386   1.551  12.987
16086SOL    HW259887   2.250   1.589  13.042
16087SOL     OW59888   3.547   4.525  12.390
16087SOL    HW159889   3.564   4.619  12.399
16087SOL    HW259890   3.543   4.493  12.480
16088SOL     OW59891   1.032   2.306  13.665
16088SOL    HW159892   1.016   2.224  13.712
16088SOL    HW259893   1.111   2.290  13.614
16089SOL     OW59894   0.877   0.600  13.728
16089SOL    HW159895   0.933   0.600  13.651
16089SOL    HW259896   0.852   0.692  13.739
16090SOL     OW59897   0.907   0.636  14.851
16090SOL    HW159898   0.815   0.626  14.877
16090SOL    HW259899   0.922   0.730  14.851
16091SOL     OW59900   1.455   1.642  13.736
16091SOL    HW159901   1.419   1.632  13.648
16091SOL    HW259902   1.430   1.730  13.763
16092SOL     OW59903   2.850   0.265  13.273
16092SOL    HW159904   2.873   0.172  13.280
16092SOL    HW259905   2.858   0.299  13.362
16093SOL     OW59906   1.293   1.773  14.645
16093SOL    HW159907   1.377   1.818  14.649
16093SOL    HW259908   1.241   1.812  14.715
16094SOL     OW59909   0.987   0.289  16.201
16094SOL    HW159910   1.005   0.232  16.276
16094SOL    HW259911   0.983   0.230  16.126
16095SOL     OW59912   1.954   1.844  16.637
16095SOL    HW159913   1.896   1.775  16.605
16095SOL    HW259914   2.039   1.822  16.599
16096SOL     OW59915   2.121   2.312  16.764
16096SOL    HW159916   2.145   2.228  16.802
16096SOL    HW259917   2.035   2.297  16.725
16097SOL     OW59918   1.074   2.387  14.838
16097SOL    HW159919   1.109   2.343  14.916
16097SOL    HW259920   1.143   2.449  14.813
16098SOL     OW59921   1.197   1.026  16.486
16098SOL    HW159922   1.137   1.087  16.529
16098SOL    HW259923   1.171   1.028  16.394
16099SOL     OW59924   1.054   0.879  14.830
16099SOL    HW159925   1.146   0.875  14.855
16099SOL    HW259926   1.050   0.949  14.764
16100SOL     OW59927   2.301   2.247  16.174
16100SOL    HW159928   2.318   2.182  16.106
16100SOL    HW259929   2.236   2.306  16.135
16101SOL     OW59930   0.979   1.037  15.039
16101SOL    HW159931   1.009   0.977  14.970
16101SOL    HW259932   0.886   1.051  15.020
16102SOL     OW59933   1.722   2.340  16.875
16102SOL    HW159934   1.801   2.343  16.929
16102SOL    HW259935   1.752   2.307  16.790
16103SOL     OW59936   1.180   1.512  15.191
16103SOL    HW159937   1.150   1.552  15.272
16103SOL    HW259938   1.142   1.424  15.192
16104SOL     OW59939   1.077   1.264  15.158
16104SOL    HW159940   1.049   1.189  15.105
16104SOL    HW259941   1.045   1.245  15.246
16105SOL     OW59942   2.228   1.618  15.503
16105SOL    HW159943   2.265   1.532  15.484
16105SOL    HW259944   2.278   1.678  15.448
16106SOL     OW59945   1.254   1.591  15.638
16106SOL    HW159946   1.243   1.499  15.614
16106SOL    HW259947   1.223   1.639  15.561
16107SOL     OW59948   0.803   1.389  18.440
16107SOL    HW159949   0.886   1.409  18.396
16107SOL    HW259950   0.778   1.302  18.408
16108SOL     OW59951   3.848   0.897  15.606
16108SOL    HW159952   3.860   0.990  15.625
16108SOL    HW259953   3.930   0.870  15.564
16109SOL     OW59954   2.299   1.780  15.874
16109SOL    HW159955   2.214   1.744  15.848
16109SOL    HW259956   2.363   1.727  15.827
16110SOL     OW59957   2.438   4.542  22.772
16110SOL    HW159958   2.371   4.610  22.762
16110SOL    HW259959   2.520   4.587  22.753
16111SOL     OW59960   1.948   0.662  17.267
16111SOL    HW159961   2.009   0.629  17.201
16111SOL    HW259962   1.878   0.704  17.217
16112SOL     OW59963   1.099   0.734  15.821
16112SOL    HW159964   1.142   0.776  15.746
16112SOL    HW259965   1.148   0.764  15.897
16113SOL     OW59966   1.063   2.110  17.735
16113SOL    HW159967   1.158   2.118  17.746
16113SOL    HW259968   1.050   2.019  17.707
16114SOL     OW59969   1.290   0.584  14.944
16114SOL    HW159970   1.236   0.640  15.000
16114SOL    HW259971   1.301   0.635  14.864
16115SOL     OW59972   1.306   0.599  16.938
16115SOL    HW159973   1.295   0.511  16.903
16115SOL    HW259974   1.217   0.628  16.959
16116SOL     OW59975   4.107   3.419  17.603
16116SOL    HW159976   4.162   3.465  17.540
16116SOL    HW259977   4.155   3.424  17.685
16117SOL     OW59978   2.614   0.175  15.918
16117SOL    HW159979   2.543   0.117  15.946
16117SOL    HW259980   2.656   0.128  15.846
16118SOL     OW59981   1.864   1.726  14.404
16118SOL    HW159982   1.946   1.754  14.363
16118SOL    HW259983   1.821   1.672  14.337
16119SOL     OW59984   1.215   1.062  13.213
16119SOL    HW159985   1.307   1.047  13.236
16119SOL    HW259986   1.201   1.155  13.231
16120SOL     OW59987   2.197   0.756  15.503
16120SOL    HW159988   2.138   0.751  15.428
16120SOL    HW259989   2.282   0.779  15.465
16121SOL     OW59990   1.353   2.415  15.932
16121SOL    HW159991   1.344   2.377  15.845
16121SOL    HW259992   1.287   2.484  15.936
16122SOL     OW59993   2.882   0.932  15.659
16122SOL    HW159994   2.961   0.894  15.696
16122SOL    HW259995   2.825   0.857  15.640
16123SOL     OW59996   0.845   2.604  14.836
16123SOL    HW159997   0.787   2.586  14.762
16123SOL    HW259998   0.913   2.537  14.829
16124SOL     OW59999   4.525   0.846  14.829
16124SOL    HW160000   4.507   0.758  14.862
16124SOL    HW260001   4.441   0.891  14.836
16125SOL     OW60002   1.693   1.034  16.044
16125SOL    HW160003   1.713   1.061  16.134
16125SOL    HW260004   1.761   1.076  15.991
16126SOL     OW60005   1.678   2.118  14.284
16126SOL    HW160006   1.592   2.150  14.313
16126SOL    HW260007   1.702   2.052  14.349
16127SOL     OW60008   0.685   0.167  15.429
16127SOL    HW160009   0.600   0.169  15.473
16127SOL    HW260010   0.677   0.097  15.364
16128SOL     OW60011   0.051   1.273  14.733
16128SOL    HW160012   0.111   1.222  14.679
16128SOL    HW260013   4.763   1.211  14.758
16129SOL     OW60014   1.435   1.705  16.343
16129SOL    HW160015   1.423   1.681  16.251
16129SOL    HW260016   1.451   1.622  16.387
16130SOL     OW60017   2.406   0.579  15.188
16130SOL    HW160018   2.339   0.620  15.134
16130SOL    HW260019   2.405   0.487  15.162
16131SOL     OW60020   0.464   1.272  15.518
16131SOL    HW160021   0.377   1.256  15.555
16131SOL    HW260022   0.457   1.244  15.427
16132SOL     OW60023   4.625   0.774  16.700
16132SOL    HW160024   4.712   0.750  16.667
16132SOL    HW260025   4.608   0.711  16.770
16133SOL     OW60026   0.307   0.897  22.739
16133SOL    HW160027   0.258   0.960  22.686
16133SOL    HW260028   0.254   0.818  22.738
16134SOL     OW60029   2.216   0.977  16.831
16134SOL    HW160030   2.199   1.009  16.742
16134SOL    HW260031   2.310   0.962  16.834
16135SOL     OW60032   2.653   1.392   8.942
16135SOL    HW160033   2.702   1.464   8.902
16135SOL    HW260034   2.632   1.424   9.030
16136SOL     OW60035   0.116   0.324  17.348
16136SOL    HW160036   0.127   0.299  17.256
16136SOL    HW260037   0.171   0.401  17.358
16137SOL     OW60038   1.567   1.133  16.620
16137SOL    HW160039   1.517   1.189  16.561
16137SOL    HW260040   1.658   1.155  16.602
16138SOL     OW60041   3.439   1.471  15.956
16138SOL    HW160042   3.420   1.546  16.012
16138SOL    HW260043   3.393   1.491  15.874
16139SOL     OW60044   3.614   1.230  21.512
16139SOL    HW160045   3.665   1.243  21.432
16139SOL    HW260046   3.543   1.171  21.486
16140SOL     OW60047   0.880   0.113  17.412
16140SOL    HW160048   0.859   0.162  17.491
16140SOL    HW260049   0.830   0.156  17.343
16141SOL     OW60050   0.358   3.762  18.547
16141SOL    HW160051   0.405   3.814  18.612
16141SOL    HW260052   0.391   3.673  18.558
16142SOL     OW60053   0.150   4.593  16.708
16142SOL    HW160054   0.055   4.593  16.722
16142SOL    HW260055   0.160   4.613  16.615
16143SOL     OW60056   1.113   3.006  18.345
16143SOL    HW160057   1.073   3.091  18.328
16143SOL    HW260058   1.205   3.017  18.320
16144SOL     OW60059   2.478   4.155  23.151
16144SOL    HW160060   2.526   4.231  23.118
16144SOL    HW260061   2.388   4.186  23.162
16145SOL     OW60062   0.222   3.142  17.085
16145SOL    HW160063   0.266   3.184  17.011
16145SOL    HW260064   0.293   3.123  17.147
16146SOL     OW60065   0.934   3.230  17.743
16146SOL    HW160066   0.875   3.214  17.669
16146SOL    HW260067   1.016   3.258  17.703
16147SOL     OW60068   2.972   1.501  20.532
16147SOL    HW160069   3.034   1.567  20.503
16147SOL    HW260070   2.978   1.503  20.628
16148SOL     OW60071   1.345   2.939  18.125
16148SOL    HW160072   1.390   2.943  18.041
16148SOL    HW260073   1.267   2.993  18.113
16149SOL     OW60074   1.725   2.670  16.247
16149SOL    HW160075   1.707   2.678  16.153
16149SOL    HW260076   1.812   2.631  16.251
16150SOL     OW60077   0.010   1.145  17.849
16150SOL    HW160078   4.757   1.156  17.938
16150SOL    HW260079   0.010   1.050  17.835
16151SOL     OW60080   1.384   1.211  16.447
16151SOL    HW160081   1.336   1.143  16.495
16151SOL    HW260082   1.361   1.196  16.355
16152SOL     OW60083   1.965   1.094  15.558
16152SOL    HW160084   1.959   1.039  15.480
16152SOL    HW260085   1.980   1.182  15.524
16153SOL     OW60086   1.374   0.958  20.627
16153SOL    HW160087   1.329   1.014  20.690
16153SOL    HW260088   1.466   0.964  20.651
16154SOL     OW60089   1.518   1.649  17.213
16154SOL    HW160090   1.593   1.663  17.271
16154SOL    HW260091   1.539   1.699  17.134
16155SOL     OW60092   1.655   4.111  21.349
16155SOL    HW160093   1.695   4.184  21.397
16155SOL    HW260094   1.580   4.085  21.403
16156SOL     OW60095   1.509   0.793  17.754
16156SOL    HW160096   1.537   0.717  17.703
16156SOL    HW260097   1.583   0.853  17.749
16157SOL     OW60098   1.469   3.032  17.887
16157SOL    HW160099   1.499   3.122  17.873
16157SOL    HW260100   1.549   2.980  17.890
16158SOL     OW60101   0.001   1.899   0.875
16158SOL    HW160102   0.037   1.844   0.944
16158SOL    HW260103   0.067   1.968   0.863
16159SOL     OW60104   2.744   1.861  18.605
16159SOL    HW160105   2.790   1.806  18.542
16159SOL    HW260106   2.813   1.916  18.644
16160SOL     OW60107   0.763   4.132  16.662
16160SOL    HW160108   0.741   4.047  16.701
16160SOL    HW260109   0.775   4.191  16.737
16161SOL     OW60110   3.808   3.814   2.826
16161SOL    HW160111   3.796   3.895   2.776
16161SOL    HW260112   3.759   3.748   2.777
16162SOL     OW60113   3.788   3.895  23.426
16162SOL    HW160114   3.838   3.827  23.471
16162SOL    HW260115   3.697   3.876  23.447
16163SOL     OW60116   1.987   3.878  25.096
16163SOL    HW160117   1.938   3.880  25.014
16163SOL    HW260118   2.030   3.964  25.100
16164SOL     OW60119   2.416   0.598  17.130
16164SOL    HW160120   2.441   0.690  17.120
16164SOL    HW260121   2.427   0.580  17.223
16165SOL     OW60122   1.463   2.164  25.157
16165SOL    HW160123   1.516   2.243  25.163
16165SOL    HW260124   1.392   2.178  25.220
16166SOL     OW60125   3.602   0.859  24.937
16166SOL    HW160126   3.660   0.874  25.011
16166SOL    HW260127   3.552   0.781  24.961
16167SOL     OW60128   0.486   1.549  15.484
16167SOL    HW160129   0.479   1.454  15.495
16167SOL    HW260130   0.482   1.563  15.389
16168SOL     OW60131   4.147   4.568   6.292
16168SOL    HW160132   4.239   4.545   6.308
16168SOL    HW260133   4.150   4.625   6.215
16169SOL     OW60134   3.129   3.655  16.525
16169SOL    HW160135   3.105   3.619  16.440
16169SOL    HW260136   3.224   3.663  16.522
16170SOL     OW60137   0.111   2.004  19.830
16170SOL    HW160138   0.173   1.996  19.758
16170SOL    HW260139   0.027   2.023  19.787
16171SOL     OW60140   4.586   3.606   7.075
16171SOL    HW160141   4.555   3.682   7.124
16171SOL    HW260142   4.506   3.564   7.042
16172SOL     OW60143   1.715   1.689  17.381
16172SOL    HW160144   1.741   1.768  17.334
16172SOL    HW260145   1.782   1.624  17.358
16173SOL     OW60146   4.727   1.634   2.704
16173SOL    HW160147   4.718   1.716   2.752
16173SOL    HW260148   4.732   1.567   2.772
16174SOL     OW60149   1.546   3.301  14.837
16174SOL    HW160150   1.527   3.386  14.797
16174SOL    HW260151   1.480   3.242  14.801
16175SOL     OW60152   1.690   1.375  16.395
16175SOL    HW160153   1.617   1.410  16.446
16175SOL    HW260154   1.687   1.423  16.312
16176SOL     OW60155   2.558   1.674  28.152
16176SOL    HW160156   2.650   1.689  28.132
16176SOL    HW260157   2.536   1.742  28.216
16177SOL     OW60158   0.266   0.439  16.331
16177SOL    HW160159   0.343   0.450  16.275
16177SOL    HW260160   0.218   0.522  16.323
16178SOL     OW60161   4.641   2.458  15.850
16178SOL    HW160162   4.621   2.522  15.782
16178SOL    HW260163   4.731   2.478  15.877
16179SOL     OW60164   2.550   1.660  15.317
16179SOL    HW160165   2.470   1.712  15.326
16179SOL    HW260166   2.546   1.627  15.227
16180SOL     OW60167   1.822   1.601  17.953
16180SOL    HW160168   1.905   1.632  17.917
16180SOL    HW260169   1.842   1.576  18.043
16181SOL     OW60170   1.752   3.880  15.775
16181SOL    HW160171   1.779   3.832  15.697
16181SOL    HW260172   1.699   3.952  15.742
16182SOL     OW60173   0.709   2.477   4.810
16182SOL    HW160174   0.714   2.554   4.866
16182SOL    HW260175   0.800   2.450   4.798
16183SOL     OW60176   1.708   1.565  15.731
16183SOL    HW160177   1.746   1.556  15.644
16183SOL    HW260178   1.746   1.493  15.781
16184SOL     OW60179   3.374   0.609  21.856
16184SOL    HW160180   3.294   0.661  21.846
16184SOL    HW260181   3.352   0.543  21.922
16185SOL     OW60182   3.053   0.261   2.940
16185SOL    HW160183   2.994   0.209   2.994
16185SOL    HW260184   3.005   0.275   2.859
16186SOL     OW60185   2.388   2.050   1.552
16186SOL    HW160186   2.374   2.037   1.646
16186SOL    HW260187   2.302   2.072   1.517
16187SOL     OW60188   2.658   0.404   6.187
16187SOL    HW160189   2.691   0.385   6.275
16187SOL    HW260190   2.616   0.323   6.159
16188SOL     OW60191   1.028   2.841   8.630
16188SOL    HW160192   1.052   2.934   8.624
16188SOL    HW260193   1.022   2.812   8.539
16189SOL     OW60194   2.767   3.789   1.930
16189SOL    HW160195   2.679   3.760   1.953
16189SOL    HW260196   2.770   3.880   1.959
16190SOL     OW60197   4.551   2.607  23.197
16190SOL    HW160198   4.575   2.655  23.118
16190SOL    HW260199   4.626   2.551  23.215
16191SOL     OW60200   2.592   3.393   1.594
16191SOL    HW160201   2.642   3.428   1.521
16191SOL    HW260202   2.572   3.469   1.649
16192SOL     OW60203   0.029   4.720  18.906
16192SOL    HW160204   0.058   4.638  18.867
16192SOL    HW260205   4.779   4.695  18.993
16193SOL     OW60206   2.420   2.769  25.718
16193SOL    HW160207   2.423   2.727  25.804
16193SOL    HW260208   2.511   2.766  25.687
16194SOL     OW60209   1.193   2.681  15.663
16194SOL    HW160210   1.194   2.641  15.750
16194SOL    HW260211   1.279   2.722  15.655
16195SOL     OW60212   1.928   3.704  26.373
16195SOL    HW160213   1.998   3.690  26.310
16195SOL    HW260214   1.851   3.724  26.320
16196SOL     OW60215   0.078   4.233   2.717
16196SOL    HW160216   0.023   4.190   2.783
16196SOL    HW260217   0.074   4.175   2.641
16197SOL     OW60218   0.766   4.198  17.153
16197SOL    HW160219   0.750   4.292  17.144
16197SOL    HW260220   0.849   4.193  17.200
16198SOL     OW60221   3.301   1.805  21.962
16198SOL    HW160222   3.332   1.749  21.891
16198SOL    HW260223   3.319   1.755  22.042
16199SOL     OW60224   0.140   4.441  23.166
16199SOL    HW160225   0.215   4.382  23.156
16199SOL    HW260226   0.075   4.390  23.215
16200SOL     OW60227   2.160   3.898  27.981
16200SOL    HW160228   2.151   3.807  27.952
16200SOL    HW260229   2.249   3.922  27.955
16201SOL     OW60230   3.614   1.560   5.084
16201SOL    HW160231   3.690   1.524   5.038
16201SOL    HW260232   3.647   1.584   5.171
16202SOL     OW60233   1.331   3.997  23.290
16202SOL    HW160234   1.344   3.926  23.352
16202SOL    HW260235   1.418   4.012  23.252
16203SOL     OW60236   3.415   3.887  20.460
16203SOL    HW160237   3.342   3.844  20.415
16203SOL    HW260238   3.381   3.908  20.547
16204SOL     OW60239   1.897   3.852  20.140
16204SOL    HW160240   1.836   3.800  20.087
16204SOL    HW260241   1.844   3.923  20.176
16205SOL     OW60242   0.726   0.778  18.924
16205SOL    HW160243   0.731   0.685  18.900
16205SOL    HW260244   0.762   0.824  18.848
16206SOL     OW60245   0.439   1.398  18.068
16206SOL    HW160246   0.496   1.324  18.090
16206SOL    HW260247   0.405   1.428  18.152
16207SOL     OW60248   2.070   4.156  23.848
16207SOL    HW160249   2.120   4.096  23.903
16207SOL    HW260250   2.136   4.212  23.807
16208SOL     OW60251   1.120   1.082  22.572
16208SOL    HW160252   1.121   1.020  22.499
16208SOL    HW260253   1.212   1.092  22.597
16209SOL     OW60254   1.698   3.622  24.502
16209SOL    HW160255   1.668   3.567  24.430
16209SOL    HW260256   1.751   3.689  24.460
16210SOL     OW60257   0.533   3.908  22.919
16210SOL    HW160258   0.443   3.878  22.935
16210SOL    HW260259   0.558   3.865  22.837
16211SOL     OW60260   3.767   3.698   9.278
16211SOL    HW160261   3.788   3.790   9.262
16211SOL    HW260262   3.674   3.690   9.255
16212SOL     OW60263   4.382   3.622  20.858
16212SOL    HW160264   4.356   3.637  20.949
16212SOL    HW260265   4.410   3.708  20.827
16213SOL     OW60266   1.420   2.638   7.263
16213SOL    HW160267   1.500   2.597   7.229
16213SOL    HW260268   1.451   2.710   7.317
16214SOL     OW60269   0.580   2.693   7.958
16214SOL    HW160270   0.489   2.673   7.979
16214SOL    HW260271   0.583   2.789   7.953
16215SOL     OW60272   4.496   0.663  24.464
16215SOL    HW160273   4.504   0.751  24.500
16215SOL    HW260274   4.468   0.677  24.373
16216SOL     OW60275   1.395   0.398  18.644
16216SOL    HW160276   1.399   0.389  18.739
16216SOL    HW260277   1.309   0.437  18.628
16217SOL     OW60278   1.059   0.863  19.737
16217SOL    HW160279   0.965   0.874  19.752
16217SOL    HW260280   1.095   0.952  19.741
16218SOL     OW60281   3.399   4.132  26.036
16218SOL    HW160282   3.366   4.172  25.956
16218SOL    HW260283   3.383   4.198  26.104
16219SOL     OW60284   4.156   2.014  20.070
16219SOL    HW160285   4.174   1.920  20.065
16219SOL    HW260286   4.240   2.055  20.051
16220SOL     OW60287   1.144   4.471   6.052
16220SOL    HW160288   1.161   4.504   5.964
16220SOL    HW260289   1.148   4.376   6.043
16221SOL     OW60290   2.753   3.059  22.562
16221SOL    HW160291   2.809   2.984  22.542
16221SOL    HW260292   2.809   3.118  22.612
16222SOL     OW60293   3.577   1.647  24.053
16222SOL    HW160294   3.670   1.670  24.050
16222SOL    HW260295   3.535   1.719  24.100
16223SOL     OW60296   2.583   1.054  24.378
16223SOL    HW160297   2.608   1.048  24.470
16223SOL    HW260298   2.652   1.106  24.337
16224SOL     OW60299   1.715   0.953   9.801
16224SOL    HW160300   1.673   0.877   9.840
16224SOL    HW260301   1.795   0.918   9.762
16225SOL     OW60302   3.202   0.209  24.550
16225SOL    HW160303   3.211   0.165  24.466
16225SOL    HW260304   3.109   0.233  24.555
16226SOL     OW60305   1.071   1.572   4.228
16226SOL    HW160306   1.090   1.480   4.247
16226SOL    HW260307   1.071   1.615   4.313
16227SOL     OW60308   4.136   2.187   6.942
16227SOL    HW160309   4.095   2.175   6.856
16227SOL    HW260310   4.073   2.239   6.992
16228SOL     OW60311   1.301   2.788   4.780
16228SOL    HW160312   1.230   2.734   4.746
16228SOL    HW260313   1.351   2.813   4.703
16229SOL     OW60314   3.103   1.290  27.979
16229SOL    HW160315   3.023   1.264  28.026
16229SOL    HW260316   3.156   1.210  27.977
16230SOL     OW60317   3.711   3.931  18.258
16230SOL    HW160318   3.793   3.900  18.219
16230SOL    HW260319   3.646   3.920  18.189
16231SOL     OW60320   1.949   3.674  21.916
16231SOL    HW160321   1.995   3.596  21.947
16231SOL    HW260322   1.878   3.687  21.979
16232SOL     OW60323   0.807   2.223   8.194
16232SOL    HW160324   0.742   2.242   8.262
16232SOL    HW260325   0.756   2.215   8.114
16233SOL     OW60326   0.487   2.129   0.483
16233SOL    HW160327   0.452   2.214   0.455
16233SOL    HW260328   0.553   2.107   0.417
16234SOL     OW60329   3.259   0.145   3.272
16234SOL    HW160330   3.189   0.208   3.254
16234SOL    HW260331   3.224   0.090   3.342
16235SOL     OW60332   2.792   1.477   7.781
16235SOL    HW160333   2.737   1.405   7.813
16235SOL    HW260334   2.879   1.457   7.814
16236SOL     OW60335   4.466   1.645  17.280
16236SOL    HW160336   4.432   1.713  17.338
16236SOL    HW260337   4.499   1.693  17.204
16237SOL     OW60338   2.899   0.794  16.683
16237SOL    HW160339   2.825   0.854  16.675
16237SOL    HW260340   2.944   0.801  16.599
16238SOL     OW60341   0.927   3.686  11.446
16238SOL    HW160342   0.929   3.638  11.529
16238SOL    HW260343   0.951   3.776  11.469
16239SOL     OW60344   2.971   0.143   8.916
16239SOL    HW160345   3.030   0.219   8.917
16239SOL    HW260346   3.029   0.068   8.930
16240SOL     OW60347   2.412   2.069  22.760
16240SOL    HW160348   2.489   2.059  22.817
16240SOL    HW260349   2.387   1.980  22.737
16241SOL     OW60350   3.857   4.189  24.471
16241SOL    HW160351   3.835   4.170  24.380
16241SOL    HW260352   3.794   4.138  24.522
16242SOL     OW60353   0.615   0.551  10.399
16242SOL    HW160354   0.691   0.493  10.391
16242SOL    HW260355   0.589   0.543  10.491
16243SOL     OW60356   1.658   0.273  26.990
16243SOL    HW160357   1.614   0.295  26.908
16243SOL    HW260358   1.605   0.314  27.058
16244SOL     OW60359   0.583   2.873   5.886
16244SOL    HW160360   0.507   2.929   5.870
16244SOL    HW260361   0.609   2.892   5.976
16245SOL     OW60362   4.492   0.597  21.203
16245SOL    HW160363   4.501   0.527  21.138
16245SOL    HW260364   4.582   0.620  21.225
16246SOL     OW60365   3.849   1.447  24.236
16246SOL    HW160366   3.760   1.428  24.265
16246SOL    HW260367   3.871   1.531  24.277
16247SOL     OW60368   2.732   1.456   9.301
16247SOL    HW160369   2.743   1.365   9.327
16247SOL    HW260370   2.657   1.487   9.351
16248SOL     OW60371   0.527   2.104  19.711
16248SOL    HW160372   0.447   2.078  19.666
16248SOL    HW260373   0.498   2.165  19.779
16249SOL     OW60374   0.958   2.980  21.909
16249SOL    HW160375   0.961   2.896  21.864
16249SOL    HW260376   1.046   3.016  21.900
16250SOL     OW60377   4.692   1.921  23.595
16250SOL    HW160378   4.653   1.996  23.551
16250SOL    HW260379   0.002   1.921  23.565
16251SOL     OW60380   1.786   1.454  16.697
16251SOL    HW160381   1.825   1.379  16.652
16251SOL    HW260382   1.732   1.416  16.766
16252SOL     OW60383   3.235   0.260   4.949
16252SOL    HW160384   3.265   0.262   4.858
16252SOL    HW260385   3.161   0.200   4.949
16253SOL     OW60386   3.208   3.860   7.811
16253SOL    HW160387   3.178   3.876   7.900
16253SOL    HW260388   3.283   3.801   7.821
16254SOL     OW60389   4.343   2.912   6.300
16254SOL    HW160390   4.279   2.930   6.369
16254SOL    HW260391   4.379   2.998   6.278
16255SOL     OW60392   3.595   3.868  28.303
16255SOL    HW160393   3.518   3.873  28.359
16255SOL    HW260394   3.569   3.810  28.231
16256SOL     OW60395   4.330   3.109  23.059
16256SOL    HW160396   4.247   3.078  23.095
16256SOL    HW260397   4.388   3.033  23.062
16257SOL     OW60398   0.619   3.012   2.229
16257SOL    HW160399   0.535   2.973   2.206
16257SOL    HW260400   0.627   2.999   2.323
16258SOL     OW60401   3.152   4.363   0.383
16258SOL    HW160402   3.085   4.389   0.320
16258SOL    HW260403   3.205   4.299   0.337
16259SOL     OW60404   0.804   2.933  20.649
16259SOL    HW160405   0.864   2.910  20.578
16259SOL    HW260406   0.775   2.849  20.684
16260SOL     OW60407   2.638   2.706  25.890
16260SOL    HW160408   2.623   2.619  25.927
16260SOL    HW260409   2.731   2.707  25.868
16261SOL     OW60410   2.882   3.079  10.124
16261SOL    HW160411   2.934   3.077  10.204
16261SOL    HW260412   2.792   3.090  10.154
16262SOL     OW60413   0.924   0.113   1.685
16262SOL    HW160414   0.857   0.182   1.680
16262SOL    HW260415   0.966   0.127   1.770
16263SOL     OW60416   4.142   3.703  20.183
16263SOL    HW160417   4.123   3.746  20.099
16263SOL    HW260418   4.070   3.731  20.240
16264SOL     OW60419   0.114   0.433   1.193
16264SOL    HW160420   0.056   0.359   1.176
16264SOL    HW260421   0.151   0.455   1.107
16265SOL     OW60422   3.413   2.706  21.903
16265SOL    HW160423   3.458   2.626  21.877
16265SOL    HW260424   3.471   2.746  21.968
16266SOL     OW60425   3.058   2.521   4.516
16266SOL    HW160426   3.046   2.435   4.476
16266SOL    HW260427   3.152   2.527   4.531
16267SOL     OW60428   2.486   1.416  27.634
16267SOL    HW160429   2.559   1.446  27.580
16267SOL    HW260430   2.505   1.324  27.651
16268SOL     OW60431   3.838   4.371  28.283
16268SOL    HW160432   3.894   4.303  28.246
16268SOL    HW260433   3.854   4.448  28.229
16269SOL     OW60434   2.379   2.349   0.652
16269SOL    HW160435   2.430   2.350   0.571
16269SOL    HW260436   2.445   2.350   0.721
16270SOL     OW60437   3.517   1.107  20.784
16270SOL    HW160438   3.534   1.018  20.816
16270SOL    HW260439   3.465   1.148  20.853
16271SOL     OW60440   0.717   4.506   7.081
16271SOL    HW160441   0.751   4.536   6.997
16271SOL    HW260442   0.644   4.449   7.058
16272SOL     OW60443   1.552   1.490  26.896
16272SOL    HW160444   1.569   1.453  26.983
16272SOL    HW260445   1.636   1.527  26.869
16273SOL     OW60446   3.809   2.155  21.362
16273SOL    HW160447   3.783   2.245  21.383
16273SOL    HW260448   3.743   2.101  21.405
16274SOL     OW60449   2.954   0.667   4.656
16274SOL    HW160450   3.032   0.660   4.711
16274SOL    HW260451   2.896   0.598   4.688
16275SOL     OW60452   1.738   0.091   3.587
16275SOL    HW160453   1.765   0.137   3.666
16275SOL    HW260454   1.730   0.160   3.521
16276SOL     OW60455   3.068   3.652  25.286
16276SOL    HW160456   2.980   3.689  25.278
16276SOL    HW260457   3.071   3.617  25.375
16277SOL     OW60458   1.409   1.610  25.324
16277SOL    HW160459   1.360   1.656  25.392
16277SOL    HW260460   1.399   1.665  25.246
16278SOL     OW60461   3.001   0.192   6.531
16278SOL    HW160462   3.090   0.165   6.507
16278SOL    HW260463   3.007   0.216   6.623
16279SOL     OW60464   3.765   3.369   7.075
16279SOL    HW160465   3.774   3.280   7.041
16279SOL    HW260466   3.672   3.389   7.067
16280SOL     OW60467   4.066   2.337  19.152
16280SOL    HW160468   4.028   2.249  19.148
16280SOL    HW260469   4.110   2.341  19.237
16281SOL     OW60470   3.750   1.798   4.979
16281SOL    HW160471   3.721   1.712   4.949
16281SOL    HW260472   3.842   1.803   4.953
16282SOL     OW60473   1.950   1.722   6.134
16282SOL    HW160474   1.973   1.799   6.186
16282SOL    HW260475   1.991   1.649   6.180
16283SOL     OW60476   1.977   2.399  16.967
16283SOL    HW160477   2.028   2.382  16.888
16283SOL    HW260478   2.021   2.348  17.035
16284SOL     OW60479   1.935   4.434   1.876
16284SOL    HW160480   1.929   4.494   1.802
16284SOL    HW260481   1.923   4.490   1.953
16285SOL     OW60482   4.689   0.100  20.088
16285SOL    HW160483   4.768   0.136  20.049
16285SOL    HW260484   4.664   0.028  20.030
16286SOL     OW60485   0.893   0.989  21.047
16286SOL    HW160486   0.918   0.897  21.035
16286SOL    HW260487   0.798   0.987  21.058
16287SOL     OW60488   2.500   3.665   3.251
16287SOL    HW160489   2.594   3.666   3.270
16287SOL    HW260490   2.461   3.621   3.326
16288SOL     OW60491   4.751   0.155  22.773
16288SOL    HW160492   0.027   0.155  22.696
16288SOL    HW260493   4.768   0.071  22.815
16289SOL     OW60494   1.979   0.014  24.438
16289SOL    HW160495   1.899   0.060  24.411
16289SOL    HW260496   2.028   0.002  24.357
16290SOL     OW60497   4.069   2.816  28.238
16290SOL    HW160498   4.052   2.725  28.261
16290SOL    HW260499   4.154   2.814  28.193
16291SOL     OW60500   4.611   3.944  17.592
16291SOL    HW160501   4.565   4.009  17.540
16291SOL    HW260502   4.703   3.954  17.567
16292SOL     OW60503   0.276   1.724  19.478
16292SOL    HW160504   0.326   1.688  19.551
16292SOL    HW260505   0.342   1.748  19.413
16293SOL     OW60506   0.373   0.977  28.069
16293SOL    HW160507   0.433   0.933  28.010
16293SOL    HW260508   0.291   0.929  28.060
16294SOL     OW60509   1.697   0.185   7.012
16294SOL    HW160510   1.661   0.206   7.098
16294SOL    HW260511   1.688   0.090   7.004
16295SOL     OW60512   4.619   1.117  22.178
16295SOL    HW160513   4.648   1.114  22.087
16295SOL    HW260514   4.528   1.086  22.175
16296SOL     OW60515   2.063   3.934  21.428
16296SOL    HW160516   2.106   3.896  21.505
16296SOL    HW260517   2.018   4.012  21.461
16297SOL     OW60518   3.013   3.010  20.919
16297SOL    HW160519   3.081   3.022  20.852
16297SOL    HW260520   2.935   3.051  20.881
16298SOL     OW60521   1.844   1.604   0.877
16298SOL    HW160522   1.838   1.687   0.830
16298SOL    HW260523   1.757   1.592   0.916
16299SOL     OW60524   3.496   0.109   5.058
16299SOL    HW160525   3.401   0.119   5.051
16299SOL    HW260526   3.510   0.074   5.146
16300SOL     OW60527   0.265   3.313   1.883
16300SOL    HW160528   0.352   3.304   1.845
16300SOL    HW260529   0.278   3.371   1.958
16301SOL     OW60530   4.240   4.593  26.209
16301SOL    HW160531   4.300   4.532  26.253
16301SOL    HW260532   4.287   4.619  26.130
16302SOL     OW60533   3.263   4.011  24.649
16302SOL    HW160534   3.238   3.926  24.612
16302SOL    HW260535   3.196   4.029  24.714
16303SOL     OW60536   4.206   0.601  17.486
16303SOL    HW160537   4.225   0.507  17.479
16303SOL    HW260538   4.226   0.636  17.399
16304SOL     OW60539   0.957   0.675   3.309
16304SOL    HW160540   0.936   0.757   3.265
16304SOL    HW260541   0.873   0.642   3.340
16305SOL     OW60542   2.217   4.701   5.240
16305SOL    HW160543   2.137   4.653   5.261
16305SOL    HW260544   2.192   4.757   5.166
16306SOL     OW60545   1.585   2.246  21.052
16306SOL    HW160546   1.529   2.318  21.022
16306SOL    HW260547   1.591   2.188  20.976
16307SOL     OW60548   1.152   4.374  19.170
16307SOL    HW160549   1.176   4.463  19.143
16307SOL    HW260550   1.126   4.382  19.262
16308SOL     OW60551   4.778   0.668   7.991
16308SOL    HW160552   4.727   0.595   7.956
16308SOL    HW260553   0.004   0.729   7.918
16309SOL     OW60554   1.971   3.535  27.090
16309SOL    HW160555   2.056   3.511  27.054
16309SOL    HW260556   1.991   3.581  27.171
16310SOL     OW60557   0.073   0.243  19.525
16310SOL    HW160558   0.085   0.201  19.440
16310SOL    HW260559   0.031   0.326  19.505
16311SOL     OW60560   1.651   3.315  23.433
16311SOL    HW160561   1.693   3.234  23.461
16311SOL    HW260562   1.577   3.286  23.379
16312SOL     OW60563   2.288   1.182  28.042
16312SOL    HW160564   2.377   1.175  28.077
16312SOL    HW260565   2.280   1.273  28.014
16313SOL     OW60566   3.240   1.570   1.542
16313SOL    HW160567   3.286   1.521   1.474
16313SOL    HW260568   3.272   1.660   1.532
16314SOL     OW60569   3.898   2.827  22.948
16314SOL    HW160570   3.887   2.736  22.976
16314SOL    HW260571   3.877   2.826  22.855
16315SOL     OW60572   3.572   4.141   7.100
16315SOL    HW160573   3.636   4.195   7.147
16315SOL    HW260574   3.591   4.052   7.129
16316SOL     OW60575   1.038   0.988  27.568
16316SOL    HW160576   1.025   1.017  27.658
16316SOL    HW260577   0.952   0.998  27.527
16317SOL     OW60578   3.807   3.954  20.347
16317SOL    HW160579   3.880   4.016  20.344
16317SOL    HW260580   3.753   3.983  20.420
16318SOL     OW60581   0.702   3.874  16.785
16318SOL    HW160582   0.763   3.801  16.792
16318SOL    HW260583   0.646   3.851  16.711
16319SOL     OW60584   0.893   2.879  26.624
16319SOL    HW160585   0.969   2.892  26.567
16319SOL    HW260586   0.928   2.888  26.713
16320SOL     OW60587   3.962   3.834   0.405
16320SOL    HW160588   4.053   3.859   0.419
16320SOL    HW260589   3.940   3.781   0.482
16321SOL     OW60590   2.225   0.055  25.321
16321SOL    HW160591   2.258   4.750  25.349
16321SOL    HW260592   2.143   0.036  25.275
16322SOL     OW60593   0.985   4.456  20.899
16322SOL    HW160594   1.074   4.437  20.870
16322SOL    HW260595   0.996   4.515  20.974
16323SOL     OW60596   2.846   2.401  23.370
16323SOL    HW160597   2.872   2.483  23.329
16323SOL    HW260598   2.754   2.415  23.394
16324SOL     OW60599   2.621   3.886  24.829
16324SOL    HW160600   2.623   3.972  24.871
16324SOL    HW260601   2.689   3.891  24.761
16325SOL     OW60602   1.765   0.162  24.373
16325SOL    HW160603   1.817   0.221  24.427
16325SOL    HW260604   1.718   0.220  24.313
16326SOL     OW60605   3.855   2.324   6.541
16326SOL    HW160606   3.771   2.278   6.550
16326SOL    HW260607   3.833   2.416   6.555
16327SOL     OW60608   0.055   1.392   7.953
16327SOL    HW160609   0.051   1.456   7.882
16327SOL    HW260610   0.098   1.316   7.914
16328SOL     OW60611   3.013   1.618  25.664
16328SOL    HW160612   3.013   1.686  25.732
16328SOL    HW260613   2.928   1.626  25.621
16329SOL     OW60614   3.974   4.370  27.739
16329SOL    HW160615   4.061   4.330  27.741
16329SOL    HW260616   3.990   4.464  27.738
16330SOL     OW60617   2.164   2.664  21.591
16330SOL    HW160618   2.166   2.610  21.512
16330SOL    HW260619   2.071   2.679  21.608
16331SOL     OW60620   0.306   1.647   1.282
16331SOL    HW160621   0.399   1.639   1.262
16331SOL    HW260622   0.291   1.741   1.287
16332SOL     OW60623   3.786   1.175  28.294
16332SOL    HW160624   3.698   1.181  28.257
16332SOL    HW260625   3.819   1.090  28.264
16333SOL     OW60626   1.220   0.170   7.985
16333SOL    HW160627   1.178   0.172   7.899
16333SOL    HW260628   1.276   0.092   7.982
16334SOL     OW60629   2.712   0.168  21.095
16334SOL    HW160630   2.756   0.243  21.135
16334SOL    HW260631   2.734   0.094  21.152
16335SOL     OW60632   3.180   2.543   1.691
16335SOL    HW160633   3.110   2.596   1.654
16335SOL    HW260634   3.236   2.606   1.737
16336SOL     OW60635   4.748   0.277  24.635
16336SOL    HW160636   4.732   0.362  24.593
16336SOL    HW260637   4.663   0.253  24.673
16337SOL     OW60638   2.489   2.097  20.965
16337SOL    HW160639   2.565   2.121  21.018
16337SOL    HW260640   2.472   2.174  20.911
16338SOL     OW60641   0.478   3.550  20.691
16338SOL    HW160642   0.442   3.605  20.761
16338SOL    HW260643   0.415   3.478  20.682
16339SOL     OW60644   3.986   0.970   8.333
16339SOL    HW160645   4.007   0.925   8.415
16339SOL    HW260646   4.071   0.992   8.296
16340SOL     OW60647   4.496   0.549   6.656
16340SOL    HW160648   4.470   0.589   6.573
16340SOL    HW260649   4.426   0.487   6.675
16341SOL     OW60650   1.713   0.195  25.413
16341SOL    HW160651   1.659   0.168  25.339
16341SOL    HW260652   1.799   0.157  25.396
16342SOL     OW60653   0.746   1.306   7.351
16342SOL    HW160654   0.655   1.285   7.371
16342SOL    HW260655   0.753   1.400   7.367
16343SOL     OW60656   3.073   3.940  18.855
16343SOL    HW160657   3.085   4.012  18.793
16343SOL    HW260658   3.039   3.868  18.802
16344SOL     OW60659   4.221   2.614  19.832
16344SOL    HW160660   4.284   2.632  19.901
16344SOL    HW260661   4.172   2.695  19.822
16345SOL     OW60662   3.649   1.061  23.264
16345SOL    HW160663   3.594   1.003  23.317
16345SOL    HW260664   3.619   1.149  23.285
16346SOL     OW60665   4.107   0.159  20.422
16346SOL    HW160666   4.082   0.098  20.352
16346SOL    HW260667   4.202   0.149  20.429
16347SOL     OW60668   1.219   1.133   3.114
16347SOL    HW160669   1.204   1.187   3.036
16347SOL    HW260670   1.264   1.192   3.175
16348SOL     OW60671   1.049   3.471   8.874
16348SOL    HW160672   1.101   3.476   8.794
16348SOL    HW260673   1.105   3.425   8.936
16349SOL     OW60674   2.720   2.277   8.500
16349SOL    HW160675   2.638   2.228   8.500
16349SOL    HW260676   2.776   2.229   8.439
16350SOL     OW60677   3.150   1.464  21.184
16350SOL    HW160678   3.055   1.461  21.175
16350SOL    HW260679   3.182   1.484  21.096
16351SOL     OW60680   2.271   1.308   4.716
16351SOL    HW160681   2.332   1.277   4.649
16351SOL    HW260682   2.195   1.250   4.709
16352SOL     OW60683   4.515   0.747  19.780
16352SOL    HW160684   4.490   0.797  19.858
16352SOL    HW260685   4.564   0.810  19.727
16353SOL     OW60686   0.955   3.128   1.636
16353SOL    HW160687   0.950   3.153   1.728
16353SOL    HW260688   1.008   3.048   1.636
16354SOL     OW60689   1.868   2.139  22.552
16354SOL    HW160690   1.950   2.089  22.549
16354SOL    HW260691   1.808   2.084  22.602
16355SOL     OW60692   1.299   3.923  24.393
16355SOL    HW160693   1.359   3.950  24.323
16355SOL    HW260694   1.297   3.827  24.388
16356SOL     OW60695   0.511   1.291   1.523
16356SOL    HW160696   0.453   1.366   1.511
16356SOL    HW260697   0.599   1.326   1.506
16357SOL     OW60698   0.787   4.663  24.133
16357SOL    HW160699   0.716   4.602  24.114
16357SOL    HW260700   0.783   4.728  24.063
16358SOL     OW60701   2.877   1.235   3.218
16358SOL    HW160702   2.799   1.275   3.178
16358SOL    HW260703   2.866   1.141   3.204
16359SOL     OW60704   3.127   0.257  18.149
16359SOL    HW160705   3.099   0.167  18.130
16359SOL    HW260706   3.049   0.298  18.187
16360SOL     OW60707   1.183   2.925   2.310
16360SOL    HW160708   1.208   2.856   2.371
16360SOL    HW260709   1.093   2.904   2.284
16361SOL     OW60710   4.475   2.878  23.047
16361SOL    HW160711   4.524   2.816  22.992
16361SOL    HW260712   4.388   2.838  23.056
16362SOL     OW60713   1.118   4.493  23.584
16362SOL    HW160714   1.111   4.496  23.489
16362SOL    HW260715   1.193   4.436  23.601
16363SOL     OW60716   1.160   0.880   0.390
16363SOL    HW160717   1.124   0.825   0.321
16363SOL    HW260718   1.248   0.846   0.405
16364SOL     OW60719   0.237   3.838   8.107
16364SOL    HW160720   0.301   3.819   8.175
16364SOL    HW260721   0.260   3.779   8.035
16365SOL     OW60722   2.334   0.358   0.368
16365SOL    HW160723   2.419   0.349   0.325
16365SOL    HW260724   2.273   0.312   0.311
16366SOL     OW60725   1.983   3.904  22.150
16366SOL    HW160726   2.062   3.868  22.110
16366SOL    HW260727   1.934   3.827  22.180
16367SOL     OW60728   4.616   2.514   1.542
16367SOL    HW160729   4.658   2.470   1.468
16367SOL    HW260730   4.657   2.601   1.545
16368SOL     OW60731   2.606   2.976  21.456
16368SOL    HW160732   2.512   2.956  21.459
16368SOL    HW260733   2.620   3.037  21.529
16369SOL     OW60734   2.926   4.189   2.602
16369SOL    HW160735   2.945   4.108   2.650
16369SOL    HW260736   2.983   4.185   2.525
16370SOL     OW60737   3.262   2.733  10.287
16370SOL    HW160738   3.313   2.814  10.282
16370SOL    HW260739   3.293   2.690  10.366
16371SOL     OW60740   3.917   3.274   6.114
16371SOL    HW160741   3.989   3.337   6.115
16371SOL    HW260742   3.945   3.204   6.173
16372SOL     OW60743   3.963   1.292   1.413
16372SOL    HW160744   3.946   1.252   1.498
16372SOL    HW260745   4.040   1.246   1.380
16373SOL     OW60746   2.183   0.848  20.542
16373SOL    HW160747   2.094   0.816  20.526
16373SOL    HW260748   2.213   0.879  20.456
16374SOL     OW60749   1.623   1.596  21.522
16374SOL    HW160750   1.637   1.687  21.548
16374SOL    HW260751   1.604   1.600  21.428
16375SOL     OW60752   3.199   1.399   1.149
16375SOL    HW160753   3.113   1.377   1.113
16375SOL    HW260754   3.231   1.470   1.093
16376SOL     OW60755   3.378   1.338  10.458
16376SOL    HW160756   3.316   1.335  10.531
16376SOL    HW260757   3.457   1.378  10.495
16377SOL     OW60758   1.183   0.159  24.317
16377SOL    HW160759   1.096   0.149  24.278
16377SOL    HW260760   1.167   0.200  24.402
16378SOL     OW60761   2.218   3.815   4.877
16378SOL    HW160762   2.273   3.772   4.812
16378SOL    HW260763   2.153   3.749   4.901
16379SOL     OW60764   1.263   0.062  27.940
16379SOL    HW160765   1.318   4.771  27.971
16379SOL    HW260766   1.315   0.104  27.871
16380SOL     OW60767   3.177   4.532   9.671
16380SOL    HW160768   3.235   4.467   9.632
16380SOL    HW260769   3.111   4.550   9.604
16381SOL     OW60770   4.354   4.026  27.254
16381SOL    HW160771   4.345   4.000  27.346
16381SOL    HW260772   4.405   4.107  27.257
16382SOL     OW60773   0.324   1.318   6.838
16382SOL    HW160774   0.364   1.252   6.895
16382SOL    HW260775   0.374   1.313   6.757
16383SOL     OW60776   1.461   1.950  17.139
16383SOL    HW160777   1.512   1.885  17.090
16383SOL    HW260778   1.460   2.027  17.082
16384SOL     OW60779   3.678   2.920  22.537
16384SOL    HW160780   3.770   2.920  22.563
16384SOL    HW260781   3.631   2.893  22.616
16385SOL     OW60782   3.527   4.034  24.963
16385SOL    HW160783   3.438   4.001  24.976
16385SOL    HW260784   3.534   4.050  24.869
16386SOL     OW60785   3.789   2.031   6.110
16386SOL    HW160786   3.787   1.950   6.060
16386SOL    HW260787   3.825   2.096   6.049
16387SOL     OW60788   3.889   1.930  20.916
16387SOL    HW160789   3.841   1.989  20.974
16387SOL    HW260790   3.830   1.856  20.902
16388SOL     OW60791   2.372   1.282   2.774
16388SOL    HW160792   2.391   1.334   2.696
16388SOL    HW260793   2.432   1.208   2.769
16389SOL     OW60794   4.453   0.770   8.314
16389SOL    HW160795   4.437   0.710   8.386
16389SOL    HW260796   4.546   0.761   8.295
16390SOL     OW60797   3.158   1.717   6.800
16390SOL    HW160798   3.075   1.724   6.753
16390SOL    HW260799   3.224   1.719   6.731
16391SOL     OW60800   2.873   0.345   5.092
16391SOL    HW160801   2.919   0.295   5.159
16391SOL    HW260802   2.825   0.279   5.042
16392SOL     OW60803   4.319   1.437  26.823
16392SOL    HW160804   4.306   1.504  26.890
16392SOL    HW260805   4.407   1.454  26.788
16393SOL     OW60806   2.922   4.363   8.523
16393SOL    HW160807   2.966   4.385   8.441
16393SOL    HW260808   2.931   4.268   8.530
16394SOL     OW60809   4.631   4.053  21.767
16394SOL    HW160810   4.556   4.102  21.733
16394SOL    HW260811   4.701   4.071  21.704
16395SOL     OW60812   2.357   4.153  22.769
16395SOL    HW160813   2.404   4.099  22.705
16395SOL    HW260814   2.313   4.090  22.826
16396SOL     OW60815   1.262   3.516  20.171
16396SOL    HW160816   1.217   3.598  20.150
16396SOL    HW260817   1.355   3.540  20.172
16397SOL     OW60818   2.226   2.110   4.101
16397SOL    HW160819   2.176   2.142   4.176
16397SOL    HW260820   2.293   2.177   4.086
16398SOL     OW60821   2.749   0.637  18.878
16398SOL    HW160822   2.716   0.727  18.877
16398SOL    HW260823   2.789   0.626  18.792
16399SOL     OW60824   1.451   4.776   3.125
16399SOL    HW160825   1.521   4.711   3.119
16399SOL    HW260826   1.429   4.779   3.218
16400SOL     OW60827   0.413   3.466  20.098
16400SOL    HW160828   0.467   3.529  20.051
16400SOL    HW260829   0.364   3.420  20.030
16401SOL     OW60830   2.749   0.426  27.585
16401SOL    HW160831   2.714   0.374  27.513
16401SOL    HW260832   2.783   0.362  27.647
16402SOL     OW60833   2.738   1.599   1.262
16402SOL    HW160834   2.744   1.691   1.235
16402SOL    HW260835   2.808   1.555   1.214
16403SOL     OW60836   3.842   4.640   5.642
16403SOL    HW160837   3.937   4.641   5.656
16403SOL    HW260838   3.805   4.658   5.728
16404SOL     OW60839   4.555   2.874   5.029
16404SOL    HW160840   4.604   2.830   4.959
16404SOL    HW260841   4.509   2.803   5.074
16405SOL     OW60842   1.692   0.239   1.713
16405SOL    HW160843   1.678   0.259   1.620
16405SOL    HW260844   1.686   0.324   1.757
16406SOL     OW60845   0.241   4.755  28.188
16406SOL    HW160846   0.183   4.777  28.116
16406SOL    HW260847   0.273   4.667  28.167
16407SOL     OW60848   1.233   4.631   1.091
16407SOL    HW160849   1.223   4.698   1.158
16407SOL    HW260850   1.315   4.653   1.047
16408SOL     OW60851   1.170   0.243  23.222
16408SOL    HW160852   1.149   0.284  23.138
16408SOL    HW260853   1.088   0.203  23.250
16409SOL     OW60854   3.730   1.859   1.065
16409SOL    HW160855   3.644   1.896   1.086
16409SOL    HW260856   3.733   1.856   0.969
16410SOL     OW60857   3.127   2.785   1.205
16410SOL    HW160858   3.104   2.865   1.252
16410SOL    HW260859   3.185   2.814   1.134
16411SOL     OW60860   1.975   4.505  26.630
16411SOL    HW160861   1.922   4.569  26.677
16411SOL    HW260862   2.053   4.553  26.602
16412SOL     OW60863   4.777   1.729  10.074
16412SOL    HW160864   4.751   1.697   9.988
16412SOL    HW260865   4.708   1.791  10.098
16413SOL     OW60866   1.590   2.670  10.309
16413SOL    HW160867   1.515   2.726  10.330
16413SOL    HW260868   1.570   2.587  10.352
16414SOL     OW60869   2.714   0.433  23.138
16414SOL    HW160870   2.684   0.473  23.220
16414SOL    HW260871   2.659   0.474  23.071
16415SOL     OW60872   2.959   1.647  26.747
16415SOL    HW160873   2.917   1.573  26.703
16415SOL    HW260874   3.010   1.690  26.679
16416SOL     OW60875   2.871   0.031   2.783
16416SOL    HW160876   2.914   0.024   2.698
16416SOL    HW260877   2.784   4.776   2.768
16417SOL     OW60878   3.504   0.162  27.956
16417SOL    HW160879   3.551   0.165  28.039
16417SOL    HW260880   3.520   0.074  27.923
16418SOL     OW60881   1.699   4.659   0.178
16418SOL    HW160882   1.634   4.729   0.172
16418SOL    HW260883   1.738   4.670   0.265
16419SOL     OW60884   2.474   3.886  21.281
16419SOL    HW160885   2.543   3.831  21.245
16419SOL    HW260886   2.487   3.882  21.376
16420SOL     OW60887   4.709   1.002   8.457
16420SOL    HW160888   4.673   0.917   8.481
16420SOL    HW260889   4.769   0.983   8.385
16421SOL     OW60890   3.813   3.727   8.772
16421SOL    HW160891   3.748   3.737   8.841
16421SOL    HW260892   3.848   3.815   8.759
16422SOL     OW60893   3.483   3.022   7.285
16422SOL    HW160894   3.493   3.094   7.347
16422SOL    HW260895   3.468   2.945   7.340
16423SOL     OW60896   0.471   2.394   8.508
16423SOL    HW160897   0.421   2.466   8.547
16423SOL    HW260898   0.561   2.408   8.538
16424SOL     OW60899   4.210   1.844  16.644
16424SOL    HW160900   4.305   1.835  16.649
16424SOL    HW260901   4.182   1.768  16.593
16425SOL     OW60902   2.891   2.560  18.664
16425SOL    HW160903   2.949   2.566  18.740
16425SOL    HW260904   2.901   2.470  18.632
16426SOL     OW60905   1.114   1.221   5.435
16426SOL    HW160906   1.045   1.277   5.470
16426SOL    HW260907   1.076   1.133   5.434
16427SOL     OW60908   1.464   1.109  28.455
16427SOL    HW160909   1.474   1.174  28.385
16427SOL    HW260910   1.541   1.053  28.446
16428SOL     OW60911   3.617   4.497  25.391
16428SOL    HW160912   3.587   4.497  25.482
16428SOL    HW260913   3.629   4.590  25.370
16429SOL     OW60914   2.328   3.930  16.921
16429SOL    HW160915   2.419   3.931  16.893
16429SOL    HW260916   2.279   3.967  16.847
16430SOL     OW60917   4.057   2.645   7.504
16430SOL    HW160918   4.114   2.707   7.548
16430SOL    HW260919   4.063   2.668   7.411
16431SOL     OW60920   1.045   1.467  20.901
16431SOL    HW160921   1.000   1.425  20.827
16431SOL    HW260922   1.090   1.542  20.862
16432SOL     OW60923   2.827   1.134   4.337
16432SOL    HW160924   2.812   1.224   4.309
16432SOL    HW260925   2.921   1.128   4.352
16433SOL     OW60926   1.069   4.544   5.546
16433SOL    HW160927   1.036   4.463   5.584
16433SOL    HW260928   1.050   4.537   5.453
16434SOL     OW60929   4.065   0.030  25.505
16434SOL    HW160930   4.053   0.091  25.432
16434SOL    HW260931   4.003   0.060  25.572
16435SOL     OW60932   2.642   2.129   4.236
16435SOL    HW160933   2.595   2.055   4.197
16435SOL    HW260934   2.696   2.163   4.165
16436SOL     OW60935   2.398   0.807  28.150
16436SOL    HW160936   2.449   0.843  28.077
16436SOL    HW260937   2.360   0.726  28.115
16437SOL     OW60938   4.520   1.112   7.368
16437SOL    HW160939   4.505   1.205   7.354
16437SOL    HW260940   4.572   1.085   7.292
16438SOL     OW60941   4.357   2.078  16.966
16438SOL    HW160942   4.307   2.134  16.906
16438SOL    HW260943   4.399   2.013  16.909
16439SOL     OW60944   2.504   1.492   0.799
16439SOL    HW160945   2.495   1.438   0.721
16439SOL    HW260946   2.501   1.582   0.767
16440SOL     OW60947   1.664   2.602   4.587
16440SOL    HW160948   1.721   2.540   4.541
16440SOL    HW260949   1.654   2.564   4.675
16441SOL     OW60950   0.534   1.177  22.564
16441SOL    HW160951   0.495   1.211  22.483
16441SOL    HW260952   0.617   1.138  22.536
16442SOL     OW60953   4.275   2.102   7.227
16442SOL    HW160954   4.288   2.051   7.147
16442SOL    HW260955   4.321   2.053   7.295
16443SOL     OW60956   0.303   4.441   3.711
16443SOL    HW160957   0.245   4.425   3.785
16443SOL    HW260958   0.388   4.406   3.739
16444SOL     OW60959   0.293   3.474  26.126
16444SOL    HW160960   0.357   3.425  26.075
16444SOL    HW260961   0.222   3.411  26.141
16445SOL     OW60962   0.602   4.145  21.443
16445SOL    HW160963   0.636   4.122  21.356
16445SOL    HW260964   0.668   4.112  21.504
16446SOL     OW60965   1.884   3.741   3.406
16446SOL    HW160966   1.870   3.821   3.355
16446SOL    HW260967   1.857   3.764   3.495
16447SOL     OW60968   2.827   1.578  21.909
16447SOL    HW160969   2.734   1.591  21.891
16447SOL    HW260970   2.836   1.484  21.924
16448SOL     OW60971   1.957   3.535   1.660
16448SOL    HW160972   1.942   3.441   1.648
16448SOL    HW260973   1.973   3.569   1.572
16449SOL     OW60974   0.152   4.643   7.385
16449SOL    HW160975   0.070   4.613   7.424
16449SOL    HW260976   0.125   4.701   7.314
16450SOL     OW60977   1.026   0.345   0.770
16450SOL    HW160978   0.973   0.373   0.844
16450SOL    HW260979   1.037   0.424   0.717
16451SOL     OW60980   4.337   3.093   1.384
16451SOL    HW160981   4.258   3.145   1.368
16451SOL    HW260982   4.396   3.117   1.313
16452SOL     OW60983   2.786   4.419   0.464
16452SOL    HW160984   2.865   4.383   0.423
16452SOL    HW260985   2.798   4.402   0.558
16453SOL     OW60986   3.827   4.125  26.000
16453SOL    HW160987   3.822   4.073  25.920
16453SOL    HW260988   3.915   4.162  26.000
16454SOL     OW60989   3.539   3.230  23.349
16454SOL    HW160990   3.562   3.169  23.279
16454SOL    HW260991   3.612   3.292  23.352
16455SOL     OW60992   1.995   1.797  24.319
16455SOL    HW160993   1.954   1.764  24.399
16455SOL    HW260994   1.979   1.729  24.254
16456SOL     OW60995   4.419   0.469  21.558
16456SOL    HW160996   4.496   0.414  21.543
16456SOL    HW260997   4.346   0.419  21.521
16457SOL     OW60998   0.866   0.488   6.425
16457SOL    HW160999   0.848   0.468   6.333
16457SOL    HW261000   0.832   0.412   6.473
16458SOL     OW61001   4.522   2.783  20.596
16458SOL    HW161002   4.426   2.785  20.600
16458SOL    HW261003   4.549   2.863  20.641
16459SOL     OW61004   0.147   3.967  22.724
16459SOL    HW161005   0.141   4.005  22.636
16459SOL    HW261006   0.161   4.042  22.782
16460SOL     OW61007   3.300   3.691   2.157
16460SOL    HW161008   3.223   3.720   2.108
16460SOL    HW261009   3.301   3.596   2.146
16461SOL     OW61010   1.120   3.427  24.681
16461SOL    HW161011   1.025   3.440  24.679
16461SOL    HW261012   1.135   3.370  24.756
16462SOL     OW61013   1.766   1.818  19.681
16462SOL    HW161014   1.794   1.910  19.681
16462SOL    HW261015   1.846   1.769  19.660
16463SOL     OW61016   0.485   2.431  21.760
16463SOL    HW161017   0.499   2.479  21.678
16463SOL    HW261018   0.392   2.441  21.778
16464SOL     OW61019   0.940   2.328   4.666
16464SOL    HW161020   1.028   2.344   4.700
16464SOL    HW261021   0.925   2.400   4.604
16465SOL     OW61022   0.447   1.964  20.137
16465SOL    HW161023   0.457   1.873  20.110
16465SOL    HW261024   0.423   2.010  20.056
16466SOL     OW61025   3.425   4.666  25.654
16466SOL    HW161026   3.508   4.623  25.633
16466SOL    HW261027   3.365   4.638  25.584
16467SOL     OW61028   1.545   1.295   1.947
16467SOL    HW161029   1.635   1.265   1.934
16467SOL    HW261030   1.492   1.216   1.940
16468SOL     OW61031   3.495   2.077  28.329
16468SOL    HW161032   3.493   1.992  28.284
16468SOL    HW261033   3.517   2.056  28.420
16469SOL     OW61034   2.834   2.829   2.491
16469SOL    HW161035   2.780   2.757   2.458
16469SOL    HW261036   2.924   2.796   2.488
16470SOL     OW61037   0.982   1.599   5.678
16470SOL    HW161038   0.899   1.607   5.631
16470SOL    HW261039   1.039   1.550   5.619
16471SOL     OW61040   3.948   0.369   8.457
16471SOL    HW161041   3.981   0.394   8.543
16471SOL    HW261042   3.896   0.290   8.474
16472SOL     OW61043   1.044   1.105   0.141
16472SOL    HW161044   1.079   1.040   0.080
16472SOL    HW261045   0.958   1.071   0.165
16473SOL     OW61046   1.306   3.913  19.039
16473SOL    HW161047   1.305   3.972  18.964
16473SOL    HW261048   1.382   3.857  19.024
16474SOL     OW61049   2.176   1.669   7.814
16474SOL    HW161050   2.258   1.695   7.855
16474SOL    HW261051   2.108   1.714   7.864
16475SOL     OW61052   3.612   2.216   7.686
16475SOL    HW161053   3.535   2.178   7.729
16475SOL    HW261054   3.615   2.174   7.600
16476SOL     OW61055   1.143   3.769  27.335
16476SOL    HW161056   1.078   3.830  27.370
16476SOL    HW261057   1.171   3.717  27.411
16477SOL     OW61058   3.498   3.670  15.432
16477SOL    HW161059   3.408   3.638  15.440
16477SOL    HW261060   3.509   3.686  15.338
16478SOL     OW61061   1.162   0.392   2.685
16478SOL    HW161062   1.186   0.323   2.747
16478SOL    HW261063   1.109   0.453   2.736
16479SOL     OW61064   0.664   2.940   1.091
16479SOL    HW161065   0.572   2.914   1.089
16479SOL    HW261066   0.666   3.026   1.049
16480SOL     OW61067   2.119   1.597   1.478
16480SOL    HW161068   2.125   1.504   1.458
16480SOL    HW261069   2.184   1.639   1.422
16481SOL     OW61070   4.589   1.991   7.198
16481SOL    HW161071   4.523   1.974   7.131
16481SOL    HW261072   4.541   1.985   7.281
16482SOL     OW61073   2.208   4.320   3.704
16482SOL    HW161074   2.120   4.285   3.690
16482SOL    HW261075   2.195   4.415   3.709
16483SOL     OW61076   2.079   3.377   9.737
16483SOL    HW161077   2.055   3.294   9.696
16483SOL    HW261078   2.055   3.443   9.672
16484SOL     OW61079   4.202   3.102  18.943
16484SOL    HW161080   4.199   3.196  18.960
16484SOL    HW261081   4.218   3.096  18.849
16485SOL     OW61082   0.468   0.538   6.718
16485SOL    HW161083   0.412   0.461   6.728
16485SOL    HW261084   0.489   0.540   6.625
16486SOL     OW61085   2.547   2.904  26.512
16486SOL    HW161086   2.616   2.866  26.458
16486SOL    HW261087   2.590   2.927  26.594
16487SOL     OW61088   1.963   3.445   7.555
16487SOL    HW161089   2.005   3.391   7.488
16487SOL    HW261090   1.916   3.512   7.506
16488SOL     OW61091   0.767   3.520  21.681
16488SOL    HW161092   0.730   3.521  21.593
16488SOL    HW261093   0.861   3.531  21.668
16489SOL     OW61094   0.354   4.230   2.783
16489SOL    HW161095   0.371   4.220   2.689
16489SOL    HW261096   0.258   4.233   2.789
16490SOL     OW61097   1.805   4.757  21.974
16490SOL    HW161098   1.808   4.765  22.069
16490SOL    HW261099   1.801   0.066  21.942
16491SOL     OW61100   1.149   2.270  28.416
16491SOL    HW161101   1.149   2.178  28.444
16491SOL    HW261102   1.117   2.267  28.326
16492SOL     OW61103   0.467   0.642  27.400
16492SOL    HW161104   0.398   0.591  27.358
16492SOL    HW261105   0.544   0.585  27.399
16493SOL     OW61106   4.351   0.100   3.090
16493SOL    HW161107   4.340   0.068   3.180
16493SOL    HW261108   4.428   0.156   3.093
16494SOL     OW61109   2.709   0.385  24.059
16494SOL    HW161110   2.732   0.381  23.966
16494SOL    HW261111   2.616   0.362  24.062
16495SOL     OW61112   3.293   3.138   6.532
16495SOL    HW161113   3.235   3.068   6.502
16495SOL    HW261114   3.242   3.218   6.521
16496SOL     OW61115   0.121   1.169   0.789
16496SOL    HW161116   0.062   1.243   0.772
16496SOL    HW261117   0.160   1.189   0.874
16497SOL     OW61118   2.853   0.516   1.567
16497SOL    HW161119   2.931   0.473   1.531
16497SOL    HW261120   2.781   0.458   1.542
16498SOL     OW61121   2.040   0.582  24.000
16498SOL    HW161122   2.113   0.557  24.057
16498SOL    HW261123   1.978   0.510  24.007
16499SOL     OW61124   0.027   2.967  24.965
16499SOL    HW161125   0.046   2.984  25.057
16499SOL    HW261126   4.739   3.029  24.942
16500SOL     OW61127   0.501   1.511   7.341
16500SOL    HW161128   0.422   1.468   7.374
16500SOL    HW261129   0.520   1.466   7.259
16501SOL     OW61130   2.390   1.425   6.026
16501SOL    HW161131   2.328   1.459   5.962
16501SOL    HW261132   2.387   1.488   6.098
16502SOL     OW61133   0.108   2.913  21.553
16502SOL    HW161134   0.191   2.876  21.582
16502SOL    HW261135   0.062   2.934  21.634
16503SOL     OW61136   0.198   0.123   9.542
16503SOL    HW161137   0.208   0.158   9.631
16503SOL    HW261138   0.255   0.046   9.540
16504SOL     OW61139   2.290   3.789   0.922
16504SOL    HW161140   2.234   3.826   0.854
16504SOL    HW261141   2.256   3.826   1.004
16505SOL     OW61142   0.891   2.425  15.546
16505SOL    HW161143   0.927   2.434  15.634
16505SOL    HW261144   0.941   2.488  15.493
16506SOL     OW61145   1.824   4.367   8.261
16506SOL    HW161146   1.761   4.318   8.209
16506SOL    HW261147   1.780   4.449   8.282
16507SOL     OW61148   2.131   1.855  23.137
16507SOL    HW161149   2.214   1.900  23.151
16507SOL    HW261150   2.118   1.857  23.042
16508SOL     OW61151   4.212   4.668  23.289
16508SOL    HW161152   4.270   4.615  23.343
16508SOL    HW261153   4.216   4.755  23.328
16509SOL     OW61154   0.404   2.792  26.620
16509SOL    HW161155   0.362   2.706  26.616
16509SOL    HW261156   0.347   2.849  26.568
16510SOL     OW61157   4.377   1.431  24.000
16510SOL    HW161158   4.395   1.450  23.908
16510SOL    HW261159   4.451   1.470  24.048
16511SOL     OW61160   1.600   1.356  24.539
16511SOL    HW161161   1.587   1.384  24.630
16511SOL    HW261162   1.677   1.299  24.542
16512SOL     OW61163   2.620   4.079   4.483
16512SOL    HW161164   2.605   4.168   4.451
16512SOL    HW261165   2.598   4.082   4.576
16513SOL     OW61166   1.788   2.704  21.899
16513SOL    HW161167   1.875   2.683  21.866
16513SOL    HW261168   1.785   2.664  21.986
16514SOL     OW61169   4.693   4.731  24.008
16514SOL    HW161170   4.623   4.680  24.050
16514SOL    HW261171   4.735   4.777  24.080
16515SOL     OW61172   3.536   2.802   1.199
16515SOL    HW161173   3.603   2.866   1.174
16515SOL    HW261174   3.586   2.724   1.224
16516SOL     OW61175   3.160   0.673   8.395
16516SOL    HW161176   3.111   0.629   8.464
16516SOL    HW261177   3.236   0.710   8.439
16517SOL     OW61178   2.305   4.405   5.667
16517SOL    HW161179   2.284   4.392   5.574
16517SOL    HW261180   2.376   4.343   5.684
16518SOL     OW61181   1.574   4.302   5.041
16518SOL    HW161182   1.480   4.284   5.031
16518SOL    HW261183   1.608   4.300   4.952
16519SOL     OW61184   2.233   3.157   9.342
16519SOL    HW161185   2.148   3.147   9.385
16519SOL    HW261186   2.292   3.185   9.412
16520SOL     OW61187   0.157   0.367  27.640
16520SOL    HW161188   0.201   0.405  27.564
16520SOL    HW261189   0.228   0.341  27.699
16521SOL     OW61190   1.295   2.557   1.610
16521SOL    HW161191   1.230   2.627   1.619
16521SOL    HW261192   1.298   2.539   1.516
16522SOL     OW61193   2.979   2.621   8.521
16522SOL    HW161194   3.044   2.690   8.508
16522SOL    HW261195   2.989   2.564   8.445
16523SOL     OW61196   0.744   0.846   2.672
16523SOL    HW161197   0.663   0.866   2.718
16523SOL    HW261198   0.717   0.829   2.582
16524SOL     OW61199   4.304   1.833   0.437
16524SOL    HW161200   4.290   1.873   0.523
16524SOL    HW261201   4.398   1.844   0.420
16525SOL     OW61202   4.740   3.891   4.158
16525SOL    HW161203   4.733   3.977   4.116
16525SOL    HW261204   0.004   3.836   4.094
16526SOL     OW61205   0.457   0.409   7.250
16526SOL    HW161206   0.419   0.376   7.332
16526SOL    HW261207   0.383   0.411   7.189
16527SOL     OW61208   0.136   1.595  20.037
16527SOL    HW161209   0.107   1.569  19.949
16527SOL    HW261210   0.136   1.513  20.087
16528SOL     OW61211   0.509   3.961   0.415
16528SOL    HW161212   0.567   3.892   0.383
16528SOL    HW261213   0.562   4.011   0.477
16529SOL     OW61214   3.233   1.479   4.186
16529SOL    HW161215   3.209   1.544   4.252
16529SOL    HW261216   3.195   1.512   4.105
16530SOL     OW61217   2.906   2.524  27.452
16530SOL    HW161218   2.856   2.443  27.464
16530SOL    HW261219   2.960   2.508  27.375
16531SOL     OW61220   4.072   2.695  21.008
16531SOL    HW161221   4.164   2.694  20.981
16531SOL    HW261222   4.027   2.744  20.939
16532SOL     OW61223   1.710   3.527   6.089
16532SOL    HW161224   1.635   3.486   6.132
16532SOL    HW261225   1.712   3.488   6.002
16533SOL     OW61226   0.869   3.800   5.681
16533SOL    HW161227   0.871   3.705   5.695
16533SOL    HW261228   0.918   3.836   5.755
16534SOL     OW61229   4.520   0.343  28.401
16534SOL    HW161230   4.522   0.305  28.489
16534SOL    HW261231   4.590   0.297  28.354
16535SOL     OW61232   1.955   0.508   7.036
16535SOL    HW161233   1.890   0.552   6.981
16535SOL    HW261234   1.957   0.418   7.004
16536SOL     OW61235   2.332   3.002   6.344
16536SOL    HW161236   2.422   3.033   6.333
16536SOL    HW261237   2.296   3.057   6.414
16537SOL     OW61238   3.096   3.284   9.178
16537SOL    HW161239   3.033   3.356   9.181
16537SOL    HW261240   3.065   3.229   9.106
16538SOL     OW61241   3.599   2.792  17.988
16538SOL    HW161242   3.620   2.872  17.940
16538SOL    HW261243   3.604   2.817  18.080
16539SOL     OW61244   1.402   0.075  23.277
16539SOL    HW161245   1.333   0.139  23.261
16539SOL    HW261246   1.391   0.010  23.207
16540SOL     OW61247   1.150   4.552  21.624
16540SOL    HW161248   1.144   4.457  21.614
16540SOL    HW261249   1.243   4.569  21.637
16541SOL     OW61250   3.622   4.751   2.210
16541SOL    HW161251   3.631   0.050   2.262
16541SOL    HW261252   3.693   4.694   2.241
16542SOL     OW61253   1.942   1.373   2.331
16542SOL    HW161254   1.864   1.328   2.297
16542SOL    HW261255   1.943   1.457   2.284
16543SOL     OW61256   0.776   3.997   0.089
16543SOL    HW161257   0.744   4.014   0.000
16543SOL    HW261258   0.867   4.025   0.087
16544SOL     OW61259   4.070   0.757   0.033
16544SOL    HW161260   4.007   0.829   0.031
16544SOL    HW261261   4.031   0.690  28.498
16545SOL     OW61262   4.533   4.653  19.987
16545SOL    HW161263   4.468   4.619  19.925
16545SOL    HW261264   4.601   4.586  19.989
16546SOL     OW61265   4.276   4.660   7.057
16546SOL    HW161266   4.341   4.602   7.098
16546SOL    HW261267   4.192   4.615   7.070
16547SOL     OW61268   1.154   3.206   8.214
16547SOL    HW161269   1.241   3.193   8.176
16547SOL    HW261270   1.136   3.125   8.262
16548SOL     OW61271   1.500   3.624  26.976
16548SOL    HW161272   1.439   3.644  27.047
16548SOL    HW261273   1.556   3.702  26.970
16549SOL     OW61274   0.693   0.978   9.428
16549SOL    HW161275   0.687   0.883   9.417
16549SOL    HW261276   0.760   0.990   9.496
16550SOL     OW61277   0.161   2.478  28.441
16550SOL    HW161278   0.245   2.509  28.476
16550SOL    HW261279   0.098   2.544  28.470
16551SOL     OW61280   1.046   0.722  24.817
16551SOL    HW161281   1.088   0.643  24.851
16551SOL    HW261282   0.997   0.692  24.740
16552SOL     OW61283   1.789   3.087  22.188
16552SOL    HW161284   1.720   3.147  22.215
16552SOL    HW261285   1.760   3.001  22.219
16553SOL     OW61286   0.781   0.657   3.659
16553SOL    HW161287   0.834   0.578   3.650
16553SOL    HW261288   0.699   0.636   3.614
16554SOL     OW61289   0.264   2.338  21.977
16554SOL    HW161290   0.220   2.379  21.902
16554SOL    HW261291   0.286   2.411  22.035
16555SOL     OW61292   0.611   1.667   8.261
16555SOL    HW161293   0.638   1.747   8.306
16555SOL    HW261294   0.690   1.638   8.215
16556SOL     OW61295   1.646   3.772  20.324
16556SOL    HW161296   1.713   3.704  20.334
16556SOL    HW261297   1.587   3.759  20.398
16557SOL     OW61298   3.037   1.672   4.273
16557SOL    HW161299   2.968   1.618   4.235
16557SOL    HW261300   3.004   1.697   4.359
16558SOL     OW61301   4.710   3.020   1.588
16558SOL    HW161302   4.776   3.054   1.649
16558SOL    HW261303   4.628   3.060   1.618
16559SOL     OW61304   4.205   4.487  17.230
16559SOL    HW161305   4.170   4.549  17.166
16559SOL    HW261306   4.239   4.542  17.300
16560SOL     OW61307   3.286   4.001  26.333
16560SOL    HW161308   3.193   4.020  26.346
16560SOL    HW261309   3.315   4.064  26.267
16561SOL     OW61310   3.296   4.599   4.551
16561SOL    HW161311   3.345   4.574   4.473
16561SOL    HW261312   3.325   4.538   4.618
16562SOL     OW61313   3.331   4.057  25.565
16562SOL    HW161314   3.400   4.120  25.545
16562SOL    HW261315   3.367   3.972  25.538
16563SOL     OW61316   0.751   0.331   1.672
16563SOL    HW161317   0.739   0.410   1.725
16563SOL    HW261318   0.792   0.362   1.591
16564SOL     OW61319   0.121   4.444   7.902
16564SOL    HW161320   0.065   4.515   7.869
16564SOL    HW261321   0.077   4.364   7.873
16565SOL     OW61322   1.351   2.827  24.559
16565SOL    HW161323   1.355   2.783  24.644
16565SOL    HW261324   1.442   2.851  24.540
16566SOL     OW61325   0.908   0.524   9.089
16566SOL    HW161326   0.897   0.619   9.082
16566SOL    HW261327   0.893   0.491   9.000
16567SOL     OW61328   4.397   0.479   7.859
16567SOL    HW161329   4.492   0.476   7.851
16567SOL    HW261330   4.381   0.505   7.950
16568SOL     OW61331   1.246   3.375  25.970
16568SOL    HW161332   1.166   3.424  25.950
16568SOL    HW261333   1.308   3.401  25.902
16569SOL     OW61334   0.325   0.498   0.456
16569SOL    HW161335   0.261   0.510   0.526
16569SOL    HW261336   0.273   0.484   0.377
16570SOL     OW61337   0.467   4.526   0.732
16570SOL    HW161338   0.554   4.486   0.723
16570SOL    HW261339   0.455   4.536   0.826
16571SOL     OW61340   2.271   0.471   4.512
16571SOL    HW161341   2.312   0.555   4.533
16571SOL    HW261342   2.325   0.407   4.558
16572SOL     OW61343   0.505   3.500   6.085
16572SOL    HW161344   0.584   3.549   6.108
16572SOL    HW261345   0.482   3.453   6.165
16573SOL     OW61346   3.660   3.798  20.560
16573SOL    HW161347   3.582   3.827  20.513
16573SOL    HW261348   3.649   3.832  20.649
16574SOL     OW61349   4.746   1.807  19.718
16574SOL    HW161350   4.751   1.820  19.813
16574SOL    HW261351   4.668   1.856  19.692
16575SOL     OW61352   4.274   3.291  28.483
16575SOL    HW161353   4.212   3.355  28.518
16575SOL    HW261354   4.219   3.227  28.438
16576SOL     OW61355   1.446   3.465   0.270
16576SOL    HW161356   1.476   3.383   0.231
16576SOL    HW261357   1.425   3.521   0.195
16577SOL     OW61358   1.436   0.152  19.088
16577SOL    HW161359   1.442   0.058  19.071
16577SOL    HW261360   1.373   0.160  19.160
16578SOL     OW61361   2.883   1.199  24.518
16578SOL    HW161362   2.838   1.159  24.443
16578SOL    HW261363   2.951   1.136  24.541
16579SOL     OW61364   1.906   0.363  21.403
16579SOL    HW161365   1.897   0.368  21.308
16579SOL    HW261366   1.957   0.283  21.418
16580SOL     OW61367   2.452   2.349  20.885
16580SOL    HW161368   2.414   2.435  20.904
16580SOL    HW261369   2.544   2.368  20.867
16581SOL     OW61370   3.654   4.638  21.548
16581SOL    HW161371   3.619   4.705  21.489
16581SOL    HW261372   3.576   4.594  21.583
16582SOL     OW61373   1.828   3.637   7.384
16582SOL    HW161374   1.874   3.705   7.335
16582SOL    HW261375   1.752   3.617   7.330
16583SOL     OW61376   0.806   2.469   6.924
16583SOL    HW161377   0.803   2.386   6.877
16583SOL    HW261378   0.817   2.444   7.016
16584SOL     OW61379   3.875   4.403   5.038
16584SOL    HW161380   3.863   4.498   5.046
16584SOL    HW261381   3.946   4.383   5.099
16585SOL     OW61382   0.804   1.648  19.090
16585SOL    HW161383   0.805   1.609  19.003
16585SOL    HW261384   0.767   1.580  19.146
16586SOL     OW61385   1.938   3.054  24.657
16586SOL    HW161386   1.882   3.022  24.728
16586SOL    HW261387   1.924   3.149  24.657
16587SOL     OW61388   0.458   2.232  22.652
16587SOL    HW161389   0.425   2.164  22.593
16587SOL    HW261390   0.531   2.272  22.604
16588SOL     OW61391   0.899   4.008  25.981
16588SOL    HW161392   0.904   4.016  26.076
16588SOL    HW261393   0.820   4.056  25.957
16589SOL     OW61394   2.948   2.922  24.926
16589SOL    HW161395   2.909   2.961  25.004
16589SOL    HW261396   2.885   2.855  24.898
16590SOL     OW61397   4.341   0.279  22.468
16590SOL    HW161398   4.284   0.252  22.396
16590SOL    HW261399   4.337   0.206  22.530
16591SOL     OW61400   2.394   0.128   3.314
16591SOL    HW161401   2.314   0.117   3.366
16591SOL    HW261402   2.426   0.039   3.301
16592SOL     OW61403   2.972   0.760   7.614
16592SOL    HW161404   2.889   0.717   7.595
16592SOL    HW261405   2.966   0.782   7.707
16593SOL     OW61406   3.528   0.569  20.375
16593SOL    HW161407   3.561   0.653  20.407
16593SOL    HW261408   3.444   0.558  20.419
16594SOL     OW61409   1.071   1.840  21.451
16594SOL    HW161410   1.108   1.894  21.382
16594SOL    HW261411   1.110   1.754  21.437
16595SOL     OW61412   4.053   2.114  21.823
16595SOL    HW161413   3.965   2.077  21.830
16595SOL    HW261414   4.112   2.040  21.840
16596SOL     OW61415   1.716   1.389   1.622
16596SOL    HW161416   1.694   1.296   1.630
16596SOL    HW261417   1.757   1.396   1.536
16597SOL     OW61418   0.134   0.123  19.920
16597SOL    HW161419   0.203   0.112  19.855
16597SOL    HW261420   0.053   0.112  19.871
16598SOL     OW61421   3.727   3.158   8.136
16598SOL    HW161422   3.784   3.224   8.097
16598SOL    HW261423   3.745   3.162   8.230
16599SOL     OW61424   1.365   4.410  25.017
16599SOL    HW161425   1.354   4.479  25.082
16599SOL    HW261426   1.418   4.450  24.948
16600SOL     OW61427   0.957   1.193   8.785
16600SOL    HW161428   1.015   1.160   8.854
16600SOL    HW261429   1.012   1.253   8.735
16601SOL     OW61430   3.535   4.135  27.798
16601SOL    HW161431   3.511   4.046  27.824
16601SOL    HW261432   3.629   4.140  27.816
16602SOL     OW61433   1.601   4.703  25.959
16602SOL    HW161434   1.565   0.008  25.936
16602SOL    HW261435   1.694   4.719  25.973
16603SOL     OW61436   1.005   0.276  27.026
16603SOL    HW161437   1.038   0.248  27.111
16603SOL    HW261438   0.911   0.261  27.031
16604SOL     OW61439   1.555   2.400  28.286
16604SOL    HW161440   1.498   2.367  28.216
16604SOL    HW261441   1.520   2.361  28.366
16605SOL     OW61442   4.088   2.707   4.020
16605SOL    HW161443   4.067   2.674   4.107
16605SOL    HW261444   4.017   2.769   4.001
16606SOL     OW61445   3.259   1.044  23.590
16606SOL    HW161446   3.236   0.982  23.659
16606SOL    HW261447   3.246   1.130  23.630
16607SOL     OW61448   0.383   4.685   9.563
16607SOL    HW161449   0.373   4.665   9.656
16607SOL    HW261450   0.441   4.616   9.529
16608SOL     OW61451   2.461   2.349   7.150
16608SOL    HW161452   2.416   2.392   7.222
16608SOL    HW261453   2.399   2.353   7.077
16609SOL     OW61454   4.082   4.746   0.549
16609SOL    HW161455   4.025   4.778   0.479
16609SOL    HW261456   4.081   0.035   0.615
16610SOL     OW61457   1.382   2.824  10.404
16610SOL    HW161458   1.362   2.750  10.461
16610SOL    HW261459   1.298   2.846  10.364
16611SOL     OW61460   1.738   2.489  24.760
16611SOL    HW161461   1.784   2.422  24.811
16611SOL    HW261462   1.767   2.474  24.670
16612SOL     OW61463   0.836   1.518   8.141
16612SOL    HW161464   0.924   1.529   8.177
16612SOL    HW261465   0.833   1.577   8.066
16613SOL     OW61466   3.719   2.316  28.496
16613SOL    HW161467   3.645   2.375  28.512
16613SOL    HW261468   3.687   2.230   0.001
16614SOL     OW61469   3.254   0.141  23.291
16614SOL    HW161470   3.318   0.078  23.323
16614SOL    HW261471   3.251   0.209  23.358
16615SOL     OW61472   4.575   3.804   0.732
16615SOL    HW161473   4.522   3.864   0.680
16615SOL    HW261474   4.530   3.797   0.816
16616SOL     OW61475   1.594   4.057  22.612
16616SOL    HW161476   1.678   4.015  22.593
16616SOL    HW261477   1.530   3.986  22.608
16617SOL     OW61478   2.610   2.115   0.676
16617SOL    HW161479   2.535   2.075   0.719
16617SOL    HW261480   2.604   2.085   0.585
16618SOL     OW61481   0.215   0.996  25.059
16618SOL    HW161482   0.146   1.054  25.093
16618SOL    HW261483   0.241   1.036  24.976
16619SOL     OW61484   3.197   2.496  18.365
16619SOL    HW161485   3.191   2.576  18.417
16619SOL    HW261486   3.131   2.507  18.297
16620SOL     OW61487   1.898   2.772  27.940
16620SOL    HW161488   1.824   2.781  28.000
16620SOL    HW261489   1.863   2.721  27.867
16621SOL     OW61490   4.307   2.469  23.524
16621SOL    HW161491   4.364   2.395  23.503
16621SOL    HW261492   4.335   2.498  23.611
16622SOL     OW61493   0.025   2.528  22.227
16622SOL    HW161494   0.076   2.525  22.308
16622SOL    HW261495   4.750   2.450  22.231
16623SOL     OW61496   3.410   1.526  25.821
16623SOL    HW161497   3.485   1.562  25.773
16623SOL    HW261498   3.352   1.492  25.753
16624SOL     OW61499   2.192   0.214   3.153
16624SOL    HW161500   2.274   0.175   3.183
16624SOL    HW261501   2.215   0.258   3.071
16625SOL     OW61502   0.633   0.329   4.557
16625SOL    HW161503   0.691   0.255   4.539
16625SOL    HW261504   0.691   0.405   4.556
16626SOL     OW61505   4.046   0.964  17.488
16626SOL    HW161506   3.996   0.891  17.526
16626SOL    HW261507   4.136   0.932  17.484
16627SOL     OW61508   2.524   0.232  27.882
16627SOL    HW161509   2.444   0.245  27.831
16627SOL    HW261510   2.499   0.167  27.948
16628SOL     OW61511   3.277   0.918  21.757
16628SOL    HW161512   3.295   0.900  21.665
16628SOL    HW261513   3.182   0.922  21.763
16629SOL     OW61514   1.099   3.203  26.966
16629SOL    HW161515   1.092   3.167  27.054
16629SOL    HW261516   1.176   3.260  26.970
16630SOL     OW61517   2.785   0.793   1.596
16630SOL    HW161518   2.846   0.739   1.547
16630SOL    HW261519   2.773   0.871   1.542
16631SOL     OW61520   2.154   2.811  25.173
16631SOL    HW161521   2.233   2.849  25.210
16631SOL    HW261522   2.111   2.884  25.128
16632SOL     OW61523   2.030   2.149   9.127
16632SOL    HW161524   2.053   2.120   9.215
16632SOL    HW261525   2.058   2.078   9.070
16633SOL     OW61526   4.708   0.805  26.415
16633SOL    HW161527   4.648   0.786  26.343
16633SOL    HW261528   4.655   0.792  26.494
16634SOL     OW61529   2.004   4.634  18.249
16634SOL    HW161530   1.993   4.729  18.255
16634SOL    HW261531   2.019   4.617  18.156
16635SOL     OW61532   1.528   4.479  19.459
16635SOL    HW161533   1.527   4.522  19.374
16635SOL    HW261534   1.492   4.392  19.442
16636SOL     OW61535   3.469   2.533   1.849
16636SOL    HW161536   3.486   2.439   1.860
16636SOL    HW261537   3.554   2.570   1.824
16637SOL     OW61538   2.197   0.144   9.105
16637SOL    HW161539   2.263   0.155   9.037
16637SOL    HW261540   2.239   0.177   9.184
16638SOL     OW61541   3.345   4.548  21.357
16638SOL    HW161542   3.295   4.602  21.296
16638SOL    HW261543   3.425   4.526  21.310
16639SOL     OW61544   0.989   0.149   7.062
16639SOL    HW161545   1.073   0.111   7.037
16639SOL    HW261546   1.006   0.190   7.147
16640SOL     OW61547   0.007   1.351  23.817
16640SOL    HW161548   0.050   1.436  23.810
16640SOL    HW261549   4.697   1.371  23.838
16641SOL     OW61550   0.391   2.380  27.354
16641SOL    HW161551   0.477   2.380  27.311
16641SOL    HW261552   0.401   2.441  27.427
16642SOL     OW61553   0.046   2.088  28.482
16642SOL    HW161554   4.744   2.135  28.490
16642SOL    HW261555   0.021   1.998  28.460
16643SOL     OW61556   3.049   4.722   7.427
16643SOL    HW161557   3.011   4.679   7.504
16643SOL    HW261558   3.109   0.006   7.463
16644SOL     OW61559   1.463   4.039   7.530
16644SOL    HW161560   1.477   4.036   7.625
16644SOL    HW261561   1.368   4.042   7.520
16645SOL     OW61562   4.557   2.722   6.330
16645SOL    HW161563   4.484   2.781   6.350
16645SOL    HW261564   4.625   2.778   6.293
16646SOL     OW61565   2.607   2.168  21.298
16646SOL    HW161566   2.614   2.247  21.351
16646SOL    HW261567   2.687   2.119  21.317
16647SOL     OW61568   2.895   1.674   9.382
16647SOL    HW161569   2.830   1.625   9.333
16647SOL    HW261570   2.973   1.618   9.381
16648SOL     OW61571   3.675   1.278  18.085
16648SOL    HW161572   3.687   1.263  17.991
16648SOL    HW261573   3.717   1.362  18.101
16649SOL     OW61574   1.558   3.545  25.041
16649SOL    HW161575   1.513   3.617  25.084
16649SOL    HW261576   1.634   3.528  25.096
16650SOL     OW61577   2.909   0.189  20.592
16650SOL    HW161578   2.881   0.139  20.669
16650SOL    HW261579   3.005   0.188  20.597
16651SOL     OW61580   3.692   2.900   3.749
16651SOL    HW161581   3.718   2.909   3.657
16651SOL    HW261582   3.655   2.985   3.772
16652SOL     OW61583   4.532   1.738   0.740
16652SOL    HW161584   4.614   1.776   0.708
16652SOL    HW261585   4.533   1.648   0.706
16653SOL     OW61586   1.133   0.470  24.871
16653SOL    HW161587   1.070   0.398  24.872
16653SOL    HW261588   1.218   0.427  24.878
16654SOL     OW61589   1.455   2.184  23.078
16654SOL    HW161590   1.466   2.189  22.983
16654SOL    HW261591   1.369   2.222  23.094
16655SOL     OW61592   0.456   3.646  21.031
16655SOL    HW161593   0.451   3.709  21.103
16655SOL    HW261594   0.387   3.673  20.970
16656SOL     OW61595   1.544   0.768   9.342
16656SOL    HW161596   1.603   0.736   9.411
16656SOL    HW261597   1.508   0.849   9.377
16657SOL     OW61598   1.171   2.370   4.806
16657SOL    HW161599   1.139   2.407   4.888
16657SOL    HW261600   1.237   2.432   4.776
16658SOL     OW61601   0.881   0.893  26.748
16658SOL    HW161602   0.834   0.946  26.684
16658SOL    HW261603   0.968   0.933  26.753
16659SOL     OW61604   0.013   2.702  19.106
16659SOL    HW161605   4.746   2.690  19.024
16659SOL    HW261606   4.726   2.704  19.173
16660SOL     OW61607   2.933   3.460  25.833
16660SOL    HW161608   2.951   3.537  25.887
16660SOL    HW261609   2.999   3.396  25.860
16661SOL     OW61610   4.776   4.734   1.370
16661SOL    HW161611   4.684   4.709   1.369
16661SOL    HW261612   0.040   4.659   1.409
16662SOL     OW61613   0.447   3.070  23.719
16662SOL    HW161614   0.461   2.977  23.738
16662SOL    HW261615   0.352   3.077  23.707
16663SOL     OW61616   0.381   1.671  11.398
16663SOL    HW161617   0.300   1.633  11.364
16663SOL    HW261618   0.361   1.763  11.412
16664SOL     OW61619   4.689   3.332  24.755
16664SOL    HW161620   4.765   3.323  24.812
16664SOL    HW261621   4.635   3.400  24.796
16665SOL     OW61622   1.710   0.782   6.372
16665SOL    HW161623   1.728   0.802   6.280
16665SOL    HW261624   1.638   0.840   6.396
16666SOL     OW61625   2.830   1.239   2.732
16666SOL    HW161626   2.877   1.304   2.784
16666SOL    HW261627   2.802   1.287   2.654
16667SOL     OW61628   3.529   4.321   0.603
16667SOL    HW161629   3.536   4.285   0.691
16667SOL    HW261630   3.528   4.416   0.616
16668SOL     OW61631   4.648   4.598  27.869
16668SOL    HW161632   4.576   4.537  27.886
16668SOL    HW261633   4.625   4.638  27.785
16669SOL     OW61634   3.237   1.650   7.300
16669SOL    HW161635   3.230   1.734   7.345
16669SOL    HW261636   3.298   1.666   7.228
16670SOL     OW61637   0.603   4.005   2.385
16670SOL    HW161638   0.567   3.977   2.469
16670SOL    HW261639   0.683   3.953   2.375
16671SOL     OW61640   2.703   0.325   2.825
16671SOL    HW161641   2.788   0.347   2.788
16671SOL    HW261642   2.704   0.365   2.912
16672SOL     OW61643   0.685   0.585  23.061
16672SOL    HW161644   0.667   0.675  23.035
16672SOL    HW261645   0.661   0.581  23.153
16673SOL     OW61646   1.845   4.279  18.676
16673SOL    HW161647   1.888   4.194  18.688
16673SOL    HW261648   1.914   4.338  18.646
16674SOL     OW61649   1.820   2.683   3.033
16674SOL    HW161650   1.831   2.638   3.117
16674SOL    HW261651   1.728   2.709   3.031
16675SOL     OW61652   1.827   2.456   6.883
16675SOL    HW161653   1.870   2.541   6.891
16675SOL    HW261654   1.898   2.392   6.884
16676SOL     OW61655   0.423   2.929  25.705
16676SOL    HW161656   0.409   2.889  25.791
16676SOL    HW261657   0.426   2.855  25.644
16677SOL     OW61658   2.079   3.255   3.537
16677SOL    HW161659   2.038   3.336   3.506
16677SOL    HW261660   2.028   3.185   3.496
16678SOL     OW61661   2.957   2.451   8.232
16678SOL    HW161662   2.939   2.421   8.143
16678SOL    HW261663   2.901   2.528   8.243
16679SOL     OW61664   2.462   1.897  10.441
16679SOL    HW161665   2.519   1.831  10.480
16679SOL    HW261666   2.377   1.883  10.482
16680SOL     OW61667   1.209   2.695  24.250
16680SOL    HW161668   1.240   2.654  24.169
16680SOL    HW261669   1.266   2.771  24.261
16681SOL     OW61670   3.232   2.771  18.786
16681SOL    HW161671   3.191   2.811  18.709
16681SOL    HW261672   3.175   2.796  18.859
16682SOL     OW61673   1.634   0.352  24.244
16682SOL    HW161674   1.594   0.410  24.308
16682SOL    HW261675   1.562   0.324  24.188
16683SOL     OW61676   3.981   2.247  19.951
16683SOL    HW161677   3.972   2.253  19.856
16683SOL    HW261678   3.913   2.185  19.978
16684SOL     OW61679   1.728   1.844  23.134
16684SOL    HW161680   1.746   1.786  23.060
16684SOL    HW261681   1.814   1.861  23.173
16685SOL     OW61682   2.535   1.966   4.596
16685SOL    HW161683   2.442   1.976   4.574
16685SOL    HW261684   2.556   1.876   4.570
16686SOL     OW61685   3.336   2.671   8.101
16686SOL    HW161686   3.270   2.685   8.033
16686SOL    HW261687   3.331   2.749   8.156
16687SOL     OW61688   1.540   1.359   3.666
16687SOL    HW161689   1.592   1.300   3.612
16687SOL    HW261690   1.605   1.409   3.715
16688SOL     OW61691   0.231   0.516  22.617
16688SOL    HW161692   0.145   0.497  22.580
16688SOL    HW261693   0.214   0.577  22.688
16689SOL     OW61694   4.130   0.002   7.555
16689SOL    HW161695   4.090   0.004   7.468
16689SOL    HW261696   4.087   0.073   7.603
16690SOL     OW61697   3.704   2.418  26.473
16690SOL    HW161698   3.727   2.508  26.451
16690SOL    HW261699   3.717   2.370  26.391
16691SOL     OW61700   1.490   0.899  25.186
16691SOL    HW161701   1.498   0.853  25.269
16691SOL    HW261702   1.406   0.945  25.192
16692SOL     OW61703   3.510   3.891  11.413
16692SOL    HW161704   3.425   3.920  11.381
16692SOL    HW261705   3.499   3.886  11.508
16693SOL     OW61706   1.347   1.627  18.526
16693SOL    HW161707   1.385   1.659  18.444
16693SOL    HW261708   1.256   1.607  18.504
16694SOL     OW61709   1.920   0.785   9.692
16694SOL    HW161710   1.967   0.816   9.614
16694SOL    HW261711   1.983   0.729   9.737
16695SOL     OW61712   3.442   4.182   5.219
16695SOL    HW161713   3.513   4.234   5.256
16695SOL    HW261714   3.438   4.103   5.273
16696SOL     OW61715   2.434   2.763   5.354
16696SOL    HW161716   2.500   2.744   5.288
16696SOL    HW261717   2.377   2.828   5.313
16697SOL     OW61718   4.157   0.509  28.311
16697SOL    HW161719   4.197   0.456  28.242
16697SOL    HW261720   4.226   0.519  28.376
16698SOL     OW61721   4.484   2.673   7.945
16698SOL    HW161722   4.418   2.609   7.972
16698SOL    HW261723   4.435   2.738   7.895
16699SOL     OW61724   0.668   0.338   5.081
16699SOL    HW161725   0.596   0.281   5.108
16699SOL    HW261726   0.631   0.392   5.011
16700SOL     OW61727   3.645   3.912   5.884
16700SOL    HW161728   3.654   3.831   5.834
16700SOL    HW261729   3.675   3.890   5.972
16701SOL     OW61730   4.460   3.332  25.022
16701SOL    HW161731   4.421   3.320  25.109
16701SOL    HW261732   4.505   3.250  25.005
16702SOL     OW61733   2.604   2.384   3.098
16702SOL    HW161734   2.667   2.445   3.060
16702SOL    HW261735   2.518   2.423   3.080
16703SOL     OW61736   1.550   2.771   1.146
16703SOL    HW161737   1.544   2.850   1.093
16703SOL    HW261738   1.481   2.781   1.212
16704SOL     OW61739   1.650   3.703   5.404
16704SOL    HW161740   1.726   3.680   5.457
16704SOL    HW261741   1.687   3.729   5.319
16705SOL     OW61742   1.314   4.251  24.659
16705SOL    HW161743   1.285   4.162  24.679
16705SOL    HW261744   1.285   4.266  24.569
16706SOL     OW61745   4.512   1.873   2.164
16706SOL    HW161746   4.505   1.924   2.083
16706SOL    HW261747   4.524   1.939   2.233
16707SOL     OW61748   1.336   2.133   2.701
16707SOL    HW161749   1.416   2.150   2.751
16707SOL    HW261750   1.310   2.045   2.727
16708SOL     OW61751   2.280   3.469   8.949
16708SOL    HW161752   2.353   3.515   8.908
16708SOL    HW261753   2.264   3.394   8.891
16709SOL     OW61754   2.815   2.273  20.444
16709SOL    HW161755   2.748   2.211  20.416
16709SOL    HW261756   2.797   2.288  20.537
16710SOL     OW61757   2.712   1.886  20.775
16710SOL    HW161758   2.650   1.813  20.783
16710SOL    HW261759   2.657   1.963  20.759
16711SOL     OW61760   0.919   3.610  27.073
16711SOL    HW161761   0.960   3.550  27.011
16711SOL    HW261762   0.854   3.557  27.119
16712SOL     OW61763   3.383   2.458   7.903
16712SOL    HW161764   3.472   2.424   7.901
16712SOL    HW261765   3.382   2.517   7.979
16713SOL     OW61766   3.298   4.630   1.619
16713SOL    HW161767   3.301   4.536   1.636
16713SOL    HW261768   3.362   4.668   1.680
16714SOL     OW61769   1.299   1.861   8.719
16714SOL    HW161770   1.250   1.904   8.789
16714SOL    HW261771   1.312   1.772   8.751
16715SOL     OW61772   3.779   0.999   8.138
16715SOL    HW161773   3.854   0.993   8.197
16715SOL    HW261774   3.775   0.914   8.095
16716SOL     OW61775   3.473   1.858  27.927
16716SOL    HW161776   3.488   1.812  27.844
16716SOL    HW261777   3.415   1.930  27.904
16717SOL     OW61778   2.429   0.793  21.155
16717SOL    HW161779   2.483   0.718  21.180
16717SOL    HW261780   2.387   0.765  21.074
16718SOL     OW61781   3.728   4.345   1.941
16718SOL    HW161782   3.783   4.388   1.875
16718SOL    HW261783   3.715   4.257   1.907
16719SOL     OW61784   4.365   1.208   1.995
16719SOL    HW161785   4.387   1.121   1.961
16719SOL    HW261786   4.287   1.194   2.048
16720SOL     OW61787   3.704   3.542   4.624
16720SOL    HW161788   3.774   3.517   4.563
16720SOL    HW261789   3.636   3.475   4.612
16721SOL     OW61790   2.607   4.042  27.319
16721SOL    HW161791   2.663   4.104  27.365
16721SOL    HW261792   2.518   4.065  27.345
16722SOL     OW61793   2.630   4.519  24.856
16722SOL    HW161794   2.556   4.559  24.902
16722SOL    HW261795   2.599   4.508  24.766
16723SOL     OW61796   3.711   3.376   0.772
16723SOL    HW161797   3.625   3.399   0.737
16723SOL    HW261798   3.712   3.414   0.860
16724SOL     OW61799   0.870   0.618   2.322
16724SOL    HW161800   0.887   0.710   2.301
16724SOL    HW261801   0.817   0.586   2.249
16725SOL     OW61802   1.293   2.372  22.131
16725SOL    HW161803   1.312   2.456  22.089
16725SOL    HW261804   1.226   2.332  22.075
16726SOL     OW61805   4.323   0.599   0.021
16726SOL    HW161806   4.369   0.544   0.085
16726SOL    HW261807   4.236   0.612   0.059
16727SOL     OW61808   3.059   1.088   9.683
16727SOL    HW161809   3.114   1.098   9.761
16727SOL    HW261810   2.990   1.154   9.693
16728SOL     OW61811   1.126   3.608   2.848
16728SOL    HW161812   1.145   3.689   2.895
16728SOL    HW261813   1.208   3.586   2.804
16729SOL     OW61814   2.614   1.024   2.184
16729SOL    HW161815   2.610   1.097   2.122
16729SOL    HW261816   2.523   1.006   2.206
16730SOL     OW61817   0.652   3.759  22.689
16730SOL    HW161818   0.680   3.726  22.603
16730SOL    HW261819   0.559   3.777  22.679
16731SOL     OW61820   3.394   3.701  16.542
16731SOL    HW161821   3.456   3.658  16.483
16731SOL    HW261822   3.373   3.784  16.499
16732SOL     OW61823   0.808   4.589   1.677
16732SOL    HW161824   0.874   4.653   1.649
16732SOL    HW261825   0.783   4.544   1.596
16733SOL     OW61826   2.024   4.366   6.602
16733SOL    HW161827   2.005   4.395   6.691
16733SOL    HW261828   2.076   4.437   6.564
16734SOL     OW61829   0.521   0.150  28.339
16734SOL    HW161830   0.536   0.218  28.404
16734SOL    HW261831   0.426   0.140  28.336
16735SOL     OW61832   0.127   1.926   0.607
16735SOL    HW161833   0.177   1.897   0.531
16735SOL    HW261834   0.113   1.847   0.659
16736SOL     OW61835   1.508   1.283  21.166
16736SOL    HW161836   1.514   1.222  21.240
16736SOL    HW261837   1.417   1.312  21.166
16737SOL     OW61838   1.814   4.244   9.741
16737SOL    HW161839   1.766   4.283   9.814
16737SOL    HW261840   1.879   4.310   9.717
16738SOL     OW61841   4.191   4.612  25.749
16738SOL    HW161842   4.243   4.592  25.827
16738SOL    HW261843   4.233   4.563  25.678
16739SOL     OW61844   1.585   1.968   2.661
16739SOL    HW161845   1.601   2.033   2.729
16739SOL    HW261846   1.541   1.896   2.706
16740SOL     OW61847   0.060   1.685   0.702
16740SOL    HW161848   0.134   1.627   0.721
16740SOL    HW261849   0.033   1.718   0.788
16741SOL     OW61850   2.384   4.189   8.831
16741SOL    HW161851   2.346   4.141   8.758
16741SOL    HW261852   2.468   4.146   8.847
16742SOL     OW61853   0.396   0.999   5.795
16742SOL    HW161854   0.423   1.090   5.804
16742SOL    HW261855   0.316   0.992   5.847
16743SOL     OW61856   1.997   2.303   0.939
16743SOL    HW161857   1.948   2.382   0.960
16743SOL    HW261858   1.937   2.251   0.886
16744SOL     OW61859   4.125   2.878   2.476
16744SOL    HW161860   4.066   2.882   2.401
16744SOL    HW261861   4.185   2.952   2.464
16745SOL     OW61862   3.740   1.223  17.826
16745SOL    HW161863   3.824   1.185  17.853
16745SOL    HW261864   3.701   1.157  17.768
16746SOL     OW61865   3.827   0.987   3.173
16746SOL    HW161866   3.738   0.987   3.139
16746SOL    HW261867   3.822   0.933   3.252
16747SOL     OW61868   1.989   2.746   5.109
16747SOL    HW161869   1.983   2.713   5.199
16747SOL    HW261870   2.077   2.721   5.080
16748SOL     OW61871   4.059   3.683   1.589
16748SOL    HW161872   4.015   3.657   1.670
16748SOL    HW261873   4.066   3.778   1.595
16749SOL     OW61874   3.961   1.698   5.225
16749SOL    HW161875   4.053   1.702   5.250
16749SOL    HW261876   3.959   1.639   5.150
16750SOL     OW61877   2.828   1.714  28.186
16750SOL    HW161878   2.856   1.636  28.234
16750SOL    HW261879   2.866   1.787  28.235
16751SOL     OW61880   1.752   0.308   3.130
16751SOL    HW161881   1.825   0.355   3.090
16751SOL    HW261882   1.793   0.252   3.196
16752SOL     OW61883   2.064   3.062  19.718
16752SOL    HW161884   1.981   3.101  19.689
16752SOL    HW261885   2.095   3.013  19.642
16753SOL     OW61886   2.082   4.026   5.712
16753SOL    HW161887   2.111   4.089   5.777
16753SOL    HW261888   1.992   4.052   5.692
16754SOL     OW61889   1.472   4.679   8.660
16754SOL    HW161890   1.504   4.706   8.746
16754SOL    HW261891   1.465   4.760   8.610
16755SOL     OW61892   2.525   2.304  23.167
16755SOL    HW161893   2.509   2.214  23.196
16755SOL    HW261894   2.457   2.321  23.102
16756SOL     OW61895   2.279   2.217  24.140
16756SOL    HW161896   2.311   2.201  24.051
16756SOL    HW261897   2.273   2.312  24.146
16757SOL     OW61898   0.616   2.039  20.639
16757SOL    HW161899   0.631   2.093  20.562
16757SOL    HW261900   0.521   2.024  20.640
16758SOL     OW61901   0.365   0.171   3.018
16758SOL    HW161902   0.270   0.163   3.018
16758SOL    HW261903   0.382   0.257   3.056
16759SOL     OW61904   0.786   4.327  27.464
16759SOL    HW161905   0.731   4.275  27.405
16759SOL    HW261906   0.757   4.303  27.552
16760SOL     OW61907   0.047   1.331  20.098
16760SOL    HW161908   0.115   1.274  20.063
16760SOL    HW261909   0.011   1.283  20.172
16761SOL     OW61910   1.417   0.162   3.752
16761SOL    HW161911   1.475   0.235   3.733
16761SOL    HW261912   1.355   0.197   3.816
16762SOL     OW61913   1.317   1.528   8.546
16762SOL    HW161914   1.407   1.519   8.577
16762SOL    HW261915   1.306   1.457   8.483
16763SOL     OW61916   2.256   4.133   8.282
16763SOL    HW161917   2.301   4.140   8.367
16763SOL    HW261918   2.323   4.156   8.218
16764SOL     OW61919   2.855   0.109   7.274
16764SOL    HW161920   2.914   0.070   7.339
16764SOL    HW261921   2.807   0.034   7.238
16765SOL     OW61922   3.308   0.931  19.822
16765SOL    HW161923   3.390   0.964  19.786
16765SOL    HW261924   3.334   0.882  19.900
16766SOL     OW61925   0.830   2.626   9.065
16766SOL    HW161926   0.815   2.642   9.158
16766SOL    HW261927   0.865   2.709   9.032
16767SOL     OW61928   0.436   0.165   8.981
16767SOL    HW161929   0.517   0.198   8.943
16767SOL    HW261930   0.464   0.102   9.047
16768SOL     OW61931   1.896   1.486   4.615
16768SOL    HW161932   1.864   1.521   4.532
16768SOL    HW261933   1.892   1.561   4.675
16769SOL     OW61934   3.569   3.456  19.301
16769SOL    HW161935   3.508   3.448  19.375
16769SOL    HW261936   3.610   3.541  19.314
16770SOL     OW61937   1.893   3.236   5.255
16770SOL    HW161938   1.937   3.309   5.298
16770SOL    HW261939   1.806   3.269   5.234
16771SOL     OW61940   0.187   2.768  24.818
16771SOL    HW161941   0.243   2.830  24.771
16771SOL    HW261942   0.120   2.822  24.859
16772SOL     OW61943   3.239   3.198  22.712
16772SOL    HW161944   3.215   3.284  22.746
16772SOL    HW261945   3.334   3.202  22.700
16773SOL     OW61946   2.680   1.307  26.393
16773SOL    HW161947   2.695   1.282  26.484
16773SOL    HW261948   2.634   1.232  26.354
16774SOL     OW61949   4.055   0.010  26.057
16774SOL    HW161950   4.034   4.734  26.131
16774SOL    HW261951   4.151   0.009  26.052
16775SOL     OW61952   0.012   0.937   0.744
16775SOL    HW161953   0.040   1.028   0.750
16775SOL    HW261954   0.068   0.898   0.677
16776SOL     OW61955   0.765   1.305   8.944
16776SOL    HW161956   0.740   1.232   9.000
16776SOL    HW261957   0.838   1.271   8.892
16777SOL     OW61958   3.537   1.281  23.389
16777SOL    HW161959   3.446   1.307  23.376
16777SOL    HW261960   3.588   1.350  23.346
16778SOL     OW61961   2.036   2.161  24.556
16778SOL    HW161962   2.053   2.186  24.647
16778SOL    HW261963   2.120   2.170  24.512
16779SOL     OW61964   1.275   3.819   1.921
16779SOL    HW161965   1.365   3.822   1.953
16779SOL    HW261966   1.223   3.801   1.999
16780SOL     OW61967   3.246   2.525  21.360
16780SOL    HW161968   3.251   2.549  21.267
16780SOL    HW261969   3.248   2.609  21.407
16781SOL     OW61970   1.894   4.262  20.602
16781SOL    HW161971   1.799   4.275  20.600
16781SOL    HW261972   1.910   4.211  20.682
16782SOL     OW61973   2.173   1.795   8.789
16782SOL    HW161974   2.132   1.710   8.804
16782SOL    HW261975   2.102   1.850   8.757
16783SOL     OW61976   0.002   0.279  27.840
16783SOL    HW161977   0.049   0.314  27.916
16783SOL    HW261978   0.036   0.329  27.766
16784SOL     OW61979   1.672   4.175   1.028
16784SOL    HW161980   1.638   4.092   1.062
16784SOL    HW261981   1.608   4.201   0.961
16785SOL     OW61982   1.153   0.000   7.515
16785SOL    HW161983   1.095   4.761   7.442
16785SOL    HW261984   1.234   4.734   7.495
16786SOL     OW61985   1.453   1.214  19.885
16786SOL    HW161986   1.495   1.142  19.838
16786SOL    HW261987   1.519   1.244  19.948
16787SOL     OW61988   3.820   0.921   2.665
16787SOL    HW161989   3.811   0.869   2.745
16787SOL    HW261990   3.877   0.869   2.609
16788SOL     OW61991   3.192   1.728   2.665
16788SOL    HW161992   3.172   1.797   2.728
16788SOL    HW261993   3.114   1.723   2.609
16789SOL     OW61994   1.460   2.549  24.415
16789SOL    HW161995   1.370   2.574  24.395
16789SOL    HW261996   1.459   2.528  24.508
16790SOL     OW61997   2.916   3.960  17.649
16790SOL    HW161998   2.945   4.040  17.605
16790SOL    HW261999   2.864   3.914  17.583
16791SOL     OW62000   0.010   1.938   2.767
16791SOL    HW162001   0.104   1.954   2.766
16791SOL    HW262002   4.768   1.926   2.675
16792SOL     OW62003   0.123   0.955  22.440
16792SOL    HW162004   0.031   0.933  22.457
16792SOL    HW262005   0.153   0.887  22.380
16793SOL     OW62006   2.812   1.756  17.584
16793SOL    HW162007   2.757   1.691  17.539
16793SOL    HW262008   2.876   1.783  17.518
16794SOL     OW62009   2.073   4.472  20.730
16794SOL    HW162010   2.014   4.408  20.690
16794SOL    HW262011   2.085   4.441  20.820
16795SOL     OW62012   4.622   3.847  27.950
16795SOL    HW162013   4.567   3.796  27.891
16795SOL    HW262014   4.643   3.787  28.022
16796SOL     OW62015   2.210   1.368  21.116
16796SOL    HW162016   2.252   1.454  21.110
16796SOL    HW262017   2.278   1.306  21.091
16797SOL     OW62018   1.783   2.610  11.692
16797SOL    HW162019   1.849   2.613  11.761
16797SOL    HW262020   1.710   2.561  11.731
16798SOL     OW62021   3.802   1.519  25.427
16798SOL    HW162022   3.783   1.479  25.342
16798SOL    HW262023   3.833   1.607  25.406
16799SOL     OW62024   2.985   3.340  20.177
16799SOL    HW162025   2.994   3.263  20.234
16799SOL    HW262026   2.996   3.306  20.088
16800SOL     OW62027   4.121   3.935  20.008
16800SOL    HW162028   4.165   3.889  19.937
16800SOL    HW262029   4.161   4.022  20.008
16801SOL     OW62030   2.538   1.161   9.783
16801SOL    HW162031   2.613   1.213   9.755
16801SOL    HW262032   2.574   1.074   9.799
16802SOL     OW62033   2.626   4.686   7.307
16802SOL    HW162034   2.583   4.760   7.351
16802SOL    HW262035   2.580   4.677   7.224
16803SOL     OW62036   3.110   2.390  22.536
16803SOL    HW162037   3.043   2.335  22.495
16803SOL    HW262038   3.079   2.480  22.523
16804SOL     OW62039   2.794   2.503   3.446
16804SOL    HW162040   2.846   2.541   3.375
16804SOL    HW262041   2.830   2.542   3.526
16805SOL     OW62042   3.231   1.686  19.589
16805SOL    HW162043   3.155   1.701  19.645
16805SOL    HW262044   3.244   1.769  19.543
16806SOL     OW62045   3.418   1.237  22.184
16806SOL    HW162046   3.428   1.218  22.091
16806SOL    HW262047   3.387   1.328  22.187
16807SOL     OW62048   4.388   2.522   5.863
16807SOL    HW162049   4.376   2.601   5.915
16807SOL    HW262050   4.302   2.480   5.864
16808SOL     OW62051   1.147   3.259   6.424
16808SOL    HW162052   1.193   3.200   6.483
16808SOL    HW262053   1.147   3.214   6.340
16809SOL     OW62054   3.955   3.363   7.284
16809SOL    HW162055   3.886   3.348   7.220
16809SOL    HW262056   3.917   3.336   7.367
16810SOL     OW62057   2.850   3.750  25.158
16810SOL    HW162058   2.869   3.835  25.118
16810SOL    HW262059   2.777   3.715  25.107
16811SOL     OW62060   3.304   4.685   6.895
16811SOL    HW162061   3.309   4.703   6.801
16811SOL    HW262062   3.259   4.761   6.932
16812SOL     OW62063   3.003   2.338  25.627
16812SOL    HW162064   3.070   2.278  25.659
16812SOL    HW262065   3.051   2.417  25.604
16813SOL     OW62066   2.980   1.150  18.401
16813SOL    HW162067   2.904   1.205  18.382
16813SOL    HW262068   3.013   1.183  18.485
16814SOL     OW62069   4.640   3.567  24.979
16814SOL    HW162070   4.726   3.541  25.013
16814SOL    HW262071   4.581   3.498  25.009
16815SOL     OW62072   3.688   2.090  19.491
16815SOL    HW162073   3.660   2.104  19.582
16815SOL    HW262074   3.784   2.086  19.496
16816SOL     OW62075   0.593   3.311   1.459
16816SOL    HW162076   0.568   3.294   1.368
16816SOL    HW262077   0.646   3.235   1.484
16817SOL     OW62078   3.133   4.444   0.680
16817SOL    HW162079   3.163   4.399   0.601
16817SOL    HW262080   3.126   4.536   0.654
16818SOL     OW62081   3.636   0.232   5.814
16818SOL    HW162082   3.585   0.159   5.779
16818SOL    HW262083   3.614   0.306   5.757
16819SOL     OW62084   3.240   3.324   4.164
16819SOL    HW162085   3.299   3.250   4.152
16819SOL    HW262086   3.197   3.334   4.079
16820SOL     OW62087   1.148   2.758  27.587
16820SOL    HW162088   1.206   2.829  27.614
16820SOL    HW262089   1.206   2.695  27.545
16821SOL     OW62090   1.662   0.494  22.928
16821SOL    HW162091   1.635   0.461  22.842
16821SOL    HW262092   1.661   0.417  22.984
16822SOL     OW62093   3.861   2.243  28.192
16822SOL    HW162094   3.818   2.303  28.253
16822SOL    HW262095   3.888   2.299  28.119
16823SOL     OW62096   1.462   2.425  23.890
16823SOL    HW162097   1.475   2.351  23.949
16823SOL    HW262098   1.489   2.392  23.804
16824SOL     OW62099   1.220   2.615   7.463
16824SOL    HW162100   1.287   2.617   7.395
16824SOL    HW262101   1.243   2.539   7.517
16825SOL     OW62102   2.570   0.323   0.222
16825SOL    HW162103   2.661   0.313   0.249
16825SOL    HW262104   2.570   0.398   0.163
16826SOL     OW62105   0.348   0.231   4.592
16826SOL    HW162106   0.437   0.253   4.565
16826SOL    HW262107   0.324   0.301   4.653
16827SOL     OW62108   0.593   3.445  22.249
16827SOL    HW162109   0.662   3.382  22.271
16827SOL    HW262110   0.618   3.525  22.295
16828SOL     OW62111   1.538   4.704  22.756
16828SOL    HW162112   1.536   4.723  22.662
16828SOL    HW262113   1.547   4.609  22.762
16829SOL     OW62114   1.725   1.256   5.938
16829SOL    HW162115   1.695   1.305   5.862
16829SOL    HW262116   1.808   1.297   5.962
16830SOL     OW62117   3.516   3.362   6.975
16830SOL    HW162118   3.450   3.299   6.947
16830SOL    HW262119   3.546   3.403   6.894
16831SOL     OW62120   2.881   2.361   2.775
16831SOL    HW162121   2.802   2.410   2.755
16831SOL    HW262122   2.907   2.322   2.691
16832SOL     OW62123   1.291   3.339  20.454
16832SOL    HW162124   1.281   3.372  20.365
16832SOL    HW262125   1.203   3.343  20.491
16833SOL     OW62126   2.131   2.241   4.301
16833SOL    HW162127   2.223   2.261   4.320
16833SOL    HW262128   2.092   2.223   4.386
16834SOL     OW62129   0.390   2.161  11.648
16834SOL    HW162130   0.480   2.180  11.673
16834SOL    HW262131   0.339   2.181  11.726
16835SOL     OW62132   4.638   1.526  19.332
16835SOL    HW162133   4.710   1.583  19.359
16835SOL    HW262134   4.562   1.561  19.378
16836SOL     OW62135   1.030   0.250  20.022
16836SOL    HW162136   1.028   0.169  20.073
16836SOL    HW262137   1.123   0.265  20.005
16837SOL     OW62138   0.941   1.885   4.840
16837SOL    HW162139   1.003   1.901   4.769
16837SOL    HW262140   0.972   1.940   4.912
16838SOL     OW62141   1.915   2.590   4.015
16838SOL    HW162142   1.985   2.539   4.056
16838SOL    HW262143   1.933   2.680   4.040
16839SOL     OW62144   4.333   1.359   7.530
16839SOL    HW162145   4.286   1.434   7.566
16839SOL    HW262146   4.400   1.398   7.473
16840SOL     OW62147   3.725   0.984  19.790
16840SOL    HW162148   3.704   0.935  19.869
16840SOL    HW262149   3.783   1.054  19.820
16841SOL     OW62150   1.908   2.836   1.993
16841SOL    HW162151   1.886   2.801   1.907
16841SOL    HW262152   1.826   2.874   2.025
16842SOL     OW62153   3.552   2.902  10.560
16842SOL    HW162154   3.536   2.839  10.630
16842SOL    HW262155   3.645   2.925  10.569
16843SOL     OW62156   4.350   4.297  22.446
16843SOL    HW162157   4.354   4.393  22.442
16843SOL    HW262158   4.274   4.278  22.501
16844SOL     OW62159   0.342   1.259  23.496
16844SOL    HW162160   0.255   1.233  23.526
16844SOL    HW262161   0.326   1.324  23.427
16845SOL     OW62162   1.163   2.059  26.426
16845SOL    HW162163   1.166   2.036  26.519
16845SOL    HW262164   1.172   1.975  26.381
16846SOL     OW62165   3.429   3.547  25.452
16846SOL    HW162166   3.405   3.548  25.359
16846SOL    HW262167   3.387   3.469  25.487
16847SOL     OW62168   2.592   0.164   9.287
16847SOL    HW162169   2.620   0.255   9.278
16847SOL    HW262170   2.645   0.116   9.224
16848SOL     OW62171   0.121   4.032   6.289
16848SOL    HW162172   0.055   3.966   6.271
16848SOL    HW262173   0.143   4.069   6.203
16849SOL     OW62174   1.512   0.091  24.930
16849SOL    HW162175   1.466   0.008  24.919
16849SOL    HW262176   1.475   0.148  24.862
16850SOL     OW62177   2.247   2.953   0.295
16850SOL    HW162178   2.291   2.909   0.222
16850SOL    HW262179   2.300   2.932   0.372
16851SOL     OW62180   4.642   1.694  11.317
16851SOL    HW162181   4.575   1.667  11.380
16851SOL    HW262182   4.594   1.744  11.251
16852SOL     OW62183   1.969   4.035  18.678
16852SOL    HW162184   2.043   4.005  18.731
16852SOL    HW262185   1.984   3.996  18.592
16853SOL     OW62186   3.859   2.790   7.286
16853SOL    HW162187   3.889   2.700   7.271
16853SOL    HW262188   3.836   2.792   7.379
16854SOL     OW62189   3.837   1.914   1.822
16854SOL    HW162190   3.859   2.007   1.831
16854SOL    HW262191   3.890   1.884   1.748
16855SOL     OW62192   0.644   2.953  26.620
16855SOL    HW162193   0.729   2.909  26.619
16855SOL    HW262194   0.581   2.884  26.597
16856SOL     OW62195   3.987   1.233  17.469
16856SOL    HW162196   4.004   1.139  17.473
16856SOL    HW262197   3.982   1.253  17.375
16857SOL     OW62198   1.445   1.785  20.783
16857SOL    HW162199   1.508   1.806  20.714
16857SOL    HW262200   1.465   1.847  20.854
16858SOL     OW62201   2.031   2.520  18.797
16858SOL    HW162202   1.977   2.582  18.748
16858SOL    HW262203   2.022   2.437  18.750
16859SOL     OW62204   3.937   0.191   7.605
16859SOL    HW162205   3.908   0.274   7.642
16859SOL    HW262206   3.866   0.164   7.547
16860SOL     OW62207   0.467   2.633   1.155
16860SOL    HW162208   0.419   2.550   1.146
16860SOL    HW262209   0.451   2.660   1.245
16861SOL     OW62210   2.120   3.374  19.888
16861SOL    HW162211   2.113   3.296  19.833
16861SOL    HW262212   2.206   3.366  19.929
16862SOL     OW62213   4.392   2.730   2.875
16862SOL    HW162214   4.382   2.731   2.970
16862SOL    HW262215   4.392   2.822   2.850
16863SOL     OW62216   2.327   1.186  26.603
16863SOL    HW162217   2.298   1.255  26.543
16863SOL    HW262218   2.353   1.114  26.545
16864SOL     OW62219   3.502   3.712   1.356
16864SOL    HW162220   3.458   3.719   1.441
16864SOL    HW262221   3.569   3.645   1.369
16865SOL     OW62222   1.590   2.775  23.964
16865SOL    HW162223   1.664   2.744  23.911
16865SOL    HW262224   1.618   2.760  24.054
16866SOL     OW62225   4.257   0.090   2.185
16866SOL    HW162226   4.344   0.101   2.148
16866SOL    HW262227   4.212   0.032   2.124
16867SOL     OW62228   4.352   3.027  20.437
16867SOL    HW162229   4.307   3.101  20.479
16867SOL    HW262230   4.313   2.949  20.477
16868SOL     OW62231   3.741   3.254  17.914
16868SOL    HW162232   3.775   3.335  17.875
16868SOL    HW262233   3.759   3.264  18.008
16869SOL     OW62234   4.757   1.482  21.182
16869SOL    HW162235   4.689   1.434  21.135
16869SOL    HW262236   0.053   1.425  21.178
16870SOL     OW62237   2.498   3.363   4.201
16870SOL    HW162238   2.460   3.316   4.276
16870SOL    HW262239   2.579   3.316   4.181
16871SOL     OW62240   0.492   4.143   5.466
16871SOL    HW162241   0.425   4.083   5.433
16871SOL    HW262242   0.528   4.099   5.543
16872SOL     OW62243   1.216   0.748   1.282
16872SOL    HW162244   1.183   0.811   1.347
16872SOL    HW262245   1.164   0.766   1.203
16873SOL     OW62246   2.846   2.786  26.271
16873SOL    HW162247   2.930   2.801  26.228
16873SOL    HW262248   2.816   2.702  26.236
16874SOL     OW62249   1.014   1.282  23.426
16874SOL    HW162250   1.004   1.220  23.498
16874SOL    HW262251   0.998   1.230  23.347
16875SOL     OW62252   0.573   4.015  22.288
16875SOL    HW162253   0.509   3.984  22.223
16875SOL    HW262254   0.536   4.097  22.321
16876SOL     OW62255   3.074   1.437   3.134
16876SOL    HW162256   3.137   1.423   3.205
16876SOL    HW262257   2.993   1.398   3.166
16877SOL     OW62258   0.172   2.611  20.478
16877SOL    HW162259   0.077   2.617  20.480
16877SOL    HW262260   0.200   2.642  20.564
16878SOL     OW62261   3.101   1.145  18.070
16878SOL    HW162262   3.058   1.215  18.120
16878SOL    HW262263   3.195   1.162  18.081
16879SOL     OW62264   0.634   3.682   3.446
16879SOL    HW162265   0.543   3.696   3.473
16879SOL    HW262266   0.672   3.770   3.444
16880SOL     OW62267   3.881   4.178  21.372
16880SOL    HW162268   3.942   4.181  21.298
16880SOL    HW262269   3.888   4.088  21.405
16881SOL     OW62270   1.841   3.986   0.208
16881SOL    HW162271   1.925   3.943   0.225
16881SOL    HW262272   1.776   3.925   0.243
16882SOL     OW62273   3.978   4.612  21.258
16882SOL    HW162274   3.937   4.696  21.276
16882SOL    HW262275   3.908   4.548  21.269
16883SOL     OW62276   3.679   3.319   2.568
16883SOL    HW162277   3.718   3.297   2.484
16883SOL    HW262278   3.652   3.235   2.605
16884SOL     OW62279   2.023   1.372  27.844
16884SOL    HW162280   2.024   1.308  27.773
16884SOL    HW262281   2.114   1.380  27.871
16885SOL     OW62282   2.320   2.625  26.089
16885SOL    HW162283   2.283   2.580  26.013
16885SOL    HW262284   2.249   2.681  26.120
16886SOL     OW62285   1.556   0.991  18.456
16886SOL    HW162286   1.643   0.994  18.497
16886SOL    HW262287   1.547   0.900  18.426
16887SOL     OW62288   0.828   2.883   5.749
16887SOL    HW162289   0.735   2.887   5.771
16887SOL    HW262290   0.842   2.794   5.718
16888SOL     OW62291   4.772   3.920  24.300
16888SOL    HW162292   4.684   3.935  24.266
16888SOL    HW262293   0.048   3.966  24.239
16889SOL     OW62294   4.357   0.535   7.046
16889SOL    HW162295   4.273   0.494   7.066
16889SOL    HW262296   4.335   0.622   7.014
16890SOL     OW62297   3.073   2.573   2.844
16890SOL    HW162298   3.036   2.487   2.826
16890SOL    HW262299   3.074   2.617   2.759
16891SOL     OW62300   2.064   0.155   4.174
16891SOL    HW162301   1.990   0.121   4.224
16891SOL    HW262302   2.124   0.081   4.166
16892SOL     OW62303   0.371   2.997   9.133
16892SOL    HW162304   0.451   2.948   9.116
16892SOL    HW262305   0.307   2.961   9.072
16893SOL     OW62306   0.933   1.914   4.211
16893SOL    HW162307   0.967   1.954   4.291
16893SOL    HW262308   0.841   1.895   4.230
16894SOL     OW62309   2.403   2.284   4.381
16894SOL    HW162310   2.401   2.364   4.433
16894SOL    HW262311   2.494   2.254   4.386
16895SOL     OW62312   4.515   3.368  18.701
16895SOL    HW162313   4.473   3.453  18.685
16895SOL    HW262314   4.498   3.350  18.793
16896SOL     OW62315   3.696   3.485   1.412
16896SOL    HW162316   3.646   3.440   1.480
16896SOL    HW262317   3.769   3.526   1.459
16897SOL     OW62318   0.357   1.567  10.209
16897SOL    HW162319   0.423   1.629  10.240
16897SOL    HW262320   0.273   1.608  10.231
16898SOL     OW62321   1.230   3.034   8.746
16898SOL    HW162322   1.313   3.014   8.703
16898SOL    HW262323   1.220   2.965   8.812
16899SOL     OW62324   0.091   4.381  22.187
16899SOL    HW162325   0.076   4.343  22.273
16899SOL    HW262326   0.156   4.450  22.202
16900SOL     OW62327   4.055   2.245   8.568
16900SOL    HW162328   4.120   2.287   8.624
16900SOL    HW262329   3.975   2.294   8.585
16901SOL     OW62330   0.836   4.204   1.447
16901SOL    HW162331   0.921   4.222   1.488
16901SOL    HW262332   0.796   4.137   1.502
16902SOL     OW62333   2.748   2.519  24.973
16902SOL    HW162334   2.809   2.489  25.040
16902SOL    HW262335   2.663   2.486  25.001
16903SOL     OW62336   0.739   2.161  20.007
16903SOL    HW162337   0.667   2.188  19.950
16903SOL    HW262338   0.746   2.231  20.072
16904SOL     OW62339   2.469   4.416  21.093
16904SOL    HW162340   2.556   4.452  21.075
16904SOL    HW262341   2.408   4.478  21.053
16905SOL     OW62342   2.435   0.761   5.057
16905SOL    HW162343   2.354   0.729   5.018
16905SOL    HW262344   2.461   0.834   5.001
16906SOL     OW62345   3.134   0.772   5.498
16906SOL    HW162346   3.090   0.689   5.482
16906SOL    HW262347   3.113   0.826   5.421
16907SOL     OW62348   4.718   1.418   9.925
16907SOL    HW162349   4.671   1.384  10.001
16907SOL    HW262350   4.667   1.494   9.897
16908SOL     OW62351   3.588   3.924   6.383
16908SOL    HW162352   3.502   3.943   6.346
16908SOL    HW262353   3.577   3.937   6.477
16909SOL     OW62354   1.240   2.947  19.926
16909SOL    HW162355   1.242   3.043  19.925
16909SOL    HW262356   1.238   2.922  19.834
16910SOL     OW62357   4.041   1.356   0.297
16910SOL    HW162358   4.136   1.366   0.299
16910SOL    HW262359   4.012   1.393   0.380
16911SOL     OW62360   3.295   3.486  25.956
16911SOL    HW162361   3.236   3.553  25.920
16911SOL    HW262362   3.255   3.403  25.930
16912SOL     OW62363   2.151   1.707   0.391
16912SOL    HW162364   2.132   1.780   0.450
16912SOL    HW262365   2.075   1.649   0.400
16913SOL     OW62366   4.545   4.567  28.424
16913SOL    HW162367   4.588   4.618  28.356
16913SOL    HW262368   4.616   4.520  28.468
16914SOL     OW62369   4.609   0.601  26.883
16914SOL    HW162370   4.675   0.576  26.818
16914SOL    HW262371   4.525   0.589  26.839
16915SOL     OW62372   1.794   0.594   6.860
16915SOL    HW162373   1.808   0.623   6.770
16915SOL    HW262374   1.742   0.514   6.851
16916SOL     OW62375   3.472   3.181   3.133
16916SOL    HW162376   3.422   3.108   3.095
16916SOL    HW262377   3.491   3.238   3.058
16917SOL     OW62378   4.449   0.271  19.709
16917SOL    HW162379   4.490   0.354  19.735
16917SOL    HW262380   4.519   0.207  19.715
16918SOL     OW62381   4.570   3.923  22.717
16918SOL    HW162382   4.575   3.892  22.807
16918SOL    HW262383   4.555   3.844  22.665
16919SOL     OW62384   3.889   1.512   7.719
16919SOL    HW162385   3.921   1.601   7.705
16919SOL    HW262386   3.812   1.504   7.662
16920SOL     OW62387   0.659   0.312  20.899
16920SOL    HW162388   0.640   0.219  20.884
16920SOL    HW262389   0.750   0.313  20.929
16921SOL     OW62390   0.216   2.179   3.088
16921SOL    HW162391   0.260   2.225   3.017
16921SOL    HW262392   0.128   2.160   3.054
16922SOL     OW62393   4.034   1.202   5.942
16922SOL    HW162394   3.995   1.276   5.896
16922SOL    HW262395   4.020   1.128   5.883
16923SOL     OW62396   0.090   2.026  27.949
16923SOL    HW162397   0.098   2.013  28.044
16923SOL    HW262398   0.137   2.108  27.933
16924SOL     OW62399   1.047   3.520  25.832
16924SOL    HW162400   1.018   3.461  25.762
16924SOL    HW262401   0.980   3.588  25.835
16925SOL     OW62402   2.790   2.637  21.422
16925SOL    HW162403   2.785   2.684  21.505
16925SOL    HW262404   2.880   2.650  21.393
16926SOL     OW62405   0.051   2.342  20.921
16926SOL    HW162406   0.068   2.427  20.961
16926SOL    HW262407   0.032   2.362  20.829
16927SOL     OW62408   1.899   3.978   0.500
16927SOL    HW162409   1.868   3.894   0.533
16927SOL    HW262410   1.819   4.026   0.477
16928SOL     OW62411   4.489   1.240   1.342
16928SOL    HW162412   4.399   1.240   1.374
16928SOL    HW262413   4.541   1.204   1.414
16929SOL     OW62414   2.374   2.417   4.030
16929SOL    HW162415   2.363   2.447   3.940
16929SOL    HW262416   2.469   2.418   4.045
16930SOL     OW62417   2.064   2.793  24.648
16930SOL    HW162418   2.150   2.799  24.689
16930SOL    HW262419   2.033   2.884  24.645
16931SOL     OW62420   4.024   0.874  19.426
16931SOL    HW162421   4.054   0.964  19.440
16931SOL    HW262422   3.951   0.863  19.486
16932SOL     OW62423   1.815   4.066   5.689
16932SOL    HW162424   1.725   4.040   5.707
16932SOL    HW262425   1.840   4.012   5.614
16933SOL     OW62426   2.347   1.724  26.742
16933SOL    HW162427   2.317   1.738  26.652
16933SOL    HW262428   2.267   1.719  26.794
16934SOL     OW62429   2.904   4.518   7.274
16934SOL    HW162430   2.816   4.540   7.305
16934SOL    HW262431   2.962   4.575   7.325
16935SOL     OW62432   3.481   3.922   1.801
16935SOL    HW162433   3.453   3.831   1.799
16935SOL    HW262434   3.409   3.969   1.844
16936SOL     OW62435   3.661   0.874  20.038
16936SOL    HW162436   3.568   0.855  20.023
16936SOL    HW262437   3.661   0.932  20.114
16937SOL     OW62438   3.936   0.341   0.562
16937SOL    HW162439   3.986   0.325   0.642
16937SOL    HW262440   3.917   0.435   0.565
16938SOL     OW62441   0.021   4.473  28.304
16938SOL    HW162442   0.013   4.560  28.264
16938SOL    HW262443   4.767   4.413  28.238
16939SOL     OW62444   1.191   4.276  17.797
16939SOL    HW162445   1.252   4.203  17.806
16939SOL    HW262446   1.230   4.331  17.729
16940SOL     OW62447   3.901   2.712  19.142
16940SOL    HW162448   3.962   2.773  19.101
16940SOL    HW262449   3.888   2.643  19.077
16941SOL     OW62450   4.459   1.848  16.862
16941SOL    HW162451   4.425   1.760  16.877
16941SOL    HW262452   4.534   1.835  16.804
16942SOL     OW62453   2.162   2.263   8.047
16942SOL    HW162454   2.179   2.246   8.140
16942SOL    HW262455   2.073   2.299   8.045
16943SOL     OW62456   3.778   4.469  26.841
16943SOL    HW162457   3.720   4.449  26.914
16943SOL    HW262458   3.757   4.559  26.817
16944SOL     OW62459   4.289   4.483  28.386
16944SOL    HW162460   4.265   4.576  28.389
16944SOL    HW262461   4.382   4.483  28.363
16945SOL     OW62462   0.796   1.984   9.444
16945SOL    HW162463   0.782   2.070   9.484
16945SOL    HW262464   0.733   1.981   9.372
16946SOL     OW62465   4.088   0.631   6.720
16946SOL    HW162466   3.998   0.617   6.689
16946SOL    HW262467   4.143   0.590   6.654
16947SOL     OW62468   4.074   4.274   3.569
16947SOL    HW162469   4.113   4.351   3.609
16947SOL    HW262470   4.036   4.225   3.642
16948SOL     OW62471   1.990   4.207   0.418
16948SOL    HW162472   1.981   4.112   0.420
16948SOL    HW262473   1.923   4.238   0.478
16949SOL     OW62474   1.862   2.571  27.044
16949SOL    HW162475   1.806   2.549  27.119
16949SOL    HW262476   1.898   2.657  27.065
16950SOL     OW62477   2.009   1.453   7.803
16950SOL    HW162478   1.990   1.438   7.896
16950SOL    HW262479   2.076   1.521   7.803
16951SOL     OW62480   1.539   1.826   8.481
16951SOL    HW162481   1.623   1.818   8.527
16951SOL    HW262482   1.478   1.774   8.533
16952SOL     OW62483   1.744   1.979  16.809
16952SOL    HW162484   1.809   1.974  16.739
16952SOL    HW262485   1.673   1.922  16.780
16953SOL     OW62486   2.609   4.355   7.812
16953SOL    HW162487   2.660   4.317   7.884
16953SOL    HW262488   2.636   4.305   7.735
16954SOL     OW62489   3.951   1.842  19.021
16954SOL    HW162490   3.865   1.860  19.059
16954SOL    HW262491   3.951   1.747  19.006
16955SOL     OW62492   1.658   1.738   4.254
16955SOL    HW162493   1.704   1.811   4.295
16955SOL    HW262494   1.614   1.693   4.327
16956SOL     OW62495   0.849   0.643   7.703
16956SOL    HW162496   0.827   0.720   7.651
16956SOL    HW262497   0.766   0.616   7.743
16957SOL     OW62498   4.717   2.384  23.245
16957SOL    HW162499   0.019   2.429  23.262
16957SOL    HW262500   4.709   2.384  23.150
16958SOL     OW62501   2.957   1.010   0.328
16958SOL    HW162502   2.878   1.021   0.274
16958SOL    HW262503   3.006   0.940   0.284
16959SOL     OW62504   2.281   0.390   1.451
16959SOL    HW162505   2.279   0.441   1.532
16959SOL    HW262506   2.210   0.425   1.398
16960SOL     OW62507   4.219   0.304   3.890
16960SOL    HW162508   4.287   0.358   3.930
16960SOL    HW262509   4.246   0.214   3.908
16961SOL     OW62510   3.571   0.125   7.566
16961SOL    HW162511   3.523   0.184   7.625
16961SOL    HW262512   3.563   0.165   7.480
16962SOL     OW62513   1.143   4.087   2.904
16962SOL    HW162514   1.201   4.082   2.828
16962SOL    HW262515   1.188   4.147   2.964
16963SOL     OW62516   0.155   0.992   4.092
16963SOL    HW162517   0.201   0.913   4.064
16963SOL    HW262518   0.063   0.973   4.075
16964SOL     OW62519   0.211   3.767  25.597
16964SOL    HW162520   0.234   3.857  25.621
16964SOL    HW262521   0.288   3.716  25.620
16965SOL     OW62522   1.681   1.252   8.596
16965SOL    HW162523   1.721   1.314   8.535
16965SOL    HW262524   1.755   1.215   8.644
16966SOL     OW62525   0.385   4.134   4.440
16966SOL    HW162526   0.476   4.136   4.469
16966SOL    HW262527   0.334   4.128   4.521
16967SOL     OW62528   4.619   4.619  22.094
16967SOL    HW162529   4.627   4.531  22.056
16967SOL    HW262530   4.704   4.659  22.078
16968SOL     OW62531   4.386   1.707   9.525
16968SOL    HW162532   4.374   1.702   9.430
16968SOL    HW262533   4.304   1.674   9.561
16969SOL     OW62534   1.014   1.192  20.583
16969SOL    HW162535   0.978   1.165  20.667
16969SOL    HW262536   1.035   1.110  20.539
16970SOL     OW62537   4.007   4.139  20.361
16970SOL    HW162538   4.039   4.214  20.412
16970SOL    HW262539   4.086   4.089  20.340
16971SOL     OW62540   1.634   4.671   9.873
16971SOL    HW162541   1.641   4.637   9.962
16971SOL    HW262542   1.694   4.746   9.872
16972SOL     OW62543   4.686   1.560  23.548
16972SOL    HW162544   4.714   1.536  23.460
16972SOL    HW262545   4.649   1.648  23.539
16973SOL     OW62546   2.501   0.138  23.325
16973SOL    HW162547   2.505   0.230  23.352
16973SOL    HW262548   2.588   0.104  23.344
16974SOL     OW62549   3.830   1.712  23.962
16974SOL    HW162550   3.876   1.771  23.902
16974SOL    HW262551   3.899   1.660  24.003
16975SOL     OW62552   1.152   2.919  28.341
16975SOL    HW162553   1.099   2.889  28.415
16975SOL    HW262554   1.207   2.844  28.319
16976SOL     OW62555   0.391   3.510  27.661
16976SOL    HW162556   0.376   3.494  27.754
16976SOL    HW262557   0.335   3.584  27.640
16977SOL     OW62558   2.018   2.142  12.822
16977SOL    HW162559   2.051   2.136  12.912
16977SOL    HW262560   2.020   2.052  12.790
16978SOL     OW62561   0.149   0.749  22.264
16978SOL    HW162562   0.092   0.674  22.280
16978SOL    HW262563   0.238   0.714  22.270
16979SOL     OW62564   4.521   2.634  21.409
16979SOL    HW162565   4.615   2.622  21.396
16979SOL    HW262566   4.480   2.574  21.346
16980SOL     OW62567   1.730   3.627  22.084
16980SOL    HW162568   1.724   3.599  22.175
16980SOL    HW262569   1.642   3.659  22.063
16981SOL     OW62570   4.393   4.493   0.142
16981SOL    HW162571   4.397   4.526   0.052
16981SOL    HW262572   4.312   4.443   0.146
16982SOL     OW62573   4.138   4.193  24.463
16982SOL    HW162574   4.043   4.183  24.462
16982SOL    HW262575   4.157   4.248  24.387
16983SOL     OW62576   2.846   1.803   8.568
16983SOL    HW162577   2.920   1.793   8.629
16983SOL    HW262578   2.774   1.756   8.610
16984SOL     OW62579   4.575   3.151  23.270
16984SOL    HW162580   4.660   3.170  23.230
16984SOL    HW262581   4.518   3.128  23.197
16985SOL     OW62582   3.160   1.009  25.367
16985SOL    HW162583   3.183   0.931  25.417
16985SOL    HW262584   3.227   1.015  25.299
16986SOL     OW62585   1.369   1.888  22.132
16986SOL    HW162586   1.355   1.882  22.227
16986SOL    HW262587   1.283   1.872  22.094
16987SOL     OW62588   0.250   3.238   1.128
16987SOL    HW162589   0.246   3.196   1.214
16987SOL    HW262590   0.160   3.233   1.095
16988SOL     OW62591   0.566   0.831   9.748
16988SOL    HW162592   0.475   0.843   9.721
16988SOL    HW262593   0.582   0.737   9.740
16989SOL     OW62594   3.967   1.613   6.370
16989SOL    HW162595   3.961   1.653   6.283
16989SOL    HW262596   3.944   1.521   6.355
16990SOL     OW62597   3.877   2.371  24.203
16990SOL    HW162598   3.907   2.389  24.114
16990SOL    HW262599   3.956   2.346  24.250
16991SOL     OW62600   4.489   1.506  23.277
16991SOL    HW162601   4.559   1.442  23.286
16991SOL    HW262602   4.534   1.586  23.250
16992SOL     OW62603   3.428   1.113  21.368
16992SOL    HW162604   3.452   1.128  21.277
16992SOL    HW262605   3.345   1.160  21.380
16993SOL     OW62606   3.775   1.445  27.435
16993SOL    HW162607   3.815   1.369  27.393
16993SOL    HW262608   3.692   1.457  27.389
16994SOL     OW62609   4.245   1.102  18.050
16994SOL    HW162610   4.319   1.057  18.009
16994SOL    HW262611   4.211   1.039  18.113
16995SOL     OW62612   0.172   2.107  26.219
16995SOL    HW162613   0.178   2.017  26.251
16995SOL    HW262614   0.207   2.161  26.290
16996SOL     OW62615   3.446   2.006  20.503
16996SOL    HW162616   3.508   2.041  20.439
16996SOL    HW262617   3.381   2.076  20.513
16997SOL     OW62618   1.188   1.338   3.466
16997SOL    HW162619   1.278   1.365   3.487
16997SOL    HW262620   1.159   1.402   3.401
16998SOL     OW62621   3.361   3.093   4.185
16998SOL    HW162622   3.312   3.019   4.150
16998SOL    HW262623   3.360   3.080   4.280
16999SOL     OW62624   4.534   4.398  26.046
16999SOL    HW162625   4.628   4.391  26.062
16999SOL    HW262626   4.494   4.349  26.118
17000SOL     OW62627   1.946   1.531  28.192
17000SOL    HW162628   1.892   1.542  28.270
17000SOL    HW262629   1.901   1.464  28.141
17001SOL     OW62630   2.517   3.859  20.893
17001SOL    HW162631   2.527   3.952  20.872
17001SOL    HW262632   2.571   3.846  20.971
17002SOL     OW62633   3.319   2.324   0.824
17002SOL    HW162634   3.373   2.403   0.825
17002SOL    HW262635   3.327   2.289   0.913
17003SOL     OW62636   1.949   2.384   5.460
17003SOL    HW162637   1.906   2.298   5.457
17003SOL    HW262638   2.009   2.378   5.535
17004SOL     OW62639   2.819   3.234  11.245
17004SOL    HW162640   2.875   3.274  11.312
17004SOL    HW262641   2.842   3.141  11.247
17005SOL     OW62642   4.476   1.158  24.105
17005SOL    HW162643   4.433   1.242  24.089
17005SOL    HW262644   4.427   1.095  24.053
17006SOL     OW62645   1.267   1.820  19.607
17006SOL    HW162646   1.332   1.868  19.658
17006SOL    HW262647   1.225   1.762  19.670
17007SOL     OW62648   0.871   3.145   8.374
17007SOL    HW162649   0.934   3.150   8.446
17007SOL    HW262650   0.802   3.207   8.398
17008SOL     OW62651   0.480   3.810   3.098
17008SOL    HW162652   0.533   3.886   3.120
17008SOL    HW262653   0.438   3.785   3.180
17009SOL     OW62654   3.650   0.026  24.713
17009SOL    HW162655   3.556   0.038  24.701
17009SOL    HW262656   3.688   0.048  24.628
17010SOL     OW62657   2.880   0.318  22.154
17010SOL    HW162658   2.785   0.316  22.166
17010SOL    HW262659   2.908   0.228  22.171
17011SOL     OW62660   2.074   0.885  26.080
17011SOL    HW162661   2.035   0.833  26.150
17011SOL    HW262662   2.144   0.830  26.045
17012SOL     OW62663   3.355   1.027  22.528
17012SOL    HW162664   3.424   1.085  22.559
17012SOL    HW262665   3.400   0.945  22.508
17013SOL     OW62666   4.659   4.051  23.379
17013SOL    HW162667   4.573   4.009  23.382
17013SOL    HW262668   4.662   4.106  23.457
17014SOL     OW62669   3.241   2.287  23.846
17014SOL    HW162670   3.237   2.248  23.759
17014SOL    HW262671   3.260   2.379  23.831
17015SOL     OW62672   0.904   2.041  27.844
17015SOL    HW162673   0.903   2.034  27.939
17015SOL    HW262674   0.995   2.025  27.820
17016SOL     OW62675   3.495   2.364  17.550
17016SOL    HW162676   3.526   2.293  17.494
17016SOL    HW262677   3.515   2.444  17.501
17017SOL     OW62678   1.351   0.244  13.066
17017SOL    HW162679   1.327   0.334  13.086
17017SOL    HW262680   1.279   0.211  13.013
17018SOL     OW62681   0.238   2.441   1.090
17018SOL    HW162682   0.246   2.374   1.022
17018SOL    HW262683   0.198   2.515   1.045
17019SOL     OW62684   3.856   0.063  21.306
17019SOL    HW162685   3.811   0.091  21.386
17019SOL    HW262686   3.877   0.145  21.261
17020SOL     OW62687   0.158   1.997  23.126
17020SOL    HW162688   0.190   1.907  23.123
17020SOL    HW262689   0.124   2.014  23.038
17021SOL     OW62690   4.723   1.419   0.776
17021SOL    HW162691   4.651   1.459   0.728
17021SOL    HW262692   0.019   1.471   0.753
17022SOL     OW62693   1.084   2.221   6.080
17022SOL    HW162694   1.067   2.199   5.988
17022SOL    HW262695   1.178   2.238   6.084
17023SOL     OW62696   3.605   0.159   7.071
17023SOL    HW162697   3.643   0.247   7.077
17023SOL    HW262698   3.540   0.165   7.001
17024SOL     OW62699   4.156   2.198   4.842
17024SOL    HW162700   4.231   2.245   4.805
17024SOL    HW262701   4.188   2.164   4.926
17025SOL     OW62702   1.981   0.849   0.274
17025SOL    HW162703   1.992   0.944   0.272
17025SOL    HW262704   1.906   0.834   0.331
17026SOL     OW62705   3.572   1.118  24.485
17026SOL    HW162706   3.494   1.169  24.507
17026SOL    HW262707   3.596   1.075  24.567
17027SOL     OW62708   1.896   1.266  27.270
17027SOL    HW162709   1.834   1.287  27.200
17027SOL    HW262710   1.943   1.189  27.238
17028SOL     OW62711   1.492   2.772   3.430
17028SOL    HW162712   1.496   2.836   3.501
17028SOL    HW262713   1.414   2.720   3.448
17029SOL     OW62714   1.948   1.992   4.568
17029SOL    HW162715   1.884   2.039   4.622
17029SOL    HW262716   2.032   2.033   4.589
17030SOL     OW62717   2.910   0.084  19.316
17030SOL    HW162718   3.002   0.099  19.336
17030SOL    HW262719   2.893   0.139  19.240
17031SOL     OW62720   4.130   4.348  22.164
17031SOL    HW162721   4.041   4.326  22.191
17031SOL    HW262722   4.184   4.276  22.198
17032SOL     OW62723   4.597   3.490   1.740
17032SOL    HW162724   4.581   3.420   1.676
17032SOL    HW262725   4.625   3.444   1.819
17033SOL     OW62726   0.055   3.944   2.861
17033SOL    HW162727   4.777   3.931   2.935
17033SOL    HW262728   0.141   3.957   2.901
17034SOL     OW62729   3.808   3.244  10.998
17034SOL    HW162730   3.833   3.247  11.090
17034SOL    HW262731   3.880   3.197  10.955
17035SOL     OW62732   3.090   3.185  20.564
17035SOL    HW162733   3.113   3.105  20.610
17035SOL    HW262734   3.106   3.255  20.628
17036SOL     OW62735   4.676   0.411   5.077
17036SOL    HW162736   4.732   0.471   5.125
17036SOL    HW262737   4.601   0.464   5.050
17037SOL     OW62738   3.298   2.928  26.888
17037SOL    HW162739   3.341   2.888  26.813
17037SOL    HW262740   3.354   2.906  26.963
17038SOL     OW62741   0.890   2.120   8.534
17038SOL    HW162742   0.805   2.077   8.539
17038SOL    HW262743   0.922   2.100   8.446
17039SOL     OW62744   4.759   0.330   2.102
17039SOL    HW162745   0.033   0.322   2.180
17039SOL    HW262746   0.003   0.255   2.047
17040SOL     OW62747   3.006   4.752  27.731
17040SOL    HW162748   3.097   4.732  27.710
17040SOL    HW262749   2.960   4.670  27.715
17041SOL     OW62750   4.733   4.393   1.097
17041SOL    HW162751   4.753   4.358   1.010
17041SOL    HW262752   4.684   4.323   1.140
17042SOL     OW62753   3.845   1.443  22.190
17042SOL    HW162754   3.889   1.492  22.260
17042SOL    HW262755   3.791   1.379  22.236
17043SOL     OW62756   3.287   1.563   8.328
17043SOL    HW162757   3.372   1.520   8.319
17043SOL    HW262758   3.259   1.579   8.238
17044SOL     OW62759   2.044   2.075  23.752
17044SOL    HW162760   1.986   2.047  23.681
17044SOL    HW262761   1.988   2.075  23.830
17045SOL     OW62762   4.678   0.124  25.559
17045SOL    HW162763   4.716   0.116  25.647
17045SOL    HW262764   4.596   0.172  25.572
17046SOL     OW62765   4.159   3.363   6.398
17046SOL    HW162766   4.075   3.397   6.366
17046SOL    HW262767   4.219   3.374   6.324
17047SOL     OW62768   3.152   0.856   8.868
17047SOL    HW162769   3.059   0.879   8.861
17047SOL    HW262770   3.189   0.881   8.784
17048SOL     OW62771   0.720   2.331   2.931
17048SOL    HW162772   0.734   2.420   2.963
17048SOL    HW262773   0.715   2.340   2.836
17049SOL     OW62774   1.776   4.082   4.626
17049SOL    HW162775   1.865   4.068   4.594
17049SOL    HW262776   1.723   4.018   4.579
17050SOL     OW62777   4.194   1.456  20.934
17050SOL    HW162778   4.273   1.440  20.883
17050SOL    HW262779   4.222   1.516  21.004
17051SOL     OW62780   4.345   1.741   7.401
17051SOL    HW162781   4.278   1.741   7.470
17051SOL    HW262782   4.295   1.744   7.319
17052SOL     OW62783   4.708   2.794   4.005
17052SOL    HW162784   4.635   2.745   3.966
17052SOL    HW262785   4.728   2.862   3.941
17053SOL     OW62786   4.598   4.187   1.199
17053SOL    HW162787   4.516   4.192   1.248
17053SOL    HW262788   4.651   4.124   1.248
17054SOL     OW62789   4.540   3.608   8.902
17054SOL    HW162790   4.510   3.694   8.874
17054SOL    HW262791   4.616   3.626   8.958
17055SOL     OW62792   3.990   0.423  24.467
17055SOL    HW162793   3.903   0.459  24.450
17055SOL    HW262794   4.049   0.498  24.458
17056SOL     OW62795   3.529   0.755   9.435
17056SOL    HW162796   3.592   0.683   9.437
17056SOL    HW262797   3.457   0.725   9.491
17057SOL     OW62798   0.089   1.550  17.712
17057SOL    HW162799   0.136   1.630  17.734
17057SOL    HW262800   0.006   1.557  17.759
17058SOL     OW62801   1.527   3.088   7.805
17058SOL    HW162802   1.573   3.160   7.762
17058SOL    HW262803   1.585   3.013   7.795
17059SOL     OW62804   0.541   2.855  20.501
17059SOL    HW162805   0.506   2.907  20.429
17059SOL    HW262806   0.622   2.818  20.467
17060SOL     OW62807   3.516   0.977   3.465
17060SOL    HW162808   3.467   1.056   3.442
17060SOL    HW262809   3.451   0.920   3.507
17061SOL     OW62810   3.290   2.718  22.502
17061SOL    HW162811   3.227   2.707  22.431
17061SOL    HW262812   3.257   2.793  22.552
17062SOL     OW62813   1.506   0.203  10.025
17062SOL    HW162814   1.476   0.244  10.106
17062SOL    HW262815   1.439   0.227   9.961
17063SOL     OW62816   2.289   0.301  21.679
17063SOL    HW162817   2.197   0.328  21.669
17063SOL    HW262818   2.309   0.316  21.771
17064SOL     OW62819   1.332   1.694  26.915
17064SOL    HW162820   1.398   1.633  26.948
17064SOL    HW262821   1.261   1.690  26.979
17065SOL     OW62822   0.770   2.701  26.065
17065SOL    HW162823   0.678   2.677  26.056
17065SOL    HW262824   0.770   2.771  26.130
17066SOL     OW62825   2.059   2.834   3.994
17066SOL    HW162826   2.079   2.874   3.910
17066SOL    HW262827   2.069   2.905   4.057
17067SOL     OW62828   2.686   3.844   3.830
17067SOL    HW162829   2.771   3.874   3.797
17067SOL    HW262830   2.682   3.751   3.806
17068SOL     OW62831   3.970   0.309  22.245
17068SOL    HW162832   3.953   0.381  22.306
17068SOL    HW262833   4.064   0.314  22.229
17069SOL     OW62834   2.737   1.617   0.221
17069SOL    HW162835   2.780   1.672   0.287
17069SOL    HW262836   2.695   1.679   0.162
17070SOL     OW62837   2.297   1.859  21.797
17070SOL    HW162838   2.231   1.827  21.736
17070SOL    HW262839   2.300   1.793  21.866
17071SOL     OW62840   2.238   1.359  21.909
17071SOL    HW162841   2.197   1.381  21.992
17071SOL    HW262842   2.165   1.339  21.850
17072SOL     OW62843   0.015   1.190   6.537
17072SOL    HW162844   0.040   1.210   6.627
17072SOL    HW262845   4.708   1.226   6.528
17073SOL     OW62846   0.667   1.850   8.466
17073SOL    HW162847   0.641   1.907   8.538
17073SOL    HW262848   0.708   1.774   8.508
17074SOL     OW62849   4.265   1.811  26.116
17074SOL    HW162850   4.230   1.735  26.162
17074SOL    HW262851   4.339   1.777  26.066
17075SOL     OW62852   4.529   2.505  25.572
17075SOL    HW162853   4.537   2.531  25.664
17075SOL    HW262854   4.438   2.523  25.549
17076SOL     OW62855   4.114   2.915  24.482
17076SOL    HW162856   4.081   2.833  24.444
17076SOL    HW262857   4.148   2.890  24.568
17077SOL     OW62858   3.256   4.388   1.958
17077SOL    HW162859   3.166   4.374   1.987
17077SOL    HW262860   3.266   4.483   1.956
17078SOL     OW62861   3.869   4.198  20.768
17078SOL    HW162862   3.823   4.201  20.852
17078SOL    HW262863   3.951   4.152  20.787
17079SOL     OW62864   2.157   4.448   4.865
17079SOL    HW162865   2.072   4.489   4.879
17079SOL    HW262866   2.142   4.385   4.794
17080SOL     OW62867   1.841   1.654  23.641
17080SOL    HW162868   1.797   1.717  23.584
17080SOL    HW262869   1.868   1.705  23.717
17081SOL     OW62870   4.760   1.988   3.659
17081SOL    HW162871   0.043   2.010   3.727
17081SOL    HW262872   4.748   2.070   3.610
17082SOL     OW62873   0.184   2.212  18.513
17082SOL    HW162874   0.214   2.187  18.600
17082SOL    HW262875   0.102   2.163  18.502
17083SOL     OW62876   0.782   1.394  27.109
17083SOL    HW162877   0.859   1.443  27.079
17083SOL    HW262878   0.816   1.307  27.130
17084SOL     OW62879   3.148   1.213   0.159
17084SOL    HW162880   3.084   1.160   0.113
17084SOL    HW262881   3.138   1.188   0.251
17085SOL     OW62882   3.922   0.506  27.447
17085SOL    HW162883   3.843   0.513  27.393
17085SOL    HW262884   3.929   0.591  27.490
17086SOL     OW62885   3.473   2.412  23.628
17086SOL    HW162886   3.510   2.465  23.698
17086SOL    HW262887   3.535   2.421  23.556
17087SOL     OW62888   1.120   2.759  21.071
17087SOL    HW162889   1.163   2.788  20.990
17087SOL    HW262890   1.028   2.781  21.059
17088SOL     OW62891   2.244   2.460  26.970
17088SOL    HW162892   2.182   2.411  27.024
17088SOL    HW262893   2.266   2.537  27.023
17089SOL     OW62894   4.201   2.280  18.168
17089SOL    HW162895   4.280   2.264  18.220
17089SOL    HW262896   4.234   2.302  18.081
17090SOL     OW62897   4.216   1.085   4.157
17090SOL    HW162898   4.133   1.080   4.204
17090SOL    HW262899   4.191   1.096   4.065
17091SOL     OW62900   3.541   1.577   9.067
17091SOL    HW162901   3.599   1.506   9.041
17091SOL    HW262902   3.560   1.592   9.160
17092SOL     OW62903   4.233   3.115   5.597
17092SOL    HW162904   4.313   3.167   5.599
17092SOL    HW262905   4.163   3.179   5.609
17093SOL     OW62906   4.159   4.727  21.093
17093SOL    HW162907   4.150   4.763  21.005
17093SOL    HW262908   4.075   4.686  21.110
17094SOL     OW62909   0.530   4.177  22.871
17094SOL    HW162910   0.531   4.089  22.909
17094SOL    HW262911   0.572   4.167  22.786
17095SOL     OW62912   1.132   0.736   7.039
17095SOL    HW162913   1.195   0.692   7.096
17095SOL    HW262914   1.081   0.792   7.098
17096SOL     OW62915   2.285   4.764   6.940
17096SOL    HW162916   2.231   4.762   7.019
17096SOL    HW262917   2.280   0.074   6.910
17097SOL     OW62918   3.611   0.989   9.273
17097SOL    HW162919   3.561   1.068   9.254
17097SOL    HW262920   3.571   0.954   9.353
17098SOL     OW62921   2.472   2.024  27.165
17098SOL    HW162922   2.536   2.086  27.130
17098SOL    HW262923   2.479   1.947  27.108
17099SOL     OW62924   3.021   2.906  19.738
17099SOL    HW162925   3.103   2.872  19.701
17099SOL    HW262926   3.024   2.880  19.830
17100SOL     OW62927   4.068   4.056  11.227
17100SOL    HW162928   4.084   3.995  11.299
17100SOL    HW262929   4.032   4.134  11.269
17101SOL     OW62930   3.379   2.119  12.880
17101SOL    HW162931   3.368   2.187  12.946
17101SOL    HW262932   3.349   2.039  12.923
17102SOL     OW62933   3.768   0.168  27.145
17102SOL    HW162934   3.854   0.151  27.107
17102SOL    HW262935   3.743   0.085  27.186
17103SOL     OW62936   0.657   3.787  26.156
17103SOL    HW162937   0.666   3.739  26.073
17103SOL    HW262938   0.630   3.875  26.130
17104SOL     OW62939   2.195   1.987   7.928
17104SOL    HW162940   2.197   2.070   7.976
17104SOL    HW262941   2.278   1.985   7.881
17105SOL     OW62942   0.914   0.490  23.616
17105SOL    HW162943   0.833   0.459  23.575
17105SOL    HW262944   0.948   0.555  23.555
17106SOL     OW62945   4.244   4.055  20.704
17106SOL    HW162946   4.231   3.974  20.655
17106SOL    HW262947   4.204   4.038  20.790
17107SOL     OW62948   0.856   0.482   4.536
17107SOL    HW162949   0.876   0.529   4.617
17107SOL    HW262950   0.906   0.401   4.543
17108SOL     OW62951   4.121   2.876   8.093
17108SOL    HW162952   4.152   2.786   8.100
17108SOL    HW262953   4.119   2.893   7.999
17109SOL     OW62954   1.955   2.135   0.582
17109SOL    HW162955   1.996   2.049   0.577
17109SOL    HW262956   2.017   2.189   0.631
17110SOL     OW62957   2.425   1.619  17.840
17110SOL    HW162958   2.363   1.549  17.821
17110SOL    HW262959   2.379   1.676  17.902
17111SOL     OW62960   0.403   3.167   7.737
17111SOL    HW162961   0.426   3.209   7.820
17111SOL    HW262962   0.357   3.235   7.688
17112SOL     OW62963   3.677   2.096  11.872
17112SOL    HW162964   3.631   2.063  11.949
17112SOL    HW262965   3.665   2.191  11.876
17113SOL     OW62966   0.949   1.661  27.991
17113SOL    HW162967   0.944   1.615  27.907
17113SOL    HW262968   1.007   1.607  28.045
17114SOL     OW62969   2.496   2.959  27.357
17114SOL    HW162970   2.568   2.982  27.416
17114SOL    HW262971   2.538   2.912  27.285
17115SOL     OW62972   1.290   1.480   0.294
17115SOL    HW162973   1.306   1.524   0.378
17115SOL    HW262974   1.277   1.388   0.317
17116SOL     OW62975   2.664   4.778   4.675
17116SOL    HW162976   2.642   4.731   4.755
17116SOL    HW262977   2.674   4.710   4.609
17117SOL     OW62978   1.367   0.304   7.523
17117SOL    HW162979   1.406   0.381   7.482
17117SOL    HW262980   1.389   0.232   7.464
17118SOL     OW62981   1.249   1.317   1.123
17118SOL    HW162982   1.219   1.403   1.094
17118SOL    HW262983   1.293   1.280   1.047
17119SOL     OW62984   4.389   0.756  21.562
17119SOL    HW162985   4.475   0.733  21.526
17119SOL    HW262986   4.345   0.672  21.576
17120SOL     OW62987   2.319   3.789  27.286
17120SOL    HW162988   2.289   3.837  27.208
17120SOL    HW262989   2.266   3.709  27.287
17121SOL     OW62990   4.591   4.335  11.142
17121SOL    HW162991   4.570   4.390  11.217
17121SOL    HW262992   4.509   4.290  11.122
17122SOL     OW62993   4.029   4.520   7.937
17122SOL    HW162994   4.007   4.564   7.855
17122SOL    HW262995   4.004   4.583   8.005
17123SOL     OW62996   2.150   0.700   2.869
17123SOL    HW162997   2.125   0.689   2.961
17123SOL    HW262998   2.239   0.736   2.873
17124SOL     OW62999   0.916   0.751   1.307
17124SOL    HW163000   0.876   0.665   1.319
17124SOL    HW263001   0.932   0.757   1.213
17125SOL     OW63002   2.213   2.622   0.341
17125SOL    HW163003   2.210   2.529   0.362
17125SOL    HW263004   2.302   2.649   0.365
17126SOL     OW63005   2.835   0.390  24.311
17126SOL    HW163006   2.810   0.404  24.220
17126SOL    HW263007   2.929   0.407  24.313
17127SOL     OW63008   1.863   0.255   8.583
17127SOL    HW163009   1.888   0.315   8.653
17127SOL    HW263010   1.791   0.299   8.538
17128SOL     OW63011   3.665   1.516   6.334
17128SOL    HW163012   3.731   1.450   6.354
17128SOL    HW263013   3.630   1.489   6.249
17129SOL     OW63014   4.328   3.105  21.418
17129SOL    HW163015   4.364   3.086  21.331
17129SOL    HW263016   4.382   3.054  21.478
17130SOL     OW63017   2.988   0.637  27.214
17130SOL    HW163018   2.999   0.712  27.272
17130SOL    HW263019   3.027   0.664  27.131
17131SOL     OW63020   0.340   1.829  17.028
17131SOL    HW163021   0.331   1.880  17.108
17131SOL    HW263022   0.414   1.868  16.982
17132SOL     OW63023   2.125   0.131   7.143
17132SOL    HW163024   2.192   0.195   7.121
17132SOL    HW263025   2.143   0.108   7.234
17133SOL     OW63026   3.819   4.234  21.065
17133SOL    HW163027   3.767   4.226  21.145
17133SOL    HW263028   3.908   4.254  21.095
17134SOL     OW63029   2.517   2.205   5.359
17134SOL    HW163030   2.430   2.243   5.348
17134SOL    HW263031   2.501   2.123   5.405
17135SOL     OW63032   4.737   2.620   3.734
17135SOL    HW163033   0.009   2.565   3.792
17135SOL    HW263034   0.011   2.697   3.717
17136SOL     OW63035   4.036   0.805   7.672
17136SOL    HW163036   4.082   0.779   7.752
17136SOL    HW263037   4.083   0.759   7.602
17137SOL     OW63038   4.187   3.118  26.063
17137SOL    HW163039   4.131   3.163  26.000
17137SOL    HW263040   4.202   3.182  26.132
17138SOL     OW63041   3.920   2.074   9.777
17138SOL    HW163042   3.877   2.112   9.854
17138SOL    HW263043   3.932   2.148   9.717
17139SOL     OW63044   3.566   4.224  27.399
17139SOL    HW163045   3.603   4.152  27.348
17139SOL    HW263046   3.642   4.269  27.437
17140SOL     OW63047   0.480   4.659   0.984
17140SOL    HW163048   0.469   4.747   0.949
17140SOL    HW263049   0.412   4.651   1.051
17141SOL     OW63050   2.404   1.131  25.459
17141SOL    HW163051   2.352   1.091  25.389
17141SOL    HW263052   2.343   1.191  25.503
17142SOL     OW63053   2.038   3.346  20.551
17142SOL    HW163054   2.073   3.267  20.510
17142SOL    HW263055   1.959   3.317  20.596
17143SOL     OW63056   0.357   0.862   3.851
17143SOL    HW163057   0.360   0.809   3.930
17143SOL    HW263058   0.420   0.932   3.867
17144SOL     OW63059   3.145   2.891   6.480
17144SOL    HW163060   3.087   2.925   6.411
17144SOL    HW263061   3.126   2.797   6.484
17145SOL     OW63062   1.815   1.029  20.222
17145SOL    HW163063   1.796   1.059  20.311
17145SOL    HW263064   1.751   1.073  20.167
17146SOL     OW63065   2.875   2.797  28.276
17146SOL    HW163066   2.946   2.842  28.322
17146SOL    HW263067   2.918   2.727  28.227
17147SOL     OW63068   3.712   3.417  25.514
17147SOL    HW163069   3.637   3.470  25.487
17147SOL    HW263070   3.753   3.391  25.432
17148SOL     OW63071   2.560   1.235  23.410
17148SOL    HW163072   2.494   1.297  23.442
17148SOL    HW263073   2.594   1.275  23.330
17149SOL     OW63074   4.088   0.326   6.646
17149SOL    HW163075   4.158   0.366   6.595
17149SOL    HW263076   4.007   0.358   6.605
17150SOL     OW63077   3.089   1.186  25.582
17150SOL    HW163078   3.030   1.116  25.554
17150SOL    HW263079   3.163   1.141  25.623
17151SOL     OW63080   1.680   0.584  19.584
17151SOL    HW163081   1.621   0.509  19.593
17151SOL    HW263082   1.735   0.562  19.509
17152SOL     OW63083   0.387   4.441   5.564
17152SOL    HW163084   0.378   4.448   5.469
17152SOL    HW263085   0.397   4.347   5.580
17153SOL     OW63086   0.035   1.167   8.958
17153SOL    HW163087   0.130   1.158   8.955
17153SOL    HW263088   0.004   1.125   8.878
17154SOL     OW63089   3.392   0.403   3.661
17154SOL    HW163090   3.358   0.348   3.732
17154SOL    HW263091   3.317   0.416   3.603
17155SOL     OW63092   1.096   4.580   6.509
17155SOL    HW163093   1.159   4.643   6.474
17155SOL    HW263094   1.148   4.523   6.566
17156SOL     OW63095   2.631   3.766   7.459
17156SOL    HW163096   2.551   3.779   7.510
17156SOL    HW263097   2.702   3.772   7.523
17157SOL     OW63098   2.492   0.478   5.196
17157SOL    HW163099   2.541   0.514   5.270
17157SOL    HW263100   2.434   0.549   5.170
17158SOL     OW63101   2.020   1.247   3.649
17158SOL    HW163102   2.032   1.223   3.557
17158SOL    HW263103   1.993   1.339   3.646
17159SOL     OW63104   1.999   2.276   6.710
17159SOL    HW163105   1.927   2.221   6.741
17159SOL    HW263106   1.964   2.319   6.632
17160SOL     OW63107   2.175   1.495  25.993
17160SOL    HW163108   2.182   1.588  26.017
17160SOL    HW263109   2.153   1.451  26.075
17161SOL     OW63110   1.761   2.041  24.541
17161SOL    HW163111   1.775   1.962  24.593
17161SOL    HW263112   1.844   2.088  24.545
17162SOL     OW63113   3.572   1.279  22.927
17162SOL    HW163114   3.617   1.196  22.946
17162SOL    HW263115   3.622   1.345  22.975
17163SOL     OW63116   3.798   0.894  26.384
17163SOL    HW163117   3.894   0.893  26.382
17163SOL    HW263118   3.775   0.850  26.466
17164SOL     OW63119   2.030   1.903   2.700
17164SOL    HW163120   1.996   1.903   2.611
17164SOL    HW263121   2.125   1.905   2.690
17165SOL     OW63122   4.576   1.974  18.085
17165SOL    HW163123   4.655   1.928  18.055
17165SOL    HW263124   4.525   1.907  18.129
17166SOL     OW63125   4.402   2.705  21.661
17166SOL    HW163126   4.336   2.637  21.674
17166SOL    HW263127   4.475   2.660  21.618
17167SOL     OW63128   2.912   3.393  26.615
17167SOL    HW163129   2.942   3.440  26.537
17167SOL    HW263130   2.944   3.445  26.688
17168SOL     OW63131   1.448   3.537  24.798
17168SOL    HW163132   1.492   3.527  24.882
17168SOL    HW263133   1.439   3.448  24.765
17169SOL     OW63134   2.967   3.343  28.458
17169SOL    HW163135   2.984   3.432  28.428
17169SOL    HW263136   2.970   3.290  28.379
17170SOL     OW63137   2.127   2.470   5.646
17170SOL    HW163138   2.070   2.521   5.704
17170SOL    HW263139   2.129   2.521   5.565
17171SOL     OW63140   2.715   0.585   3.994
17171SOL    HW163141   2.672   0.617   4.073
17171SOL    HW263142   2.672   0.501   3.976
17172SOL     OW63143   1.080   3.480   5.465
17172SOL    HW163144   1.140   3.521   5.528
17172SOL    HW263145   1.010   3.444   5.519
17173SOL     OW63146   2.042   0.502   3.908
17173SOL    HW163147   1.957   0.545   3.913
17173SOL    HW263148   2.032   0.423   3.962
17174SOL     OW63149   1.356   4.527  21.873
17174SOL    HW163150   1.403   4.568  21.946
17174SOL    HW263151   1.266   4.557  21.884
17175SOL     OW63152   2.355   1.062   9.409
17175SOL    HW163153   2.288   0.994   9.399
17175SOL    HW263154   2.333   1.104   9.492
17176SOL     OW63155   3.973   4.756   1.882
17176SOL    HW163156   4.016   0.053   1.846
17176SOL    HW263157   3.995   4.758   1.975
17177SOL     OW63158   4.776   3.326   2.367
17177SOL    HW163159   0.038   3.252   2.323
17177SOL    HW263160   0.013   3.312   2.460
17178SOL     OW63161   2.026   1.119   8.994
17178SOL    HW163162   2.113   1.158   9.003
17178SOL    HW263163   2.043   1.029   8.967
17179SOL     OW63164   1.467   1.654   9.161
17179SOL    HW163165   1.448   1.734   9.210
17179SOL    HW263166   1.561   1.658   9.144
17180SOL     OW63167   2.744   3.132   1.172
17180SOL    HW163168   2.799   3.167   1.101
17180SOL    HW263169   2.678   3.200   1.186
17181SOL     OW63170   2.713   4.387  21.328
17181SOL    HW163171   2.674   4.435  21.401
17181SOL    HW263172   2.650   4.318  21.308
17182SOL     OW63173   0.476   1.093  26.892
17182SOL    HW163174   0.445   1.177  26.858
17182SOL    HW263175   0.407   1.064  26.952
17183SOL     OW63176   1.613   3.715  23.874
17183SOL    HW163177   1.690   3.772  23.879
17183SOL    HW263178   1.551   3.754  23.936
17184SOL     OW63179   2.595   2.261  11.241
17184SOL    HW163180   2.554   2.194  11.295
17184SOL    HW263181   2.689   2.249  11.256
17185SOL     OW63182   1.096   4.098  21.001
17185SOL    HW163183   1.185   4.079  20.972
17185SOL    HW263184   1.104   4.178  21.052
17186SOL     OW63185   0.047   0.718   1.305
17186SOL    HW163186   0.096   0.643   1.271
17186SOL    HW263187   4.743   0.681   1.330
17187SOL     OW63188   0.479   3.693   1.796
17187SOL    HW163189   0.394   3.656   1.820
17187SOL    HW263190   0.516   3.631   1.734
17188SOL     OW63191   2.757   2.008  26.494
17188SOL    HW163192   2.705   2.086  26.513
17188SOL    HW263193   2.826   2.008  26.560
17189SOL     OW63194   1.109   1.951  22.254
17189SOL    HW163195   1.059   1.903  22.320
17189SOL    HW263196   1.091   1.904  22.172
17190SOL     OW63197   0.484   2.823  12.570
17190SOL    HW163198   0.463   2.740  12.613
17190SOL    HW263199   0.463   2.809  12.478
17191SOL     OW63200   0.623   3.248  23.574
17191SOL    HW163201   0.543   3.202  23.599
17191SOL    HW263202   0.690   3.211  23.631
17192SOL     OW63203   1.709   1.238  22.375
17192SOL    HW163204   1.634   1.214  22.320
17192SOL    HW263205   1.723   1.331  22.358
17193SOL     OW63206   4.286   1.633  21.457
17193SOL    HW163207   4.352   1.588  21.510
17193SOL    HW263208   4.210   1.575  21.459
17194SOL     OW63209   0.211   2.288   9.255
17194SOL    HW163210   0.280   2.262   9.316
17194SOL    HW263211   0.153   2.212   9.250
17195SOL     OW63212   1.478   2.155  24.022
17195SOL    HW163213   1.501   2.064  24.001
17195SOL    HW263214   1.553   2.189  24.070
17196SOL     OW63215   4.593   0.435  23.768
17196SOL    HW163216   4.566   0.517  23.728
17196SOL    HW263217   4.562   0.441  23.858
17197SOL     OW63218   4.114   3.859   7.233
17197SOL    HW163219   4.071   3.923   7.176
17197SOL    HW263220   4.052   3.786   7.238
17198SOL     OW63221   0.330   1.183   3.452
17198SOL    HW163222   0.286   1.264   3.428
17198SOL    HW263223   0.422   1.199   3.433
17199SOL     OW63224   0.856   0.170   5.131
17199SOL    HW163225   0.836   0.130   5.215
17199SOL    HW263226   0.787   0.236   5.118
17200SOL     OW63227   4.731   0.490  19.494
17200SOL    HW163228   4.724   0.584  19.478
17200SOL    HW263229   4.666   0.472  19.562
17201SOL     OW63230   2.744   2.788  12.431
17201SOL    HW163231   2.704   2.729  12.495
17201SOL    HW263232   2.776   2.861  12.484
17202SOL     OW63233   0.503   1.574  20.587
17202SOL    HW163234   0.515   1.622  20.669
17202SOL    HW263235   0.412   1.591  20.563
17203SOL     OW63236   1.851   2.580  12.463
17203SOL    HW163237   1.788   2.650  12.447
17203SOL    HW263238   1.887   2.599  12.550
17204SOL     OW63239   4.003   2.939   2.942
17204SOL    HW163240   3.923   2.958   2.991
17204SOL    HW263241   4.019   2.846   2.958
17205SOL     OW63242   4.706   1.991  20.200
17205SOL    HW163243   4.768   1.930  20.159
17205SOL    HW263244   4.726   1.986  20.293
17206SOL     OW63245   1.971   1.039  21.943
17206SOL    HW163246   1.898   0.981  21.964
17206SOL    HW263247   2.027   0.988  21.885
17207SOL     OW63248   0.138   0.456   5.781
17207SOL    HW163249   0.099   0.543   5.785
17207SOL    HW263250   0.170   0.440   5.870
17208SOL     OW63251   0.247   3.711  12.167
17208SOL    HW163252   0.185   3.775  12.201
17208SOL    HW263253   0.328   3.761  12.154
17209SOL     OW63254   3.972   3.970   0.020
17209SOL    HW163255   3.912   4.007   0.084
17209SOL    HW263256   3.982   4.038  28.476
17210SOL     OW63257   2.905   4.403  24.937
17210SOL    HW163258   2.824   4.451  24.919
17210SOL    HW263259   2.949   4.398  24.852
17211SOL     OW63260   3.453   1.796   2.319
17211SOL    HW163261   3.409   1.878   2.295
17211SOL    HW263262   3.542   1.805   2.284
17212SOL     OW63263   3.449   3.786  26.420
17212SOL    HW163264   3.376   3.844  26.398
17212SOL    HW263265   3.419   3.738  26.497
17213SOL     OW63266   1.396   0.094  23.541
17213SOL    HW163267   1.407   0.079  23.447
17213SOL    HW263268   1.328   0.162  23.546
17214SOL     OW63269   1.164   1.154  22.962
17214SOL    HW163270   1.228   1.111  22.906
17214SOL    HW263271   1.080   1.140  22.917
17215SOL     OW63272   0.299   2.185  27.790
17215SOL    HW163273   0.387   2.176  27.754
17215SOL    HW263274   0.260   2.257  27.740
17216SOL     OW63275   0.049   4.130  21.597
17216SOL    HW163276   0.137   4.100  21.573
17216SOL    HW263277   0.063   4.219  21.630
17217SOL     OW63278   3.085   0.127  23.631
17217SOL    HW163279   3.098   0.033  23.617
17217SOL    HW263280   3.161   0.168  23.589
17218SOL     OW63281   4.299   0.681   7.729
17218SOL    HW163282   4.266   0.733   7.802
17218SOL    HW263283   4.320   0.596   7.768
17219SOL     OW63284   3.918   3.922   3.054
17219SOL    HW163285   3.865   3.983   3.104
17219SOL    HW263286   3.858   3.887   2.988
17220SOL     OW63287   0.632   2.275  11.695
17220SOL    HW163288   0.643   2.311  11.607
17220SOL    HW263289   0.658   2.346  11.754
17221SOL     OW63290   3.617   2.910  13.340
17221SOL    HW163291   3.548   2.970  13.313
17221SOL    HW263292   3.584   2.871  13.421
17222SOL     OW63293   2.361   1.801  12.331
17222SOL    HW163294   2.279   1.772  12.370
17222SOL    HW263295   2.388   1.875  12.385
17223SOL     OW63296   1.982   3.402  13.691
17223SOL    HW163297   2.018   3.324  13.649
17223SOL    HW263298   2.026   3.475  13.648
17224SOL     OW63299   0.772   3.331  12.550
17224SOL    HW163300   0.778   3.281  12.631
17224SOL    HW263301   0.734   3.270  12.487
17225SOL     OW63302   1.543   2.494  12.519
17225SOL    HW163303   1.494   2.412  12.517
17225SOL    HW263304   1.564   2.507  12.611
17226SOL     OW63305   2.806   0.295  26.333
17226SOL    HW163306   2.881   0.293  26.274
17226SOL    HW263307   2.787   0.203  26.352
17227SOL     OW63308   1.456   2.980  12.831
17227SOL    HW163309   1.406   2.918  12.779
17227SOL    HW263310   1.462   2.939  12.917
17228SOL     OW63311   1.826   3.284  12.891
17228SOL    HW163312   1.849   3.322  12.976
17228SOL    HW263313   1.799   3.195  12.912
17229SOL     OW63314   2.420   2.312  11.583
17229SOL    HW163315   2.431   2.245  11.516
17229SOL    HW263316   2.330   2.301  11.615
17230SOL     OW63317   0.110   0.204   8.418
17230SOL    HW163318   0.100   0.299   8.425
17230SOL    HW263319   0.187   0.193   8.362
17231SOL     OW63320   2.016   2.912  11.178
17231SOL    HW163321   2.025   2.996  11.223
17231SOL    HW263322   2.106   2.884  11.161
17232SOL     OW63323   0.813   3.568  26.694
17232SOL    HW163324   0.895   3.603  26.660
17232SOL    HW263325   0.840   3.497  26.752
17233SOL     OW63326   0.541   2.433  12.452
17233SOL    HW163327   0.531   2.386  12.535
17233SOL    HW263328   0.629   2.470  12.455
17234SOL     OW63329   2.249   3.071  11.342
17234SOL    HW163330   2.267   2.985  11.305
17234SOL    HW263331   2.313   3.080  11.413
17235SOL     OW63332   1.789   2.596  13.221
17235SOL    HW163333   1.813   2.660  13.288
17235SOL    HW263334   1.700   2.620  13.196
17236SOL     OW63335   3.092   1.725  10.399
17236SOL    HW163336   3.109   1.741  10.492
17236SOL    HW263337   3.176   1.694  10.364
17237SOL     OW63338   0.171   2.608  13.084
17237SOL    HW163339   0.204   2.679  13.029
17237SOL    HW263340   0.233   2.604  13.157
17238SOL     OW63341   2.328   2.862  12.733
17238SOL    HW163342   2.316   2.814  12.651
17238SOL    HW263343   2.419   2.893  12.730
17239SOL     OW63344   1.114   3.367  13.318
17239SOL    HW163345   1.151   3.376  13.406
17239SOL    HW263346   1.185   3.392  13.259
17240SOL     OW63347   2.070   1.322  13.045
17240SOL    HW163348   2.147   1.264  13.044
17240SOL    HW263349   2.014   1.287  13.115
17241SOL     OW63350   0.877   2.984  13.476
17241SOL    HW163351   0.916   3.056  13.526
17241SOL    HW263352   0.820   2.940  13.539
17242SOL     OW63353   2.095   0.668  12.592
17242SOL    HW163354   2.147   0.670  12.672
17242SOL    HW263355   2.058   0.756  12.585
17243SOL     OW63356   0.062   2.999  13.323
17243SOL    HW163357   0.091   2.981  13.412
17243SOL    HW263358   0.029   3.089  13.326
17244SOL     OW63359   4.142   1.349  11.202
17244SOL    HW163360   4.216   1.410  11.206
17244SOL    HW263361   4.070   1.401  11.168
17245SOL     OW63362   2.596   3.035  11.403
17245SOL    HW163363   2.636   3.082  11.477
17245SOL    HW263364   2.634   2.947  11.407
17246SOL     OW63365   2.596   2.887  12.674
17246SOL    HW163366   2.649   2.914  12.749
17246SOL    HW263367   2.616   2.794  12.662
17247SOL     OW63368   4.751   3.138  27.231
17247SOL    HW163369   4.699   3.088  27.294
17247SOL    HW263370   0.050   3.087  27.220
17248SOL     OW63371   1.599   2.705  13.076
17248SOL    HW163372   1.529   2.765  13.050
17248SOL    HW263373   1.564   2.618  13.059
17249SOL     OW63374   2.505   3.320  11.656
17249SOL    HW163375   2.452   3.240  11.655
17249SOL    HW263376   2.590   3.293  11.621
17250SOL     OW63377   1.325   0.681  12.660
17250SOL    HW163378   1.415   0.651  12.648
17250SOL    HW263379   1.287   0.619  12.723
17251SOL     OW63380   0.926   2.246  13.249
17251SOL    HW163381   1.014   2.208  13.249
17251SOL    HW263382   0.868   2.173  13.269
17252SOL     OW63383   0.797   2.274  13.899
17252SOL    HW163384   0.817   2.297  13.990
17252SOL    HW263385   0.706   2.245  13.901
17253SOL     OW63386   1.725   0.073  12.737
17253SOL    HW163387   1.678   0.142  12.784
17253SOL    HW263388   1.775   0.028  12.805
17254SOL     OW63389   1.242   2.932  14.193
17254SOL    HW163390   1.215   2.981  14.115
17254SOL    HW263391   1.200   2.847  14.183
17255SOL     OW63392   1.205   3.072  13.100
17255SOL    HW163393   1.127   3.063  13.155
17255SOL    HW263394   1.222   3.166  13.098
17256SOL     OW63395   0.209   3.016  12.695
17256SOL    HW163396   0.137   3.078  12.707
17256SOL    HW263397   0.282   3.055  12.744
17257SOL     OW63398   0.606   2.483  15.058
17257SOL    HW163399   0.625   2.464  14.966
17257SOL    HW263400   0.687   2.520  15.092
17258SOL     OW63401   1.171   1.345  15.592
17258SOL    HW163402   1.119   1.304  15.523
17258SOL    HW263403   1.123   1.327  15.673
17259SOL     OW63404   0.826   2.101  12.957
17259SOL    HW163405   0.772   2.083  13.034
17259SOL    HW263406   0.907   2.136  12.993
17260SOL     OW63407   1.325   3.414  15.431
17260SOL    HW163408   1.381   3.461  15.493
17260SOL    HW263409   1.244   3.465  15.429
17261SOL     OW63410   1.002   4.003  14.349
17261SOL    HW163411   0.966   4.026  14.264
17261SOL    HW263412   0.990   4.082  14.402
17262SOL     OW63413   0.519   2.142  13.934
17262SOL    HW163414   0.436   2.103  13.961
17262SOL    HW263415   0.496   2.205  13.865
17263SOL     OW63416   3.835   0.324  13.048
17263SOL    HW163417   3.824   0.396  13.110
17263SOL    HW263418   3.794   0.355  12.967
17264SOL     OW63419   4.775   1.399  16.064
17264SOL    HW163420   0.039   1.465  16.011
17264SOL    HW263421   4.709   1.448  16.113
17265SOL     OW63422   1.716   2.426  13.878
17265SOL    HW163423   1.729   2.487  13.805
17265SOL    HW263424   1.702   2.483  13.954
17266SOL     OW63425   4.407   2.038  12.792
17266SOL    HW163426   4.360   2.108  12.838
17266SOL    HW263427   4.465   2.000  12.859
17267SOL     OW63428   1.663   2.969  13.173
17267SOL    HW163429   1.738   2.980  13.114
17267SOL    HW263430   1.629   2.882  13.151
17268SOL     OW63431   1.962   2.438  14.445
17268SOL    HW163432   1.940   2.462  14.535
17268SOL    HW263433   2.051   2.404  14.451
17269SOL     OW63434   0.945   3.433  14.873
17269SOL    HW163435   1.001   3.413  14.798
17269SOL    HW263436   0.907   3.349  14.897
17270SOL     OW63437   1.008   3.667  12.019
17270SOL    HW163438   0.969   3.734  11.963
17270SOL    HW263439   0.985   3.694  12.108
17271SOL     OW63440   1.040   1.922  15.187
17271SOL    HW163441   1.090   1.996  15.222
17271SOL    HW263442   1.091   1.891  15.113
17272SOL     OW63443   0.447   1.858  14.187
17272SOL    HW163444   0.419   1.889  14.101
17272SOL    HW263445   0.386   1.900  14.248
17273SOL     OW63446   1.037   1.667  13.822
17273SOL    HW163447   1.103   1.602  13.847
17273SOL    HW263448   1.087   1.737  13.780
17274SOL     OW63449   1.859   2.706  13.791
17274SOL    HW163450   1.779   2.752  13.818
17274SOL    HW263451   1.920   2.720  13.863
17275SOL     OW63452   1.673   3.281  15.080
17275SOL    HW163453   1.602   3.292  15.017
17275SOL    HW263454   1.743   3.238  15.030
17276SOL     OW63455   2.779   2.113  14.889
17276SOL    HW163456   2.718   2.092  14.959
17276SOL    HW263457   2.865   2.109  14.930
17277SOL     OW63458   4.648   2.127  12.639
17277SOL    HW163459   4.641   2.215  12.676
17277SOL    HW263460   4.568   2.082  12.667
17278SOL     OW63461   1.573   2.699  12.738
17278SOL    HW163462   1.557   2.613  12.778
17278SOL    HW263463   1.657   2.727  12.773
17279SOL     OW63464   1.922   3.399  13.134
17279SOL    HW163465   1.993   3.462  13.147
17279SOL    HW263466   1.880   3.392  13.220
17280SOL     OW63467   2.186   2.297  14.425
17280SOL    HW163468   2.267   2.347  14.412
17280SOL    HW263469   2.214   2.217  14.470
17281SOL     OW63470   1.270   2.579  14.797
17281SOL    HW163471   1.206   2.650  14.792
17281SOL    HW263472   1.340   2.605  14.737
17282SOL     OW63473   1.197   4.085  15.603
17282SOL    HW163474   1.276   4.035  15.622
17282SOL    HW263475   1.226   4.176  15.597
17283SOL     OW63476   0.707   3.082  16.387
17283SOL    HW163477   0.795   3.117  16.400
17283SOL    HW263478   0.666   3.142  16.325
17284SOL     OW63479   1.785   1.148  16.287
17284SOL    HW163480   1.727   1.217  16.318
17284SOL    HW263481   1.852   1.194  16.236
17285SOL     OW63482   2.381   1.878  16.349
17285SOL    HW163483   2.477   1.875  16.347
17285SOL    HW263484   2.356   1.911  16.263
17286SOL     OW63485   2.400   3.058  14.346
17286SOL    HW163486   2.461   2.987  14.327
17286SOL    HW263487   2.455   3.126  14.385
17287SOL     OW63488   0.651   1.676  15.643
17287SOL    HW163489   0.612   1.670  15.730
17287SOL    HW263490   0.606   1.608  15.592
17288SOL     OW63491   1.481   2.854  15.841
17288SOL    HW163492   1.533   2.934  15.836
17288SOL    HW263493   1.440   2.847  15.755
17289SOL     OW63494   1.271   1.890  15.018
17289SOL    HW163495   1.310   1.966  15.060
17289SOL    HW263496   1.333   1.819  15.035
17290SOL     OW63497   0.931   2.064  16.865
17290SOL    HW163498   1.012   2.019  16.888
17290SOL    HW263499   0.960   2.141  16.815
17291SOL     OW63500   2.361   2.454  16.703
17291SOL    HW163501   2.277   2.409  16.716
17291SOL    HW263502   2.342   2.521  16.637
17292SOL     OW63503   2.956   4.710  17.213
17292SOL    HW163504   2.913   0.006  17.176
17292SOL    HW263505   2.932   4.639  17.154
17293SOL     OW63506   4.627   1.207  15.911
17293SOL    HW163507   4.676   1.193  15.830
17293SOL    HW263508   4.672   1.280  15.954
17294SOL     OW63509   3.057   0.576  16.248
17294SOL    HW163510   3.145   0.600  16.219
17294SOL    HW263511   3.014   0.543  16.169
17295SOL     OW63512   0.905   1.650  15.711
17295SOL    HW163513   0.814   1.669  15.688
17295SOL    HW263514   0.920   1.561  15.680
17296SOL     OW63515   0.759   1.338  15.380
17296SOL    HW163516   0.687   1.312  15.322
17296SOL    HW263517   0.721   1.336  15.468
17297SOL     OW63518   4.686   3.201  16.750
17297SOL    HW163519   4.678   3.255  16.671
17297SOL    HW263520   4.749   3.133  16.727
17298SOL     OW63521   1.079   2.770  14.793
17298SOL    HW163522   0.996   2.723  14.792
17298SOL    HW263523   1.061   2.849  14.843
17299SOL     OW63524   1.303   2.897  14.709
17299SOL    HW163525   1.226   2.846  14.734
17299SOL    HW263526   1.376   2.835  14.714
17300SOL     OW63527   1.862   1.780  14.916
17300SOL    HW163528   1.935   1.841  14.918
17300SOL    HW263529   1.860   1.748  14.826
17301SOL     OW63530   0.769   1.926  15.151
17301SOL    HW163531   0.861   1.910  15.171
17301SOL    HW263532   0.758   2.020  15.165
17302SOL     OW63533   1.690   2.885  17.823
17302SOL    HW163534   1.776   2.859  17.791
17302SOL    HW263535   1.647   2.802  17.846
17303SOL     OW63536   2.858   3.794  27.685
17303SOL    HW163537   2.832   3.762  27.772
17303SOL    HW263538   2.833   3.723  27.625
17304SOL     OW63539   0.667   1.022   6.613
17304SOL    HW163540   0.689   1.114   6.601
17304SOL    HW263541   0.666   0.985   6.524
17305SOL     OW63542   0.119   0.761  16.603
17305SOL    HW163543   0.120   0.744  16.509
17305SOL    HW263544   0.194   0.819  16.618
17306SOL     OW63545   2.698   2.376  14.426
17306SOL    HW163546   2.668   2.298  14.380
17306SOL    HW263547   2.741   2.342  14.505
17307SOL     OW63548   1.730   4.361  16.466
17307SOL    HW163549   1.813   4.349  16.419
17307SOL    HW263550   1.689   4.436  16.422
17308SOL     OW63551   2.175   2.530  17.607
17308SOL    HW163552   2.244   2.527  17.674
17308SOL    HW263553   2.173   2.622  17.580
17309SOL     OW63554   2.256   2.116  16.395
17309SOL    HW163555   2.309   2.038  16.380
17309SOL    HW263556   2.290   2.181  16.333
17310SOL     OW63557   2.068   0.246  27.934
17310SOL    HW163558   2.159   0.218  27.923
17310SOL    HW263559   2.019   0.198  27.867
17311SOL     OW63560   1.491   2.793  16.873
17311SOL    HW163561   1.524   2.858  16.810
17311SOL    HW263562   1.505   2.709  16.830
17312SOL     OW63563   4.362   0.051   7.715
17312SOL    HW163564   4.277   0.033   7.675
17312SOL    HW263565   4.387   0.137   7.681
17313SOL     OW63566   2.240   1.002  21.650
17313SOL    HW163567   2.276   0.967  21.568
17313SOL    HW263568   2.149   1.022  21.630
17314SOL     OW63569   1.666   2.712  15.990
17314SOL    HW163570   1.665   2.626  15.947
17314SOL    HW263571   1.616   2.768  15.931
17315SOL     OW63572   1.614   2.642  17.106
17315SOL    HW163573   1.643   2.710  17.167
17315SOL    HW263574   1.575   2.691  17.033
17316SOL     OW63575   1.371   2.063  16.727
17316SOL    HW163576   1.377   2.006  16.650
17316SOL    HW263577   1.296   2.030  16.776
17317SOL     OW63578   4.605   3.606  18.532
17317SOL    HW163579   4.602   3.529  18.475
17317SOL    HW263580   4.668   3.664  18.489
17318SOL     OW63581   1.496   2.415  17.533
17318SOL    HW163582   1.504   2.422  17.628
17318SOL    HW263583   1.416   2.364  17.519
17319SOL     OW63584   1.171   3.073   1.313
17319SOL    HW163585   1.178   3.156   1.361
17319SOL    HW263586   1.081   3.072   1.281
17320SOL     OW63587   1.700   2.252  16.117
17320SOL    HW163588   1.769   2.304  16.159
17320SOL    HW263589   1.701   2.169  16.164
17321SOL     OW63590   3.855   1.720  19.380
17321SOL    HW163591   3.913   1.740  19.306
17321SOL    HW263592   3.873   1.789  19.444
17322SOL     OW63593   3.946   2.155   9.482
17322SOL    HW163594   3.936   2.228   9.543
17322SOL    HW263595   3.890   2.178   9.408
17323SOL     OW63596   1.917   2.557  17.428
17323SOL    HW163597   1.838   2.503  17.428
17323SOL    HW263598   1.935   2.573  17.335
17324SOL     OW63599   0.475   1.501  22.458
17324SOL    HW163600   0.484   1.426  22.399
17324SOL    HW263601   0.438   1.570  22.403
17325SOL     OW63602   2.551   0.469  17.380
17325SOL    HW163603   2.517   0.479  17.469
17325SOL    HW263604   2.525   0.381  17.354
17326SOL     OW63605   0.979   1.937  17.521
17326SOL    HW163606   0.895   1.925  17.477
17326SOL    HW263607   1.028   1.996  17.464
17327SOL     OW63608   3.243   0.978   8.623
17327SOL    HW163609   3.297   0.917   8.572
17327SOL    HW263610   3.272   1.065   8.594
17328SOL     OW63611   2.570   0.504  15.689
17328SOL    HW163612   2.546   0.494  15.597
17328SOL    HW263613   2.493   0.475  15.738
17329SOL     OW63614   1.864   1.240  16.565
17329SOL    HW163615   1.944   1.197  16.533
17329SOL    HW263616   1.824   1.277  16.487
17330SOL     OW63617   0.856   2.870  18.279
17330SOL    HW163618   0.942   2.911  18.285
17330SOL    HW263619   0.875   2.780  18.253
17331SOL     OW63620   2.041   3.449  17.829
17331SOL    HW163621   1.983   3.522  17.806
17331SOL    HW263622   2.125   3.473  17.790
17332SOL     OW63623   3.690   4.142   0.192
17332SOL    HW163624   3.671   4.060   0.147
17332SOL    HW263625   3.723   4.200   0.123
17333SOL     OW63626   3.693   3.966  22.525
17333SOL    HW163627   3.606   3.968  22.564
17333SOL    HW263628   3.751   3.999  22.594
17334SOL     OW63629   3.174   4.668  24.563
17334SOL    HW163630   3.178   4.756  24.527
17334SOL    HW263631   3.155   4.681  24.656
17335SOL     OW63632   0.478   3.722  25.837
17335SOL    HW163633   0.471   3.654  25.770
17335SOL    HW263634   0.457   3.677  25.919
17336SOL     OW63635   1.708   0.879   6.762
17336SOL    HW163636   1.629   0.826   6.773
17336SOL    HW263637   1.775   0.817   6.733
17337SOL     OW63638   3.023   2.551  18.929
17337SOL    HW163639   2.945   2.507  18.963
17337SOL    HW263640   3.095   2.490  18.946
17338SOL     OW63641   3.778   2.847   7.548
17338SOL    HW163642   3.720   2.918   7.576
17338SOL    HW263643   3.752   2.772   7.602
17339SOL     OW63644   2.595   2.156   1.041
17339SOL    HW163645   2.614   2.161   0.947
17339SOL    HW263646   2.678   2.176   1.084
17340SOL     OW63647   1.667   3.811   0.655
17340SOL    HW163648   1.727   3.749   0.613
17340SOL    HW263649   1.590   3.812   0.598
17341SOL     OW63650   0.299   0.370   5.999
17341SOL    HW163651   0.238   0.341   6.066
17341SOL    HW263652   0.385   0.349   6.034
17342SOL     OW63653   3.177   4.310  10.125
17342SOL    HW163654   3.178   4.387  10.068
17342SOL    HW263655   3.224   4.243  10.075
17343SOL     OW63656   4.145   4.565  23.816
17343SOL    HW163657   4.198   4.486  23.808
17343SOL    HW263658   4.131   4.594  23.726
17344SOL     OW63659   3.630   0.314  24.286
17344SOL    HW163660   3.713   0.296  24.243
17344SOL    HW263661   3.582   0.368  24.224
17345SOL     OW63662   3.139   4.233   3.636
17345SOL    HW163663   3.127   4.318   3.677
17345SOL    HW263664   3.205   4.249   3.568
17346SOL     OW63665   0.362   0.639   6.152
17346SOL    HW163666   0.389   0.551   6.125
17346SOL    HW263667   0.387   0.696   6.079
17347SOL     OW63668   4.050   4.310   1.494
17347SOL    HW163669   4.104   4.280   1.421
17347SOL    HW263670   4.112   4.349   1.555
17348SOL     OW63671   3.492   0.692  23.061
17348SOL    HW163672   3.414   0.638  23.047
17348SOL    HW263673   3.483   0.724  23.151
17349SOL     OW63674   3.696   0.301  26.070
17349SOL    HW163675   3.620   0.303  26.012
17349SOL    HW263676   3.659   0.300  26.158
17350SOL     OW63677   4.404   4.039  28.394
17350SOL    HW163678   4.327   4.068  28.345
17350SOL    HW263679   4.370   4.012  28.479
17351SOL     OW63680   1.920   1.699  10.856
17351SOL    HW163681   1.998   1.753  10.844
17351SOL    HW263682   1.951   1.609  10.843
17352SOL     OW63683   0.875   1.452   1.368
17352SOL    HW163684   0.959   1.483   1.335
17352SOL    HW263685   0.864   1.499   1.451
17353SOL     OW63686   4.512   2.688  22.863
17353SOL    HW163687   4.539   2.749  22.794
17353SOL    HW263688   4.457   2.624  22.818
17354SOL     OW63689   1.345   4.463   3.299
17354SOL    HW163690   1.262   4.485   3.342
17354SOL    HW263691   1.394   4.545   3.300
17355SOL     OW63692   2.831   4.268  19.515
17355SOL    HW163693   2.864   4.181  19.493
17355SOL    HW263694   2.753   4.251  19.569
17356SOL     OW63695   2.883   4.008  20.847
17356SOL    HW163696   2.946   4.065  20.891
17356SOL    HW263697   2.799   4.028  20.888
17357SOL     OW63698   3.724   3.056   9.888
17357SOL    HW163699   3.732   3.151   9.891
17357SOL    HW263700   3.813   3.024   9.874
17358SOL     OW63701   3.733   1.494  17.720
17358SOL    HW163702   3.736   1.474  17.627
17358SOL    HW263703   3.729   1.409  17.763
17359SOL     OW63704   3.314   2.677   0.773
17359SOL    HW163705   3.383   2.621   0.809
17359SOL    HW263706   3.255   2.692   0.847
17360SOL     OW63707   1.682   2.820   8.419
17360SOL    HW163708   1.702   2.846   8.509
17360SOL    HW263709   1.762   2.839   8.371
17361SOL     OW63710   2.312   0.337  26.099
17361SOL    HW163711   2.325   0.295  26.014
17361SOL    HW263712   2.313   0.265  26.162
17362SOL     OW63713   3.168   2.677  25.707
17362SOL    HW163714   3.105   2.743  25.678
17362SOL    HW263715   3.228   2.725  25.764
17363SOL     OW63716   3.574   3.727   1.067
17363SOL    HW163717   3.579   3.722   1.162
17363SOL    HW263718   3.602   3.816   1.046
17364SOL     OW63719   2.609   4.081  28.434
17364SOL    HW163720   2.557   4.057  28.357
17364SOL    HW263721   2.691   4.033  28.423
17365SOL     OW63722   4.593   1.678  21.857
17365SOL    HW163723   4.519   1.653  21.801
17365SOL    HW263724   4.656   1.607  21.846
17366SOL     OW63725   3.774   0.356  22.038
17366SOL    HW163726   3.813   0.291  22.096
17366SOL    HW263727   3.729   0.305  21.971
17367SOL     OW63728   4.247   0.337  25.496
17367SOL    HW163729   4.166   0.324  25.546
17367SOL    HW263730   4.250   0.431  25.478
17368SOL     OW63731   2.706   2.290  24.025
17368SOL    HW163732   2.715   2.241  24.107
17368SOL    HW263733   2.701   2.381  24.053
17369SOL     OW63734   2.046   2.518   2.962
17369SOL    HW163735   1.996   2.452   3.010
17369SOL    HW263736   1.997   2.599   2.976
17370SOL     OW63737   3.528   0.656   9.137
17370SOL    HW163738   3.509   0.717   9.208
17370SOL    HW263739   3.515   0.569   9.175
17371SOL     OW63740   0.263   2.652  26.880
17371SOL    HW163741   0.287   2.606  26.800
17371SOL    HW263742   0.175   2.621  26.900
17372SOL     OW63743   0.988   0.071   8.883
17372SOL    HW163744   1.000   4.772   8.832
17372SOL    HW263745   0.933   0.044   8.957
17373SOL     OW63746   1.968   2.626   0.174
17373SOL    HW163747   1.996   2.595   0.088
17373SOL    HW263748   2.050   2.642   0.221
17374SOL     OW63749   3.988   2.320  24.897
17374SOL    HW163750   3.937   2.380  24.952
17374SOL    HW263751   4.043   2.272  24.959
17375SOL     OW63752   0.511   1.446  23.897
17375SOL    HW163753   0.548   1.375  23.844
17375SOL    HW263754   0.484   1.403  23.978
17376SOL     OW63755   0.796   3.764   2.126
17376SOL    HW163756   0.811   3.669   2.123
17376SOL    HW263757   0.701   3.773   2.120
17377SOL     OW63758   4.421   2.515  23.802
17377SOL    HW163759   4.435   2.599  23.846
17377SOL    HW263760   4.390   2.457  23.872
17378SOL     OW63761   1.943   3.145   8.560
17378SOL    HW163762   1.890   3.068   8.581
17378SOL    HW263763   1.886   3.200   8.507
17379SOL     OW63764   1.792   0.360   9.192
17379SOL    HW163765   1.857   0.296   9.220
17379SOL    HW263766   1.819   0.385   9.104
17380SOL     OW63767   0.159   4.637   8.750
17380SOL    HW163768   0.158   4.732   8.742
17380SOL    HW263769   0.246   4.611   8.719
17381SOL     OW63770   3.398   0.416  23.201
17381SOL    HW163771   3.426   0.366  23.124
17381SOL    HW263772   3.302   0.413  23.197
17382SOL     OW63773   1.861   2.425   7.605
17382SOL    HW163774   1.800   2.372   7.656
17382SOL    HW263775   1.946   2.413   7.648
17383SOL     OW63776   2.600   0.511   3.621
17383SOL    HW163777   2.534   0.534   3.686
17383SOL    HW263778   2.574   0.424   3.590
17384SOL     OW63779   1.852   4.317  17.117
17384SOL    HW163780   1.938   4.336  17.155
17384SOL    HW263781   1.866   4.237  17.066
17385SOL     OW63782   2.423   4.359  11.336
17385SOL    HW163783   2.474   4.408  11.401
17385SOL    HW263784   2.332   4.370  11.363
17386SOL     OW63785   2.796   2.375  27.721
17386SOL    HW163786   2.730   2.318  27.681
17386SOL    HW263787   2.879   2.348  27.681
17387SOL     OW63788   2.421   0.662   2.955
17387SOL    HW163789   2.440   0.689   2.865
17387SOL    HW263790   2.506   0.662   2.999
17388SOL     OW63791   4.725   3.609  27.724
17388SOL    HW163792   4.777   3.640  27.798
17388SOL    HW263793   0.008   3.572  27.663
17389SOL     OW63794   1.151   1.456  22.870
17389SOL    HW163795   1.135   1.362  22.882
17389SOL    HW263796   1.240   1.461  22.835
17390SOL     OW63797   0.193   4.730   5.827
17390SOL    HW163798   0.102   4.748   5.849
17390SOL    HW263799   0.190   4.693   5.739
17391SOL     OW63800   1.770   3.598  18.973
17391SOL    HW163801   1.841   3.660  18.955
17391SOL    HW263802   1.691   3.652  18.977
17392SOL     OW63803   0.540   4.338  20.330
17392SOL    HW163804   0.536   4.361  20.237
17392SOL    HW263805   0.572   4.248  20.331
17393SOL     OW63806   2.232   2.191   2.548
17393SOL    HW163807   2.241   2.189   2.643
17393SOL    HW263808   2.265   2.106   2.519
17394SOL     OW63809   2.153   2.217  25.858
17394SOL    HW163810   2.222   2.182  25.914
17394SOL    HW263811   2.169   2.311  25.855
17395SOL     OW63812   1.445   2.168  20.287
17395SOL    HW163813   1.395   2.090  20.262
17395SOL    HW263814   1.529   2.134  20.317
17396SOL     OW63815   3.705   1.426  19.727
17396SOL    HW163816   3.703   1.372  19.648
17396SOL    HW263817   3.613   1.442  19.748
17397SOL     OW63818   4.235   0.578   2.845
17397SOL    HW163819   4.237   0.541   2.933
17397SOL    HW263820   4.249   0.503   2.787
17398SOL     OW63821   1.354   0.316  24.772
17398SOL    HW163822   1.300   0.304  24.694
17398SOL    HW263823   1.407   0.393  24.753
17399SOL     OW63824   2.197   0.302  28.363
17399SOL    HW163825   2.192   0.389  28.402
17399SOL    HW263826   2.110   0.287  28.327
17400SOL     OW63827   2.878   1.591  23.942
17400SOL    HW163828   2.913   1.677  23.917
17400SOL    HW263829   2.844   1.554  23.860
17401SOL     OW63830   1.480   4.483  20.325
17401SOL    HW163831   1.569   4.449  20.328
17401SOL    HW263832   1.489   4.570  20.285
17402SOL     OW63833   0.109   3.562  26.871
17402SOL    HW163834   0.085   3.576  26.963
17402SOL    HW263835   0.069   3.635  26.824
17403SOL     OW63836   3.505   2.850   2.915
17403SOL    HW163837   3.574   2.812   2.969
17403SOL    HW263838   3.484   2.782   2.852
17404SOL     OW63839   4.654   0.995  26.174
17404SOL    HW163840   4.689   0.959  26.093
17404SOL    HW263841   4.560   1.002  26.158
17405SOL     OW63842   1.813   0.338   3.702
17405SOL    HW163843   1.854   0.302   3.780
17405SOL    HW263844   1.730   0.374   3.733
17406SOL     OW63845   2.584   4.660  20.769
17406SOL    HW163846   2.645   4.610  20.714
17406SOL    HW263847   2.502   4.610  20.765
17407SOL     OW63848   2.418   1.375  18.063
17407SOL    HW163849   2.368   1.341  18.137
17407SOL    HW263850   2.358   1.367  17.989
17408SOL     OW63851   2.290   4.728  25.650
17408SOL    HW163852   2.339   4.741  25.569
17408SOL    HW263853   2.231   4.655  25.631
17409SOL     OW63854   4.099   4.709   9.089
17409SOL    HW163855   4.147   4.629   9.066
17409SOL    HW263856   4.156   4.754   9.151
17410SOL     OW63857   3.069   3.718   2.404
17410SOL    HW163858   3.089   3.695   2.313
17410SOL    HW263859   3.047   3.635   2.446
17411SOL     OW63860   0.653   4.182   7.675
17411SOL    HW163861   0.623   4.269   7.700
17411SOL    HW263862   0.604   4.122   7.731
17412SOL     OW63863   1.849   3.017  27.827
17412SOL    HW163864   1.801   2.994  27.748
17412SOL    HW263865   1.866   2.933  27.870
17413SOL     OW63866   1.161   2.624   5.449
17413SOL    HW163867   1.187   2.685   5.518
17413SOL    HW263868   1.065   2.628   5.447
17414SOL     OW63869   3.472   0.245   0.270
17414SOL    HW163870   3.410   0.274   0.203
17414SOL    HW263871   3.420   0.190   0.329
17415SOL     OW63872   4.684   3.610   3.215
17415SOL    HW163873   4.593   3.603   3.187
17415SOL    HW263874   4.681   3.602   3.310
17416SOL     OW63875   2.242   4.195  27.639
17416SOL    HW163876   2.177   4.249  27.594
17416SOL    HW263877   2.263   4.126  27.576
17417SOL     OW63878   0.485   0.266   3.668
17417SOL    HW163879   0.452   0.250   3.580
17417SOL    HW263880   0.546   0.194   3.684
17418SOL     OW63881   2.256   0.017  27.206
17418SOL    HW163882   2.319   0.036  27.276
17418SOL    HW263883   2.284   4.713  27.172
17419SOL     OW63884   0.644   1.952   1.828
17419SOL    HW163885   0.724   1.933   1.876
17419SOL    HW263886   0.674   1.973   1.739
17420SOL     OW63887   2.924   0.942  22.034
17420SOL    HW163888   2.948   0.958  21.943
17420SOL    HW263889   2.865   1.014  22.056
17421SOL     OW63890   4.161   2.590  11.608
17421SOL    HW163891   4.163   2.556  11.697
17421SOL    HW263892   4.185   2.682  11.616
17422SOL     OW63893   2.163   3.802   9.101
17422SOL    HW163894   2.096   3.792   9.033
17422SOL    HW263895   2.243   3.767   9.061
17423SOL     OW63896   3.851   3.345   3.199
17423SOL    HW163897   3.815   3.310   3.281
17423SOL    HW263898   3.835   3.439   3.204
17424SOL     OW63899   3.960   2.992  21.357
17424SOL    HW163900   3.980   3.084  21.339
17424SOL    HW263901   4.039   2.958  21.400
17425SOL     OW63902   3.985   0.235   2.273
17425SOL    HW163903   4.076   0.263   2.274
17425SOL    HW263904   3.979   0.172   2.345
17426SOL     OW63905   2.265   3.442  20.414
17426SOL    HW163906   2.219   3.461  20.332
17426SOL    HW263907   2.196   3.422  20.477
17427SOL     OW63908   2.707   1.198   3.709
17427SOL    HW163909   2.636   1.173   3.768
17427SOL    HW263910   2.672   1.184   3.621
17428SOL     OW63911   1.254   2.833  19.510
17428SOL    HW163912   1.177   2.890  19.515
17428SOL    HW263913   1.294   2.855  19.426
17429SOL     OW63914   4.736   4.283  23.262
17429SOL    HW163915   4.725   4.188  23.270
17429SOL    HW263916   4.648   4.318  23.277
17430SOL     OW63917   4.212   3.267   2.674
17430SOL    HW163918   4.139   3.260   2.613
17430SOL    HW263919   4.208   3.357   2.706
17431SOL     OW63920   1.812   1.434  20.206
17431SOL    HW163921   1.744   1.459  20.269
17431SOL    HW263922   1.891   1.425  20.259
17432SOL     OW63923   1.380   4.488  22.473
17432SOL    HW163924   1.403   4.581  22.480
17432SOL    HW263925   1.289   4.484  22.501
17433SOL     OW63926   4.671   1.420   7.620
17433SOL    HW163927   4.736   1.477   7.660
17433SOL    HW263928   4.632   1.473   7.550
17434SOL     OW63929   1.568   1.531   9.922
17434SOL    HW163930   1.476   1.528   9.949
17434SOL    HW263931   1.610   1.588   9.986
17435SOL     OW63932   1.345   0.646  20.273
17435SOL    HW163933   1.372   0.715  20.212
17435SOL    HW263934   1.252   0.662  20.287
17436SOL     OW63935   0.562   3.459  22.901
17436SOL    HW163936   0.476   3.441  22.862
17436SOL    HW263937   0.545   3.525  22.968
17437SOL     OW63938   4.158   1.597   5.579
17437SOL    HW163939   4.179   1.608   5.486
17437SOL    HW263940   4.198   1.514   5.603
17438SOL     OW63941   4.125   0.799  18.642
17438SOL    HW163942   4.148   0.877  18.693
17438SOL    HW263943   4.067   0.749  18.700
17439SOL     OW63944   2.979   1.988  27.617
17439SOL    HW163945   2.922   1.978  27.694
17439SOL    HW263946   2.996   2.082  27.611
17440SOL     OW63947   4.172   2.835   0.797
17440SOL    HW163948   4.121   2.892   0.855
17440SOL    HW263949   4.229   2.786   0.856
17441SOL     OW63950   1.083   1.890  27.659
17441SOL    HW163951   1.071   1.800  27.628
17441SOL    HW263952   1.148   1.882  27.729
17442SOL     OW63953   1.924   1.938  23.310
17442SOL    HW163954   1.948   2.031  23.308
17442SOL    HW263955   1.990   1.895  23.256
17443SOL     OW63956   2.701   1.363   1.551
17443SOL    HW163957   2.745   1.355   1.635
17443SOL    HW263958   2.771   1.356   1.486
17444SOL     OW63959   4.470   2.212  28.117
17444SOL    HW163960   4.433   2.177  28.036
17444SOL    HW263961   4.401   2.269  28.152
17445SOL     OW63962   2.209   2.935   1.934
17445SOL    HW163963   2.235   2.914   2.024
17445SOL    HW263964   2.114   2.927   1.934
17446SOL     OW63965   3.205   3.057  27.690
17446SOL    HW163966   3.115   3.078  27.665
17446SOL    HW263967   3.212   2.962  27.677
17447SOL     OW63968   1.232   0.721  20.685
17447SOL    HW163969   1.185   0.691  20.607
17447SOL    HW263970   1.274   0.803  20.658
17448SOL     OW63971   2.527   4.692   6.675
17448SOL    HW163972   2.523   4.731   6.762
17448SOL    HW263973   2.533   4.767   6.616
17449SOL     OW63974   0.349   1.244  18.371
17449SOL    HW163975   0.388   1.167  18.329
17449SOL    HW263976   0.422   1.305  18.382
17450SOL     OW63977   1.273   1.224   7.692
17450SOL    HW163978   1.327   1.187   7.761
17450SOL    HW263979   1.306   1.313   7.681
17451SOL     OW63980   3.427   1.270   6.166
17451SOL    HW163981   3.464   1.218   6.238
17451SOL    HW263982   3.501   1.321   6.133
17452SOL     OW63983   0.151   1.990   9.799
17452SOL    HW163984   0.171   1.909   9.753
17452SOL    HW263985   0.055   1.996   9.799
17453SOL     OW63986   1.648   2.966  19.873
17453SOL    HW163987   1.630   2.877  19.904
17453SOL    HW263988   1.589   2.978  19.798
17454SOL     OW63989   3.818   4.299   3.521
17454SOL    HW163990   3.909   4.293   3.493
17454SOL    HW263991   3.780   4.215   3.495
17455SOL     OW63992   3.734   3.536  21.515
17455SOL    HW163993   3.647   3.507  21.487
17455SOL    HW263994   3.781   3.455  21.537
17456SOL     OW63995   4.695   3.407   5.764
17456SOL    HW163996   4.767   3.360   5.723
17456SOL    HW263997   4.667   3.350   5.836
17457SOL     OW63998   0.003   0.189   8.676
17457SOL    HW163999   0.085   0.202   8.723
17457SOL    HW264000   0.029   0.183   8.584
17458SOL     OW64001   1.486   2.659  26.795
17458SOL    HW164002   1.410   2.674  26.851
17458SOL    HW264003   1.513   2.569  26.815
17459SOL     OW64004   1.228   2.169  20.544
17459SOL    HW164005   1.224   2.149  20.450
17459SOL    HW264006   1.156   2.230  20.558
17460SOL     OW64007   2.263   2.901  24.231
17460SOL    HW164008   2.203   2.967  24.266
17460SOL    HW264009   2.254   2.827  24.291
17461SOL     OW64010   2.268   2.471  28.278
17461SOL    HW164011   2.319   2.552  28.284
17461SOL    HW264012   2.228   2.474  28.191
17462SOL     OW64013   3.799   0.565  26.289
17462SOL    HW164014   3.789   0.630  26.359
17462SOL    HW264015   3.892   0.541  26.292
17463SOL     OW64016   2.793   3.524  24.522
17463SOL    HW164017   2.741   3.526  24.602
17463SOL    HW264018   2.753   3.455  24.469
17464SOL     OW64019   4.238   3.767  22.918
17464SOL    HW164020   4.216   3.842  22.862
17464SOL    HW264021   4.256   3.696  22.856
17465SOL     OW64022   3.679   3.969   1.060
17465SOL    HW164023   3.592   4.006   1.073
17465SOL    HW264024   3.726   4.036   1.010
17466SOL     OW64025   0.065   3.066  21.812
17466SOL    HW164026   0.093   3.052  21.902
17466SOL    HW264027   0.038   3.158  21.810
17467SOL     OW64028   0.954   2.819   6.291
17467SOL    HW164029   0.883   2.764   6.259
17467SOL    HW264030   0.911   2.880   6.352
17468SOL     OW64031   0.230   1.480   6.154
17468SOL    HW164032   0.162   1.448   6.095
17468SOL    HW264033   0.259   1.402   6.202
17469SOL     OW64034   2.910   4.035   7.744
17469SOL    HW164035   2.850   4.102   7.710
17469SOL    HW264036   2.988   4.043   7.689
17470SOL     OW64037   2.414   4.168  10.632
17470SOL    HW164038   2.347   4.180  10.699
17470SOL    HW264039   2.494   4.200  10.673
17471SOL     OW64040   2.182   4.299   6.088
17471SOL    HW164041   2.092   4.323   6.112
17471SOL    HW264042   2.236   4.370   6.122
17472SOL     OW64043   3.838   2.028   2.768
17472SOL    HW164044   3.933   2.039   2.762
17472SOL    HW264045   3.826   1.935   2.786
17473SOL     OW64046   1.746   4.285  27.659
17473SOL    HW164047   1.808   4.356  27.675
17473SOL    HW264048   1.701   4.273  27.743
17474SOL     OW64049   1.620   0.976  28.117
17474SOL    HW164050   1.599   1.059  28.075
17474SOL    HW264051   1.711   0.986  28.145
17475SOL     OW64052   0.307   0.167  26.436
17475SOL    HW164053   0.395   0.202  26.451
17475SOL    HW264054   0.291   0.109  26.510
17476SOL     OW64055   2.057   2.805   3.315
17476SOL    HW164056   2.088   2.716   3.334
17476SOL    HW264057   2.109   2.832   3.240
17477SOL     OW64058   3.043   1.234  18.891
17477SOL    HW164059   3.011   1.158  18.940
17477SOL    HW264060   3.066   1.298  18.958
17478SOL     OW64061   1.998   2.007   3.440
17478SOL    HW164062   1.983   1.940   3.373
17478SOL    HW264063   2.054   2.072   3.397
17479SOL     OW64064   2.786   4.563  20.615
17479SOL    HW164065   2.776   4.587  20.523
17479SOL    HW264066   2.851   4.493  20.614
17480SOL     OW64067   1.773   1.590  26.547
17480SOL    HW164068   1.709   1.547  26.604
17480SOL    HW264069   1.746   1.566  26.458
17481SOL     OW64070   4.632   2.213  21.294
17481SOL    HW164071   4.616   2.128  21.336
17481SOL    HW264072   4.673   2.191  21.210
17482SOL     OW64073   0.182   1.726   3.382
17482SOL    HW164074   0.105   1.684   3.345
17482SOL    HW264075   0.235   1.750   3.306
17483SOL     OW64076   3.793   3.092  23.900
17483SOL    HW164077   3.821   3.005  23.872
17483SOL    HW264078   3.773   3.138  23.819
17484SOL     OW64079   3.918   2.098  24.111
17484SOL    HW164080   3.962   2.055  24.184
17484SOL    HW264081   3.897   2.185  24.144
17485SOL     OW64082   0.518   1.282   5.188
17485SOL    HW164083   0.457   1.351   5.161
17485SOL    HW264084   0.481   1.247   5.269
17486SOL     OW64085   3.238   3.673   0.371
17486SOL    HW164086   3.279   3.744   0.321
17486SOL    HW264087   3.218   3.713   0.456
17487SOL     OW64088   3.827   3.364   1.208
17487SOL    HW164089   3.923   3.363   1.204
17487SOL    HW264090   3.807   3.421   1.282
17488SOL     OW64091   0.137   2.732  20.003
17488SOL    HW164092   0.122   2.638  20.010
17488SOL    HW264093   0.163   2.758  20.091
17489SOL     OW64094   0.394   0.046  26.706
17489SOL    HW164095   0.421   0.128  26.748
17489SOL    HW264096   0.344   4.780  26.773
17490SOL     OW64097   2.133   2.320  21.075
17490SOL    HW164098   2.203   2.259  21.099
17490SOL    HW264099   2.178   2.400  21.049
17491SOL     OW64100   3.749   1.458   4.818
17491SOL    HW164101   3.714   1.376   4.783
17491SOL    HW264102   3.757   1.516   4.742
17492SOL     OW64103   0.828   2.679   7.841
17492SOL    HW164104   0.835   2.760   7.791
17492SOL    HW264105   0.736   2.675   7.868
17493SOL     OW64106   1.439   4.542   2.089
17493SOL    HW164107   1.520   4.574   2.049
17493SOL    HW264108   1.383   4.519   2.015
17494SOL     OW64109   2.561   4.521  24.583
17494SOL    HW164110   2.599   4.586  24.523
17494SOL    HW264111   2.548   4.443  24.529
17495SOL     OW64112   2.400   3.955  22.998
17495SOL    HW164113   2.351   3.920  23.073
17495SOL    HW264114   2.437   4.037  23.030
17496SOL     OW64115   1.432   2.423   4.209
17496SOL    HW164116   1.462   2.510   4.183
17496SOL    HW264117   1.361   2.403   4.147
17497SOL     OW64118   4.437   3.930  25.212
17497SOL    HW164119   4.502   3.868  25.246
17497SOL    HW264120   4.489   4.002  25.177
17498SOL     OW64121   3.363   2.233   5.305
17498SOL    HW164122   3.284   2.226   5.251
17498SOL    HW264123   3.436   2.225   5.243
17499SOL     OW64124   3.516   2.034   6.170
17499SOL    HW164125   3.522   1.941   6.147
17499SOL    HW264126   3.599   2.071   6.141
17500SOL     OW64127   1.724   0.831  25.823
17500SOL    HW164128   1.678   0.911  25.847
17500SOL    HW264129   1.776   0.855  25.747
17501SOL     OW64130   2.440   2.350  23.662
17501SOL    HW164131   2.473   2.440  23.660
17501SOL    HW264132   2.430   2.331  23.755
17502SOL     OW64133   3.514   3.942  26.760
17502SOL    HW164134   3.468   4.017  26.722
17502SOL    HW264135   3.603   3.949  26.727
17503SOL     OW64136   3.812   3.517   9.466
17503SOL    HW164137   3.781   3.573   9.394
17503SOL    HW264138   3.879   3.569   9.510
17504SOL     OW64139   0.340   4.568   4.683
17504SOL    HW164140   0.387   4.637   4.730
17504SOL    HW264141   0.390   4.554   4.603
17505SOL     OW64142   2.809   3.928   4.317
17505SOL    HW164143   2.785   3.841   4.351
17505SOL    HW264144   2.751   3.988   4.364
17506SOL     OW64145   3.965   0.716   2.510
17506SOL    HW164146   4.006   0.632   2.530
17506SOL    HW264147   4.030   0.762   2.457
17507SOL     OW64148   0.302   3.136  27.633
17507SOL    HW164149   0.232   3.088  27.589
17507SOL    HW264150   0.288   3.118  27.726
17508SOL     OW64151   0.153   2.428  18.340
17508SOL    HW164152   0.130   2.346  18.384
17508SOL    HW264153   0.237   2.453  18.378
17509SOL     OW64154   1.175   2.206   3.449
17509SOL    HW164155   1.180   2.268   3.522
17509SOL    HW264156   1.118   2.249   3.385
17510SOL     OW64157   1.355   3.380  24.029
17510SOL    HW164158   1.316   3.294  24.015
17510SOL    HW264159   1.448   3.367  24.012
17511SOL     OW64160   1.735   2.367  17.402
17511SOL    HW164161   1.655   2.384  17.452
17511SOL    HW264162   1.709   2.303  17.336
17512SOL     OW64163   3.551   1.781   3.876
17512SOL    HW164164   3.627   1.829   3.909
17512SOL    HW264165   3.479   1.843   3.884
17513SOL     OW64166   3.185   0.741  19.651
17513SOL    HW164167   3.195   0.788  19.734
17513SOL    HW264168   3.155   0.654  19.677
17514SOL     OW64169   2.400   0.356  20.456
17514SOL    HW164170   2.336   0.286  20.447
17514SOL    HW264171   2.374   0.402  20.536
17515SOL     OW64172   2.718   4.678  22.934
17515SOL    HW164173   2.735   4.721  22.850
17515SOL    HW264174   2.653   4.733  22.977
17516SOL     OW64175   4.204   1.425   8.977
17516SOL    HW164176   4.167   1.495   8.922
17516SOL    HW264177   4.285   1.400   8.933
17517SOL     OW64178   3.059   3.749  23.548
17517SOL    HW164179   2.966   3.742  23.527
17517SOL    HW264180   3.068   3.703  23.631
17518SOL     OW64181   1.574   3.809   6.617
17518SOL    HW164182   1.566   3.760   6.535
17518SOL    HW264183   1.488   3.801   6.658
17519SOL     OW64184   2.867   3.603   0.657
17519SOL    HW164185   2.901   3.649   0.734
17519SOL    HW264186   2.772   3.615   0.661
17520SOL     OW64187   4.418   1.834   4.234
17520SOL    HW164188   4.444   1.808   4.322
17520SOL    HW264189   4.336   1.882   4.247
17521SOL     OW64190   0.840   2.840  21.292
17521SOL    HW164191   0.876   2.927  21.273
17521SOL    HW264192   0.756   2.857  21.335
17522SOL     OW64193   0.949   2.074   5.482
17522SOL    HW164194   1.009   2.009   5.446
17522SOL    HW264195   1.006   2.143   5.516
17523SOL     OW64196   3.649   0.943   4.620
17523SOL    HW164197   3.722   0.978   4.568
17523SOL    HW264198   3.633   0.856   4.583
17524SOL     OW64199   4.163   3.744   8.863
17524SOL    HW164200   4.148   3.657   8.901
17524SOL    HW264201   4.078   3.788   8.870
17525SOL     OW64202   0.597   2.193  26.383
17525SOL    HW164203   0.627   2.219  26.296
17525SOL    HW264204   0.672   2.209  26.440
17526SOL     OW64205   3.957   4.706  27.313
17526SOL    HW164206   3.998   4.771  27.256
17526SOL    HW264207   3.870   4.693  27.276
17527SOL     OW64208   2.881   1.388  21.070
17527SOL    HW164209   2.787   1.388  21.089
17527SOL    HW264210   2.895   1.311  21.015
17528SOL     OW64211   1.192   1.463  25.272
17528SOL    HW164212   1.217   1.444  25.362
17528SOL    HW264213   1.275   1.480  25.227
17529SOL     OW64214   1.208   0.331   6.078
17529SOL    HW164215   1.234   0.403   6.135
17529SOL    HW264216   1.136   0.289   6.125
17530SOL     OW64217   3.842   3.061   0.501
17530SOL    HW164218   3.898   2.988   0.528
17530SOL    HW264219   3.885   3.139   0.537
17531SOL     OW64220   3.722   0.255  20.110
17531SOL    HW164221   3.721   0.351  20.104
17531SOL    HW264222   3.690   0.226  20.025
17532SOL     OW64223   4.657   3.163  26.051
17532SOL    HW164224   4.688   3.082  26.010
17532SOL    HW264225   4.566   3.170  26.022
17533SOL     OW64226   2.333   1.483  20.794
17533SOL    HW164227   2.320   1.389  20.779
17533SOL    HW264228   2.257   1.510  20.846
17534SOL     OW64229   1.441   0.687   4.182
17534SOL    HW164230   1.491   0.636   4.246
17534SOL    HW264231   1.349   0.666   4.200
17535SOL     OW64232   3.696   2.972   7.110
17535SOL    HW164233   3.743   2.895   7.143
17535SOL    HW264234   3.625   2.986   7.173
17536SOL     OW64235   3.003   1.991   3.155
17536SOL    HW164236   2.941   1.977   3.084
17536SOL    HW264237   2.956   1.963   3.234
17537SOL     OW64238   4.523   0.380   3.406
17537SOL    HW164239   4.434   0.345   3.407
17537SOL    HW264240   4.568   0.331   3.475
17538SOL     OW64241   4.051   2.591   6.292
17538SOL    HW164242   4.137   2.620   6.260
17538SOL    HW264243   4.039   2.504   6.253
17539SOL     OW64244   4.752   2.640   5.235
17539SOL    HW164245   0.041   2.576   5.245
17539SOL    HW264246   0.000   2.697   5.163
17540SOL     OW64247   0.992   4.391   3.575
17540SOL    HW164248   0.953   4.431   3.653
17540SOL    HW264249   0.927   4.404   3.506
17541SOL     OW64250   0.989   3.018   4.879
17541SOL    HW164251   0.913   3.048   4.829
17541SOL    HW264252   0.992   3.076   4.955
17542SOL     OW64253   3.104   0.456  23.218
17542SOL    HW164254   3.117   0.549  23.199
17542SOL    HW264255   3.033   0.430  23.159
17543SOL     OW64256   0.957   0.911   8.690
17543SOL    HW164257   0.914   0.988   8.726
17543SOL    HW264258   0.957   0.925   8.595
17544SOL     OW64259   4.385   2.309   4.737
17544SOL    HW164260   4.384   2.342   4.647
17544SOL    HW264261   4.454   2.243   4.738
17545SOL     OW64262   1.930   2.202  21.969
17545SOL    HW164263   1.946   2.292  21.940
17545SOL    HW264264   1.837   2.187  21.950
17546SOL     OW64265   1.366   1.705   2.460
17546SOL    HW164266   1.427   1.673   2.394
17546SOL    HW264267   1.420   1.756   2.520
17547SOL     OW64268   3.027   2.758  26.045
17547SOL    HW164269   2.992   2.736  25.959
17547SOL    HW264270   3.117   2.726  26.043
17548SOL     OW64271   2.896   4.457  21.610
17548SOL    HW164272   2.916   4.493  21.697
17548SOL    HW264273   2.804   4.481  21.595
17549SOL     OW64274   4.357   4.683  22.158
17549SOL    HW164275   4.307   4.684  22.077
17549SOL    HW264276   4.448   4.688  22.130
17550SOL     OW64277   0.161   2.421   4.514
17550SOL    HW164278   0.204   2.444   4.432
17550SOL    HW264279   0.227   2.438   4.581
17551SOL     OW64280   2.620   2.329   2.484
17551SOL    HW164281   2.567   2.385   2.541
17551SOL    HW264282   2.567   2.319   2.405
17552SOL     OW64283   4.448   3.592  27.930
17552SOL    HW164284   4.366   3.633  27.958
17552SOL    HW264285   4.421   3.526  27.866
17553SOL     OW64286   1.979   0.859  26.848
17553SOL    HW164287   1.991   0.896  26.761
17553SOL    HW264288   2.068   0.849  26.882
17554SOL     OW64289   0.206   1.960   2.497
17554SOL    HW164290   0.297   1.931   2.502
17554SOL    HW264291   0.211   2.055   2.502
17555SOL     OW64292   3.103   2.012   8.292
17555SOL    HW164293   3.165   1.999   8.364
17555SOL    HW264294   3.152   1.989   8.213
17556SOL     OW64295   2.369   0.015   7.551
17556SOL    HW164296   2.386   0.059   7.634
17556SOL    HW264297   2.429   0.057   7.489
17557SOL     OW64298   2.876   4.450  10.401
17557SOL    HW164299   2.790   4.413  10.379
17557SOL    HW264300   2.937   4.377  10.388
17558SOL     OW64301   4.074   1.821   2.786
17558SOL    HW164302   4.138   1.754   2.808
17558SOL    HW264303   4.049   1.802   2.696
17559SOL     OW64304   2.008   0.393   0.592
17559SOL    HW164305   2.094   0.435   0.588
17559SOL    HW264306   1.986   0.394   0.685
17560SOL     OW64307   1.153   2.144   9.390
17560SOL    HW164308   1.096   2.202   9.441
17560SOL    HW264309   1.124   2.056   9.412
17561SOL     OW64310   1.770   0.233  21.896
17561SOL    HW164311   1.707   0.289  21.851
17561SOL    HW264312   1.855   0.271  21.875
17562SOL     OW64313   2.064   0.133  21.020
17562SOL    HW164314   2.029   0.213  21.060
17562SOL    HW264315   2.158   0.149  21.014
17563SOL     OW64316   4.717   0.724   5.034
17563SOL    HW164317   4.703   0.807   5.079
17563SOL    HW264318   4.722   0.748   4.941
17564SOL     OW64319   4.255   4.622  26.873
17564SOL    HW164320   4.305   4.690  26.917
17564SOL    HW264321   4.166   4.633  26.906
17565SOL     OW64322   3.161   0.256  25.559
17565SOL    HW164323   3.121   0.289  25.640
17565SOL    HW264324   3.112   0.176  25.539
17566SOL     OW64325   0.638   4.595  22.193
17566SOL    HW164326   0.728   4.627  22.203
17566SOL    HW264327   0.606   4.585  22.283
17567SOL     OW64328   1.502   0.418  20.247
17567SOL    HW164329   1.461   0.504  20.255
17567SOL    HW264330   1.505   0.385  20.337
17568SOL     OW64331   3.966   3.081  20.201
17568SOL    HW164332   4.041   3.110  20.150
17568SOL    HW264333   3.994   2.998  20.241
17569SOL     OW64334   2.360   0.146   8.349
17569SOL    HW164335   2.303   0.193   8.410
17569SOL    HW264336   2.420   0.213   8.316
17570SOL     OW64337   3.694   1.058   1.842
17570SOL    HW164338   3.743   1.116   1.900
17570SOL    HW264339   3.680   0.979   1.894
17571SOL     OW64340   4.047   2.555  27.719
17571SOL    HW164341   4.108   2.501  27.668
17571SOL    HW264342   3.990   2.595  27.654
17572SOL     OW64343   3.989   1.926   4.922
17572SOL    HW164344   4.085   1.931   4.926
17572SOL    HW264345   3.959   2.008   4.960
17573SOL     OW64346   3.281   3.107  21.607
17573SOL    HW164347   3.286   3.140  21.517
17573SOL    HW264348   3.285   3.012  21.598
17574SOL     OW64349   3.079   1.061  19.909
17574SOL    HW164350   3.039   1.121  19.846
17574SOL    HW264351   3.164   1.040  19.870
17575SOL     OW64352   1.330   4.494   0.251
17575SOL    HW164353   1.292   4.539   0.176
17575SOL    HW264354   1.271   4.514   0.324
17576SOL     OW64355   2.144   4.562  24.874
17576SOL    HW164356   2.213   4.534  24.814
17576SOL    HW264357   2.078   4.492  24.870
17577SOL     OW64358   1.154   3.460  20.725
17577SOL    HW164359   1.093   3.411  20.670
17577SOL    HW264360   1.108   3.541  20.746
17578SOL     OW64361   2.876   4.577   4.795
17578SOL    HW164362   2.960   4.567   4.839
17578SOL    HW264363   2.892   4.645   4.729
17579SOL     OW64364   3.266   1.033  24.242
17579SOL    HW164365   3.343   1.086  24.221
17579SOL    HW264366   3.301   0.956  24.287
17580SOL     OW64367   1.085   0.982   4.914
17580SOL    HW164368   1.044   1.057   4.956
17580SOL    HW264369   1.097   0.918   4.984
17581SOL     OW64370   0.294   0.587   8.680
17581SOL    HW164371   0.352   0.628   8.744
17581SOL    HW264372   0.343   0.512   8.646
17582SOL     OW64373   3.704   3.514   4.908
17582SOL    HW164374   3.743   3.428   4.921
17582SOL    HW264375   3.720   3.535   4.816
17583SOL     OW64376   3.667   1.435   7.589
17583SOL    HW164377   3.679   1.383   7.509
17583SOL    HW264378   3.594   1.493   7.569
17584SOL     OW64379   4.678   4.051  26.915
17584SOL    HW164380   4.757   3.997  26.920
17584SOL    HW264381   4.608   3.993  26.944
17585SOL     OW64382   3.968   1.674  24.317
17585SOL    HW164383   3.953   1.673  24.411
17585SOL    HW264384   4.014   1.756  24.301
17586SOL     OW64385   3.829   0.824  19.600
17586SOL    HW164386   3.787   0.890  19.655
17586SOL    HW264387   3.757   0.778  19.557
17587SOL     OW64388   1.837   3.014  20.777
17587SOL    HW164389   1.845   3.005  20.872
17587SOL    HW264390   1.746   2.990  20.758
17588SOL     OW64391   3.505   3.331   5.624
17588SOL    HW164392   3.438   3.276   5.664
17588SOL    HW264393   3.480   3.420   5.647
17589SOL     OW64394   3.147   4.136  23.110
17589SOL    HW164395   3.078   4.146  23.175
17589SOL    HW264396   3.104   4.094  23.035
17590SOL     OW64397   3.287   4.040  23.717
17590SOL    HW164398   3.234   4.013  23.792
17590SOL    HW264399   3.241   4.003  23.641
17591SOL     OW64400   0.237   1.605  20.537
17591SOL    HW164401   0.203   1.680  20.488
17591SOL    HW264402   0.193   1.610  20.622
17592SOL     OW64403   3.323   3.689   5.066
17592SOL    HW164404   3.267   3.753   5.022
17592SOL    HW264405   3.390   3.667   5.001
17593SOL     OW64406   0.259   2.124   3.356
17593SOL    HW164407   0.230   2.033   3.364
17593SOL    HW264408   0.260   2.140   3.262
17594SOL     OW64409   1.664   0.228  11.761
17594SOL    HW164410   1.729   0.180  11.813
17594SOL    HW264411   1.603   0.263  11.826
17595SOL     OW64412   1.419   0.333  17.611
17595SOL    HW164413   1.341   0.329  17.555
17595SOL    HW264414   1.403   0.266  17.678
17596SOL     OW64415   1.562   4.622  24.680
17596SOL    HW164416   1.530   4.678  24.609
17596SOL    HW264417   1.593   4.543  24.636
17597SOL     OW64418   3.025   2.409  22.244
17597SOL    HW164419   2.970   2.396  22.167
17597SOL    HW264420   3.034   2.504  22.251
17598SOL     OW64421   1.735   1.186   2.180
17598SOL    HW164422   1.775   1.123   2.240
17598SOL    HW264423   1.714   1.135   2.102
17599SOL     OW64424   1.969   4.461   9.464
17599SOL    HW164425   1.988   4.514   9.542
17599SOL    HW264426   2.011   4.377   9.482
17600SOL     OW64427   1.473   0.048   0.714
17600SOL    HW164428   1.408   0.039   0.645
17600SOL    HW264429   1.556   0.057   0.668
17601SOL     OW64430   0.560   2.311  20.467
17601SOL    HW164431   0.506   2.327  20.544
17601SOL    HW264432   0.535   2.380  20.405
17602SOL     OW64433   3.769   2.255  25.636
17602SOL    HW164434   3.818   2.264  25.718
17602SOL    HW264435   3.683   2.293  25.655
17603SOL     OW64436   1.385   2.822   7.817
17603SOL    HW164437   1.350   2.862   7.737
17603SOL    HW264438   1.342   2.869   7.889
17604SOL     OW64439   2.450   1.695   0.469
17604SOL    HW164440   2.483   1.612   0.433
17604SOL    HW264441   2.361   1.702   0.436
17605SOL     OW64442   0.401   4.159  24.340
17605SOL    HW164443   0.424   4.252  24.338
17605SOL    HW264444   0.465   4.117  24.282
17606SOL     OW64445   2.632   1.745  28.508
17606SOL    HW164446   2.647   1.834   0.017
17606SOL    HW264447   2.593   1.756  28.421
17607SOL     OW64448   1.297   1.836   8.140
17607SOL    HW164449   1.385   1.800   8.152
17607SOL    HW264450   1.272   1.866   8.227
17608SOL     OW64451   2.901   1.754   6.723
17608SOL    HW164452   2.908   1.823   6.657
17608SOL    HW264453   2.867   1.798   6.801
17609SOL     OW64454   2.712   4.022  11.781
17609SOL    HW164455   2.790   4.076  11.792
17609SOL    HW264456   2.646   4.064  11.836
17610SOL     OW64457   3.109   3.456  27.106
17610SOL    HW164458   3.184   3.406  27.075
17610SOL    HW264459   3.142   3.546  27.114
17611SOL     OW64460   4.722   0.565  21.910
17611SOL    HW164461   4.661   0.509  21.862
17611SOL    HW264462   4.725   0.527  21.998
17612SOL     OW64463   0.964   2.597  21.378
17612SOL    HW164464   0.936   2.682  21.344
17612SOL    HW264465   0.930   2.595  21.467
17613SOL     OW64466   0.526   2.717  27.327
17613SOL    HW164467   0.464   2.790  27.326
17613SOL    HW264468   0.502   2.664  27.251
17614SOL     OW64469   4.161   3.698   0.547
17614SOL    HW164470   4.082   3.654   0.579
17614SOL    HW264471   4.225   3.688   0.618
17615SOL     OW64472   4.724   4.139   5.251
17615SOL    HW164473   0.001   4.169   5.181
17615SOL    HW264474   4.748   4.048   5.265
17616SOL     OW64475   2.148   2.164   7.631
17616SOL    HW164476   2.116   2.233   7.689
17616SOL    HW264477   2.166   2.090   7.689
17617SOL     OW64478   4.323   3.824   1.504
17617SOL    HW164479   4.228   3.836   1.500
17617SOL    HW264480   4.340   3.792   1.593
17618SOL     OW64481   3.940   4.226   2.903
17618SOL    HW164482   3.892   4.145   2.922
17618SOL    HW264483   3.967   4.217   2.812
17619SOL     OW64484   0.002   3.529  10.013
17619SOL    HW164485   0.018   3.435  10.016
17619SOL    HW264486   0.079   3.567  10.054
17620SOL     OW64487   0.696   0.684   6.118
17620SOL    HW164488   0.634   0.757   6.115
17620SOL    HW264489   0.657   0.617   6.061
17621SOL     OW64490   3.892   4.560   3.078
17621SOL    HW164491   3.951   4.548   3.004
17621SOL    HW264492   3.877   4.655   3.082
17622SOL     OW64493   2.303   1.160   9.644
17622SOL    HW164494   2.390   1.152   9.683
17622SOL    HW264495   2.257   1.221   9.702
17623SOL     OW64496   4.447   1.983  10.722
17623SOL    HW164497   4.434   1.908  10.665
17623SOL    HW264498   4.386   1.969  10.794
17624SOL     OW64499   3.010   1.144   6.310
17624SOL    HW164500   2.981   1.164   6.221
17624SOL    HW264501   2.930   1.147   6.363
17625SOL     OW64502   2.297   2.146  24.392
17625SOL    HW164503   2.278   2.191  24.309
17625SOL    HW264504   2.372   2.193  24.428
17626SOL     OW64505   3.572   4.684  12.086
17626SOL    HW164506   3.609   4.730  12.161
17626SOL    HW264507   3.609   4.596  12.092
17627SOL     OW64508   2.671   4.423   6.494
17627SOL    HW164509   2.675   4.517   6.509
17627SOL    HW264510   2.606   4.413   6.424
17628SOL     OW64511   2.623   2.536   4.172
17628SOL    HW164512   2.633   2.609   4.111
17628SOL    HW264513   2.543   2.556   4.221
17629SOL     OW64514   0.259   3.526   5.954
17629SOL    HW164515   0.332   3.543   6.014
17629SOL    HW264516   0.182   3.559   6.000
17630SOL     OW64517   1.030   0.541   8.035
17630SOL    HW164518   1.087   0.546   7.959
17630SOL    HW264519   1.088   0.516   8.107
17631SOL     OW64520   2.071   2.791   6.833
17631SOL    HW164521   2.148   2.735   6.825
17631SOL    HW264522   2.094   2.855   6.900
17632SOL     OW64523   0.748   4.157   5.752
17632SOL    HW164524   0.784   4.208   5.825
17632SOL    HW264525   0.781   4.068   5.767
17633SOL     OW64526   0.406   0.598  26.530
17633SOL    HW164527   0.395   0.504  26.544
17633SOL    HW264528   0.326   0.626  26.486
17634SOL     OW64529   3.886   3.514   5.360
17634SOL    HW164530   3.963   3.487   5.311
17634SOL    HW264531   3.826   3.549   5.294
17635SOL     OW64532   3.571   2.847   8.711
17635SOL    HW164533   3.643   2.901   8.744
17635SOL    HW264534   3.614   2.769   8.675
17636SOL     OW64535   1.877   2.547   2.739
17636SOL    HW164536   1.948   2.527   2.800
17636SOL    HW264537   1.900   2.500   2.659
17637SOL     OW64538   1.899   0.558  10.089
17637SOL    HW164539   1.843   0.500  10.141
17637SOL    HW264540   1.978   0.568  10.141
17638SOL     OW64541   3.059   2.803  27.323
17638SOL    HW164542   2.982   2.810  27.379
17638SOL    HW264543   3.076   2.893  27.295
17639SOL     OW64544   1.140   2.951  23.573
17639SOL    HW164545   1.058   2.905  23.558
17639SOL    HW264546   1.123   3.007  23.649
17640SOL     OW64547   3.161   1.185   4.568
17640SOL    HW164548   3.249   1.220   4.551
17640SOL    HW264549   3.138   1.138   4.488
17641SOL     OW64550   0.081   0.754   6.073
17641SOL    HW164551   0.096   0.772   5.980
17641SOL    HW264552   0.167   0.730   6.107
17642SOL     OW64553   1.536   1.895   1.351
17642SOL    HW164554   1.624   1.859   1.338
17642SOL    HW264555   1.495   1.836   1.415
17643SOL     OW64556   1.225   4.102   9.610
17643SOL    HW164557   1.305   4.052   9.626
17643SOL    HW264558   1.202   4.138   9.695
17644SOL     OW64559   2.230   1.342  25.557
17644SOL    HW164560   2.275   1.385  25.630
17644SOL    HW264561   2.145   1.317  25.593
17645SOL     OW64562   0.431   4.684   7.544
17645SOL    HW164563   0.507   4.703   7.490
17645SOL    HW264564   0.363   4.659   7.482
17646SOL     OW64565   4.668   0.536  20.262
17646SOL    HW164566   4.749   0.504  20.221
17646SOL    HW264567   4.684   0.527  20.356
17647SOL     OW64568   1.710   3.779  10.103
17647SOL    HW164569   1.776   3.729  10.055
17647SOL    HW264570   1.701   3.860  10.053
17648SOL     OW64571   0.775   3.511   7.527
17648SOL    HW164572   0.714   3.557   7.585
17648SOL    HW264573   0.824   3.452   7.584
17649SOL     OW64574   3.606   2.277   8.654
17649SOL    HW164575   3.566   2.214   8.594
17649SOL    HW264576   3.544   2.350   8.658
17650SOL     OW64577   3.142   2.602  23.437
17650SOL    HW164578   3.082   2.540  23.479
17650SOL    HW264579   3.111   2.688  23.466
17651SOL     OW64580   0.129   1.391  21.970
17651SOL    HW164581   0.055   1.366  21.915
17651SOL    HW264582   0.206   1.376  21.915
17652SOL     OW64583   0.429   4.756  19.468
17652SOL    HW164584   0.400   0.055  19.511
17652SOL    HW264585   0.482   4.711  19.534
17653SOL     OW64586   1.007   0.985   6.855
17653SOL    HW164587   1.038   0.904   6.814
17653SOL    HW264588   0.982   1.041   6.781
17654SOL     OW64589   1.135   3.670   5.728
17654SOL    HW164590   1.071   3.600   5.735
17654SOL    HW264591   1.135   3.711   5.814
17655SOL     OW64592   2.453   2.995   2.908
17655SOL    HW164593   2.405   3.064   2.862
17655SOL    HW264594   2.535   3.037   2.934
17656SOL     OW64595   1.372   1.608   0.521
17656SOL    HW164596   1.434   1.568   0.582
17656SOL    HW264597   1.417   1.686   0.489
17657SOL     OW64598   3.645   2.416  22.419
17657SOL    HW164599   3.573   2.477  22.404
17657SOL    HW264600   3.718   2.472  22.445
17658SOL     OW64601   1.833   2.828  23.613
17658SOL    HW164602   1.794   2.742  23.628
17658SOL    HW264603   1.844   2.833  23.518
17659SOL     OW64604   1.414   1.725   4.163
17659SOL    HW164605   1.387   1.767   4.245
17659SOL    HW264606   1.508   1.740   4.158
17660SOL     OW64607   4.379   0.919  23.721
17660SOL    HW164608   4.461   0.936  23.768
17660SOL    HW264609   4.312   0.963  23.773
17661SOL     OW64610   0.103   1.550   1.438
17661SOL    HW164611   0.169   1.592   1.382
17661SOL    HW264612   0.124   1.457   1.435
17662SOL     OW64613   0.963   1.245   4.975
17662SOL    HW164614   0.988   1.251   4.883
17662SOL    HW264615   0.921   1.329   4.994
17663SOL     OW64616   2.858   3.734  26.638
17663SOL    HW164617   2.800   3.773  26.704
17663SOL    HW264618   2.801   3.677  26.587
17664SOL     OW64619   4.410   1.599  11.447
17664SOL    HW164620   4.375   1.510  11.442
17664SOL    HW264621   4.432   1.610  11.540
17665SOL     OW64622   2.611   0.906   2.947
17665SOL    HW164623   2.516   0.891   2.945
17665SOL    HW264624   2.623   0.987   2.897
17666SOL     OW64625   4.657   2.878  17.236
17666SOL    HW164626   4.711   2.886  17.157
17666SOL    HW264627   4.713   2.909  17.307
17667SOL     OW64628   2.304   1.510   0.982
17667SOL    HW164629   2.272   1.597   0.959
17667SOL    HW264630   2.372   1.491   0.918
17668SOL     OW64631   1.814   2.273  27.176
17668SOL    HW164632   1.737   2.325  27.198
17668SOL    HW264633   1.796   2.241  27.088
17669SOL     OW64634   0.771   3.758  25.348
17669SOL    HW164635   0.835   3.746  25.278
17669SOL    HW264636   0.740   3.848  25.336
17670SOL     OW64637   4.392   2.880  17.342
17670SOL    HW164638   4.390   2.973  17.366
17670SOL    HW264639   4.355   2.835  17.418
17671SOL     OW64640   4.164   0.978   4.442
17671SOL    HW164641   4.240   1.027   4.411
17671SOL    HW264642   4.101   1.046   4.466
17672SOL     OW64643   2.633   1.836   2.340
17672SOL    HW164644   2.586   1.848   2.258
17672SOL    HW264645   2.681   1.918   2.353
17673SOL     OW64646   1.765   4.101  24.656
17673SOL    HW164647   1.735   4.153  24.730
17673SOL    HW264648   1.691   4.044  24.635
17674SOL     OW64649   3.275   3.981  10.667
17674SOL    HW164650   3.296   4.074  10.671
17674SOL    HW264651   3.306   3.946  10.750
17675SOL     OW64652   2.527   1.681   4.483
17675SOL    HW164653   2.470   1.694   4.559
17675SOL    HW264654   2.605   1.639   4.519
17676SOL     OW64655   1.463   2.851   6.694
17676SOL    HW164656   1.479   2.779   6.756
17676SOL    HW264657   1.550   2.885   6.674
17677SOL     OW64658   1.685   1.405   8.820
17677SOL    HW164659   1.664   1.354   8.742
17677SOL    HW264660   1.616   1.384   8.883
17678SOL     OW64661   2.713   0.100  20.426
17678SOL    HW164662   2.794   0.133  20.464
17678SOL    HW264663   2.644   0.133  20.484
17679SOL     OW64664   1.241   0.600   0.971
17679SOL    HW164665   1.297   0.525   0.992
17679SOL    HW264666   1.302   0.668   0.942
17680SOL     OW64667   3.652   3.544   6.102
17680SOL    HW164668   3.650   3.449   6.090
17680SOL    HW264669   3.659   3.579   6.013
17681SOL     OW64670   3.647   4.692   6.150
17681SOL    HW164671   3.658   0.005   6.166
17681SOL    HW264672   3.597   4.660   6.225
17682SOL     OW64673   0.246   1.806  25.815
17682SOL    HW164674   0.203   1.889  25.836
17682SOL    HW264675   0.337   1.830  25.798
17683SOL     OW64676   2.318   4.758   1.305
17683SOL    HW164677   2.253   0.043   1.330
17683SOL    HW264678   2.276   4.708   1.235
17684SOL     OW64679   2.781   1.355  26.117
17684SOL    HW164680   2.809   1.414  26.047
17684SOL    HW264681   2.862   1.314  26.147
17685SOL     OW64682   4.539   1.656  27.533
17685SOL    HW164683   4.517   1.744  27.563
17685SOL    HW264684   4.558   1.666  27.440
17686SOL     OW64685   2.073   2.024   1.931
17686SOL    HW164686   2.002   2.044   1.871
17686SOL    HW264687   2.030   1.985   2.007
17687SOL     OW64688   3.184   2.476   8.391
17687SOL    HW164689   3.128   2.426   8.332
17687SOL    HW264690   3.209   2.553   8.340
17688SOL     OW64691   3.360   2.663   4.263
17688SOL    HW164692   3.300   2.609   4.315
17688SOL    HW264693   3.421   2.700   4.327
17689SOL     OW64694   4.498   0.182  23.737
17689SOL    HW164695   4.515   0.276  23.747
17689SOL    HW264696   4.449   0.158  23.815
17690SOL     OW64697   3.423   1.637   2.545
17690SOL    HW164698   3.355   1.676   2.600
17690SOL    HW264699   3.439   1.702   2.476
17691SOL     OW64700   0.323   3.524   2.392
17691SOL    HW164701   0.262   3.514   2.465
17691SOL    HW264702   0.280   3.586   2.333
17692SOL     OW64703   0.622   3.348   8.696
17692SOL    HW164704   0.585   3.320   8.780
17692SOL    HW264705   0.711   3.375   8.717
17693SOL     OW64706   2.135   1.607   1.772
17693SOL    HW164707   2.145   1.622   1.678
17693SOL    HW264708   2.223   1.618   1.808
17694SOL     OW64709   3.521   3.665  19.653
17694SOL    HW164710   3.475   3.740  19.690
17694SOL    HW264711   3.469   3.640  19.577
17695SOL     OW64712   2.139   4.476  10.218
17695SOL    HW164713   2.082   4.402  10.198
17695SOL    HW264714   2.080   4.541  10.257
17696SOL     OW64715   3.675   3.452   7.401
17696SOL    HW164716   3.736   3.522   7.378
17696SOL    HW264717   3.606   3.458   7.335
17697SOL     OW64718   1.224   4.235  28.353
17697SOL    HW164719   1.165   4.197  28.288
17697SOL    HW264720   1.280   4.163  28.381
17698SOL     OW64721   1.870   1.922   4.301
17698SOL    HW164722   1.910   1.850   4.252
17698SOL    HW264723   1.908   1.915   4.389
17699SOL     OW64724   1.091   3.330   2.372
17699SOL    HW164725   1.105   3.307   2.280
17699SOL    HW264726   1.069   3.423   2.370
17700SOL     OW64727   1.639   1.258  27.063
17700SOL    HW164728   1.655   1.181  27.117
17700SOL    HW264729   1.598   1.223  26.984
17701SOL     OW64730   0.765   2.521   3.932
17701SOL    HW164731   0.828   2.532   4.004
17701SOL    HW264732   0.757   2.608   3.893
17702CA      CA64733   2.789   3.683  10.373
17703CA      CA64734   1.493   3.339  10.742
17704CA      CA64735   3.073   0.643  10.263
17705CA      CA64736   3.542   2.102  17.888
17706CA      CA64737   2.288   4.434   9.161
17707CA      CA64738   2.857   1.913  10.143
17708CA      CA64739   3.110   0.638  11.059
17709CA      CA64740   1.134   1.973  19.247
17710CA      CA64741   3.859   1.718  11.876
17711CA      CA64742   2.720   2.857  12.060
17712CA      CA64743   0.540   0.949  10.169
17713CA      CA64744   2.981   4.270  20.220
17714CA      CA64745   2.211   3.601  20.945
17715CA      CA64746   4.474   2.836  17.165
   4.78091   4.78091  28.52229
